<LesHouchesEvents version="3.0">
<header>
<!--
#*********************************************************************
#                                                                    *
#                        MadGraph5_aMC@NLO                           *
#                                                                    *
#                           Going Beyond                             *
#                                                                    *
#                   http://madgraph.hep.uiuc.edu                     *
#                   http://madgraph.phys.ucl.ac.be                   *
#                   http://amcatnlo.cern.ch                          *
#                                                                    *
#                     The MadGraph5_aMC@NLO team                     *
#                                                                    *
#....................................................................*
#                                                                    *
# This file contains all the information necessary to reproduce      *
# the events generated:                                              *
#                                                                    *
# 1. software version                                                *
# 2. proc_card          : code generation info including model       *
# 3. param_card         : model primary parameters in the LH format  *
# 4. run_card           : running parameters (collider and cuts)     *
# 5. pythia_card        : present only if pythia has been run        *
# 6. pgs_card           : present only if pgs has been run           *
# 7. delphes_cards      : present only if delphes has been run       *
#                                                                    *
#                                                                    *
#*********************************************************************
-->
<MGVersion>
#5.2.2.3
</MGVersion>
<MG5ProcCard>
#************************************************************
#*                     MadGraph5_aMC@NLO                    *
#*                                                          *
#*                *                       *                 *
#*                  *        * *        *                   *
#*                    * * * * 5 * * * *                     *
#*                  *        * *        *                   *
#*                *                       *                 *
#*                                                          *
#*                                                          *
#*         VERSION 2.2.3                 2015-02-10         *
#*                                                          *
#*    The MadGraph5_aMC@NLO Development Team - Find us at   *
#*    https://server06.fynu.ucl.ac.be/projects/madgraph     *
#*                                                          *
#************************************************************
#*                                                          *
#*               Command File for MadGraph5_aMC@NLO         *
#*                                                          *
#*     run as ./bin/mg5_aMC  filename                       *
#*                                                          *
#************************************************************
set group_subprocesses Auto
set ignore_six_quark_processes False
set loop_optimized_output True
set gauge unitary
set complex_mass_scheme False
import model sm
define p = g u c d s u~ c~ d~ s~
define j = g u c d s u~ c~ d~ s~
define l+ = e+ mu+
define l- = e- mu-
define vl = ve vm vt
define vl~ = ve~ vm~ vt~
import model Zprime_UFO
generate p p > zph, zph > j j
add process p p > zph, zph > b b~
output Dijet_signal
</MG5ProcCard>
<MGProcCard>
#*********************************************************************
#                        MadGraph/MadEvent                           *
#                   http://madgraph.hep.uiuc.edu                     *
#                                                                    *
#                          proc_card.dat                             *
#*********************************************************************
#                                                                    *
#            This Files is generated by MADGRAPH 5                   *
#                                                                    *
# WARNING: This Files is generated for MADEVENT (compatibility issue)*
#          This files is NOT a valid MG4 proc_card.dat               *
#          Running this in MG4 will NEVER reproduce the result of MG5*
#                                                                    *
#*********************************************************************
#*********************************************************************
# Process(es) requested : mg2 input                                  *
#*********************************************************************
# Begin PROCESS # This is TAG. Do not modify this line
p p > zph , zph > j j           #Process
# Be carefull the coupling are here in MG5 convention
          
end_coup           # End the couplings input

done               # this tells MG there are no more procs
# End PROCESS  # This is TAG. Do not modify this line
#*********************************************************************
# Model information                                                  *
#*********************************************************************
# Begin MODEL  # This is TAG. Do not modify this line
Zprime_UFO
# End   MODEL  # This is TAG. Do not modify this line
#*********************************************************************
# Start multiparticle definitions                                    *
#*********************************************************************
# Begin MULTIPARTICLES # This is TAG. Do not modify this line

# End  MULTIPARTICLES # This is TAG. Do not modify this line
</MGProcCard>
<MGRunCard>
#*********************************************************************
#                       MadGraph5_aMC@NLO                            *
#                                                                    *
#                     run_card.dat MadEvent                          *
#                                                                    *
#  This file is used to set the parameters of the run.               *
#                                                                    *
#  Some notation/conventions:                                        *
#                                                                    *
#   Lines starting with a '# ' are info or comments                  *
#                                                                    *
#   mind the format:   value    = variable     ! comment             *
#*********************************************************************
#
#*******************                                                 
# Running parameters
#*******************                                                 
#                                                                    
#*********************************************************************
# Tag name for the run (one word)                                    *
#*********************************************************************
  tag_1     = run_tag ! name of the run 
#*********************************************************************
# Run to generate the grid pack                                      *
#*********************************************************************
  .false.     = gridpack  !True = setting up the grid pack
#*********************************************************************
# Number of events and rnd seed                                      *
# Warning: Do not generate more than 1M events in a single run       *
# If you want to run Pythia, avoid more than 50k events in a run.    *
#*********************************************************************
  2000 = nevents ! Number of unweighted events requested 
 2649 = iseed   ! rnd seed (0=assigned automatically=default))
#*********************************************************************
# Collider type and energy                                           *
# lpp: 0=No PDF, 1=proton, -1=antiproton, 2=photon from proton,      *
#                                         3=photon from electron     *
#*********************************************************************
        1     = lpp1    ! beam 1 type 
        1     = lpp2    ! beam 2 type
     4000     = ebeam1  ! beam 1 total energy in GeV
     4000     = ebeam2  ! beam 2 total energy in GeV
#*********************************************************************
# Beam polarization from -100 (left-handed) to 100 (right-handed)    *
#*********************************************************************
        0     = polbeam1 ! beam polarization for beam 1
        0     = polbeam2 ! beam polarization for beam 2
#*********************************************************************
# PDF CHOICE: this automatically fixes also alpha_s and its evol.    *
#*********************************************************************
 'nn23lo1'    = pdlabel     ! PDF set                                     
 230000    = lhaid     ! if pdlabel=lhapdf, this is the lhapdf number
#*********************************************************************
# Renormalization and factorization scales                           *
#*********************************************************************
 F        = fixed_ren_scale  ! if .true. use fixed ren scale
 F        = fixed_fac_scale  ! if .true. use fixed fac scale
 91.1880  = scale            ! fixed ren scale
 91.1880  = dsqrt_q2fact1    ! fixed fact scale for pdf1
 91.1880  = dsqrt_q2fact2    ! fixed fact scale for pdf2
 1        = scalefact        ! scale factor for event-by-event scales
#*********************************************************************
# Matching - Warning! ickkw > 1 is still beta
#*********************************************************************
 0        = ickkw            ! 0 no matching, 1 MLM, 2 CKKW matching
 1        = highestmult      ! for ickkw=2, highest mult group
 1        = ktscheme         ! for ickkw=1, 1 Durham kT, 2 Pythia pTE
 1        = alpsfact         ! scale factor for QCD emission vx
 F        = chcluster        ! cluster only according to channel diag
 T        = pdfwgt           ! for ickkw=1, perform pdf reweighting
 5        = asrwgtflavor     ! highest quark flavor for a_s reweight
 T        = clusinfo         ! include clustering tag in output
 3.0      = lhe_version       ! Change the way clustering information pass to shower.        
#*********************************************************************
#**********************************************************
#
#**********************************************************
# Automatic ptj and mjj cuts if xqcut > 0
# (turn off for VBF and single top processes)
#**********************************************************
   T  = auto_ptj_mjj  ! Automatic setting of ptj and mjj
#**********************************************************
#                                                                    
#**********************************
# BW cutoff (M+/-bwcutoff*Gamma)
#**********************************
  15  = bwcutoff      ! (M+/-bwcutoff*Gamma)
#**********************************************************
# Apply pt/E/eta/dr/mij cuts on decay products or not
# (note that etmiss/ptll/ptheavy/ht/sorted cuts always apply)
#**********************************************************
   T  = cut_decays    ! Cut decay products 
#*************************************************************
# Number of helicities to sum per event (0 = all helicities)
# 0 gives more stable result, but longer run time (needed for
# long decay chains e.g.).
# Use >=2 if most helicities contribute, e.g. pure QCD.
#*************************************************************
   0  = nhel          ! Number of helicities used per event
#*******************                                                 
# Standard Cuts
#*******************                                                 
#                                                                    
#*********************************************************************
# Minimum and maximum pt's (for max, -1 means no cut)                *
#*********************************************************************
 20  = ptj       ! minimum pt for the jets 
  0  = ptb       ! minimum pt for the b 
 10  = pta       ! minimum pt for the photons 
 10  = ptl       ! minimum pt for the charged leptons 
  0  = misset    ! minimum missing Et (sum of neutrino's momenta)
  0  = ptheavy   ! minimum pt for one heavy final state
 1.0 = ptonium   ! minimum pt for the quarkonium states
 -1  = ptjmax    ! maximum pt for the jets
 -1  = ptbmax    ! maximum pt for the b
 -1  = ptamax    ! maximum pt for the photons
 -1  = ptlmax    ! maximum pt for the charged leptons
 -1  = missetmax ! maximum missing Et (sum of neutrino's momenta)
#*********************************************************************
# Minimum and maximum E's (in the center of mass frame)              *
#*********************************************************************
  0  = ej     ! minimum E for the jets 
  0  = eb     ! minimum E for the b 
  0  = ea     ! minimum E for the photons 
  0  = el     ! minimum E for the charged leptons 
 -1   = ejmax ! maximum E for the jets
 -1   = ebmax ! maximum E for the b
 -1   = eamax ! maximum E for the photons
 -1   = elmax ! maximum E for the charged leptons
#*********************************************************************
# Maximum and minimum absolute rapidity (for max, -1 means no cut)   *
#*********************************************************************
   5  = etaj    ! max rap for the jets 
  -1  = etab    ! max rap for the b
 2.5  = etaa    ! max rap for the photons 
 2.5  = etal    ! max rap for the charged leptons 
 0.6  = etaonium ! max rap for the quarkonium states
   0  = etajmin ! min rap for the jets
   0  = etabmin ! min rap for the b
   0  = etaamin ! min rap for the photons
   0  = etalmin ! main rap for the charged leptons
#*********************************************************************
# Minimum and maximum DeltaR distance                                *
#*********************************************************************
 0.4 = drjj    ! min distance between jets 
 0   = drbb    ! min distance between b's 
 0.4 = drll    ! min distance between leptons 
 0.4 = draa    ! min distance between gammas 
 0   = drbj    ! min distance between b and jet 
 0.4 = draj    ! min distance between gamma and jet 
 0.4 = drjl    ! min distance between jet and lepton 
 0   = drab    ! min distance between gamma and b 
 0   = drbl    ! min distance between b and lepton 
 0.4 = dral    ! min distance between gamma and lepton 
 -1  = drjjmax ! max distance between jets
 -1  = drbbmax ! max distance between b's
 -1  = drllmax ! max distance between leptons
 -1  = draamax ! max distance between gammas
 -1  = drbjmax ! max distance between b and jet
 -1  = drajmax ! max distance between gamma and jet
 -1  = drjlmax ! max distance between jet and lepton
 -1  = drabmax ! max distance between gamma and b
 -1  = drblmax ! max distance between b and lepton
 -1  = dralmax ! maxdistance between gamma and lepton
#*********************************************************************
# Minimum and maximum invariant mass for pairs                       *
# WARNING: for four lepton final state mmll cut require to have      *
#          different lepton masses for each flavor!                  *           
#*********************************************************************
 0   = mmjj    ! min invariant mass of a jet pair 
 0   = mmbb    ! min invariant mass of a b pair 
 0   = mmaa    ! min invariant mass of gamma gamma pair
 0   = mmll    ! min invariant mass of l+l- (same flavour) lepton pair
 -1  = mmjjmax ! max invariant mass of a jet pair
 -1  = mmbbmax ! max invariant mass of a b pair
 -1  = mmaamax ! max invariant mass of gamma gamma pair
 -1  = mmllmax ! max invariant mass of l+l- (same flavour) lepton pair
#*********************************************************************
# Minimum and maximum invariant mass for all letpons                 *
#*********************************************************************
 0   = mmnl    ! min invariant mass for all letpons (l+- and vl) 
 -1  = mmnlmax ! max invariant mass for all letpons (l+- and vl) 
#*********************************************************************
# Minimum and maximum pt for 4-momenta sum of leptons                *
#*********************************************************************
 0   = ptllmin  ! Minimum pt for 4-momenta sum of leptons(l and vl)
 -1  = ptllmax  ! Maximum pt for 4-momenta sum of leptons(l and vl)
#*********************************************************************
# Inclusive cuts                                                     *
#*********************************************************************
 0  = xptj ! minimum pt for at least one jet  
 0  = xptb ! minimum pt for at least one b 
 0  = xpta ! minimum pt for at least one photon 
 0  = xptl ! minimum pt for at least one charged lepton 
#*********************************************************************
# Control the pt's of the jets sorted by pt                          *
#*********************************************************************
 0   = ptj1min ! minimum pt for the leading jet in pt
 0   = ptj2min ! minimum pt for the second jet in pt
 0   = ptj3min ! minimum pt for the third jet in pt
 0   = ptj4min ! minimum pt for the fourth jet in pt
 -1  = ptj1max ! maximum pt for the leading jet in pt 
 -1  = ptj2max ! maximum pt for the second jet in pt
 -1  = ptj3max ! maximum pt for the third jet in pt
 -1  = ptj4max ! maximum pt for the fourth jet in pt
 0   = cutuse  ! reject event if fails any (0) / all (1) jet pt cuts
#*********************************************************************
# Control the pt's of leptons sorted by pt                           *
#*********************************************************************
 0   = ptl1min ! minimum pt for the leading lepton in pt
 0   = ptl2min ! minimum pt for the second lepton in pt
 0   = ptl3min ! minimum pt for the third lepton in pt
 0   = ptl4min ! minimum pt for the fourth lepton in pt
 -1  = ptl1max ! maximum pt for the leading lepton in pt 
 -1  = ptl2max ! maximum pt for the second lepton in pt
 -1  = ptl3max ! maximum pt for the third lepton in pt
 -1  = ptl4max ! maximum pt for the fourth lepton in pt
#*********************************************************************
# Control the Ht(k)=Sum of k leading jets                            *
#*********************************************************************
 0   = htjmin ! minimum jet HT=Sum(jet pt)
 -1  = htjmax ! maximum jet HT=Sum(jet pt)
 0   = ihtmin  !inclusive Ht for all partons (including b)
 -1  = ihtmax  !inclusive Ht for all partons (including b)
 0   = ht2min ! minimum Ht for the two leading jets
 0   = ht3min ! minimum Ht for the three leading jets
 0   = ht4min ! minimum Ht for the four leading jets
 -1  = ht2max ! maximum Ht for the two leading jets
 -1  = ht3max ! maximum Ht for the three leading jets
 -1  = ht4max ! maximum Ht for the four leading jets
#***********************************************************************
# Photon-isolation cuts, according to hep-ph/9801442                   *
# When ptgmin=0, all the other parameters are ignored                  *
# When ptgmin>0, pta and draj are not going to be used                 *
#***********************************************************************
   0 = ptgmin ! Min photon transverse momentum
 0.4 = R0gamma ! Radius of isolation code
 1.0 = xn ! n parameter of eq.(3.4) in hep-ph/9801442
 1.0 = epsgamma ! epsilon_gamma parameter of eq.(3.4) in hep-ph/9801442
 .true. = isoEM ! isolate photons from EM energy (photons and leptons)
#*********************************************************************
# WBF cuts                                                           *
#*********************************************************************
 0   = xetamin ! minimum rapidity for two jets in the WBF case  
 0   = deltaeta ! minimum rapidity for two jets in the WBF case 
#*********************************************************************
# KT DURHAM CUT                                                      *
#*********************************************************************
 -1    =  ktdurham        
 0.4  =  dparameter 
#*********************************************************************
# maximal pdg code for quark to be considered as a light jet         *
# (otherwise b cuts are applied)                                     *
#*********************************************************************
 4 = maxjetflavor    ! Maximum jet pdg code
#*********************************************************************
# Jet measure cuts                                                   *
#*********************************************************************
 0   = xqcut   ! minimum kt jet measure between partons
#*********************************************************************
#
#*********************************************************************
# Store info for systematics studies                                 *
# WARNING: If use_syst is T, matched Pythia output is                *
#          meaningful ONLY if plotted taking matchscale              *
#          reweighting into account!                                 *
#*********************************************************************
   F  = use_syst      ! Enable systematics studies
#
#**************************************
# Parameter of the systematics study
#  will be used by SysCalc (if installed)
#**************************************                                  
#
0.5 1 2 = sys_scalefact  # factorization/renormalization scale factor
0.5 1 2 = sys_alpsfact  # \alpha_s emission scale factors
30 50 = sys_matchscale # variation of merging scale
# PDF sets and number of members (0 or none for all members).
CT10nlo.LHgrid = sys_pdf # matching scales
# MSTW2008nlo68cl.LHgrid 1  = sys_pdf
</MGRunCard>
<slha>
######################################################################
## PARAM_CARD AUTOMATICALY GENERATED BY MG5 FOLLOWING UFO MODEL   ####
######################################################################
##                                                                  ##
##  Width set on Auto will be computed following the information    ##
##        present in the decay.py files of the model.               ##
##        See  arXiv:1402.1178 for more details.                    ##
##                                                                  ##
######################################################################

###################################
## INFORMATION FOR CKMBLOCK
###################################
Block ckmblock 
    1 2.277360e-01 # cabi 

###################################
## INFORMATION FOR FRBLOCK
###################################
Block frblock 
    1 1.400000e+00 # gz 

###################################
## INFORMATION FOR MASS
###################################
Block mass 
    1 5.040000e-03 # MD 
    2 2.550000e-03 # MU 
    3 1.010000e-01 # MS 
    4 1.270000e+00 # MC 
    5 4.700000e+00 # MB 
    6 1.720000e+02 # MT 
   11 5.110000e-04 # Me 
   13 1.056600e-01 # MM 
   15 1.777000e+00 # MTA 
   23 9.118760e+01 # MZ 
   25 1.200000e+02 # MH 
  10030 2.800000e+03 # MZph 
  10031 3.000000e+02 # MZpl 
## Dependent parameters, given by model restrictions.
## Those values should be edited following the 
## analytical expression. MG5 ignores those values 
## but they are important for interfacing the output of MG5
## to external program such as Pythia.
  12 0.000000 # ve : 0.0 
  14 0.000000 # vm : 0.0 
  16 0.000000 # vt : 0.0 
  21 0.000000 # g : 0.0 
  22 0.000000 # a : 0.0 
  24 79.824360 # w+ : cmath.sqrt(MZ__exp__2/2. + cmath.sqrt(MZ__exp__4/4. - (aEW*cmath.pi*MZ__exp__2)/(Gf*sqrt__2))) 

###################################
## INFORMATION FOR SMINPUTS
###################################
Block sminputs 
    1 1.279000e+02 # aEWM1 
    2 1.166370e-05 # Gf 
    3 1.184000e-01 # aS 

###################################
## INFORMATION FOR YUKAWA
###################################
Block yukawa 
    1 5.040000e-03 # ymdo 
    2 2.550000e-03 # ymup 
    3 1.010000e-01 # yms 
    4 1.270000e+00 # ymc 
    5 4.700000e+00 # ymb 
    6 1.720000e+02 # ymt 
   11 5.110000e-04 # yme 
   13 1.056600e-01 # ymm 
   15 1.777000e+00 # ymtau 

###################################
## INFORMATION FOR DECAY
###################################
DECAY   6 1.508336e+00 # WT 
DECAY  23 2.495200e+00 # WZ 
DECAY  24 2.085000e+00 # WW 
DECAY  25 5.753088e-03 # WH 
## Dependent parameters, given by model restrictions.
## Those values should be edited following the 
## analytical expression. MG5 ignores those values 
## but they are important for interfacing the output of MG5
## to external program such as Pythia.
DECAY  1 0.000000 # d : 0.0 
DECAY  2 0.000000 # u : 0.0 
DECAY  3 0.000000 # s : 0.0 
DECAY  4 0.000000 # c : 0.0 
DECAY  5 0.000000 # b : 0.0 
DECAY  11 0.000000 # e- : 0.0 
DECAY  12 0.000000 # ve : 0.0 
DECAY  13 0.000000 # mu- : 0.0 
DECAY  14 0.000000 # vm : 0.0 
DECAY  15 0.000000 # ta- : 0.0 
DECAY  16 0.000000 # vt : 0.0 
DECAY  21 0.000000 # g : 0.0 
DECAY  22 0.000000 # a : 0.0 
DECAY  10030 0.308725 # zph : (gz__exp__2*MZph*(5 + cmath.sqrt(1 - (4*MT__exp__2)/MZph__exp__2)))/(144.*cmath.pi) 
DECAY  10031 0.132629 # zpl : (5*gz__exp__2*MZpl)/(144.*cmath.pi) 
#===========================================================
# QUANTUM NUMBERS OF NEW STATE(S) (NON SM PDG CODE)
#===========================================================

Block QNUMBERS 10030  # zph 
        1 0  # 3 times electric charge
        2 3  # number of spin states (2S+1)
        3 1  # colour rep (1: singlet, 3: triplet, 8: octet)
        4 0  # Particle/Antiparticle distinction (0=own anti)
Block QNUMBERS 10031  # zpl 
        1 0  # 3 times electric charge
        2 3  # number of spin states (2S+1)
        3 1  # colour rep (1: singlet, 3: triplet, 8: octet)
        4 0  # Particle/Antiparticle distinction (0=own anti)
</slha>
## END BANNER##
<MGGenerationInfo>
#  Number of Events        :         3869
#  Integrated weight (pb)  :  0.50304E-02
#  Max wgt                 :  0.19236E-05
#  Average wgt             :  0.13002E-05
</MGGenerationInfo>
</header>
<init>
     2212     2212  0.40000000000E+04  0.40000000000E+04 0 0  247000  247000 2   1
  0.50355049865E-02  0.12568742170E-04  0.19235590000E-05   0
</init>
<event>
 5   0  0.1904553E-05  0.2874038E+04  0.7818609E-02  0.8280644E-01
        2   -1    0    0  501    0  0.00000000000E+00  0.00000000000E+00  0.16012852764E+04  0.16012852764E+04  0.25500000920E-02 0.  1.
       -2   -1    0    0    0  501  0.00000000000E+00  0.00000000000E+00 -0.12896040230E+04  0.12896040230E+04  0.25500000920E-02 0. -1.
    10030    2    1    2    0    0  0.00000000000E+00  0.00000000000E+00  0.31168125335E+03  0.28908892994E+04  0.28740382283E+04 0.  0.
        1    1    3    3  502    0  0.52646460209E+03 -0.13149412500E+04 -0.88044314804E+02  0.14191501927E+04  0.50400001928E-02 0. -1.
       -1    1    3    3    0  502 -0.52646460209E+03  0.13149412500E+04  0.39972556816E+03  0.14717391066E+04  0.50400001928E-02 0.  1.
</event>
<event>
 5   0  0.1904553E-05  0.2369835E+04  0.7818609E-02  0.8450884E-01
        2   -1    0    0  501    0  0.00000000000E+00  0.00000000000E+00  0.20595613660E+04  0.20595613660E+04  0.25500000920E-02 0. -1.
       -2   -1    0    0    0  501  0.00000000000E+00  0.00000000000E+00 -0.68171314644E+03  0.68171314645E+03  0.25500000920E-02 0.  1.
    10030    2    1    2    0    0  0.00000000000E+00  0.00000000000E+00  0.13778482196E+04  0.27412745125E+04  0.23698354872E+04 0.  0.
        1    1    3    3  502    0  0.11504973470E+04 -0.26061964395E+03  0.55978698485E+03  0.13057289966E+04  0.50400001928E-02 0. -1.
       -1    1    3    3    0  502 -0.11504973470E+04  0.26061964395E+03  0.81806123473E+03  0.14355455158E+04  0.50400001928E-02 0.  1.
</event>
<event>
 5   0  0.1874272E-05  0.2838601E+04  0.7818609E-02  0.8291383E-01
       -2   -1    0    0    0  501  0.00000000000E+00  0.00000000000E+00  0.93651882545E+03  0.93651882545E+03  0.25500000920E-02 0. -1.
        2   -1    0    0  501    0  0.00000000000E+00  0.00000000000E+00 -0.21509600817E+04  0.21509600817E+04  0.25500000920E-02 0.  1.
    10030    2    1    2    0    0  0.00000000000E+00  0.00000000000E+00 -0.12144412562E+04  0.30874789071E+04  0.28386014932E+04 0.  0.
        3    1    3    3  502    0 -0.31346216930E+03  0.13585248941E+04 -0.31828714364E+03  0.14300892055E+04  0.10100000352E+00 0. -1.
       -3    1    3    3    0  502  0.31346216930E+03 -0.13585248941E+04 -0.89615411260E+03  0.16573897017E+04  0.10100000352E+00 0.  1.
</event>
<event>
 5   0  0.1904553E-05  0.2782816E+04  0.7818609E-02  0.8308623E-01
        2   -1    0    0  501    0  0.00000000000E+00  0.00000000000E+00  0.13676199691E+04  0.13676199691E+04  0.25500000920E-02 0. -1.
       -2   -1    0    0    0  501  0.00000000000E+00  0.00000000000E+00 -0.14156098161E+04  0.14156098161E+04  0.25500000920E-02 0.  1.
    10030    2    1    2    0    0  0.00000000000E+00  0.00000000000E+00 -0.47989846938E+02  0.27832297852E+04  0.27828160219E+04 0.  0.
        1    1    3    3  502    0  0.12009607060E+04 -0.45560764629E+03 -0.55898688741E+03  0.14008394930E+04  0.50400001928E-02 0.  1.
       -1    1    3    3    0  502 -0.12009607060E+04  0.45560764629E+03  0.51099704047E+03  0.13823902923E+04  0.50400001928E-02 0. -1.
</event>
<event>
 5   0  0.1874272E-05  0.2790232E+04  0.7818609E-02  0.8306307E-01
        2   -1    0    0  501    0  0.00000000000E+00  0.00000000000E+00  0.11226702638E+04  0.11226702639E+04  0.25500000920E-02 0. -1.
       -2   -1    0    0    0  501  0.00000000000E+00  0.00000000000E+00 -0.17336779378E+04  0.17336779378E+04  0.25500000920E-02 0.  1.
    10030    2    1    2    0    0  0.00000000000E+00  0.00000000000E+00 -0.61100767394E+03  0.28563482016E+04  0.27902320103E+04 0.  0.
        3    1    3    3  502    0  0.79798986131E+03  0.72642603566E+03 -0.12106881331E+04  0.16218040480E+04  0.10100000352E+00 0.  1.
       -3    1    3    3    0  502 -0.79798986131E+03 -0.72642603566E+03  0.59968045921E+03  0.12345441537E+04  0.10100000352E+00 0. -1.
</event>
<event>
 5   0  0.7388013E-06  0.3025340E+04  0.7818609E-02  0.8236532E-01
        1   -1    0    0  501    0  0.00000000000E+00  0.00000000000E+00  0.23344401220E+04  0.23344401220E+04  0.50400001928E-02 0. -1.
       -1   -1    0    0    0  501  0.00000000000E+00  0.00000000000E+00 -0.98017966660E+03  0.98017966661E+03  0.50400001928E-02 0.  1.
    10030    2    1    2    0    0  0.00000000000E+00  0.00000000000E+00  0.13542604554E+04  0.33146197887E+04  0.30253401399E+04 0.  0.
        1    1    3    3  502    0  0.12722798205E+03  0.12619361621E+04  0.15802690860E+04  0.20263070402E+04  0.50400001928E-02 0. -1.
       -1    1    3    3    0  502 -0.12722798205E+03 -0.12619361621E+04 -0.22600863060E+03  0.12883127485E+04  0.50400001928E-02 0.  1.
</event>
<event>
 5   0  0.7555871E-06  0.2769612E+04  0.7818609E-02  0.8312765E-01
        1   -1    0    0  501    0  0.00000000000E+00  0.00000000000E+00  0.20648571330E+04  0.20648571330E+04  0.50400001928E-02 0.  1.
       -1   -1    0    0    0  501  0.00000000000E+00  0.00000000000E+00 -0.92872666649E+03  0.92872666650E+03  0.50400001928E-02 0. -1.
    10030    2    1    2    0    0  0.00000000000E+00  0.00000000000E+00  0.11361304665E+04  0.29935837995E+04  0.27696121620E+04 0.  0.
        3    1    3    3  502    0 -0.76570126157E+03 -0.11037364610E+04  0.93165350313E+03  0.16347815932E+04  0.10100000352E+00 0. -1.
       -3    1    3    3    0  502  0.76570126157E+03  0.11037364610E+04  0.20447696337E+03  0.13588022063E+04  0.10100000352E+00 0.  1.
</event>
<event>
 5   0  0.1904553E-05  0.2817133E+04  0.7818609E-02  0.8297969E-01
       -2   -1    0    0    0  501  0.00000000000E+00  0.00000000000E+00  0.11147832342E+04  0.11147832342E+04  0.25500000920E-02 0.  1.
        2   -1    0    0  501    0  0.00000000000E+00  0.00000000000E+00 -0.17797714081E+04  0.17797714081E+04  0.25500000920E-02 0. -1.
    10030    2    1    2    0    0  0.00000000000E+00  0.00000000000E+00 -0.66498817397E+03  0.28945546423E+04  0.28171328165E+04 0.  0.
        1    1    3    3  502    0  0.13307960661E+04 -0.45233800847E+02 -0.80445993482E+03  0.15557056447E+04  0.50400001928E-02 0. -1.
       -1    1    3    3    0  502 -0.13307960661E+04  0.45233800847E+02  0.13947176085E+03  0.13388489976E+04  0.50400001928E-02 0.  1.
</event>
<event>
 5   0  0.7681342E-06  0.2808503E+04  0.7818609E-02  0.8300633E-01
        1   -1    0    0  501    0  0.00000000000E+00  0.00000000000E+00  0.17747355711E+04  0.17747355711E+04  0.50400001928E-02 0. -1.
       -1   -1    0    0    0  501  0.00000000000E+00  0.00000000000E+00 -0.11111075272E+04  0.11111075273E+04  0.50400001928E-02 0.  1.
    10030    2    1    2    0    0  0.00000000000E+00  0.00000000000E+00  0.66362804389E+03  0.28858430984E+04  0.28085028410E+04 0.  0.
        2    1    3    3  502    0 -0.12164330241E+03  0.10219764078E+04  0.13134699616E+04  0.16686630011E+04  0.25500000920E-02 0. -1.
       -2    1    3    3    0  502  0.12164330241E+03 -0.10219764078E+04 -0.64984191774E+03  0.12171800973E+04  0.25500000920E-02 0.  1.
</event>
<event>
 5   0  0.1904553E-05  0.2806724E+04  0.7818609E-02  0.8301184E-01
        2   -1    0    0  501    0  0.00000000000E+00  0.00000000000E+00  0.12997635077E+04  0.12997635077E+04  0.25500000920E-02 0. -1.
       -2   -1    0    0    0  501  0.00000000000E+00  0.00000000000E+00 -0.15152178492E+04  0.15152178492E+04  0.25500000920E-02 0.  1.
    10030    2    1    2    0    0  0.00000000000E+00  0.00000000000E+00 -0.21545434150E+03  0.28149813568E+04  0.28067239739E+04 0.  0.
        1    1    3    3  502    0  0.13261309732E+04 -0.45348814424E+03 -0.35752461881E+02  0.14019818449E+04  0.50400001928E-02 0.  1.
       -1    1    3    3    0  502 -0.13261309732E+04  0.45348814424E+03 -0.17970187962E+03  0.14129995119E+04  0.50400001928E-02 0. -1.
</event>
<event>
 5   0  0.6288000E-06  0.2830477E+04  0.7818609E-02  0.8293868E-01
        4   -1    0    0  501    0  0.00000000000E+00  0.00000000000E+00  0.11408447573E+04  0.11408454642E+04  0.12699999809E+01 0. -1.
       -4   -1    0    0    0  501  0.00000000000E+00  0.00000000000E+00 -0.17556277728E+04  0.17556282321E+04  0.12699999809E+01 0.  1.
    10030    2    1    2    0    0  0.00000000000E+00  0.00000000000E+00 -0.61478301545E+03  0.28964736963E+04  0.28304772950E+04 0.  0.
        3    1    3    3  502    0  0.40385932661E+03 -0.12397045725E+04 -0.87061597374E+03  0.15677824998E+04  0.10100000352E+00 0.  1.
       -3    1    3    3    0  502 -0.40385932661E+03  0.12397045725E+04  0.25583295829E+03  0.13286911965E+04  0.10100000352E+00 0. -1.
</event>
<event>
 5   0  0.1814230E-05  0.2569631E+04  0.7818609E-02  0.8378591E-01
       -2   -1    0    0    0  501  0.00000000000E+00  0.00000000000E+00  0.86156410434E+03  0.86156410435E+03  0.25500000920E-02 0. -1.
        2   -1    0    0  501    0  0.00000000000E+00  0.00000000000E+00 -0.19159926416E+04  0.19159926416E+04  0.25500000920E-02 0.  1.
    10030    2    1    2    0    0  0.00000000000E+00  0.00000000000E+00 -0.10544285372E+04  0.27775567459E+04  0.25696307004E+04 0.  0.
        5    1    3    3  502    0 -0.37685816505E+03  0.79598104935E+03  0.48396033512E+03  0.10049117391E+04  0.46999998093E+01 0. -1.
       -5    1    3    3    0  502  0.37685816505E+03 -0.79598104935E+03 -0.15383888724E+04  0.17726450068E+04  0.46999998093E+01 0.  1.
</event>
<event>
 5   0  0.7613444E-06  0.2819752E+04  0.7818609E-02  0.8297162E-01
       -1   -1    0    0    0  501  0.00000000000E+00  0.00000000000E+00  0.11541726518E+04  0.11541726518E+04  0.50400001928E-02 0. -1.
        1   -1    0    0  501    0  0.00000000000E+00  0.00000000000E+00 -0.17222301940E+04  0.17222301940E+04  0.50400001928E-02 0.  1.
    10030    2    1    2    0    0  0.00000000000E+00  0.00000000000E+00 -0.56805754215E+03  0.28764028458E+04  0.28197524644E+04 0.  0.
        5    1    3    3  502    0  0.57532658672E+03  0.11933260047E+04 -0.77611147136E+03  0.15353822784E+04  0.46999998093E+01 0.  1.
       -5    1    3    3    0  502 -0.57532658672E+03 -0.11933260047E+04  0.20805392921E+03  0.13410205674E+04  0.46999998093E+01 0. -1.
</event>
<event>
 5   0  0.7388013E-06  0.2824671E+04  0.7818609E-02  0.8295650E-01
        1   -1    0    0  501    0  0.00000000000E+00  0.00000000000E+00  0.14515585821E+04  0.14515585821E+04  0.50400001928E-02 0.  1.
       -1   -1    0    0    0  501  0.00000000000E+00  0.00000000000E+00 -0.13741721650E+04  0.13741721650E+04  0.50400001928E-02 0. -1.
    10030    2    1    2    0    0  0.00000000000E+00  0.00000000000E+00  0.77386417143E+02  0.28257307471E+04  0.28246708831E+04 0.  0.
        1    1    3    3  502    0 -0.72628799472E+03 -0.10277656672E+04  0.67994455445E+03  0.14304268996E+04  0.50400001928E-02 0.  1.
       -1    1    3    3    0  502  0.72628799472E+03  0.10277656672E+04 -0.60255813731E+03  0.13953038475E+04  0.50400001928E-02 0. -1.
</event>
<event>
 5   0  0.7555871E-06  0.2801167E+04  0.7818609E-02  0.8302906E-01
        1   -1    0    0  501    0  0.00000000000E+00  0.00000000000E+00  0.17633287224E+04  0.17633287224E+04  0.50400001928E-02 0.  1.
       -1   -1    0    0    0  501  0.00000000000E+00  0.00000000000E+00 -0.11124610364E+04  0.11124610364E+04  0.50400001928E-02 0. -1.
    10030    2    1    2    0    0  0.00000000000E+00  0.00000000000E+00  0.65086768605E+03  0.28757897588E+04  0.28011672553E+04 0.  0.
        3    1    3    3  502    0  0.14264456439E+03  0.16979709606E+03  0.17451901728E+04  0.17592234864E+04  0.10100000352E+00 0.  1.
       -3    1    3    3    0  502 -0.14264456439E+03 -0.16979709606E+03 -0.10943224867E+04  0.11165662724E+04  0.10100000352E+00 0. -1.
</event>
<event>
 5   0  0.7555871E-06  0.2831558E+04  0.7818609E-02  0.8293537E-01
        1   -1    0    0  501    0  0.00000000000E+00  0.00000000000E+00  0.11210691018E+04  0.11210691018E+04  0.50400001928E-02 0. -1.
       -1   -1    0    0    0  501  0.00000000000E+00  0.00000000000E+00 -0.17879628889E+04  0.17879628889E+04  0.50400001928E-02 0.  1.
    10030    2    1    2    0    0  0.00000000000E+00  0.00000000000E+00 -0.66689378709E+03  0.29090319907E+04  0.28315578397E+04 0.  0.
        3    1    3    3  502    0 -0.38132031369E+03  0.97356117885E+03  0.64724079469E+03  0.12296939485E+04  0.10100000352E+00 0. -1.
       -3    1    3    3    0  502  0.38132031369E+03 -0.97356117885E+03 -0.13141345818E+04  0.16793380421E+04  0.10100000352E+00 0.  1.
</event>
<event>
 5   0  0.1904553E-05  0.2800863E+04  0.7818609E-02  0.8303000E-01
       -2   -1    0    0    0  501  0.00000000000E+00  0.00000000000E+00  0.14399218293E+04  0.14399218293E+04  0.25500000920E-02 0.  1.
        2   -1    0    0  501    0  0.00000000000E+00  0.00000000000E+00 -0.13620245173E+04  0.13620245173E+04  0.25500000920E-02 0. -1.
    10030    2    1    2    0    0  0.00000000000E+00  0.00000000000E+00  0.77897312003E+02  0.28019463466E+04  0.28008633201E+04 0.  0.
        1    1    3    3  502    0 -0.65301082705E+03 -0.10259109411E+04  0.73368996683E+03  0.14202877761E+04  0.50400001928E-02 0.  1.
       -1    1    3    3    0  502  0.65301082705E+03  0.10259109411E+04 -0.65579265483E+03  0.13816585705E+04  0.50400001928E-02 0. -1.
</event>
<event>
 5   0  0.7509685E-06  0.2831782E+04  0.7818609E-02  0.8293469E-01
       -1   -1    0    0    0  501  0.00000000000E+00  0.00000000000E+00  0.14930516621E+04  0.14930516621E+04  0.50400001928E-02 0. -1.
        1   -1    0    0  501    0  0.00000000000E+00  0.00000000000E+00 -0.13427182466E+04  0.13427182466E+04  0.50400001928E-02 0.  1.
    10030    2    1    2    0    0  0.00000000000E+00  0.00000000000E+00  0.15033341550E+03  0.28357699087E+04  0.28317822726E+04 0.  0.
        4    1    3    3  502    0  0.10465579590E+03  0.13319417668E+04 -0.39424105345E+03  0.13930001173E+04  0.12699999809E+01 0.  1.
       -4    1    3    3    0  502 -0.10465579590E+03 -0.13319417668E+04  0.54457446895E+03  0.14427697914E+04  0.12699999809E+01 0. -1.
</event>
<event>
 5   0  0.7388013E-06  0.2792663E+04  0.7818609E-02  0.8305550E-01
       -1   -1    0    0    0  501  0.00000000000E+00  0.00000000000E+00  0.11171881897E+04  0.11171881897E+04  0.50400001928E-02 0.  1.
        1   -1    0    0  501    0  0.00000000000E+00  0.00000000000E+00 -0.17452217169E+04  0.17452217169E+04  0.50400001928E-02 0. -1.
    10030    2    1    2    0    0  0.00000000000E+00  0.00000000000E+00 -0.62803352725E+03  0.28624099066E+04  0.27926625937E+04 0.  0.
        1    1    3    3  502    0  0.12527440998E+04 -0.39687551125E+03 -0.79789097945E+03  0.15373704713E+04  0.50400001928E-02 0. -1.
       -1    1    3    3    0  502 -0.12527440998E+04  0.39687551125E+03  0.16985745220E+03  0.13250394353E+04  0.50400001928E-02 0.  1.
</event>
<event>
 5   0  0.1832502E-05  0.2761434E+04  0.7818609E-02  0.8315343E-01
        2   -1    0    0  501    0  0.00000000000E+00  0.00000000000E+00  0.24293705148E+04  0.24293705148E+04  0.25500000920E-02 0.  1.
       -2   -1    0    0    0  501  0.00000000000E+00  0.00000000000E+00 -0.78472153244E+03  0.78472153244E+03  0.25500000920E-02 0. -1.
    10030    2    1    2    0    0  0.00000000000E+00  0.00000000000E+00  0.16446489824E+04  0.32140920472E+04  0.27614339414E+04 0.  0.
        2    1    3    3  502    0 -0.11179440066E+04 -0.40411468992E+03  0.48638985140E+01  0.11887519262E+04  0.25500000920E-02 0. -1.
       -2    1    3    3    0  502  0.11179440066E+04  0.40411468992E+03  0.16397850838E+04  0.20253401210E+04  0.25500000920E-02 0.  1.
</event>
<event>
 5   0  0.7555871E-06  0.2497623E+04  0.7818609E-02  0.8403833E-01
        1   -1    0    0  501    0  0.00000000000E+00  0.00000000000E+00  0.11784417919E+04  0.11784417919E+04  0.50400001928E-02 0.  1.
       -1   -1    0    0    0  501  0.00000000000E+00  0.00000000000E+00 -0.13233837442E+04  0.13233837442E+04  0.50400001928E-02 0. -1.
    10030    2    1    2    0    0  0.00000000000E+00  0.00000000000E+00 -0.14494195227E+03  0.25018255361E+04  0.24976234391E+04 0.  0.
        3    1    3    3  502    0 -0.21338099050E+03 -0.12261848455E+04 -0.17496603985E+03  0.12568507659E+04  0.10100000352E+00 0. -1.
       -3    1    3    3    0  502  0.21338099050E+03  0.12261848455E+04  0.30024087579E+02  0.12449747702E+04  0.10100000352E+00 0.  1.
</event>
<event>
 5   0  0.1874272E-05  0.2800867E+04  0.7818609E-02  0.8302999E-01
        2   -1    0    0  501    0  0.00000000000E+00  0.00000000000E+00  0.12747563372E+04  0.12747563373E+04  0.25500000920E-02 0. -1.
       -2   -1    0    0    0  501  0.00000000000E+00  0.00000000000E+00 -0.15385006426E+04  0.15385006426E+04  0.25500000920E-02 0.  1.
    10030    2    1    2    0    0  0.00000000000E+00  0.00000000000E+00 -0.26374430538E+03  0.28132569799E+04  0.28008666116E+04 0.  0.
        3    1    3    3  502    0 -0.21055398468E+03  0.62493313476E+03 -0.13727884362E+04  0.15229650371E+04  0.10100000352E+00 0.  1.
       -3    1    3    3    0  502  0.21055398468E+03 -0.62493313476E+03  0.11090441308E+04  0.12902919428E+04  0.10100000352E+00 0. -1.
</event>
<event>
 5   0  0.7388013E-06  0.2810188E+04  0.7818609E-02  0.8300112E-01
        1   -1    0    0  501    0  0.00000000000E+00  0.00000000000E+00  0.16205036782E+04  0.16205036782E+04  0.50400001928E-02 0.  1.
       -1   -1    0    0    0  501  0.00000000000E+00  0.00000000000E+00 -0.12183182745E+04  0.12183182745E+04  0.50400001928E-02 0. -1.
    10030    2    1    2    0    0  0.00000000000E+00  0.00000000000E+00  0.40218540368E+03  0.28388219527E+04  0.28101880685E+04 0.  0.
        1    1    3    3  502    0 -0.12844628017E+03  0.10132111041E+04 -0.77372378834E+03  0.12813054628E+04  0.50400001928E-02 0. -1.
       -1    1    3    3    0  502  0.12844628017E+03 -0.10132111041E+04  0.11759091920E+04  0.15575164899E+04  0.50400001928E-02 0.  1.
</event>
<event>
 5   0  0.1832502E-05  0.2778384E+04  0.7818609E-02  0.8310011E-01
       -2   -1    0    0    0  501  0.00000000000E+00  0.00000000000E+00  0.12153187052E+04  0.12153187052E+04  0.25500000920E-02 0. -1.
        2   -1    0    0  501    0  0.00000000000E+00  0.00000000000E+00 -0.15879412729E+04  0.15879412729E+04  0.25500000920E-02 0.  1.
    10030    2    1    2    0    0  0.00000000000E+00  0.00000000000E+00 -0.37262256770E+03  0.28032599780E+04  0.27783842294E+04 0.  0.
        2    1    3    3  502    0 -0.93081123091E+03  0.10276069689E+04 -0.27350902862E+03  0.14132207254E+04  0.25500000920E-02 0.  1.
       -2    1    3    3    0  502  0.93081123091E+03 -0.10276069689E+04 -0.99113539082E+02  0.13900392526E+04  0.25500000920E-02 0. -1.
</event>
<event>
 5   0  0.7681342E-06  0.2845913E+04  0.7818609E-02  0.8289154E-01
       -1   -1    0    0    0  501  0.00000000000E+00  0.00000000000E+00  0.21659269202E+04  0.21659269202E+04  0.50400001928E-02 0.  1.
        1   -1    0    0  501    0  0.00000000000E+00  0.00000000000E+00 -0.93484463505E+03  0.93484463506E+03  0.50400001928E-02 0. -1.
    10030    2    1    2    0    0  0.00000000000E+00  0.00000000000E+00  0.12310822851E+04  0.31007715552E+04  0.28459129721E+04 0.  0.
        2    1    3    3  502    0 -0.27405135049E+02  0.12156775535E+04  0.14207655485E+04  0.18700795971E+04  0.25500000920E-02 0.  1.
       -2    1    3    3    0  502  0.27405135049E+02 -0.12156775535E+04 -0.18968326344E+03  0.12306919582E+04  0.25500000920E-02 0. -1.
</event>
<event>
 5   0  0.1874272E-05  0.2791020E+04  0.7818609E-02  0.8306062E-01
        2   -1    0    0  501    0  0.00000000000E+00  0.00000000000E+00  0.15936798328E+04  0.15936798328E+04  0.25500000920E-02 0. -1.
       -2   -1    0    0    0  501  0.00000000000E+00  0.00000000000E+00 -0.12219824502E+04  0.12219824502E+04  0.25500000920E-02 0.  1.
    10030    2    1    2    0    0  0.00000000000E+00  0.00000000000E+00  0.37169738258E+03  0.28156622830E+04  0.27910204492E+04 0.  0.
        3    1    3    3  502    0  0.13814388937E+04  0.81667340517E+02  0.42432096653E+01  0.13838572855E+04  0.10100000352E+00 0.  1.
       -3    1    3    3    0  502 -0.13814388937E+04 -0.81667340517E+02  0.36745417292E+03  0.14318049975E+04  0.10100000352E+00 0. -1.
</event>
<event>
 5   0  0.1814230E-05  0.2675806E+04  0.7818609E-02  0.8342898E-01
       -2   -1    0    0    0  501  0.00000000000E+00  0.00000000000E+00  0.78198408586E+03  0.78198408587E+03  0.25500000920E-02 0.  1.
        2   -1    0    0  501    0  0.00000000000E+00  0.00000000000E+00 -0.22890289766E+04  0.22890289766E+04  0.25500000920E-02 0. -1.
    10030    2    1    2    0    0  0.00000000000E+00  0.00000000000E+00 -0.15070448907E+04  0.30710130625E+04  0.26758058463E+04 0.  0.
        5    1    3    3  502    0 -0.10765929314E+04  0.67826230080E+03 -0.12279392267E+04  0.17683181057E+04  0.46999998093E+01 0. -1.
       -5    1    3    3    0  502  0.10765929314E+04 -0.67826230080E+03 -0.27910566401E+03  0.13026949567E+04  0.46999998093E+01 0.  1.
</event>
<event>
 5   0  0.7681342E-06  0.2005579E+04  0.7818609E-02  0.8604017E-01
       -1   -1    0    0    0  501  0.00000000000E+00  0.00000000000E+00  0.79304596901E+03  0.79304596903E+03  0.50400001928E-02 0.  1.
        1   -1    0    0  501    0  0.00000000000E+00  0.00000000000E+00 -0.12680051321E+04  0.12680051321E+04  0.50400001928E-02 0. -1.
    10030    2    1    2    0    0  0.00000000000E+00  0.00000000000E+00 -0.47495916306E+03  0.20610511011E+04  0.20055785786E+04 0.  0.
        2    1    3    3  502    0  0.16430318103E+02 -0.35379589494E+03  0.72662946478E+03  0.80835132815E+03  0.25500000920E-02 0.  1.
       -2    1    3    3    0  502 -0.16430318103E+02  0.35379589494E+03 -0.12015886278E+04  0.12526997730E+04  0.25500000920E-02 0. -1.
</event>
<event>
 5   0  0.1874272E-05  0.2824782E+04  0.7818609E-02  0.8295615E-01
       -2   -1    0    0    0  501  0.00000000000E+00  0.00000000000E+00  0.16478792299E+04  0.16478792299E+04  0.25500000920E-02 0.  1.
        2   -1    0    0  501    0  0.00000000000E+00  0.00000000000E+00 -0.12105552132E+04  0.12105552132E+04  0.25500000920E-02 0. -1.
    10030    2    1    2    0    0  0.00000000000E+00  0.00000000000E+00  0.43732401663E+03  0.28584344431E+04  0.28247823226E+04 0.  0.
        3    1    3    3  502    0 -0.12678441476E+04  0.49332946412E+03  0.60271743890E+03  0.14879754918E+04  0.10100000352E+00 0. -1.
       -3    1    3    3    0  502  0.12678441476E+04 -0.49332946412E+03 -0.16539342227E+03  0.13704589513E+04  0.10100000352E+00 0.  1.
</event>
<event>
 5   0  0.1904553E-05  0.2838738E+04  0.7818609E-02  0.8291342E-01
        2   -1    0    0  501    0  0.00000000000E+00  0.00000000000E+00  0.20050284657E+04  0.20050284657E+04  0.25500000920E-02 0. -1.
       -2   -1    0    0    0  501  0.00000000000E+00  0.00000000000E+00 -0.10047782790E+04  0.10047782790E+04  0.25500000920E-02 0.  1.
    10030    2    1    2    0    0  0.00000000000E+00  0.00000000000E+00  0.10002501867E+04  0.30098067447E+04  0.28387384882E+04 0.  0.
        1    1    3    3  502    0 -0.11654393973E+04  0.25834455441E+03  0.13142642597E+04  0.17754665421E+04  0.50400001928E-02 0. -1.
       -1    1    3    3    0  502  0.11654393973E+04 -0.25834455441E+03 -0.31401407300E+03  0.12343402026E+04  0.50400001928E-02 0.  1.
</event>
<event>
 5   0  0.7613444E-06  0.2290967E+04  0.7818609E-02  0.8481491E-01
        1   -1    0    0  501    0  0.00000000000E+00  0.00000000000E+00  0.17507973270E+04  0.17507973270E+04  0.50400001928E-02 0. -1.
       -1   -1    0    0    0  501  0.00000000000E+00  0.00000000000E+00 -0.74944827643E+03  0.74944827644E+03  0.50400001928E-02 0.  1.
    10030    2    1    2    0    0  0.00000000000E+00  0.00000000000E+00  0.10013490505E+04  0.25002456034E+04  0.22909666424E+04 0.  0.
        5    1    3    3  502    0  0.78063093083E+03 -0.55042975514E+02 -0.41221551444E+03  0.88451009020E+03  0.46999998093E+01 0.  1.
       -5    1    3    3    0  502 -0.78063093083E+03  0.55042975514E+02  0.14135645650E+04  0.16157355132E+04  0.46999998093E+01 0. -1.
</event>
<event>
 5   0  0.1874272E-05  0.2822081E+04  0.7818609E-02  0.8296446E-01
        2   -1    0    0  501    0  0.00000000000E+00  0.00000000000E+00  0.12360691874E+04  0.12360691874E+04  0.25500000920E-02 0. -1.
       -2   -1    0    0    0  501  0.00000000000E+00  0.00000000000E+00 -0.16107802865E+04  0.16107802865E+04  0.25500000920E-02 0.  1.
    10030    2    1    2    0    0  0.00000000000E+00  0.00000000000E+00 -0.37471109916E+03  0.28468494739E+04  0.28220814161E+04 0.  0.
        3    1    3    3  502    0  0.21872471823E+03  0.98487717476E+03 -0.11825289612E+04  0.15544125276E+04  0.10100000352E+00 0.  1.
       -3    1    3    3    0  502 -0.21872471823E+03 -0.98487717476E+03  0.80781786203E+03  0.12924369463E+04  0.10100000352E+00 0. -1.
</event>
<event>
 5   0  0.7509685E-06  0.2821267E+04  0.7818609E-02  0.8296696E-01
        1   -1    0    0  501    0  0.00000000000E+00  0.00000000000E+00  0.20082257758E+04  0.20082257758E+04  0.50400001928E-02 0. -1.
       -1   -1    0    0    0  501  0.00000000000E+00  0.00000000000E+00 -0.99086818360E+03  0.99086818362E+03  0.50400001928E-02 0.  1.
    10030    2    1    2    0    0  0.00000000000E+00  0.00000000000E+00  0.10173575922E+04  0.29990939594E+04  0.28212671102E+04 0.  0.
        4    1    3    3  502    0 -0.70361058415E+02  0.10006758049E+04 -0.54558987220E+03  0.11419162258E+04  0.12699999809E+01 0.  1.
       -4    1    3    3    0  502  0.70361058415E+02 -0.10006758049E+04  0.15629474644E+04  0.18571777337E+04  0.12699999809E+01 0. -1.
</event>
<event>
 5   0  0.7388013E-06  0.2757287E+04  0.7818609E-02  0.8316653E-01
        1   -1    0    0  501    0  0.00000000000E+00  0.00000000000E+00  0.17718582980E+04  0.17718582980E+04  0.50400001928E-02 0. -1.
       -1   -1    0    0    0  501  0.00000000000E+00  0.00000000000E+00 -0.10726914953E+04  0.10726914953E+04  0.50400001928E-02 0.  1.
    10030    2    1    2    0    0  0.00000000000E+00  0.00000000000E+00  0.69916680271E+03  0.28445497934E+04  0.27572865845E+04 0.  0.
        1    1    3    3  502    0  0.17886750823E+03  0.14481249831E+03  0.17519015318E+04  0.17669530900E+04  0.50400001928E-02 0. -1.
       -1    1    3    3    0  502 -0.17886750823E+03 -0.14481249831E+03 -0.10527347291E+04  0.10775967033E+04  0.50400001928E-02 0.  1.
</event>
<event>
 5   0  0.7555871E-06  0.2777290E+04  0.7818609E-02  0.8310354E-01
        1   -1    0    0  501    0  0.00000000000E+00  0.00000000000E+00  0.20613327043E+04  0.20613327043E+04  0.50400001928E-02 0. -1.
       -1   -1    0    0    0  501  0.00000000000E+00  0.00000000000E+00 -0.93547993888E+03  0.93547993889E+03  0.50400001928E-02 0.  1.
    10030    2    1    2    0    0  0.00000000000E+00  0.00000000000E+00  0.11258527655E+04  0.29968126432E+04  0.27772903286E+04 0.  0.
        3    1    3    3  502    0 -0.11902578729E+04 -0.22361105712E+03  0.12960554943E+04  0.17738307595E+04  0.10100000352E+00 0. -1.
       -3    1    3    3    0  502  0.11902578729E+04  0.22361105712E+03 -0.17020272884E+03  0.12229818837E+04  0.10100000352E+00 0.  1.
</event>
<event>
 5   0  0.1923559E-05  0.2790782E+04  0.7818609E-02  0.8306136E-01
       -2   -1    0    0    0  501  0.00000000000E+00  0.00000000000E+00  0.95876395274E+03  0.95876395274E+03  0.25500000920E-02 0.  1.
        2   -1    0    0  501    0  0.00000000000E+00  0.00000000000E+00 -0.20308611466E+04  0.20308611466E+04  0.25500000920E-02 0. -1.
    10030    2    1    2    0    0  0.00000000000E+00  0.00000000000E+00 -0.10720971939E+04  0.29896250994E+04  0.27907822992E+04 0.  0.
        4    1    3    3  502    0  0.10730479127E+03  0.81507881170E+03  0.67178123506E+03  0.10616776480E+04  0.12699999809E+01 0.  1.
       -4    1    3    3    0  502 -0.10730479127E+03 -0.81507881170E+03 -0.17438784289E+04  0.19279474514E+04  0.12699999809E+01 0. -1.
</event>
<event>
 5   0  0.1923559E-05  0.2183132E+04  0.7818609E-02  0.8525482E-01
       -2   -1    0    0    0  501  0.00000000000E+00  0.00000000000E+00  0.21292335997E+04  0.21292335997E+04  0.25500000920E-02 0. -1.
        2   -1    0    0  501    0  0.00000000000E+00  0.00000000000E+00 -0.55959882696E+03  0.55959882697E+03  0.25500000920E-02 0.  1.
    10030    2    1    2    0    0  0.00000000000E+00  0.00000000000E+00  0.15696347727E+04  0.26888324266E+04  0.21831322678E+04 0.  0.
        4    1    3    3  502    0 -0.84263026526E+03 -0.14662850106E+03 -0.50511629717E+02  0.85678393944E+03  0.12699999809E+01 0.  1.
       -4    1    3    3    0  502  0.84263026526E+03  0.14662850106E+03  0.16201464024E+04  0.18320484872E+04  0.12699999809E+01 0. -1.
</event>
<event>
 5   0  0.7681342E-06  0.2791520E+04  0.7818609E-02  0.8305906E-01
        1   -1    0    0  501    0  0.00000000000E+00  0.00000000000E+00  0.11936946479E+04  0.11936946479E+04  0.50400001928E-02 0. -1.
       -1   -1    0    0    0  501  0.00000000000E+00  0.00000000000E+00 -0.16320303494E+04  0.16320303494E+04  0.50400001928E-02 0.  1.
    10030    2    1    2    0    0  0.00000000000E+00  0.00000000000E+00 -0.43833570149E+03  0.28257249973E+04  0.27915199396E+04 0.  0.
        2    1    3    3  502    0  0.59289362551E+03  0.12552400314E+04 -0.36584157839E+03  0.14356150069E+04  0.25500000920E-02 0.  1.
       -2    1    3    3    0  502 -0.59289362551E+03 -0.12552400314E+04 -0.72494123109E+02  0.13901099904E+04  0.25500000920E-02 0. -1.
</event>
<event>
 5   0  0.7613444E-06  0.2754797E+04  0.7818609E-02  0.8317441E-01
        1   -1    0    0  501    0  0.00000000000E+00  0.00000000000E+00  0.10437413184E+04  0.10437413184E+04  0.50400001928E-02 0. -1.
       -1   -1    0    0    0  501  0.00000000000E+00  0.00000000000E+00 -0.18177167191E+04  0.18177167191E+04  0.50400001928E-02 0.  1.
    10030    2    1    2    0    0  0.00000000000E+00  0.00000000000E+00 -0.77397540076E+03  0.28614580375E+04  0.27547965768E+04 0.  0.
        5    1    3    3  502    0 -0.13815624398E+03 -0.11227316838E+04  0.42930912175E+03  0.12099347063E+04  0.46999998093E+01 0. -1.
       -5    1    3    3    0  502  0.13815624398E+03  0.11227316838E+04 -0.12032845225E+04  0.16515233312E+04  0.46999998093E+01 0.  1.
</event>
<event>
 5   0  0.7613444E-06  0.2815209E+04  0.7818609E-02  0.8298562E-01
       -1   -1    0    0    0  501  0.00000000000E+00  0.00000000000E+00  0.14735560184E+04  0.14735560184E+04  0.50400001928E-02 0.  1.
        1   -1    0    0  501    0  0.00000000000E+00  0.00000000000E+00 -0.13446048099E+04  0.13446048099E+04  0.50400001928E-02 0. -1.
    10030    2    1    2    0    0  0.00000000000E+00  0.00000000000E+00  0.12895120852E+03  0.28181608284E+04  0.28152090580E+04 0.  0.
        5    1    3    3  502    0  0.11890859506E+04  0.45037516608E+03 -0.53994985194E+03  0.13814235849E+04  0.46999998093E+01 0. -1.
       -5    1    3    3    0  502 -0.11890859506E+04 -0.45037516608E+03  0.66890106046E+03  0.14367372435E+04  0.46999998093E+01 0.  1.
</event>
<event>
 5   0  0.1832502E-05  0.2783213E+04  0.7818609E-02  0.8308499E-01
        2   -1    0    0  501    0  0.00000000000E+00  0.00000000000E+00  0.14796991405E+04  0.14796991405E+04  0.25500000920E-02 0. -1.
       -2   -1    0    0    0  501  0.00000000000E+00  0.00000000000E+00 -0.13087581624E+04  0.13087581624E+04  0.25500000920E-02 0.  1.
    10030    2    1    2    0    0  0.00000000000E+00  0.00000000000E+00  0.17094097813E+03  0.27884573030E+04  0.27832127681E+04 0.  0.
        2    1    3    3  502    0  0.79142266272E+03  0.14786091954E+03 -0.10517259033E+04  0.13245150276E+04  0.25500000920E-02 0.  1.
       -2    1    3    3    0  502 -0.79142266272E+03 -0.14786091954E+03  0.12226668815E+04  0.14639422754E+04  0.25500000920E-02 0. -1.
</event>
<event>
 5   0  0.1874272E-05  0.2787206E+04  0.7818609E-02  0.8307252E-01
        2   -1    0    0  501    0  0.00000000000E+00  0.00000000000E+00  0.20612138089E+04  0.20612138089E+04  0.25500000920E-02 0. -1.
       -2   -1    0    0    0  501  0.00000000000E+00  0.00000000000E+00 -0.94222571268E+03  0.94222571268E+03  0.25500000920E-02 0.  1.
    10030    2    1    2    0    0  0.00000000000E+00  0.00000000000E+00  0.11189880962E+04  0.30034395216E+04  0.27872055182E+04 0.  0.
        3    1    3    3  502    0 -0.59348550159E+03  0.12608522733E+04  0.54607203339E+03  0.14967191358E+04  0.10100000352E+00 0.  1.
       -3    1    3    3    0  502  0.59348550159E+03 -0.12608522733E+04  0.57291606285E+03  0.15067203858E+04  0.10100000352E+00 0. -1.
</event>
<event>
 5   0  0.1904553E-05  0.2087518E+04  0.7818609E-02  0.8566762E-01
       -2   -1    0    0    0  501  0.00000000000E+00  0.00000000000E+00  0.11007821117E+04  0.11007821117E+04  0.25500000920E-02 0.  1.
        2   -1    0    0  501    0  0.00000000000E+00  0.00000000000E+00 -0.98968982738E+03  0.98968982739E+03  0.25500000920E-02 0. -1.
    10030    2    1    2    0    0  0.00000000000E+00  0.00000000000E+00  0.11109228435E+03  0.20904719391E+04  0.20875180077E+04 0.  0.
        1    1    3    3  502    0  0.24360699274E+03 -0.19807686021E+03  0.10523712213E+04  0.10982094504E+04  0.50400001928E-02 0.  1.
       -1    1    3    3    0  502 -0.24360699274E+03  0.19807686021E+03 -0.94127893693E+03  0.99226248876E+03  0.50400001928E-02 0. -1.
</event>
<event>
 5   0  0.1832502E-05  0.2784613E+04  0.7818609E-02  0.8308061E-01
       -2   -1    0    0    0  501  0.00000000000E+00  0.00000000000E+00  0.14993639852E+04  0.14993639852E+04  0.25500000920E-02 0.  1.
        2   -1    0    0  501    0  0.00000000000E+00  0.00000000000E+00 -0.12928930871E+04  0.12928930871E+04  0.25500000920E-02 0. -1.
    10030    2    1    2    0    0  0.00000000000E+00  0.00000000000E+00  0.20647089816E+03  0.27922570723E+04  0.27846129581E+04 0.  0.
        2    1    3    3  502    0 -0.43099362024E+03  0.96039985545E+03 -0.81052561305E+03  0.13285613093E+04  0.25500000920E-02 0. -1.
       -2    1    3    3    0  502  0.43099362024E+03 -0.96039985545E+03  0.10169965112E+04  0.14636957631E+04  0.25500000920E-02 0.  1.
</event>
<event>
 5   0  0.1874272E-05  0.2796360E+04  0.7818609E-02  0.8304399E-01
       -2   -1    0    0    0  501  0.00000000000E+00  0.00000000000E+00  0.83320420061E+03  0.83320420061E+03  0.25500000920E-02 0. -1.
        2   -1    0    0  501    0  0.00000000000E+00  0.00000000000E+00 -0.23462529858E+04  0.23462529858E+04  0.25500000920E-02 0.  1.
    10030    2    1    2    0    0  0.00000000000E+00  0.00000000000E+00 -0.15130487852E+04  0.31794571865E+04  0.27963603799E+04 0.  0.
        3    1    3    3  502    0  0.64766602520E+03  0.49380011041E+03 -0.20487059065E+04  0.22046554676E+04  0.10100000352E+00 0.  1.
       -3    1    3    3    0  502 -0.64766602520E+03 -0.49380011041E+03  0.53565712130E+03  0.97480171884E+03  0.10100000352E+00 0. -1.
</event>
<event>
 5   0  0.7613444E-06  0.2776706E+04  0.7818609E-02  0.8310537E-01
       -1   -1    0    0    0  501  0.00000000000E+00  0.00000000000E+00  0.20475533281E+04  0.20475533281E+04  0.50400001928E-02 0.  1.
        1   -1    0    0  501    0  0.00000000000E+00  0.00000000000E+00 -0.94137949891E+03  0.94137949892E+03  0.50400001928E-02 0. -1.
    10030    2    1    2    0    0  0.00000000000E+00  0.00000000000E+00  0.11061738292E+04  0.29889328270E+04  0.27767064850E+04 0.  0.
        5    1    3    3  502    0 -0.23825070611E+03 -0.55892155182E+03 -0.79066196962E+03  0.99715853316E+03  0.46999998093E+01 0. -1.
       -5    1    3    3    0  502  0.23825070611E+03  0.55892155182E+03  0.18968357988E+04  0.19917742938E+04  0.46999998093E+01 0.  1.
</event>
<event>
 5   0  0.1814230E-05  0.2807893E+04  0.7818609E-02  0.8300822E-01
        2   -1    0    0  501    0  0.00000000000E+00  0.00000000000E+00  0.15230984846E+04  0.15230984846E+04  0.25500000920E-02 0.  1.
       -2   -1    0    0    0  501  0.00000000000E+00  0.00000000000E+00 -0.12941157597E+04  0.12941157597E+04  0.25500000920E-02 0. -1.
    10030    2    1    2    0    0  0.00000000000E+00  0.00000000000E+00  0.22898272488E+03  0.28172142443E+04  0.28078929841E+04 0.  0.
        5    1    3    3  502    0 -0.44231336043E+03  0.47234375838E+02  0.14505166892E+04  0.15171990478E+04  0.46999998093E+01 0.  1.
       -5    1    3    3    0  502  0.44231336043E+03 -0.47234375838E+02 -0.12215339643E+04  0.13000151965E+04  0.46999998093E+01 0. -1.
</event>
<event>
 5   0  0.7613444E-06  0.2736545E+04  0.7818609E-02  0.8323244E-01
        1   -1    0    0  501    0  0.00000000000E+00  0.00000000000E+00  0.24084908538E+04  0.24084908538E+04  0.50400001928E-02 0.  1.
       -1   -1    0    0    0  501  0.00000000000E+00  0.00000000000E+00 -0.77732066924E+03  0.77732066926E+03  0.50400001928E-02 0. -1.
    10030    2    1    2    0    0  0.00000000000E+00  0.00000000000E+00  0.16311701845E+04  0.31858115230E+04  0.27365450644E+04 0.  0.
        5    1    3    3  502    0  0.37028553310E+03  0.20667845164E+03 -0.69887820620E+03  0.81748406436E+03  0.46999998093E+01 0. -1.
       -5    1    3    3    0  502 -0.37028553310E+03 -0.20667845164E+03  0.23300483907E+04  0.23683274587E+04  0.46999998093E+01 0.  1.
</event>
<event>
 5   0  0.7555871E-06  0.2831384E+04  0.7818609E-02  0.8293591E-01
       -1   -1    0    0    0  501  0.00000000000E+00  0.00000000000E+00  0.15786839369E+04  0.15786839369E+04  0.50400001928E-02 0.  1.
        1   -1    0    0  501    0  0.00000000000E+00  0.00000000000E+00 -0.12695281764E+04  0.12695281764E+04  0.50400001928E-02 0. -1.
    10030    2    1    2    0    0  0.00000000000E+00  0.00000000000E+00  0.30915576050E+03  0.28482121133E+04  0.28313839298E+04 0.  0.
        3    1    3    3  502    0 -0.62652676206E+03  0.85732946641E+03 -0.78727431486E+03  0.13218738422E+04  0.10100000352E+00 0. -1.
       -3    1    3    3    0  502  0.62652676206E+03 -0.85732946641E+03  0.10964300754E+04  0.15263382711E+04  0.10100000352E+00 0.  1.
</event>
<event>
 5   0  0.1874272E-05  0.2800123E+04  0.7818609E-02  0.8303230E-01
       -2   -1    0    0    0  501  0.00000000000E+00  0.00000000000E+00  0.10194929586E+04  0.10194929586E+04  0.25500000920E-02 0. -1.
        2   -1    0    0  501    0  0.00000000000E+00  0.00000000000E+00 -0.19226936363E+04  0.19226936363E+04  0.25500000920E-02 0.  1.
    10030    2    1    2    0    0  0.00000000000E+00  0.00000000000E+00 -0.90320067770E+03  0.29421865950E+04  0.28001233000E+04 0.  0.
        3    1    3    3  502    0 -0.13419817863E+04  0.39502566615E+03 -0.51115226854E+03  0.14893747156E+04  0.10100000352E+00 0. -1.
       -3    1    3    3    0  502  0.13419817863E+04 -0.39502566615E+03 -0.39204840916E+03  0.14528118794E+04  0.10100000352E+00 0.  1.
</event>
<event>
 5   0  0.7388013E-06  0.2744494E+04  0.7818609E-02  0.8320711E-01
        1   -1    0    0  501    0  0.00000000000E+00  0.00000000000E+00  0.22874560103E+04  0.22874560103E+04  0.50400001928E-02 0.  1.
       -1   -1    0    0    0  501  0.00000000000E+00  0.00000000000E+00 -0.82321249902E+03  0.82321249903E+03  0.50400001928E-02 0. -1.
    10030    2    1    2    0    0  0.00000000000E+00  0.00000000000E+00  0.14642435113E+04  0.31106685094E+04  0.27444944006E+04 0.  0.
        1    1    3    3  502    0 -0.13641118957E+04 -0.87737534865E+02  0.86890105710E+03  0.16197185515E+04  0.50400001928E-02 0.  1.
       -1    1    3    3    0  502  0.13641118957E+04  0.87737534865E+02  0.59534245421E+03  0.14909499579E+04  0.50400001928E-02 0. -1.
</event>
<event>
 5   0  0.7555871E-06  0.2858891E+04  0.7818609E-02  0.8285215E-01
       -1   -1    0    0    0  501  0.00000000000E+00  0.00000000000E+00  0.12309644438E+04  0.12309644438E+04  0.50400001928E-02 0.  1.
        1   -1    0    0  501    0  0.00000000000E+00  0.00000000000E+00 -0.16599300800E+04  0.16599300800E+04  0.50400001928E-02 0. -1.
    10030    2    1    2    0    0  0.00000000000E+00  0.00000000000E+00 -0.42896563622E+03  0.28908945238E+04  0.28588913290E+04 0.  0.
        3    1    3    3  502    0 -0.53532247516E+03  0.11894720811E+04  0.37678566421E+03  0.13577118366E+04  0.10100000352E+00 0.  1.
       -3    1    3    3    0  502  0.53532247516E+03 -0.11894720811E+04 -0.80575130043E+03  0.15331826873E+04  0.10100000352E+00 0. -1.
</event>
<event>
 5   0  0.7509685E-06  0.2798578E+04  0.7818609E-02  0.8303710E-01
       -1   -1    0    0    0  501  0.00000000000E+00  0.00000000000E+00  0.90390365805E+03  0.90390365806E+03  0.50400001928E-02 0. -1.
        1   -1    0    0  501    0  0.00000000000E+00  0.00000000000E+00 -0.21661708025E+04  0.21661708025E+04  0.50400001928E-02 0.  1.
    10030    2    1    2    0    0  0.00000000000E+00  0.00000000000E+00 -0.12622671445E+04  0.30700744606E+04  0.27985780049E+04 0.  0.
        4    1    3    3  502    0  0.46198269696E+03  0.91033456806E+02  0.81438274730E+03  0.94071035635E+03  0.12699999809E+01 0. -1.
       -4    1    3    3    0  502 -0.46198269696E+03 -0.91033456806E+02 -0.20766498918E+04  0.21293641042E+04  0.12699999809E+01 0.  1.
</event>
<event>
 5   0  0.7613444E-06  0.2445169E+04  0.7818609E-02  0.8422784E-01
        1   -1    0    0  501    0  0.00000000000E+00  0.00000000000E+00  0.11810984851E+04  0.11810984851E+04  0.50400001928E-02 0.  1.
       -1   -1    0    0    0  501  0.00000000000E+00  0.00000000000E+00 -0.12655274725E+04  0.12655274725E+04  0.50400001928E-02 0. -1.
    10030    2    1    2    0    0  0.00000000000E+00  0.00000000000E+00 -0.84428987419E+02  0.24466259577E+04  0.24451687718E+04 0.  0.
        5    1    3    3  502    0  0.77907833188E+03 -0.67865255139E+03 -0.69617736354E+03  0.12458801484E+04  0.46999998093E+01 0. -1.
       -5    1    3    3    0  502 -0.77907833188E+03  0.67865255139E+03  0.61174837612E+03  0.12007458092E+04  0.46999998093E+01 0.  1.
</event>
<event>
 5   0  0.1923559E-05  0.2783307E+04  0.7818609E-02  0.8308470E-01
       -2   -1    0    0    0  501  0.00000000000E+00  0.00000000000E+00  0.96868471442E+03  0.96868471442E+03  0.25500000920E-02 0. -1.
        2   -1    0    0  501    0  0.00000000000E+00  0.00000000000E+00 -0.19993082471E+04  0.19993082471E+04  0.25500000920E-02 0.  1.
    10030    2    1    2    0    0  0.00000000000E+00  0.00000000000E+00 -0.10306235327E+04  0.29679929615E+04  0.27833069097E+04 0.  0.
        4    1    3    3  502    0 -0.40465445925E+02  0.11952358985E+04 -0.12742024836E+04  0.17475182081E+04  0.12699999809E+01 0.  1.
       -4    1    3    3    0  502  0.40465445925E+02 -0.11952358985E+04  0.24357895093E+03  0.12204747534E+04  0.12699999809E+01 0. -1.
</event>
<event>
 5   0  0.1904553E-05  0.2569296E+04  0.7818609E-02  0.8378706E-01
       -2   -1    0    0    0  501  0.00000000000E+00  0.00000000000E+00  0.92614212783E+03  0.92614212783E+03  0.25500000920E-02 0.  1.
        2   -1    0    0  501    0  0.00000000000E+00  0.00000000000E+00 -0.17819303080E+04  0.17819303080E+04  0.25500000920E-02 0. -1.
    10030    2    1    2    0    0  0.00000000000E+00  0.00000000000E+00 -0.85578818015E+03  0.27080724358E+04  0.25692961893E+04 0.  0.
        1    1    3    3  502    0  0.70796970881E+03  0.10126597179E+04 -0.79848121163E+03  0.14711468513E+04  0.50400001928E-02 0. -1.
       -1    1    3    3    0  502 -0.70796970881E+03 -0.10126597179E+04 -0.57306968514E+02  0.12369255845E+04  0.50400001928E-02 0.  1.
</event>
<event>
 5   0  0.7509685E-06  0.2817373E+04  0.7818609E-02  0.8297895E-01
       -1   -1    0    0    0  501  0.00000000000E+00  0.00000000000E+00  0.15864334635E+04  0.15864334635E+04  0.50400001928E-02 0.  1.
        1   -1    0    0  501    0  0.00000000000E+00  0.00000000000E+00 -0.12508548965E+04  0.12508548965E+04  0.50400001928E-02 0. -1.
    10030    2    1    2    0    0  0.00000000000E+00  0.00000000000E+00  0.33557856701E+03  0.28372883601E+04  0.28173732915E+04 0.  0.
        4    1    3    3  502    0  0.94321139230E+03 -0.27361404297E+03 -0.84924241495E+03  0.12983553702E+04  0.12699999809E+01 0. -1.
       -4    1    3    3    0  502 -0.94321139230E+03  0.27361404297E+03  0.11848209820E+04  0.15389329899E+04  0.12699999809E+01 0.  1.
</event>
<event>
 5   0  0.1832502E-05  0.2787997E+04  0.7818609E-02  0.8307004E-01
        2   -1    0    0  501    0  0.00000000000E+00  0.00000000000E+00  0.10814383478E+04  0.10814383479E+04  0.25500000920E-02 0.  1.
       -2   -1    0    0    0  501  0.00000000000E+00  0.00000000000E+00 -0.17968960763E+04  0.17968960763E+04  0.25500000920E-02 0. -1.
    10030    2    1    2    0    0  0.00000000000E+00  0.00000000000E+00 -0.71545772840E+03  0.28783344241E+04  0.27879973630E+04 0.  0.
        2    1    3    3  502    0  0.44646460182E+03  0.87374615421E+03 -0.13799995378E+04  0.16932695317E+04  0.25500000920E-02 0. -1.
       -2    1    3    3    0  502 -0.44646460182E+03 -0.87374615421E+03  0.66454180942E+03  0.11850648924E+04  0.25500000920E-02 0.  1.
</event>
<event>
 5   0  0.7613444E-06  0.2771222E+04  0.7818609E-02  0.8312259E-01
        1   -1    0    0  501    0  0.00000000000E+00  0.00000000000E+00  0.21770675733E+04  0.21770675733E+04  0.50400001928E-02 0.  1.
       -1   -1    0    0    0  501  0.00000000000E+00  0.00000000000E+00 -0.88188230354E+03  0.88188230355E+03  0.50400001928E-02 0. -1.
    10030    2    1    2    0    0  0.00000000000E+00  0.00000000000E+00  0.12951852698E+04  0.30589498769E+04  0.27712216559E+04 0.  0.
        5    1    3    3  502    0  0.37409936349E+03 -0.37108668098E+03 -0.76696080494E+03  0.93054103879E+03  0.46999998093E+01 0. -1.
       -5    1    3    3    0  502 -0.37409936349E+03  0.37108668098E+03  0.20621460747E+04  0.21284088381E+04  0.46999998093E+01 0.  1.
</event>
<event>
 5   0  0.1832502E-05  0.2643071E+04  0.7818609E-02  0.8353716E-01
        2   -1    0    0  501    0  0.00000000000E+00  0.00000000000E+00  0.20501497093E+04  0.20501497093E+04  0.25500000920E-02 0. -1.
       -2   -1    0    0    0  501  0.00000000000E+00  0.00000000000E+00 -0.85186788957E+03  0.85186788957E+03  0.25500000920E-02 0.  1.
    10030    2    1    2    0    0  0.00000000000E+00  0.00000000000E+00  0.11982818197E+04  0.29020175989E+04  0.26430714755E+04 0.  0.
        2    1    3    3  502    0  0.63957370395E+03  0.11495190111E+04  0.73806026037E+03  0.15083704544E+04  0.25500000920E-02 0. -1.
       -2    1    3    3    0  502 -0.63957370395E+03 -0.11495190111E+04  0.46022155935E+03  0.13936471445E+04  0.25500000920E-02 0.  1.
</event>
<event>
 5   0  0.7509685E-06  0.2783793E+04  0.7818609E-02  0.8308318E-01
        1   -1    0    0  501    0  0.00000000000E+00  0.00000000000E+00  0.14628733711E+04  0.14628733711E+04  0.50400001928E-02 0.  1.
       -1   -1    0    0    0  501  0.00000000000E+00  0.00000000000E+00 -0.13243636074E+04  0.13243636074E+04  0.50400001928E-02 0. -1.
    10030    2    1    2    0    0  0.00000000000E+00  0.00000000000E+00  0.13850976369E+03  0.27872369785E+04  0.27837932789E+04 0.  0.
        4    1    3    3  502    0  0.10286783500E+04 -0.29778747450E+03  0.95946561504E+03  0.14378568799E+04  0.12699999809E+01 0.  1.
       -4    1    3    3    0  502 -0.10286783500E+04  0.29778747450E+03 -0.82095585135E+03  0.13493800986E+04  0.12699999809E+01 0. -1.
</event>
<event>
 5   0  0.7509685E-06  0.2759932E+04  0.7818609E-02  0.8315817E-01
        1   -1    0    0  501    0  0.00000000000E+00  0.00000000000E+00  0.14749360000E+04  0.14749360000E+04  0.50400001928E-02 0.  1.
       -1   -1    0    0    0  501  0.00000000000E+00  0.00000000000E+00 -0.12911111305E+04  0.12911111305E+04  0.50400001928E-02 0. -1.
    10030    2    1    2    0    0  0.00000000000E+00  0.00000000000E+00  0.18382486951E+03  0.27660471305E+04  0.27599320908E+04 0.  0.
        4    1    3    3  502    0  0.45837926686E+03 -0.21329753290E+02  0.13962329225E+04  0.14697055819E+04  0.12699999809E+01 0.  1.
       -4    1    3    3    0  502 -0.45837926686E+03  0.21329753290E+02 -0.12124080530E+04  0.12963415486E+04  0.12699999809E+01 0. -1.
</event>
<event>
 5   0  0.7509685E-06  0.2801547E+04  0.7818609E-02  0.8302788E-01
       -1   -1    0    0    0  501  0.00000000000E+00  0.00000000000E+00  0.19629771031E+04  0.19629771031E+04  0.50400001928E-02 0.  1.
        1   -1    0    0  501    0  0.00000000000E+00  0.00000000000E+00 -0.99958720639E+03  0.99958720640E+03  0.50400001928E-02 0. -1.
    10030    2    1    2    0    0  0.00000000000E+00  0.00000000000E+00  0.96338989671E+03  0.29625643095E+04  0.28015472858E+04 0.  0.
        4    1    3    3  502    0  0.96416508103E+03 -0.51925584263E+03 -0.44196165574E+03  0.11809202563E+04  0.12699999809E+01 0. -1.
       -4    1    3    3    0  502 -0.96416508103E+03  0.51925584263E+03  0.14053515524E+04  0.17816440532E+04  0.12699999809E+01 0.  1.
</event>
<event>
 5   0  0.1832502E-05  0.2565552E+04  0.7818609E-02  0.8379997E-01
        2   -1    0    0  501    0  0.00000000000E+00  0.00000000000E+00  0.90196993679E+03  0.90196993680E+03  0.25500000920E-02 0. -1.
       -2   -1    0    0    0  501  0.00000000000E+00  0.00000000000E+00 -0.18243562481E+04  0.18243562481E+04  0.25500000920E-02 0.  1.
    10030    2    1    2    0    0  0.00000000000E+00  0.00000000000E+00 -0.92238631133E+03  0.27263261849E+04  0.25655521743E+04 0.  0.
        2    1    3    3  502    0 -0.77651873562E+03 -0.82566112055E+03 -0.10995159794E+04  0.15791241312E+04  0.25500000920E-02 0.  1.
       -2    1    3    3    0  502  0.77651873562E+03  0.82566112055E+03  0.17712966807E+03  0.11472020537E+04  0.25500000920E-02 0. -1.
</event>
<event>
 5   0  0.6288000E-06  0.2027193E+04  0.7818609E-02  0.8594012E-01
       -3   -1    0    0    0  501  0.00000000000E+00  0.00000000000E+00  0.92496176449E+03  0.92496177000E+03  0.10100000352E+00 0. -1.
        3   -1    0    0  501    0  0.00000000000E+00  0.00000000000E+00 -0.11107242322E+04  0.11107242368E+04  0.10100000352E+00 0.  1.
    10030    2    1    2    0    0  0.00000000000E+00  0.00000000000E+00 -0.18576246772E+03  0.20356860068E+04  0.20271925967E+04 0.  0.
        5    1    3    3  502    0 -0.22350122989E+02 -0.30162865469E+03 -0.10643412564E+04  0.11064916508E+04  0.46999998093E+01 0.  1.
       -5    1    3    3    0  502  0.22350122989E+02  0.30162865469E+03  0.87857878865E+03  0.92919435598E+03  0.46999998093E+01 0. -1.
</event>
<event>
 5   0  0.1814230E-05  0.2766063E+04  0.7818609E-02  0.8313882E-01
        2   -1    0    0  501    0  0.00000000000E+00  0.00000000000E+00  0.12792954178E+04  0.12792954178E+04  0.25500000920E-02 0. -1.
       -2   -1    0    0    0  501  0.00000000000E+00  0.00000000000E+00 -0.14951798503E+04  0.14951798503E+04  0.25500000920E-02 0.  1.
    10030    2    1    2    0    0  0.00000000000E+00  0.00000000000E+00 -0.21588443253E+03  0.27744752681E+04  0.27660634348E+04 0.  0.
        5    1    3    3  502    0 -0.48384946659E+03  0.11879822540E+04 -0.62656635194E+03  0.14275922476E+04  0.46999998093E+01 0.  1.
       -5    1    3    3    0  502  0.48384946659E+03 -0.11879822540E+04  0.41068191941E+03  0.13468830205E+04  0.46999998093E+01 0. -1.
</event>
<event>
 5   0  0.1814230E-05  0.2765886E+04  0.7818609E-02  0.8313938E-01
        2   -1    0    0  501    0  0.00000000000E+00  0.00000000000E+00  0.10190510040E+04  0.10190510040E+04  0.25500000920E-02 0.  1.
       -2   -1    0    0    0  501  0.00000000000E+00  0.00000000000E+00 -0.18767762921E+04  0.18767762921E+04  0.25500000920E-02 0. -1.
    10030    2    1    2    0    0  0.00000000000E+00  0.00000000000E+00 -0.85772528815E+03  0.28958272961E+04  0.27658855831E+04 0.  0.
        5    1    3    3  502    0 -0.43552935494E+03 -0.95207876234E+03 -0.13748420219E+04  0.17281066125E+04  0.46999998093E+01 0. -1.
       -5    1    3    3    0  502  0.43552935494E+03  0.95207876234E+03  0.51711673379E+03  0.11677206837E+04  0.46999998093E+01 0.  1.
</event>
<event>
 5   0  0.1923559E-05  0.2811287E+04  0.7818609E-02  0.8299773E-01
        2   -1    0    0  501    0  0.00000000000E+00  0.00000000000E+00  0.12607422456E+04  0.12607422456E+04  0.25500000920E-02 0. -1.
       -2   -1    0    0    0  501  0.00000000000E+00  0.00000000000E+00 -0.15671987104E+04  0.15671987104E+04  0.25500000920E-02 0.  1.
    10030    2    1    2    0    0  0.00000000000E+00  0.00000000000E+00 -0.30645646475E+03  0.28279409560E+04  0.28112869803E+04 0.  0.
        4    1    3    3  502    0  0.29046320082E+03  0.43121495184E+03  0.11604625650E+04  0.12716092888E+04  0.12699999809E+01 0. -1.
       -4    1    3    3    0  502 -0.29046320082E+03 -0.43121495184E+03 -0.14669190297E+04  0.15563316672E+04  0.12699999809E+01 0.  1.
</event>
<event>
 5   0  0.7509685E-06  0.2813064E+04  0.7818609E-02  0.8299224E-01
        1   -1    0    0  501    0  0.00000000000E+00  0.00000000000E+00  0.20656820021E+04  0.20656820021E+04  0.50400001928E-02 0. -1.
       -1   -1    0    0    0  501  0.00000000000E+00  0.00000000000E+00 -0.95771382903E+03  0.95771382905E+03  0.50400001928E-02 0.  1.
    10030    2    1    2    0    0  0.00000000000E+00  0.00000000000E+00  0.11079681731E+04  0.30233958312E+04  0.28130639665E+04 0.  0.
        4    1    3    3  502    0 -0.35007710585E+03  0.11676937793E+04 -0.20009369566E+03  0.12353549458E+04  0.12699999809E+01 0.  1.
       -4    1    3    3    0  502  0.35007710585E+03 -0.11676937793E+04  0.13080618687E+04  0.17880408853E+04  0.12699999809E+01 0. -1.
</event>
<event>
 5   0  0.7681342E-06  0.2793573E+04  0.7818609E-02  0.8305266E-01
       -1   -1    0    0    0  501  0.00000000000E+00  0.00000000000E+00  0.88302277922E+03  0.88302277923E+03  0.50400001928E-02 0.  1.
        1   -1    0    0  501    0  0.00000000000E+00  0.00000000000E+00 -0.22094705643E+04  0.22094705643E+04  0.50400001928E-02 0. -1.
    10030    2    1    2    0    0  0.00000000000E+00  0.00000000000E+00 -0.13264477850E+04  0.30924933435E+04  0.27935732232E+04 0.  0.
        2    1    3    3  502    0  0.12635627573E+03 -0.11379729963E+03  0.87152163504E+03  0.88795590779E+03  0.25500000920E-02 0.  1.
       -2    1    3    3    0  502 -0.12635627573E+03  0.11379729963E+03 -0.21979694201E+04  0.22045374357E+04  0.25500000920E-02 0. -1.
</event>
<event>
 5   0  0.1832502E-05  0.3053038E+04  0.7818609E-02  0.8228746E-01
        2   -1    0    0  501    0  0.00000000000E+00  0.00000000000E+00  0.18835573990E+04  0.18835573990E+04  0.25500000920E-02 0. -1.
       -2   -1    0    0    0  501  0.00000000000E+00  0.00000000000E+00 -0.12371591144E+04  0.12371591144E+04  0.25500000920E-02 0.  1.
    10030    2    1    2    0    0  0.00000000000E+00  0.00000000000E+00  0.64639828462E+03  0.31207165133E+04  0.30530379648E+04 0.  0.
        2    1    3    3  502    0  0.86998857337E+03  0.11997388110E+04 -0.50985232207E+02  0.14828529348E+04  0.25500000920E-02 0.  1.
       -2    1    3    3    0  502 -0.86998857337E+03 -0.11997388110E+04  0.69738351682E+03  0.16378635785E+04  0.25500000920E-02 0. -1.
</event>
<event>
 5   0  0.7681342E-06  0.1817643E+04  0.7818609E-02  0.8696973E-01
       -1   -1    0    0    0  501  0.00000000000E+00  0.00000000000E+00  0.71220359129E+03  0.71220359130E+03  0.50400001928E-02 0. -1.
        1   -1    0    0  501    0  0.00000000000E+00  0.00000000000E+00 -0.11597200833E+04  0.11597200833E+04  0.50400001928E-02 0.  1.
    10030    2    1    2    0    0  0.00000000000E+00  0.00000000000E+00 -0.44751649201E+03  0.18719236746E+04  0.18176433184E+04 0.  0.
        2    1    3    3  502    0 -0.50701577575E+03 -0.46969400947E+03  0.38401745723E+03  0.79066229634E+03  0.25500000920E-02 0. -1.
       -2    1    3    3    0  502  0.50701577575E+03  0.46969400947E+03 -0.83153394924E+03  0.10812613783E+04  0.25500000920E-02 0.  1.
</event>
<event>
 5   0  0.1874272E-05  0.2833500E+04  0.7818609E-02  0.8292943E-01
       -2   -1    0    0    0  501  0.00000000000E+00  0.00000000000E+00  0.11825934328E+04  0.11825934328E+04  0.25500000920E-02 0. -1.
        2   -1    0    0  501    0  0.00000000000E+00  0.00000000000E+00 -0.16972701276E+04  0.16972701276E+04  0.25500000920E-02 0.  1.
    10030    2    1    2    0    0  0.00000000000E+00  0.00000000000E+00 -0.51467669482E+03  0.28798635603E+04  0.28334999605E+04 0.  0.
        3    1    3    3  502    0  0.84813322015E+03  0.57843157407E+03  0.73499156781E+03  0.12625868920E+04  0.10100000352E+00 0. -1.
       -3    1    3    3    0  502 -0.84813322015E+03 -0.57843157407E+03 -0.12496682626E+04  0.16172766683E+04  0.10100000352E+00 0.  1.
</event>
<event>
 5   0  0.1814230E-05  0.2795230E+04  0.7818609E-02  0.8304751E-01
        2   -1    0    0  501    0  0.00000000000E+00  0.00000000000E+00  0.14817869198E+04  0.14817869198E+04  0.25500000920E-02 0.  1.
       -2   -1    0    0    0  501  0.00000000000E+00  0.00000000000E+00 -0.13182245112E+04  0.13182245112E+04  0.25500000920E-02 0. -1.
    10030    2    1    2    0    0  0.00000000000E+00  0.00000000000E+00  0.16356240859E+03  0.28000114310E+04  0.27952301072E+04 0.  0.
        5    1    3    3  502    0 -0.10731899328E+04  0.65743146776E+03 -0.52700253438E+03  0.13644436698E+04  0.46999998093E+01 0. -1.
       -5    1    3    3    0  502  0.10731899328E+04 -0.65743146776E+03  0.69056494297E+03  0.14355677613E+04  0.46999998093E+01 0.  1.
</event>
<event>
 5   0  0.7613444E-06  0.2755985E+04  0.7818609E-02  0.8317065E-01
        1   -1    0    0  501    0  0.00000000000E+00  0.00000000000E+00  0.20513313547E+04  0.20513313547E+04  0.50400001928E-02 0.  1.
       -1   -1    0    0    0  501  0.00000000000E+00  0.00000000000E+00 -0.92567334414E+03  0.92567334415E+03  0.50400001928E-02 0. -1.
    10030    2    1    2    0    0  0.00000000000E+00  0.00000000000E+00  0.11256580106E+04  0.29770046989E+04  0.27559845828E+04 0.  0.
        5    1    3    3  502    0  0.11572062575E+04 -0.61366038295E+02 -0.24258659650E+03  0.11839604976E+04  0.46999998093E+01 0. -1.
       -5    1    3    3    0  502 -0.11572062575E+04  0.61366038295E+02  0.13682446071E+04  0.17930442013E+04  0.46999998093E+01 0.  1.
</event>
<event>
 5   0  0.7555871E-06  0.2040887E+04  0.7818609E-02  0.8587740E-01
        1   -1    0    0  501    0  0.00000000000E+00  0.00000000000E+00  0.12238018061E+04  0.12238018061E+04  0.50400001928E-02 0.  1.
       -1   -1    0    0    0  501  0.00000000000E+00  0.00000000000E+00 -0.85087694771E+03  0.85087694773E+03  0.50400001928E-02 0. -1.
    10030    2    1    2    0    0  0.00000000000E+00  0.00000000000E+00  0.37292485841E+03  0.20746787539E+04  0.20408868126E+04 0.  0.
        3    1    3    3  502    0  0.26926915602E+03 -0.47067311857E+03 -0.69229590343E+03  0.87938199381E+03  0.10100000352E+00 0. -1.
       -3    1    3    3    0  502 -0.26926915602E+03  0.47067311857E+03  0.10652207618E+04  0.11952967601E+04  0.10100000352E+00 0.  1.
</event>
<event>
 5   0  0.1874272E-05  0.2741153E+04  0.7818609E-02  0.8321775E-01
       -2   -1    0    0    0  501  0.00000000000E+00  0.00000000000E+00  0.16297917171E+04  0.16297917171E+04  0.25500000920E-02 0. -1.
        2   -1    0    0  501    0  0.00000000000E+00  0.00000000000E+00 -0.11525887484E+04  0.11525887484E+04  0.25500000920E-02 0.  1.
    10030    2    1    2    0    0  0.00000000000E+00  0.00000000000E+00  0.47720296873E+03  0.27823804654E+04  0.27411527468E+04 0.  0.
        3    1    3    3  502    0 -0.72740518460E+03  0.97434282865E+03  0.88058323817E+03  0.15012958069E+04  0.10100000352E+00 0. -1.
       -3    1    3    3    0  502  0.72740518460E+03 -0.97434282865E+03 -0.40338026944E+03  0.12810846585E+04  0.10100000352E+00 0.  1.
</event>
<event>
 5   0  0.1904553E-05  0.2741775E+04  0.7818609E-02  0.8321576E-01
        2   -1    0    0  501    0  0.00000000000E+00  0.00000000000E+00  0.11973348037E+04  0.11973348037E+04  0.25500000920E-02 0.  1.
       -2   -1    0    0    0  501  0.00000000000E+00  0.00000000000E+00 -0.15695959781E+04  0.15695959781E+04  0.25500000920E-02 0. -1.
    10030    2    1    2    0    0  0.00000000000E+00  0.00000000000E+00 -0.37226117433E+03  0.27669307818E+04  0.27417745293E+04 0.  0.
        1    1    3    3  502    0 -0.42033731821E+03 -0.54934293194E+03  0.10083128670E+04  0.12227656995E+04  0.50400001928E-02 0.  1.
       -1    1    3    3    0  502  0.42033731821E+03  0.54934293194E+03 -0.13805740413E+04  0.15441650824E+04  0.50400001928E-02 0. -1.
</event>
<event>
 5   0  0.1904553E-05  0.2476235E+04  0.7818609E-02  0.8411501E-01
        2   -1    0    0  501    0  0.00000000000E+00  0.00000000000E+00  0.10483051316E+04  0.10483051316E+04  0.25500000920E-02 0. -1.
       -2   -1    0    0    0  501  0.00000000000E+00  0.00000000000E+00 -0.14622986790E+04  0.14622986790E+04  0.25500000920E-02 0.  1.
    10030    2    1    2    0    0  0.00000000000E+00  0.00000000000E+00 -0.41399354739E+03  0.25106038105E+04  0.24762352142E+04 0.  0.
        1    1    3    3  502    0  0.51935991032E+03  0.97455065975E+03 -0.77463478179E+03  0.13489042776E+04  0.50400001928E-02 0.  1.
       -1    1    3    3    0  502 -0.51935991032E+03 -0.97455065975E+03  0.36064123440E+03  0.11616995329E+04  0.50400001928E-02 0. -1.
</event>
<event>
 5   0  0.1832502E-05  0.2320928E+04  0.7818609E-02  0.8469715E-01
       -2   -1    0    0    0  501  0.00000000000E+00  0.00000000000E+00  0.75018294187E+03  0.75018294187E+03  0.25500000920E-02 0. -1.
        2   -1    0    0  501    0  0.00000000000E+00  0.00000000000E+00 -0.17951313387E+04  0.17951313387E+04  0.25500000920E-02 0.  1.
    10030    2    1    2    0    0  0.00000000000E+00  0.00000000000E+00 -0.10449483969E+04  0.25453142806E+04  0.23209281839E+04 0.  0.
        2    1    3    3  502    0 -0.62847409621E+03 -0.91984715659E+03 -0.16613195763E+03  0.11263650867E+04  0.25500000920E-02 0. -1.
       -2    1    3    3    0  502  0.62847409621E+03  0.91984715659E+03 -0.87881643923E+03  0.14189491939E+04  0.25500000920E-02 0.  1.
</event>
<event>
 5   0  0.7388013E-06  0.2725772E+04  0.7818609E-02  0.8326691E-01
        1   -1    0    0  501    0  0.00000000000E+00  0.00000000000E+00  0.11254143945E+04  0.11254143945E+04  0.50400001928E-02 0.  1.
       -1   -1    0    0    0  501  0.00000000000E+00  0.00000000000E+00 -0.16504664552E+04  0.16504664552E+04  0.50400001928E-02 0. -1.
    10030    2    1    2    0    0  0.00000000000E+00  0.00000000000E+00 -0.52505206072E+03  0.27758808497E+04  0.27257723355E+04 0.  0.
        1    1    3    3  502    0  0.97448163090E+03 -0.74536873634E+03 -0.86696003430E+03  0.15022678533E+04  0.50400001928E-02 0. -1.
       -1    1    3    3    0  502 -0.97448163090E+03  0.74536873634E+03  0.34190797358E+03  0.12736129964E+04  0.50400001928E-02 0.  1.
</event>
<event>
 5   0  0.1904553E-05  0.2294956E+04  0.7818609E-02  0.8479913E-01
       -2   -1    0    0    0  501  0.00000000000E+00  0.00000000000E+00  0.98214727812E+03  0.98214727813E+03  0.25500000920E-02 0.  1.
        2   -1    0    0  501    0  0.00000000000E+00  0.00000000000E+00 -0.13406395950E+04  0.13406395950E+04  0.25500000920E-02 0. -1.
    10030    2    1    2    0    0  0.00000000000E+00  0.00000000000E+00 -0.35849231684E+03  0.23227868731E+04  0.22949557984E+04 0.  0.
        1    1    3    3  502    0 -0.66157577376E+03  0.84562362870E+03  0.23056370624E+03  0.10981445481E+04  0.50400001928E-02 0.  1.
       -1    1    3    3    0  502  0.66157577376E+03 -0.84562362870E+03 -0.58905602308E+03  0.12246423250E+04  0.50400001928E-02 0. -1.
</event>
<event>
 5   0  0.1923559E-05  0.2837586E+04  0.7818609E-02  0.8291694E-01
       -2   -1    0    0    0  501  0.00000000000E+00  0.00000000000E+00  0.12288903100E+04  0.12288903100E+04  0.25500000920E-02 0. -1.
        2   -1    0    0  501    0  0.00000000000E+00  0.00000000000E+00 -0.16380413223E+04  0.16380413223E+04  0.25500000920E-02 0.  1.
    10030    2    1    2    0    0  0.00000000000E+00  0.00000000000E+00 -0.40915101226E+03  0.28669316323E+04  0.28375856698E+04 0.  0.
        4    1    3    3  502    0  0.12546070637E+04  0.26411401011E+03  0.40930708850E+03  0.13458562331E+04  0.12699999809E+01 0. -1.
       -4    1    3    3    0  502 -0.12546070637E+04 -0.26411401011E+03 -0.81845810076E+03  0.15210753992E+04  0.12699999809E+01 0.  1.
</event>
<event>
 5   0  0.1874272E-05  0.2694544E+04  0.7818609E-02  0.8336777E-01
       -2   -1    0    0    0  501  0.00000000000E+00  0.00000000000E+00  0.17247657066E+04  0.17247657066E+04  0.25500000920E-02 0.  1.
        2   -1    0    0  501    0  0.00000000000E+00  0.00000000000E+00 -0.10523991866E+04  0.10523991866E+04  0.25500000920E-02 0. -1.
    10030    2    1    2    0    0  0.00000000000E+00  0.00000000000E+00  0.67236652004E+03  0.27771648933E+04  0.26945441372E+04 0.  0.
        3    1    3    3  502    0 -0.12147322225E+03  0.23317986602E+03 -0.10257008536E+04  0.10588629963E+04  0.10100000352E+00 0. -1.
       -3    1    3    3    0  502  0.12147322225E+03 -0.23317986602E+03  0.16980673736E+04  0.17183018970E+04  0.10100000352E+00 0.  1.
</event>
<event>
 5   0  0.7613444E-06  0.2823610E+04  0.7818609E-02  0.8295976E-01
       -1   -1    0    0    0  501  0.00000000000E+00  0.00000000000E+00  0.14978744622E+04  0.14978744622E+04  0.50400001928E-02 0. -1.
        1   -1    0    0  501    0  0.00000000000E+00  0.00000000000E+00 -0.13306814874E+04  0.13306814874E+04  0.50400001928E-02 0.  1.
    10030    2    1    2    0    0  0.00000000000E+00  0.00000000000E+00  0.16719297478E+03  0.28285559495E+04  0.28236103253E+04 0.  0.
        5    1    3    3  502    0  0.75107899639E+03  0.10360849129E+04  0.68094632424E+03  0.14495866970E+04  0.46999998093E+01 0. -1.
       -5    1    3    3    0  502 -0.75107899639E+03 -0.10360849129E+04 -0.51375334946E+03  0.13789692526E+04  0.46999998093E+01 0.  1.
</event>
<event>
 5   0  0.7681342E-06  0.2745104E+04  0.7818609E-02  0.8320517E-01
       -1   -1    0    0    0  501  0.00000000000E+00  0.00000000000E+00  0.13068437024E+04  0.13068437024E+04  0.50400001928E-02 0.  1.
        1   -1    0    0  501    0  0.00000000000E+00  0.00000000000E+00 -0.14415646457E+04  0.14415646457E+04  0.50400001928E-02 0. -1.
    10030    2    1    2    0    0  0.00000000000E+00  0.00000000000E+00 -0.13472094330E+03  0.27484083481E+04  0.27451044999E+04 0.  0.
        2    1    3    3  502    0  0.81666394649E+03  0.41598973994E+03 -0.10903103775E+04  0.14243469326E+04  0.25500000920E-02 0.  1.
       -2    1    3    3    0  502 -0.81666394649E+03 -0.41598973994E+03  0.95558943416E+03  0.13240614155E+04  0.25500000920E-02 0. -1.
</event>
<event>
 5   0  0.1904553E-05  0.2802389E+04  0.7818609E-02  0.8302527E-01
       -2   -1    0    0    0  501  0.00000000000E+00  0.00000000000E+00  0.14407644645E+04  0.14407644645E+04  0.25500000920E-02 0. -1.
        2   -1    0    0  501    0  0.00000000000E+00  0.00000000000E+00 -0.13627112690E+04  0.13627112690E+04  0.25500000920E-02 0.  1.
    10030    2    1    2    0    0  0.00000000000E+00  0.00000000000E+00  0.78053195440E+02  0.28034757335E+04  0.28023889607E+04 0.  0.
        1    1    3    3  502    0 -0.38829022650E+03  0.10246679478E+04  0.91265345417E+03  0.14260610192E+04  0.50400001928E-02 0. -1.
       -1    1    3    3    0  502  0.38829022650E+03 -0.10246679478E+04 -0.83460025873E+03  0.13774147143E+04  0.50400001928E-02 0.  1.
</event>
<event>
 5   0  0.1923559E-05  0.2785888E+04  0.7818609E-02  0.8307663E-01
        2   -1    0    0  501    0  0.00000000000E+00  0.00000000000E+00  0.26317373061E+04  0.26317373061E+04  0.25500000920E-02 0.  1.
       -2   -1    0    0    0  501  0.00000000000E+00  0.00000000000E+00 -0.73726675928E+03  0.73726675928E+03  0.25500000920E-02 0. -1.
    10030    2    1    2    0    0  0.00000000000E+00  0.00000000000E+00  0.18944705468E+04  0.33690040654E+04  0.27858876036E+04 0.  0.
        4    1    3    3  502    0  0.84600629107E+03  0.39207400732E+03 -0.30417775739E+03  0.98080293268E+03  0.12699999809E+01 0. -1.
       -4    1    3    3    0  502 -0.84600629107E+03 -0.39207400732E+03  0.21986483042E+04  0.23882011327E+04  0.12699999809E+01 0.  1.
</event>
<event>
 5   0  0.1874272E-05  0.2860309E+04  0.7818609E-02  0.8284786E-01
        2   -1    0    0  501    0  0.00000000000E+00  0.00000000000E+00  0.25987581983E+04  0.25987581983E+04  0.25500000920E-02 0.  1.
       -2   -1    0    0    0  501  0.00000000000E+00  0.00000000000E+00 -0.78704561594E+03  0.78704561595E+03  0.25500000920E-02 0. -1.
    10030    2    1    2    0    0  0.00000000000E+00  0.00000000000E+00  0.18117125824E+04  0.33858038143E+04  0.28603085476E+04 0.  0.
        3    1    3    3  502    0  0.13201570309E+04 -0.14510801808E+03  0.15338643321E+04  0.20289432527E+04  0.10100000352E+00 0.  1.
       -3    1    3    3    0  502 -0.13201570309E+04  0.14510801808E+03  0.27784825027E+03  0.13568605616E+04  0.10100000352E+00 0. -1.
</event>
<event>
 5   0  0.7388013E-06  0.2785859E+04  0.7818609E-02  0.8307672E-01
       -1   -1    0    0    0  501  0.00000000000E+00  0.00000000000E+00  0.22055692676E+04  0.22055692676E+04  0.50400001928E-02 0. -1.
        1   -1    0    0  501    0  0.00000000000E+00  0.00000000000E+00 -0.87970633288E+03  0.87970633290E+03  0.50400001928E-02 0.  1.
    10030    2    1    2    0    0  0.00000000000E+00  0.00000000000E+00  0.13258629347E+04  0.30852756005E+04  0.27858594741E+04 0.  0.
        1    1    3    3  502    0  0.70877437855E+03  0.77625684163E+03  0.16751179554E+04  0.19776137056E+04  0.50400001928E-02 0.  1.
       -1    1    3    3    0  502 -0.70877437855E+03 -0.77625684163E+03 -0.34925502074E+03  0.11076618949E+04  0.50400001928E-02 0. -1.
</event>
<event>
 5   0  0.1832502E-05  0.2803531E+04  0.7818609E-02  0.8302173E-01
       -2   -1    0    0    0  501  0.00000000000E+00  0.00000000000E+00  0.90536568193E+03  0.90536568193E+03  0.25500000920E-02 0.  1.
        2   -1    0    0  501    0  0.00000000000E+00  0.00000000000E+00 -0.21703354075E+04  0.21703354075E+04  0.25500000920E-02 0. -1.
    10030    2    1    2    0    0  0.00000000000E+00  0.00000000000E+00 -0.12649697255E+04  0.30757010894E+04  0.28035314845E+04 0.  0.
        2    1    3    3  502    0 -0.99598385107E+03 -0.25715874050E+02  0.44929599263E+03  0.10929373389E+04  0.25500000920E-02 0.  1.
       -2    1    3    3    0  502  0.99598385107E+03  0.25715874050E+02 -0.17142657182E+04  0.19827637505E+04  0.25500000920E-02 0. -1.
</event>
<event>
 5   0  0.7388013E-06  0.2784117E+04  0.7818609E-02  0.8308216E-01
       -1   -1    0    0    0  501  0.00000000000E+00  0.00000000000E+00  0.18418764106E+04  0.18418764106E+04  0.50400001928E-02 0.  1.
        1   -1    0    0  501    0  0.00000000000E+00  0.00000000000E+00 -0.10520940400E+04  0.10520940400E+04  0.50400001928E-02 0. -1.
    10030    2    1    2    0    0  0.00000000000E+00  0.00000000000E+00  0.78978237059E+03  0.28939704507E+04  0.27841172347E+04 0.  0.
        1    1    3    3  502    0  0.10153197059E+02  0.11743956000E+04  0.11717204557E+04  0.16589867206E+04  0.50400001928E-02 0.  1.
       -1    1    3    3    0  502 -0.10153197059E+02 -0.11743956000E+04 -0.38193808511E+03  0.12349837301E+04  0.50400001928E-02 0. -1.
</event>
<event>
 5   0  0.7681342E-06  0.2824087E+04  0.7818609E-02  0.8295829E-01
       -1   -1    0    0    0  501  0.00000000000E+00  0.00000000000E+00  0.21111878541E+04  0.21111878541E+04  0.50400001928E-02 0. -1.
        1   -1    0    0  501    0  0.00000000000E+00  0.00000000000E+00 -0.94442885695E+03  0.94442885696E+03  0.50400001928E-02 0.  1.
    10030    2    1    2    0    0  0.00000000000E+00  0.00000000000E+00  0.11667589972E+04  0.30556167111E+04  0.28240869193E+04 0.  0.
        2    1    3    3  502    0  0.19687028190E+03 -0.42716473582E+03 -0.85717927249E+03  0.97774430431E+03  0.25500000920E-02 0.  1.
       -2    1    3    3    0  502 -0.19687028190E+03  0.42716473582E+03  0.20239382697E+04  0.20778724068E+04  0.25500000920E-02 0. -1.
</event>
<event>
 5   0  0.1814230E-05  0.2530166E+04  0.7818609E-02  0.8392317E-01
       -2   -1    0    0    0  501  0.00000000000E+00  0.00000000000E+00  0.13976178169E+04  0.13976178169E+04  0.25500000920E-02 0.  1.
        2   -1    0    0  501    0  0.00000000000E+00  0.00000000000E+00 -0.11451163801E+04  0.11451163801E+04  0.25500000920E-02 0. -1.
    10030    2    1    2    0    0  0.00000000000E+00  0.00000000000E+00  0.25250143681E+03  0.25427341970E+04  0.25301660461E+04 0.  0.
        5    1    3    3  502    0 -0.63861555959E+03  0.44884370952E+03  0.11267472760E+04  0.13707195273E+04  0.46999998093E+01 0.  1.
       -5    1    3    3    0  502  0.63861555959E+03 -0.44884370952E+03 -0.87424583922E+03  0.11720146697E+04  0.46999998093E+01 0. -1.
</event>
<event>
 5   0  0.7388013E-06  0.2797924E+04  0.7818609E-02  0.8303913E-01
       -1   -1    0    0    0  501  0.00000000000E+00  0.00000000000E+00  0.86941334140E+03  0.86941334142E+03  0.50400001928E-02 0. -1.
        1   -1    0    0  501    0  0.00000000000E+00  0.00000000000E+00 -0.22510516895E+04  0.22510516895E+04  0.50400001928E-02 0.  1.
    10030    2    1    2    0    0  0.00000000000E+00  0.00000000000E+00 -0.13816383481E+04  0.31204650309E+04  0.27979237810E+04 0.  0.
        1    1    3    3  502    0 -0.82067387596E+01 -0.12552883514E+04 -0.21598787797E+01  0.12553170360E+04  0.50400001928E-02 0. -1.
       -1    1    3    3    0  502  0.82067387596E+01  0.12552883514E+04 -0.13794784693E+04  0.18651479949E+04  0.50400001928E-02 0.  1.
</event>
<event>
 5   0  0.1923559E-05  0.2812474E+04  0.7818609E-02  0.8299406E-01
        2   -1    0    0  501    0  0.00000000000E+00  0.00000000000E+00  0.26588871992E+04  0.26588871992E+04  0.25500000920E-02 0.  1.
       -2   -1    0    0    0  501  0.00000000000E+00  0.00000000000E+00 -0.74373304082E+03  0.74373304083E+03  0.25500000920E-02 0. -1.
    10030    2    1    2    0    0  0.00000000000E+00  0.00000000000E+00  0.19151541583E+04  0.34026202400E+04  0.28124738305E+04 0.  0.
        4    1    3    3  502    0  0.19856340096E+03 -0.24175045015E+03  0.26162515811E+04  0.26348898749E+04  0.12699999809E+01 0.  1.
       -4    1    3    3    0  502 -0.19856340096E+03  0.24175045015E+03 -0.70109742277E+03  0.76773036508E+03  0.12699999809E+01 0. -1.
</event>
<event>
 5   0  0.1874272E-05  0.2853085E+04  0.7818609E-02  0.8286975E-01
        2   -1    0    0  501    0  0.00000000000E+00  0.00000000000E+00  0.20397878241E+04  0.20397878241E+04  0.25500000920E-02 0. -1.
       -2   -1    0    0    0  501  0.00000000000E+00  0.00000000000E+00 -0.99766405583E+03  0.99766405584E+03  0.25500000920E-02 0.  1.
    10030    2    1    2    0    0  0.00000000000E+00  0.00000000000E+00  0.10421237682E+04  0.30374518799E+04  0.28530846420E+04 0.  0.
        3    1    3    3  502    0  0.12027573898E+04 -0.31609245970E+03  0.12651417741E+04  0.17740133879E+04  0.10100000352E+00 0. -1.
       -3    1    3    3    0  502 -0.12027573898E+04  0.31609245970E+03 -0.22301800588E+03  0.12634384920E+04  0.10100000352E+00 0.  1.
</event>
<event>
 5   0  0.1874272E-05  0.2805863E+04  0.7818609E-02  0.8301450E-01
       -2   -1    0    0    0  501  0.00000000000E+00  0.00000000000E+00  0.13131639789E+04  0.13131639789E+04  0.25500000920E-02 0.  1.
        2   -1    0    0  501    0  0.00000000000E+00  0.00000000000E+00 -0.14988357989E+04  0.14988357989E+04  0.25500000920E-02 0. -1.
    10030    2    1    2    0    0  0.00000000000E+00  0.00000000000E+00 -0.18567182008E+03  0.28119997778E+04  0.28058632764E+04 0.  0.
        3    1    3    3  502    0 -0.94434899203E+03 -0.72284922380E+03  0.65304386572E+03  0.13567506476E+04  0.10100000352E+00 0.  1.
       -3    1    3    3    0  502  0.94434899203E+03  0.72284922380E+03 -0.83871568580E+03  0.14552491302E+04  0.10100000352E+00 0. -1.
</event>
<event>
 5   0  0.7555871E-06  0.2852488E+04  0.7818609E-02  0.8287156E-01
       -1   -1    0    0    0  501  0.00000000000E+00  0.00000000000E+00  0.18535804197E+04  0.18535804197E+04  0.50400001928E-02 0. -1.
        1   -1    0    0  501    0  0.00000000000E+00  0.00000000000E+00 -0.10974284057E+04  0.10974284057E+04  0.50400001928E-02 0.  1.
    10030    2    1    2    0    0  0.00000000000E+00  0.00000000000E+00  0.75615201401E+03  0.29510088255E+04  0.28524879000E+04 0.  0.
        3    1    3    3  502    0  0.18809235750E+03  0.27449414914E+03  0.18128605819E+04  0.18431465684E+04  0.10100000352E+00 0. -1.
       -3    1    3    3    0  502 -0.18809235750E+03 -0.27449414914E+03 -0.10567085679E+04  0.11078622571E+04  0.10100000352E+00 0.  1.
</event>
<event>
 5   0  0.1832502E-05  0.2841141E+04  0.7818609E-02  0.8290608E-01
       -2   -1    0    0    0  501  0.00000000000E+00  0.00000000000E+00  0.15598559440E+04  0.15598559440E+04  0.25500000920E-02 0. -1.
        2   -1    0    0  501    0  0.00000000000E+00  0.00000000000E+00 -0.12937227366E+04  0.12937227366E+04  0.25500000920E-02 0.  1.
    10030    2    1    2    0    0  0.00000000000E+00  0.00000000000E+00  0.26613320742E+03  0.28535786806E+04  0.28411413908E+04 0.  0.
        2    1    3    3  502    0 -0.48054391754E+03 -0.12603070317E+04  0.58080369271E+03  0.14685466286E+04  0.25500000920E-02 0.  1.
       -2    1    3    3    0  502  0.48054391754E+03  0.12603070317E+04 -0.31467048529E+03  0.13850320520E+04  0.25500000920E-02 0. -1.
</event>
<event>
 5   0  0.1923559E-05  0.2783116E+04  0.7818609E-02  0.8308529E-01
        2   -1    0    0  501    0  0.00000000000E+00  0.00000000000E+00  0.74121932291E+03  0.74121932292E+03  0.25500000920E-02 0.  1.
       -2   -1    0    0    0  501  0.00000000000E+00  0.00000000000E+00 -0.26124982277E+04  0.26124982277E+04  0.25500000920E-02 0. -1.
    10030    2    1    2    0    0  0.00000000000E+00  0.00000000000E+00 -0.18712789048E+04  0.33537175506E+04  0.27831163594E+04 0.  0.
        4    1    3    3  502    0 -0.76800858314E+03 -0.11582900095E+04 -0.85077622794E+03  0.16295075123E+04  0.12699999809E+01 0.  1.
       -4    1    3    3    0  502  0.76800858314E+03  0.11582900095E+04 -0.10205026769E+04  0.17242100383E+04  0.12699999809E+01 0. -1.
</event>
<event>
 5   0  0.1923559E-05  0.1942299E+04  0.7818609E-02  0.8634083E-01
       -2   -1    0    0    0  501  0.00000000000E+00  0.00000000000E+00  0.36901604216E+03  0.36901604217E+03  0.25500000920E-02 0.  1.
        2   -1    0    0  501    0  0.00000000000E+00  0.00000000000E+00 -0.25557994786E+04  0.25557994786E+04  0.25500000920E-02 0. -1.
    10030    2    1    2    0    0  0.00000000000E+00  0.00000000000E+00 -0.21867834364E+04  0.29248155208E+04  0.19422986466E+04 0.  0.
        4    1    3    3  502    0  0.28680523040E+03 -0.52319468557E+03 -0.22472517006E+04  0.23251089733E+04  0.12699999809E+01 0. -1.
       -4    1    3    3    0  502 -0.28680523040E+03  0.52319468557E+03  0.60468264121E+02  0.59970654746E+03  0.12699999809E+01 0.  1.
</event>
<event>
 5   0  0.7509685E-06  0.2838698E+04  0.7818609E-02  0.8291354E-01
        1   -1    0    0  501    0  0.00000000000E+00  0.00000000000E+00  0.13334499108E+04  0.13334499108E+04  0.50400001928E-02 0.  1.
       -1   -1    0    0    0  501  0.00000000000E+00  0.00000000000E+00 -0.15107820729E+04  0.15107820729E+04  0.50400001928E-02 0. -1.
    10030    2    1    2    0    0  0.00000000000E+00  0.00000000000E+00 -0.17733216210E+03  0.28442319838E+04  0.28386984486E+04 0.  0.
        4    1    3    3  502    0  0.11718136301E+04 -0.78601285121E+03  0.65214617557E+02  0.14125218388E+04  0.12699999809E+01 0.  1.
       -4    1    3    3    0  502 -0.11718136301E+04  0.78601285121E+03 -0.24254677966E+03  0.14317101450E+04  0.12699999809E+01 0. -1.
</event>
<event>
 5   0  0.7613444E-06  0.2613818E+04  0.7818609E-02  0.8363523E-01
       -1   -1    0    0    0  501  0.00000000000E+00  0.00000000000E+00  0.90137694375E+03  0.90137694376E+03  0.50400001928E-02 0. -1.
        1   -1    0    0  501    0  0.00000000000E+00  0.00000000000E+00 -0.18948907769E+04  0.18948907769E+04  0.50400001928E-02 0.  1.
    10030    2    1    2    0    0  0.00000000000E+00  0.00000000000E+00 -0.99351383317E+03  0.27962677207E+04  0.26138177880E+04 0.  0.
        5    1    3    3  502    0  0.80926436458E+03 -0.10030748370E+04 -0.26502477870E+03  0.13157994390E+04  0.46999998093E+01 0. -1.
       -5    1    3    3    0  502 -0.80926436458E+03  0.10030748370E+04 -0.72848905447E+03  0.14804682816E+04  0.46999998093E+01 0.  1.
</event>
<event>
 5   0  0.7388013E-06  0.3751133E+04  0.7818609E-02  0.8056724E-01
       -1   -1    0    0    0  501  0.00000000000E+00  0.00000000000E+00  0.17243688133E+04  0.17243688133E+04  0.50400001928E-02 0. -1.
        1   -1    0    0  501    0  0.00000000000E+00  0.00000000000E+00 -0.20400215498E+04  0.20400215498E+04  0.50400001928E-02 0.  1.
    10030    2    1    2    0    0  0.00000000000E+00  0.00000000000E+00 -0.31565273654E+03  0.37643903631E+04  0.37511329163E+04 0.  0.
        1    1    3    3  502    0 -0.55975470685E+03 -0.12257670240E+04 -0.14670134026E+04  0.19919735069E+04  0.50400001928E-02 0.  1.
       -1    1    3    3    0  502  0.55975470685E+03  0.12257670240E+04  0.11513606660E+04  0.17724168562E+04  0.50400001928E-02 0. -1.
</event>
<event>
 5   0  0.7509685E-06  0.2720424E+04  0.7818609E-02  0.8328408E-01
        1   -1    0    0  501    0  0.00000000000E+00  0.00000000000E+00  0.16958255577E+04  0.16958255578E+04  0.50400001928E-02 0.  1.
       -1   -1    0    0    0  501  0.00000000000E+00  0.00000000000E+00 -0.10910183580E+04  0.10910183580E+04  0.50400001928E-02 0. -1.
    10030    2    1    2    0    0  0.00000000000E+00  0.00000000000E+00  0.60480719978E+03  0.27868439157E+04  0.27204240959E+04 0.  0.
        4    1    3    3  502    0 -0.43291198308E+03  0.22059762119E+03  0.16038944863E+04  0.16758744677E+04  0.12699999809E+01 0.  1.
       -4    1    3    3    0  502  0.43291198308E+03 -0.22059762119E+03 -0.99908728648E+03  0.11109694480E+04  0.12699999809E+01 0. -1.
</event>
<event>
 5   0  0.7388013E-06  0.2639653E+04  0.7818609E-02  0.8354855E-01
       -1   -1    0    0    0  501  0.00000000000E+00  0.00000000000E+00  0.13790329660E+04  0.13790329660E+04  0.50400001928E-02 0.  1.
        1   -1    0    0  501    0  0.00000000000E+00  0.00000000000E+00 -0.12631621598E+04  0.12631621598E+04  0.50400001928E-02 0. -1.
    10030    2    1    2    0    0  0.00000000000E+00  0.00000000000E+00  0.11587080627E+03  0.26421951258E+04  0.26396532043E+04 0.  0.
        1    1    3    3  502    0  0.20692318018E+03  0.12178215527E+04  0.52317942262E+03  0.13415003708E+04  0.50400001928E-02 0.  1.
       -1    1    3    3    0  502 -0.20692318018E+03 -0.12178215527E+04 -0.40730861635E+03  0.13006947550E+04  0.50400001928E-02 0. -1.
</event>
<event>
 5   0  0.1832502E-05  0.2846402E+04  0.7818609E-02  0.8289005E-01
       -2   -1    0    0    0  501  0.00000000000E+00  0.00000000000E+00  0.10149627882E+04  0.10149627882E+04  0.25500000920E-02 0.  1.
        2   -1    0    0  501    0  0.00000000000E+00  0.00000000000E+00 -0.19956413142E+04  0.19956413142E+04  0.25500000920E-02 0. -1.
    10030    2    1    2    0    0  0.00000000000E+00  0.00000000000E+00 -0.98067852596E+03  0.30106041024E+04  0.28464024119E+04 0.  0.
        2    1    3    3  502    0 -0.39631897155E+03  0.32650696035E+03 -0.18942479982E+04  0.19626133091E+04  0.25500000920E-02 0. -1.
       -2    1    3    3    0  502  0.39631897155E+03 -0.32650696035E+03  0.91356947222E+03  0.10479907934E+04  0.25500000920E-02 0.  1.
</event>
<event>
 5   0  0.7509685E-06  0.2792431E+04  0.7818609E-02  0.8305622E-01
       -1   -1    0    0    0  501  0.00000000000E+00  0.00000000000E+00  0.18371110363E+04  0.18371110363E+04  0.50400001928E-02 0.  1.
        1   -1    0    0  501    0  0.00000000000E+00  0.00000000000E+00 -0.10611326028E+04  0.10611326028E+04  0.50400001928E-02 0. -1.
    10030    2    1    2    0    0  0.00000000000E+00  0.00000000000E+00  0.77597843352E+03  0.28982436391E+04  0.27924314964E+04 0.  0.
        4    1    3    3  502    0 -0.64805635045E+03  0.29941179005E+03 -0.85739195123E+03  0.11156823133E+04  0.12699999809E+01 0. -1.
       -4    1    3    3    0  502  0.64805635045E+03 -0.29941179005E+03  0.16333703847E+04  0.17825613257E+04  0.12699999809E+01 0.  1.
</event>
<event>
 5   0  0.1832502E-05  0.2795949E+04  0.7818609E-02  0.8304527E-01
       -2   -1    0    0    0  501  0.00000000000E+00  0.00000000000E+00  0.18620125281E+04  0.18620125281E+04  0.25500000920E-02 0.  1.
        2   -1    0    0  501    0  0.00000000000E+00  0.00000000000E+00 -0.10495808646E+04  0.10495808646E+04  0.25500000920E-02 0. -1.
    10030    2    1    2    0    0  0.00000000000E+00  0.00000000000E+00  0.81243166353E+03  0.29115933927E+04  0.27959490118E+04 0.  0.
        2    1    3    3  502    0  0.29837396088E+03 -0.52570346571E+03  0.17188854721E+04  0.18220753059E+04  0.25500000920E-02 0.  1.
       -2    1    3    3    0  502 -0.29837396088E+03  0.52570346571E+03 -0.90645380855E+03  0.10895180868E+04  0.25500000920E-02 0. -1.
</event>
<event>
 5   0  0.7388013E-06  0.2848128E+04  0.7818609E-02  0.8288480E-01
       -1   -1    0    0    0  501  0.00000000000E+00  0.00000000000E+00  0.10895182145E+04  0.10895182145E+04  0.50400001928E-02 0. -1.
        1   -1    0    0  501    0  0.00000000000E+00  0.00000000000E+00 -0.18613351067E+04  0.18613351067E+04  0.50400001928E-02 0.  1.
    10030    2    1    2    0    0  0.00000000000E+00  0.00000000000E+00 -0.77181689220E+03  0.29508533212E+04  0.28481281587E+04 0.  0.
        1    1    3    3  502    0 -0.42525086295E+03  0.70629741390E+03 -0.15889360468E+04  0.17900871750E+04  0.50400001928E-02 0.  1.
       -1    1    3    3    0  502  0.42525086295E+03 -0.70629741390E+03  0.81711915461E+03  0.11607661462E+04  0.50400001928E-02 0. -1.
</event>
<event>
 5   0  0.7555871E-06  0.2836579E+04  0.7818609E-02  0.8292001E-01
        1   -1    0    0  501    0  0.00000000000E+00  0.00000000000E+00  0.12033214429E+04  0.12033214429E+04  0.50400001928E-02 0.  1.
       -1   -1    0    0    0  501  0.00000000000E+00  0.00000000000E+00 -0.16716607452E+04  0.16716607452E+04  0.50400001928E-02 0. -1.
    10030    2    1    2    0    0  0.00000000000E+00  0.00000000000E+00 -0.46833930230E+03  0.28749821880E+04  0.28365790804E+04 0.  0.
        3    1    3    3  502    0 -0.13918266725E+04 -0.16302021140E+03 -0.12605088554E+02  0.14013978643E+04  0.10100000352E+00 0.  1.
       -3    1    3    3    0  502  0.13918266725E+04  0.16302021140E+03 -0.45573421374E+03  0.14735843238E+04  0.10100000352E+00 0. -1.
</event>
<event>
 5   0  0.1832502E-05  0.2764635E+04  0.7818609E-02  0.8314333E-01
       -2   -1    0    0    0  501  0.00000000000E+00  0.00000000000E+00  0.20794309656E+04  0.20794309656E+04  0.25500000920E-02 0.  1.
        2   -1    0    0  501    0  0.00000000000E+00  0.00000000000E+00 -0.91890591560E+03  0.91890591560E+03  0.25500000920E-02 0. -1.
    10030    2    1    2    0    0  0.00000000000E+00  0.00000000000E+00  0.11605250500E+04  0.29983368812E+04  0.27646348152E+04 0.  0.
        2    1    3    3  502    0  0.13185023016E+04 -0.66464666092E+02  0.10247033726E+04  0.16711920514E+04  0.25500000920E-02 0. -1.
       -2    1    3    3    0  502 -0.13185023016E+04  0.66464666092E+02  0.13582167745E+03  0.13271448298E+04  0.25500000920E-02 0.  1.
</event>
<event>
 5   0  0.1874272E-05  0.2799279E+04  0.7818609E-02  0.8303492E-01
       -2   -1    0    0    0  501  0.00000000000E+00  0.00000000000E+00  0.11524873492E+04  0.11524873492E+04  0.25500000920E-02 0.  1.
        2   -1    0    0  501    0  0.00000000000E+00  0.00000000000E+00 -0.16997939437E+04  0.16997939437E+04  0.25500000920E-02 0. -1.
    10030    2    1    2    0    0  0.00000000000E+00  0.00000000000E+00 -0.54730659450E+03  0.28522812929E+04  0.27992792046E+04 0.  0.
        3    1    3    3  502    0  0.88641266771E+03 -0.45123175344E+02  0.82907054301E+03  0.12145457974E+04  0.10100000352E+00 0.  1.
       -3    1    3    3    0  502 -0.88641266771E+03  0.45123175344E+02 -0.13763771375E+04  0.16377354955E+04  0.10100000352E+00 0. -1.
</event>
<event>
 5   0  0.1814230E-05  0.2810487E+04  0.7818609E-02  0.8300020E-01
       -2   -1    0    0    0  501  0.00000000000E+00  0.00000000000E+00  0.11165822212E+04  0.11165822212E+04  0.25500000920E-02 0.  1.
        2   -1    0    0  501    0  0.00000000000E+00  0.00000000000E+00 -0.17685305462E+04  0.17685305462E+04  0.25500000920E-02 0. -1.
    10030    2    1    2    0    0  0.00000000000E+00  0.00000000000E+00 -0.65194832495E+03  0.28851127674E+04  0.28104873354E+04 0.  0.
        5    1    3    3  502    0  0.62368676480E+03 -0.10628371565E+04 -0.10192427440E+04  0.15992141392E+04  0.46999998093E+01 0. -1.
       -5    1    3    3    0  502 -0.62368676480E+03  0.10628371565E+04  0.36729441908E+03  0.12858986282E+04  0.46999998093E+01 0.  1.
</event>
<event>
 5   0  0.7509685E-06  0.1998674E+04  0.7818609E-02  0.8607241E-01
        1   -1    0    0  501    0  0.00000000000E+00  0.00000000000E+00  0.13775545908E+04  0.13775545908E+04  0.50400001928E-02 0. -1.
       -1   -1    0    0    0  501  0.00000000000E+00  0.00000000000E+00 -0.72496152836E+03  0.72496152837E+03  0.50400001928E-02 0.  1.
    10030    2    1    2    0    0  0.00000000000E+00  0.00000000000E+00  0.65259306242E+03  0.21025161192E+04  0.19986736417E+04 0.  0.
        4    1    3    3  502    0 -0.21308300811E+03  0.36436672622E+03  0.12791762030E+04  0.13470192466E+04  0.12699999809E+01 0. -1.
       -4    1    3    3    0  502  0.21308300811E+03 -0.36436672622E+03 -0.62658314056E+03  0.75549687256E+03  0.12699999809E+01 0.  1.
</event>
<event>
 5   0  0.7388013E-06  0.2804617E+04  0.7818609E-02  0.8301836E-01
        1   -1    0    0  501    0  0.00000000000E+00  0.00000000000E+00  0.16565048701E+04  0.16565048701E+04  0.50400001928E-02 0. -1.
       -1   -1    0    0    0  501  0.00000000000E+00  0.00000000000E+00 -0.11871197124E+04  0.11871197124E+04  0.50400001928E-02 0.  1.
    10030    2    1    2    0    0  0.00000000000E+00  0.00000000000E+00  0.46938515764E+03  0.28436245825E+04  0.28046173250E+04 0.  0.
        1    1    3    3  502    0 -0.12085941517E+03 -0.70434253608E+03  0.14580240876E+04  0.16237424815E+04  0.50400001928E-02 0. -1.
       -1    1    3    3    0  502  0.12085941517E+03  0.70434253608E+03 -0.98863892994E+03  0.12198821009E+04  0.50400001928E-02 0.  1.
</event>
<event>
 5   0  0.7613444E-06  0.2789836E+04  0.7818609E-02  0.8306431E-01
       -1   -1    0    0    0  501  0.00000000000E+00  0.00000000000E+00  0.10328802917E+04  0.10328802917E+04  0.50400001928E-02 0. -1.
        1   -1    0    0  501    0  0.00000000000E+00  0.00000000000E+00 -0.18838538866E+04  0.18838538866E+04  0.50400001928E-02 0.  1.
    10030    2    1    2    0    0  0.00000000000E+00  0.00000000000E+00 -0.85097359490E+03  0.29167341783E+04  0.27898355162E+04 0.  0.
        5    1    3    3  502    0 -0.99390562739E+03 -0.60142066977E+03 -0.12327606433E+04  0.16938937723E+04  0.46999998093E+01 0.  1.
       -5    1    3    3    0  502  0.99390562739E+03  0.60142066977E+03  0.38178704841E+03  0.12228404060E+04  0.46999998093E+01 0. -1.
</event>
<event>
 5   0  0.1874272E-05  0.2586740E+04  0.7818609E-02  0.8372719E-01
        2   -1    0    0  501    0  0.00000000000E+00  0.00000000000E+00  0.14250877866E+04  0.14250877866E+04  0.25500000920E-02 0. -1.
       -2   -1    0    0    0  501  0.00000000000E+00  0.00000000000E+00 -0.11738265003E+04  0.11738265003E+04  0.25500000920E-02 0.  1.
    10030    2    1    2    0    0  0.00000000000E+00  0.00000000000E+00  0.25126128630E+03  0.25989142869E+04  0.25867398858E+04 0.  0.
        3    1    3    3  502    0  0.37318114236E+03 -0.11936235360E+04 -0.20577706260E+03  0.12674168692E+04  0.10100000352E+00 0. -1.
       -3    1    3    3    0  502 -0.37318114236E+03  0.11936235360E+04  0.45703834890E+03  0.13314974177E+04  0.10100000352E+00 0.  1.
</event>
<event>
 5   0  0.1832502E-05  0.2784263E+04  0.7818609E-02  0.8308171E-01
        2   -1    0    0  501    0  0.00000000000E+00  0.00000000000E+00  0.16272941228E+04  0.16272941228E+04  0.25500000920E-02 0. -1.
       -2   -1    0    0    0  501  0.00000000000E+00  0.00000000000E+00 -0.11909526116E+04  0.11909526116E+04  0.25500000920E-02 0.  1.
    10030    2    1    2    0    0  0.00000000000E+00  0.00000000000E+00  0.43634151122E+03  0.28182467344E+04  0.27842630518E+04 0.  0.
        2    1    3    3  502    0  0.33791311331E+03 -0.28199148498E+03  0.15550203233E+04  0.16161041661E+04  0.25500000920E-02 0. -1.
       -2    1    3    3    0  502 -0.33791311331E+03  0.28199148498E+03 -0.11186788121E+04  0.12021425683E+04  0.25500000920E-02 0.  1.
</event>
<event>
 5   0  0.7681342E-06  0.2862707E+04  0.7818609E-02  0.8284060E-01
       -1   -1    0    0    0  501  0.00000000000E+00  0.00000000000E+00  0.17760797278E+04  0.17760797278E+04  0.50400001928E-02 0.  1.
        1   -1    0    0  501    0  0.00000000000E+00  0.00000000000E+00 -0.11535366705E+04  0.11535366705E+04  0.50400001928E-02 0. -1.
    10030    2    1    2    0    0  0.00000000000E+00  0.00000000000E+00  0.62254305732E+03  0.29296163983E+04  0.28627071773E+04 0.  0.
        2    1    3    3  502    0  0.25271639249E+03 -0.42933310239E+03  0.16844915138E+04  0.17566172457E+04  0.25500000920E-02 0.  1.
       -2    1    3    3    0  502 -0.25271639249E+03  0.42933310239E+03 -0.10619484564E+04  0.11729991526E+04  0.25500000920E-02 0. -1.
</event>
<event>
 5   0  0.7681342E-06  0.2913460E+04  0.7818609E-02  0.8268884E-01
        1   -1    0    0  501    0  0.00000000000E+00  0.00000000000E+00  0.15796623679E+04  0.15796623679E+04  0.50400001928E-02 0. -1.
       -1   -1    0    0    0  501  0.00000000000E+00  0.00000000000E+00 -0.13433640470E+04  0.13433640470E+04  0.50400001928E-02 0.  1.
    10030    2    1    2    0    0  0.00000000000E+00  0.00000000000E+00  0.23629832087E+03  0.29230264150E+04  0.29134595460E+04 0.  0.
        2    1    3    3  502    0 -0.50587938589E+03 -0.13580405090E+04 -0.30233932728E+02  0.14495178743E+04  0.25500000920E-02 0.  1.
       -2    1    3    3    0  502  0.50587938589E+03  0.13580405090E+04  0.26653225360E+03  0.14735085407E+04  0.25500000920E-02 0. -1.
</event>
<event>
 5   0  0.1923559E-05  0.2843456E+04  0.7818609E-02  0.8289903E-01
       -2   -1    0    0    0  501  0.00000000000E+00  0.00000000000E+00  0.74912823380E+03  0.74912823381E+03  0.25500000920E-02 0. -1.
        2   -1    0    0  501    0  0.00000000000E+00  0.00000000000E+00 -0.26982160189E+04  0.26982160189E+04  0.25500000920E-02 0.  1.
    10030    2    1    2    0    0  0.00000000000E+00  0.00000000000E+00 -0.19490877851E+04  0.34473442528E+04  0.28434555039E+04 0.  0.
        4    1    3    3  502    0  0.10171311826E+03  0.73859572996E+02  0.74237726089E+03  0.75294515427E+03  0.12699999809E+01 0. -1.
       -4    1    3    3    0  502 -0.10171311826E+03 -0.73859572996E+02 -0.26914650460E+04  0.26943990985E+04  0.12699999809E+01 0.  1.
</event>
<event>
 5   0  0.7555871E-06  0.2783395E+04  0.7818609E-02  0.8308442E-01
       -1   -1    0    0    0  501  0.00000000000E+00  0.00000000000E+00  0.21451074227E+04  0.21451074227E+04  0.50400001928E-02 0.  1.
        1   -1    0    0  501    0  0.00000000000E+00  0.00000000000E+00 -0.90290197213E+03  0.90290197214E+03  0.50400001928E-02 0. -1.
    10030    2    1    2    0    0  0.00000000000E+00  0.00000000000E+00  0.12422054505E+04  0.30480093948E+04  0.27833948497E+04 0.  0.
        3    1    3    3  502    0 -0.11408990563E+03  0.12770019858E+04  0.28275685460E+02  0.12824001337E+04  0.10100000352E+00 0. -1.
       -3    1    3    3    0  502  0.11408990563E+03 -0.12770019858E+04  0.12139297651E+04  0.17656092611E+04  0.10100000352E+00 0.  1.
</event>
<event>
 5   0  0.1904553E-05  0.2811923E+04  0.7818609E-02  0.8299576E-01
        2   -1    0    0  501    0  0.00000000000E+00  0.00000000000E+00  0.23418965982E+04  0.23418965982E+04  0.25500000920E-02 0. -1.
       -2   -1    0    0    0  501  0.00000000000E+00  0.00000000000E+00 -0.84407126350E+03  0.84407126350E+03  0.25500000920E-02 0.  1.
    10030    2    1    2    0    0  0.00000000000E+00  0.00000000000E+00  0.14978253347E+04  0.31859678617E+04  0.28119229155E+04 0.  0.
        1    1    3    3  502    0 -0.11719814309E+04 -0.39033266237E+03  0.15096648513E+04  0.19506378508E+04  0.50400001928E-02 0. -1.
       -1    1    3    3    0  502  0.11719814309E+04  0.39033266237E+03 -0.11839516644E+02  0.12353300109E+04  0.50400001928E-02 0.  1.
</event>
<event>
 5   0  0.7681342E-06  0.2777056E+04  0.7818609E-02  0.8310427E-01
        1   -1    0    0  501    0  0.00000000000E+00  0.00000000000E+00  0.21347706977E+04  0.21347706977E+04  0.50400001928E-02 0. -1.
       -1   -1    0    0    0  501  0.00000000000E+00  0.00000000000E+00 -0.90314596955E+03  0.90314596956E+03  0.50400001928E-02 0.  1.
    10030    2    1    2    0    0  0.00000000000E+00  0.00000000000E+00  0.12316247282E+04  0.30379166673E+04  0.27770556722E+04 0.  0.
        2    1    3    3  502    0 -0.33934618445E+03  0.32993761534E+03 -0.81217845167E+03  0.94002579766E+03  0.25500000920E-02 0.  1.
       -2    1    3    3    0  502  0.33934618445E+03 -0.32993761534E+03  0.20438031798E+04  0.20978908696E+04  0.25500000920E-02 0. -1.
</event>
<event>
 5   0  0.7509685E-06  0.2790554E+04  0.7818609E-02  0.8306207E-01
        1   -1    0    0  501    0  0.00000000000E+00  0.00000000000E+00  0.15288452128E+04  0.15288452128E+04  0.50400001928E-02 0. -1.
       -1   -1    0    0    0  501  0.00000000000E+00  0.00000000000E+00 -0.12733779620E+04  0.12733779620E+04  0.50400001928E-02 0.  1.
    10030    2    1    2    0    0  0.00000000000E+00  0.00000000000E+00  0.25546725080E+03  0.28022231748E+04  0.27905539244E+04 0.  0.
        4    1    3    3  502    0 -0.65469540503E+03 -0.11694971075E+04 -0.26176285169E+03  0.13656027831E+04  0.12699999809E+01 0. -1.
       -4    1    3    3    0  502  0.65469540503E+03  0.11694971075E+04  0.51723010249E+03  0.14366203916E+04  0.12699999809E+01 0.  1.
</event>
<event>
 5   0  0.1923559E-05  0.2814835E+04  0.7818609E-02  0.8298677E-01
       -2   -1    0    0    0  501  0.00000000000E+00  0.00000000000E+00  0.10319013912E+04  0.10319013912E+04  0.25500000920E-02 0.  1.
        2   -1    0    0  501    0  0.00000000000E+00  0.00000000000E+00 -0.19195864875E+04  0.19195864875E+04  0.25500000920E-02 0. -1.
    10030    2    1    2    0    0  0.00000000000E+00  0.00000000000E+00 -0.88768509630E+03  0.29514878787E+04  0.28148349629E+04 0.  0.
        4    1    3    3  502    0 -0.95264716329E+03  0.10359921526E+04 -0.44127496040E+03  0.14749717155E+04  0.12699999809E+01 0. -1.
       -4    1    3    3    0  502  0.95264716329E+03 -0.10359921526E+04 -0.44641013590E+03  0.14765161632E+04  0.12699999809E+01 0.  1.
</event>
<event>
 5   0  0.1832502E-05  0.2175712E+04  0.7818609E-02  0.8528606E-01
       -2   -1    0    0    0  501  0.00000000000E+00  0.00000000000E+00  0.14009337739E+04  0.14009337739E+04  0.25500000920E-02 0.  1.
        2   -1    0    0  501    0  0.00000000000E+00  0.00000000000E+00 -0.84474444916E+03  0.84474444916E+03  0.25500000920E-02 0. -1.
    10030    2    1    2    0    0  0.00000000000E+00  0.00000000000E+00  0.55618932470E+03  0.22456782230E+04  0.21757123239E+04 0.  0.
        2    1    3    3  502    0 -0.46956788369E+02 -0.59368357436E+03 -0.66154641309E+03  0.89011728616E+03  0.25500000920E-02 0. -1.
       -2    1    3    3    0  502  0.46956788369E+02  0.59368357436E+03  0.12177357378E+04  0.13555609369E+04  0.25500000920E-02 0.  1.
</event>
<event>
 5   0  0.7613444E-06  0.2788609E+04  0.7818609E-02  0.8306813E-01
       -1   -1    0    0    0  501  0.00000000000E+00  0.00000000000E+00  0.13685653763E+04  0.13685653763E+04  0.50400001928E-02 0.  1.
        1   -1    0    0  501    0  0.00000000000E+00  0.00000000000E+00 -0.14205280386E+04  0.14205280386E+04  0.50400001928E-02 0. -1.
    10030    2    1    2    0    0  0.00000000000E+00  0.00000000000E+00 -0.51962662232E+02  0.27890934149E+04  0.27886093234E+04 0.  0.
        5    1    3    3  502    0 -0.18090265567E+03 -0.80271934822E+03  0.10998158087E+04  0.13735723592E+04  0.46999998093E+01 0.  1.
       -5    1    3    3    0  502  0.18090265567E+03  0.80271934822E+03 -0.11517784710E+04  0.14155210557E+04  0.46999998093E+01 0. -1.
</event>
<event>
 5   0  0.1814230E-05  0.2926177E+04  0.7818609E-02  0.8265132E-01
       -2   -1    0    0    0  501  0.00000000000E+00  0.00000000000E+00  0.13451539127E+04  0.13451539127E+04  0.25500000920E-02 0.  1.
        2   -1    0    0  501    0  0.00000000000E+00  0.00000000000E+00 -0.15913623770E+04  0.15913623770E+04  0.25500000920E-02 0. -1.
    10030    2    1    2    0    0  0.00000000000E+00  0.00000000000E+00 -0.24620846432E+03  0.29365162897E+04  0.29261765688E+04 0.  0.
        5    1    3    3  502    0  0.10151658989E+03  0.12575254136E+04  0.62041148447E+03  0.14059190175E+04  0.46999998093E+01 0.  1.
       -5    1    3    3    0  502 -0.10151658989E+03 -0.12575254136E+04 -0.86661994879E+03  0.15305972721E+04  0.46999998093E+01 0. -1.
</event>
<event>
 5   0  0.1832502E-05  0.2778497E+04  0.7818609E-02  0.8309975E-01
        2   -1    0    0  501    0  0.00000000000E+00  0.00000000000E+00  0.18959123334E+04  0.18959123335E+04  0.25500000920E-02 0.  1.
       -2   -1    0    0    0  501  0.00000000000E+00  0.00000000000E+00 -0.10179858849E+04  0.10179858849E+04  0.25500000920E-02 0. -1.
    10030    2    1    2    0    0  0.00000000000E+00  0.00000000000E+00  0.87792644850E+03  0.29138982184E+04  0.27784974317E+04 0.  0.
        2    1    3    3  502    0  0.11070110898E+02  0.25893516432E+02 -0.10176865317E+04  0.10180760769E+04  0.25500000920E-02 0. -1.
       -2    1    3    3    0  502 -0.11070110898E+02 -0.25893516432E+02  0.18956129802E+04  0.18958221415E+04  0.25500000920E-02 0.  1.
</event>
<event>
 5   0  0.6288000E-06  0.2803482E+04  0.7818609E-02  0.8302188E-01
        4   -1    0    0  501    0  0.00000000000E+00  0.00000000000E+00  0.10540324755E+04  0.10540332406E+04  0.12699999809E+01 0. -1.
       -4   -1    0    0    0  501  0.00000000000E+00  0.00000000000E+00 -0.18641508539E+04  0.18641512865E+04  0.12699999809E+01 0.  1.
    10030    2    1    2    0    0  0.00000000000E+00  0.00000000000E+00 -0.81011837846E+03  0.29181845271E+04  0.28034816117E+04 0.  0.
        2    1    3    3  502    0 -0.11469427298E+04  0.69544849669E+02 -0.12407541503E+04  0.16910898773E+04  0.25500000920E-02 0.  1.
       -2    1    3    3    0  502  0.11469427298E+04 -0.69544849669E+02  0.43063577187E+03  0.12270946498E+04  0.25500000920E-02 0. -1.
</event>
<event>
 5   0  0.7555871E-06  0.2807125E+04  0.7818609E-02  0.8301060E-01
        1   -1    0    0  501    0  0.00000000000E+00  0.00000000000E+00  0.19329690124E+04  0.19329690124E+04  0.50400001928E-02 0.  1.
       -1   -1    0    0    0  501  0.00000000000E+00  0.00000000000E+00 -0.10191510608E+04  0.10191510608E+04  0.50400001928E-02 0. -1.
    10030    2    1    2    0    0  0.00000000000E+00  0.00000000000E+00  0.91381795159E+03  0.29521200732E+04  0.28071248062E+04 0.  0.
        3    1    3    3  502    0  0.12706425225E+04 -0.36298696376E+03  0.95430335629E+03  0.16300266445E+04  0.10100000352E+00 0.  1.
       -3    1    3    3    0  502 -0.12706425225E+04  0.36298696376E+03 -0.40485404700E+02  0.13220934286E+04  0.10100000352E+00 0. -1.
</event>
<event>
 5   0  0.1904553E-05  0.2499896E+04  0.7818609E-02  0.8403023E-01
        2   -1    0    0  501    0  0.00000000000E+00  0.00000000000E+00  0.11734473139E+04  0.11734473139E+04  0.25500000920E-02 0.  1.
       -2   -1    0    0    0  501  0.00000000000E+00  0.00000000000E+00 -0.13314359499E+04  0.13314359499E+04  0.25500000920E-02 0. -1.
    10030    2    1    2    0    0  0.00000000000E+00  0.00000000000E+00 -0.15798863607E+03  0.25048832638E+04  0.24998959491E+04 0.  0.
        1    1    3    3  502    0  0.56166103071E+03 -0.78909938109E+03 -0.87065217448E+03  0.13023732781E+04  0.50400001928E-02 0. -1.
       -1    1    3    3    0  502 -0.56166103071E+03  0.78909938109E+03  0.71266353841E+03  0.12025099857E+04  0.50400001928E-02 0.  1.
</event>
<event>
 5   0  0.7555871E-06  0.2815908E+04  0.7818609E-02  0.8298347E-01
       -1   -1    0    0    0  501  0.00000000000E+00  0.00000000000E+00  0.98706054376E+03  0.98706054377E+03  0.50400001928E-02 0. -1.
        1   -1    0    0  501    0  0.00000000000E+00  0.00000000000E+00 -0.20083205946E+04  0.20083205946E+04  0.50400001928E-02 0.  1.
    10030    2    1    2    0    0  0.00000000000E+00  0.00000000000E+00 -0.10212600509E+04  0.29953811384E+04  0.28159076819E+04 0.  0.
        3    1    3    3  502    0  0.12633996572E+04 -0.53431682661E+03 -0.84812239625E+03  0.16127568863E+04  0.10100000352E+00 0.  1.
       -3    1    3    3    0  502 -0.12633996572E+04  0.53431682661E+03 -0.17313765461E+03  0.13826242521E+04  0.10100000352E+00 0. -1.
</event>
<event>
 5   0  0.1832502E-05  0.1754758E+04  0.7818609E-02  0.8730736E-01
       -2   -1    0    0    0  501  0.00000000000E+00  0.00000000000E+00  0.17262572978E+04  0.17262572978E+04  0.25500000920E-02 0.  1.
        2   -1    0    0  501    0  0.00000000000E+00  0.00000000000E+00 -0.44593206379E+03  0.44593206380E+03  0.25500000920E-02 0. -1.
    10030    2    1    2    0    0  0.00000000000E+00  0.00000000000E+00  0.12803252340E+04  0.21721893616E+04  0.17547575097E+04 0.  0.
        2    1    3    3  502    0  0.92210236918E+02 -0.44910200646E+03 -0.28585383717E+03  0.54028488432E+03  0.25500000920E-02 0. -1.
       -2    1    3    3    0  502 -0.92210236918E+02  0.44910200646E+03  0.15661790712E+04  0.16319044773E+04  0.25500000920E-02 0.  1.
</event>
<event>
 5   0  0.1874272E-05  0.2689663E+04  0.7818609E-02  0.8338367E-01
       -2   -1    0    0    0  501  0.00000000000E+00  0.00000000000E+00  0.13058218513E+04  0.13058218513E+04  0.25500000920E-02 0. -1.
        2   -1    0    0  501    0  0.00000000000E+00  0.00000000000E+00 -0.13850061930E+04  0.13850061930E+04  0.25500000920E-02 0.  1.
    10030    2    1    2    0    0  0.00000000000E+00  0.00000000000E+00 -0.79184341699E+02  0.26908280442E+04  0.26896626933E+04 0.  0.
        3    1    3    3  502    0  0.15964223727E+03 -0.13337551928E+04 -0.10429462715E+03  0.13473180536E+04  0.10100000352E+00 0.  1.
       -3    1    3    3    0  502 -0.15964223727E+03  0.13337551928E+04  0.25110285447E+02  0.13435099906E+04  0.10100000352E+00 0. -1.
</event>
<event>
 5   0  0.1904553E-05  0.2762311E+04  0.7818609E-02  0.8315066E-01
       -2   -1    0    0    0  501  0.00000000000E+00  0.00000000000E+00  0.13187128768E+04  0.13187128768E+04  0.25500000920E-02 0.  1.
        2   -1    0    0  501    0  0.00000000000E+00  0.00000000000E+00 -0.14465545738E+04  0.14465545738E+04  0.25500000920E-02 0. -1.
    10030    2    1    2    0    0  0.00000000000E+00  0.00000000000E+00 -0.12784169703E+03  0.27652674507E+04  0.27623107309E+04 0.  0.
        1    1    3    3  502    0  0.17898839245E+03  0.84280457803E+03 -0.11445362107E+04  0.14325918954E+04  0.50400001928E-02 0. -1.
       -1    1    3    3    0  502 -0.17898839245E+03 -0.84280457803E+03  0.10166945136E+04  0.13326755552E+04  0.50400001928E-02 0.  1.
</event>
<event>
 5   0  0.1814230E-05  0.2735611E+04  0.7818609E-02  0.8323542E-01
        2   -1    0    0  501    0  0.00000000000E+00  0.00000000000E+00  0.13242370406E+04  0.13242370406E+04  0.25500000920E-02 0.  1.
       -2   -1    0    0    0  501  0.00000000000E+00  0.00000000000E+00 -0.14128077917E+04  0.14128077917E+04  0.25500000920E-02 0. -1.
    10030    2    1    2    0    0  0.00000000000E+00  0.00000000000E+00 -0.88570751152E+02  0.27370448323E+04  0.27356113825E+04 0.  0.
        5    1    3    3  502    0  0.79129732916E+03  0.91944466610E+03 -0.67655033361E+03  0.13889825057E+04  0.46999998093E+01 0.  1.
       -5    1    3    3    0  502 -0.79129732916E+03 -0.91944466610E+03  0.58797958245E+03  0.13480623267E+04  0.46999998093E+01 0. -1.
</event>
<event>
 5   0  0.7509685E-06  0.2807078E+04  0.7818609E-02  0.8301074E-01
       -1   -1    0    0    0  501  0.00000000000E+00  0.00000000000E+00  0.14424728619E+04  0.14424728619E+04  0.50400001928E-02 0. -1.
        1   -1    0    0  501    0  0.00000000000E+00  0.00000000000E+00 -0.13656560264E+04  0.13656560264E+04  0.50400001928E-02 0.  1.
    10030    2    1    2    0    0  0.00000000000E+00  0.00000000000E+00  0.76816835487E+02  0.28081288883E+04  0.28070780230E+04 0.  0.
        4    1    3    3  502    0  0.17541213192E+03 -0.10188897926E+04 -0.91116467419E+03  0.13780887134E+04  0.12699999809E+01 0.  1.
       -4    1    3    3    0  502 -0.17541213192E+03  0.10188897926E+04  0.98798150968E+03  0.14300401749E+04  0.12699999809E+01 0. -1.
</event>
<event>
 5   0  0.7613444E-06  0.2533214E+04  0.7818609E-02  0.8391247E-01
       -1   -1    0    0    0  501  0.00000000000E+00  0.00000000000E+00  0.74111048158E+03  0.74111048160E+03  0.50400001928E-02 0.  1.
        1   -1    0    0  501    0  0.00000000000E+00  0.00000000000E+00 -0.21647156648E+04  0.21647156648E+04  0.50400001928E-02 0. -1.
    10030    2    1    2    0    0  0.00000000000E+00  0.00000000000E+00 -0.14236051832E+04  0.29058261464E+04  0.25332141393E+04 0.  0.
        5    1    3    3  502    0  0.76425622135E+02 -0.35792605779E+01  0.73844737032E+03  0.74241517734E+03  0.46999998093E+01 0.  1.
       -5    1    3    3    0  502 -0.76425622135E+02  0.35792605779E+01 -0.21620525535E+04  0.21634109690E+04  0.46999998093E+01 0. -1.
</event>
<event>
 5   0  0.1923559E-05  0.2693517E+04  0.7818609E-02  0.8337112E-01
        2   -1    0    0  501    0  0.00000000000E+00  0.00000000000E+00  0.14257505592E+04  0.14257505592E+04  0.25500000920E-02 0. -1.
       -2   -1    0    0    0  501  0.00000000000E+00  0.00000000000E+00 -0.12721426986E+04  0.12721426986E+04  0.25500000920E-02 0.  1.
    10030    2    1    2    0    0  0.00000000000E+00  0.00000000000E+00  0.15360786059E+03  0.26978932577E+04  0.26935167821E+04 0.  0.
        4    1    3    3  502    0  0.13376566138E+04 -0.34772388692E+02 -0.75832043368E+02  0.13402561125E+04  0.12699999809E+01 0.  1.
       -4    1    3    3    0  502 -0.13376566138E+04  0.34772388692E+02  0.22943990396E+03  0.13576371452E+04  0.12699999809E+01 0. -1.
</event>
<event>
 5   0  0.7509685E-06  0.2327738E+04  0.7818609E-02  0.8467064E-01
       -1   -1    0    0    0  501  0.00000000000E+00  0.00000000000E+00  0.10355950058E+04  0.10355950058E+04  0.50400001928E-02 0.  1.
        1   -1    0    0  501    0  0.00000000000E+00  0.00000000000E+00 -0.13080313974E+04  0.13080313974E+04  0.50400001928E-02 0. -1.
    10030    2    1    2    0    0  0.00000000000E+00  0.00000000000E+00 -0.27243639158E+03  0.23436264032E+04  0.23277377710E+04 0.  0.
        4    1    3    3  502    0 -0.27194601208E+03 -0.86942950667E+03 -0.86554299317E+03  0.12565940420E+04  0.12699999809E+01 0. -1.
       -4    1    3    3    0  502  0.27194601208E+03  0.86942950667E+03  0.59310660158E+03  0.10870323612E+04  0.12699999809E+01 0.  1.
</event>
<event>
 5   0  0.7555871E-06  0.2717651E+04  0.7818609E-02  0.8329301E-01
       -1   -1    0    0    0  501  0.00000000000E+00  0.00000000000E+00  0.10121070084E+04  0.10121070084E+04  0.50400001928E-02 0. -1.
        1   -1    0    0  501    0  0.00000000000E+00  0.00000000000E+00 -0.18243190361E+04  0.18243190361E+04  0.50400001928E-02 0.  1.
    10030    2    1    2    0    0  0.00000000000E+00  0.00000000000E+00 -0.81221202766E+03  0.28364260445E+04  0.27176505162E+04 0.  0.
        3    1    3    3  502    0  0.85292937008E+03  0.93398033201E+03 -0.92439609524E+03  0.15666256483E+04  0.10100000352E+00 0.  1.
       -3    1    3    3    0  502 -0.85292937008E+03 -0.93398033201E+03  0.11218406758E+03  0.12698003962E+04  0.10100000352E+00 0. -1.
</event>
<event>
 5   0  0.1904553E-05  0.2668726E+04  0.7818609E-02  0.8345224E-01
       -2   -1    0    0    0  501  0.00000000000E+00  0.00000000000E+00  0.75129635226E+03  0.75129635226E+03  0.25500000920E-02 0.  1.
        2   -1    0    0  501    0  0.00000000000E+00  0.00000000000E+00 -0.23699368215E+04  0.23699368215E+04  0.25500000920E-02 0. -1.
    10030    2    1    2    0    0  0.00000000000E+00  0.00000000000E+00 -0.16186404693E+04  0.31212331738E+04  0.26687262048E+04 0.  0.
        1    1    3    3  502    0  0.44972075668E+03 -0.94742622950E+03  0.15559064537E+03  0.10602234049E+04  0.50400001928E-02 0.  1.
       -1    1    3    3    0  502 -0.44972075668E+03  0.94742622950E+03 -0.17742311146E+04  0.20610097689E+04  0.50400001928E-02 0. -1.
</event>
<event>
 5   0  0.7613444E-06  0.2628058E+04  0.7818609E-02  0.8358733E-01
       -1   -1    0    0    0  501  0.00000000000E+00  0.00000000000E+00  0.13574915539E+04  0.13574915539E+04  0.50400001928E-02 0. -1.
        1   -1    0    0  501    0  0.00000000000E+00  0.00000000000E+00 -0.12719576191E+04  0.12719576191E+04  0.50400001928E-02 0.  1.
    10030    2    1    2    0    0  0.00000000000E+00  0.00000000000E+00  0.85533934822E+02  0.26294491730E+04  0.26280576287E+04 0.  0.
        5    1    3    3  502    0 -0.96118654608E+03 -0.43122527933E+03  0.82855840991E+03  0.13402857705E+04  0.46999998093E+01 0. -1.
       -5    1    3    3    0  502  0.96118654608E+03  0.43122527933E+03 -0.74302447509E+03  0.12891634026E+04  0.46999998093E+01 0.  1.
</event>
<event>
 5   0  0.1923559E-05  0.2731832E+04  0.7818609E-02  0.8324750E-01
       -2   -1    0    0    0  501  0.00000000000E+00  0.00000000000E+00  0.93691710850E+03  0.93691710850E+03  0.25500000920E-02 0.  1.
        2   -1    0    0  501    0  0.00000000000E+00  0.00000000000E+00 -0.19913466232E+04  0.19913466232E+04  0.25500000920E-02 0. -1.
    10030    2    1    2    0    0  0.00000000000E+00  0.00000000000E+00 -0.10544295147E+04  0.29282637317E+04  0.27318321473E+04 0.  0.
        4    1    3    3  502    0 -0.87023955945E+02  0.18722597630E+03  0.92009412960E+03  0.94297484342E+03  0.12699999809E+01 0.  1.
       -4    1    3    3    0  502  0.87023955945E+02 -0.18722597630E+03 -0.19745236443E+04  0.19852888883E+04  0.12699999809E+01 0. -1.
</event>
<event>
 5   0  0.1904553E-05  0.2705614E+04  0.7818609E-02  0.8333186E-01
        2   -1    0    0  501    0  0.00000000000E+00  0.00000000000E+00  0.15439111997E+04  0.15439111997E+04  0.25500000920E-02 0.  1.
       -2   -1    0    0    0  501  0.00000000000E+00  0.00000000000E+00 -0.11853575758E+04  0.11853575758E+04  0.25500000920E-02 0. -1.
    10030    2    1    2    0    0  0.00000000000E+00  0.00000000000E+00  0.35855362396E+03  0.27292687755E+04  0.27056140427E+04 0.  0.
        1    1    3    3  502    0  0.63300057328E+03 -0.38138808882E+02  0.13846896947E+04  0.15229937115E+04  0.50400001928E-02 0.  1.
       -1    1    3    3    0  502 -0.63300057328E+03  0.38138808882E+02 -0.10261360707E+04  0.12062750641E+04  0.50400001928E-02 0. -1.
</event>
<event>
 5   0  0.1874272E-05  0.2790752E+04  0.7818609E-02  0.8306145E-01
       -2   -1    0    0    0  501  0.00000000000E+00  0.00000000000E+00  0.13093040760E+04  0.13093040761E+04  0.25500000920E-02 0.  1.
        2   -1    0    0  501    0  0.00000000000E+00  0.00000000000E+00 -0.14871061432E+04  0.14871061432E+04  0.25500000920E-02 0. -1.
    10030    2    1    2    0    0  0.00000000000E+00  0.00000000000E+00 -0.17780206712E+03  0.27964102192E+04  0.27907519666E+04 0.  0.
        3    1    3    3  502    0  0.99374764353E+03  0.74007437067E+03  0.55413966076E+03  0.13573191323E+04  0.10100000352E+00 0.  1.
       -3    1    3    3    0  502 -0.99374764353E+03 -0.74007437067E+03 -0.73194172789E+03  0.14390910869E+04  0.10100000352E+00 0. -1.
</event>
<event>
 5   0  0.1832502E-05  0.2729792E+04  0.7818609E-02  0.8325403E-01
       -2   -1    0    0    0  501  0.00000000000E+00  0.00000000000E+00  0.14101293341E+04  0.14101293341E+04  0.25500000920E-02 0. -1.
        2   -1    0    0  501    0  0.00000000000E+00  0.00000000000E+00 -0.13211132517E+04  0.13211132517E+04  0.25500000920E-02 0.  1.
    10030    2    1    2    0    0  0.00000000000E+00  0.00000000000E+00  0.89016082463E+02  0.27312425858E+04  0.27297916037E+04 0.  0.
        2    1    3    3  502    0  0.10390510277E+04  0.43779898319E+03  0.81410188927E+03  0.13907037333E+04  0.25500000920E-02 0. -1.
       -2    1    3    3    0  502 -0.10390510277E+04 -0.43779898319E+03 -0.72508580681E+03  0.13405388525E+04  0.25500000920E-02 0.  1.
</event>
<event>
 5   0  0.1904553E-05  0.2939294E+04  0.7818609E-02  0.8261281E-01
        2   -1    0    0  501    0  0.00000000000E+00  0.00000000000E+00  0.16459105861E+04  0.16459105861E+04  0.25500000920E-02 0.  1.
       -2   -1    0    0    0  501  0.00000000000E+00  0.00000000000E+00 -0.13122601856E+04  0.13122601856E+04  0.25500000920E-02 0. -1.
    10030    2    1    2    0    0  0.00000000000E+00  0.00000000000E+00  0.33365040046E+03  0.29581707717E+04  0.29392944263E+04 0.  0.
        1    1    3    3  502    0  0.12811033926E+04  0.49250553766E+03 -0.36197784309E+03  0.14194419911E+04  0.50400001928E-02 0. -1.
       -1    1    3    3    0  502 -0.12811033926E+04 -0.49250553766E+03  0.69562824355E+03  0.15387287806E+04  0.50400001928E-02 0.  1.
</event>
<event>
 5   0  0.1814230E-05  0.2869375E+04  0.7818609E-02  0.8282048E-01
        2   -1    0    0  501    0  0.00000000000E+00  0.00000000000E+00  0.10996823216E+04  0.10996823216E+04  0.25500000920E-02 0.  1.
       -2   -1    0    0    0  501  0.00000000000E+00  0.00000000000E+00 -0.18717475425E+04  0.18717475425E+04  0.25500000920E-02 0. -1.
    10030    2    1    2    0    0  0.00000000000E+00  0.00000000000E+00 -0.77206522097E+03  0.29714298641E+04  0.28693746238E+04 0.  0.
        5    1    3    3  502    0 -0.13035174123E+04  0.24595524123E+03 -0.95196216605E+03  0.16327601417E+04  0.46999998093E+01 0. -1.
       -5    1    3    3    0  502  0.13035174123E+04 -0.24595524123E+03  0.17989694508E+03  0.13386697224E+04  0.46999998093E+01 0.  1.
</event>
<event>
 5   0  0.1832502E-05  0.2740995E+04  0.7818609E-02  0.8321825E-01
        2   -1    0    0  501    0  0.00000000000E+00  0.00000000000E+00  0.21271524446E+04  0.21271524446E+04  0.25500000920E-02 0. -1.
       -2   -1    0    0    0  501  0.00000000000E+00  0.00000000000E+00 -0.88299421554E+03  0.88299421554E+03  0.25500000920E-02 0.  1.
    10030    2    1    2    0    0  0.00000000000E+00  0.00000000000E+00  0.12441582290E+04  0.30101466601E+04  0.27409949319E+04 0.  0.
        2    1    3    3  502    0 -0.94859034915E+03 -0.56771747001E+03  0.15116417468E+04  0.18727486609E+04  0.25500000920E-02 0. -1.
       -2    1    3    3    0  502  0.94859034915E+03  0.56771747001E+03 -0.26748351779E+03  0.11373979992E+04  0.25500000920E-02 0.  1.
</event>
<event>
 5   0  0.7555871E-06  0.2750459E+04  0.7818609E-02  0.8318816E-01
       -1   -1    0    0    0  501  0.00000000000E+00  0.00000000000E+00  0.13975971495E+04  0.13975971495E+04  0.50400001928E-02 0. -1.
        1   -1    0    0  501    0  0.00000000000E+00  0.00000000000E+00 -0.13532195024E+04  0.13532195024E+04  0.50400001928E-02 0.  1.
    10030    2    1    2    0    0  0.00000000000E+00  0.00000000000E+00  0.44377647115E+02  0.27508166519E+04  0.27504586666E+04 0.  0.
        3    1    3    3  502    0  0.21113856409E+03  0.45123114079E+03  0.13041772818E+04  0.13960900502E+04  0.10100000352E+00 0. -1.
       -3    1    3    3    0  502 -0.21113856409E+03 -0.45123114079E+03 -0.12597996347E+04  0.13547266017E+04  0.10100000352E+00 0.  1.
</event>
<event>
 5   0  0.7388013E-06  0.2790807E+04  0.7818609E-02  0.8306128E-01
       -1   -1    0    0    0  501  0.00000000000E+00  0.00000000000E+00  0.15508725228E+04  0.15508725228E+04  0.50400001928E-02 0.  1.
        1   -1    0    0  501    0  0.00000000000E+00  0.00000000000E+00 -0.12555194559E+04  0.12555194559E+04  0.50400001928E-02 0. -1.
    10030    2    1    2    0    0  0.00000000000E+00  0.00000000000E+00  0.29535306692E+03  0.28063919787E+04  0.27908067837E+04 0.  0.
        1    1    3    3  502    0  0.10716832655E+04  0.18505820929E+03 -0.73150515413E+03  0.13106682848E+04  0.50400001928E-02 0.  1.
       -1    1    3    3    0  502 -0.10716832655E+04 -0.18505820929E+03  0.10268582211E+04  0.14957236939E+04  0.50400001928E-02 0. -1.
</event>
<event>
 5   0  0.1832502E-05  0.1900596E+04  0.7818609E-02  0.8654560E-01
        2   -1    0    0  501    0  0.00000000000E+00  0.00000000000E+00  0.84381573919E+03  0.84381573919E+03  0.25500000920E-02 0. -1.
       -2   -1    0    0    0  501  0.00000000000E+00  0.00000000000E+00 -0.10702174195E+04  0.10702174195E+04  0.25500000920E-02 0.  1.
    10030    2    1    2    0    0  0.00000000000E+00  0.00000000000E+00 -0.22640168027E+03  0.19140331587E+04  0.19005960148E+04 0.  0.
        2    1    3    3  502    0 -0.28137086751E+03  0.52803111389E+03 -0.85671581336E+03  0.10449633521E+04  0.25500000920E-02 0.  1.
       -2    1    3    3    0  502  0.28137086751E+03 -0.52803111389E+03  0.63031413309E+03  0.86906980657E+03  0.25500000920E-02 0. -1.
</event>
<event>
 5   0  0.1814230E-05  0.2808316E+04  0.7818609E-02  0.8300691E-01
       -2   -1    0    0    0  501  0.00000000000E+00  0.00000000000E+00  0.79067219627E+03  0.79067219628E+03  0.25500000920E-02 0. -1.
        2   -1    0    0  501    0  0.00000000000E+00  0.00000000000E+00 -0.24936507913E+04  0.24936507913E+04  0.25500000920E-02 0.  1.
    10030    2    1    2    0    0  0.00000000000E+00  0.00000000000E+00 -0.17029785951E+04  0.32843229876E+04  0.28083164693E+04 0.  0.
        5    1    3    3  502    0 -0.27864598671E+03  0.10259084662E+04  0.22133486996E+03  0.10858835028E+04  0.46999998093E+01 0. -1.
       -5    1    3    3    0  502  0.27864598671E+03 -0.10259084662E+04 -0.19243134650E+04  0.21984394848E+04  0.46999998093E+01 0.  1.
</event>
<event>
 5   0  0.1814230E-05  0.2721946E+04  0.7818609E-02  0.8327919E-01
       -2   -1    0    0    0  501  0.00000000000E+00  0.00000000000E+00  0.82680801608E+03  0.82680801608E+03  0.25500000920E-02 0. -1.
        2   -1    0    0  501    0  0.00000000000E+00  0.00000000000E+00 -0.22402385157E+04  0.22402385157E+04  0.25500000920E-02 0.  1.
    10030    2    1    2    0    0  0.00000000000E+00  0.00000000000E+00 -0.14134304997E+04  0.30670465318E+04  0.27219457472E+04 0.  0.
        5    1    3    3  502    0  0.68743552741E+03  0.57903330272E+02 -0.20286140012E+04  0.21427125929E+04  0.46999998093E+01 0.  1.
       -5    1    3    3    0  502 -0.68743552741E+03 -0.57903330272E+02  0.61518350155E+03  0.92433393889E+03  0.46999998093E+01 0. -1.
</event>
<event>
 5   0  0.7509685E-06  0.2816983E+04  0.7818609E-02  0.8298015E-01
        1   -1    0    0  501    0  0.00000000000E+00  0.00000000000E+00  0.19603476434E+04  0.19603476434E+04  0.50400001928E-02 0. -1.
       -1   -1    0    0    0  501  0.00000000000E+00  0.00000000000E+00 -0.10119877910E+04  0.10119877910E+04  0.50400001928E-02 0.  1.
    10030    2    1    2    0    0  0.00000000000E+00  0.00000000000E+00  0.94835985242E+03  0.29723354345E+04  0.28169826988E+04 0.  0.
        4    1    3    3  502    0 -0.13580457126E+04  0.14971030348E+03  0.83531976428E+03  0.16013937848E+04  0.12699999809E+01 0. -1.
       -4    1    3    3    0  502  0.13580457126E+04 -0.14971030348E+03  0.11304008814E+03  0.13709416497E+04  0.12699999809E+01 0.  1.
</event>
<event>
 5   0  0.6288000E-06  0.2797708E+04  0.7818609E-02  0.8303980E-01
       -3   -1    0    0    0  501  0.00000000000E+00  0.00000000000E+00  0.11431366153E+04  0.11431366198E+04  0.10100000352E+00 0.  1.
        3   -1    0    0  501    0  0.00000000000E+00  0.00000000000E+00 -0.17117754497E+04  0.17117754527E+04  0.10100000352E+00 0. -1.
    10030    2    1    2    0    0  0.00000000000E+00  0.00000000000E+00 -0.56863883441E+03  0.28549120725E+04  0.27977084941E+04 0.  0.
        2    1    3    3  502    0 -0.12710721746E+04 -0.16816226149E+03 -0.85512241569E+03  0.15411480672E+04  0.25500000920E-02 0. -1.
       -2    1    3    3    0  502  0.12710721746E+04  0.16816226149E+03  0.28648358128E+03  0.13137640053E+04  0.25500000920E-02 0.  1.
</event>
<event>
 5   0  0.1904553E-05  0.2885684E+04  0.7818609E-02  0.8277150E-01
       -2   -1    0    0    0  501  0.00000000000E+00  0.00000000000E+00  0.90305782331E+03  0.90305782332E+03  0.25500000920E-02 0.  1.
        2   -1    0    0  501    0  0.00000000000E+00  0.00000000000E+00 -0.23052717921E+04  0.23052717921E+04  0.25500000920E-02 0. -1.
    10030    2    1    2    0    0  0.00000000000E+00  0.00000000000E+00 -0.14022139688E+04  0.32083296154E+04  0.28856844781E+04 0.  0.
        1    1    3    3  502    0 -0.35443653566E+03 -0.12284290195E+04  0.42335438179E+02  0.12792401663E+04  0.50400001928E-02 0.  1.
       -1    1    3    3    0  502  0.35443653566E+03  0.12284290195E+04 -0.14445494070E+04  0.19290894492E+04  0.50400001928E-02 0. -1.
</event>
<event>
 5   0  0.1923559E-05  0.1777088E+04  0.7818609E-02  0.8718580E-01
       -2   -1    0    0    0  501  0.00000000000E+00  0.00000000000E+00  0.81064353102E+03  0.81064353102E+03  0.25500000920E-02 0.  1.
        2   -1    0    0  501    0  0.00000000000E+00  0.00000000000E+00 -0.97393057843E+03  0.97393057843E+03  0.25500000920E-02 0. -1.
    10030    2    1    2    0    0  0.00000000000E+00  0.00000000000E+00 -0.16328704741E+03  0.17845741095E+04  0.17770880936E+04 0.  0.
        4    1    3    3  502    0 -0.47269501207E+03  0.17510684139E+02  0.67369634303E+03  0.82317408487E+03  0.12699999809E+01 0.  1.
       -4    1    3    3    0  502  0.47269501207E+03 -0.17510684139E+02 -0.83698339044E+03  0.96140002458E+03  0.12699999809E+01 0. -1.
</event>
<event>
 5   0  0.1832502E-05  0.2811184E+04  0.7818609E-02  0.8299805E-01
       -2   -1    0    0    0  501  0.00000000000E+00  0.00000000000E+00  0.89475911408E+03  0.89475911409E+03  0.25500000920E-02 0.  1.
        2   -1    0    0  501    0  0.00000000000E+00  0.00000000000E+00 -0.22080680403E+04  0.22080680403E+04  0.25500000920E-02 0. -1.
    10030    2    1    2    0    0  0.00000000000E+00  0.00000000000E+00 -0.13133089262E+04  0.31028271543E+04  0.28111840947E+04 0.  0.
        2    1    3    3  502    0 -0.32443173864E+03  0.49688737720E+03  0.74971444354E+03  0.95615101607E+03  0.25500000920E-02 0.  1.
       -2    1    3    3    0  502  0.32443173864E+03 -0.49688737720E+03 -0.20630233697E+04  0.21466761383E+04  0.25500000920E-02 0. -1.
</event>
<event>
 5   0  0.1832502E-05  0.2747703E+04  0.7818609E-02  0.8319691E-01
       -2   -1    0    0    0  501  0.00000000000E+00  0.00000000000E+00  0.14581943501E+04  0.14581943501E+04  0.25500000920E-02 0.  1.
        2   -1    0    0  501    0  0.00000000000E+00  0.00000000000E+00 -0.12943867159E+04  0.12943867159E+04  0.25500000920E-02 0. -1.
    10030    2    1    2    0    0  0.00000000000E+00  0.00000000000E+00  0.16380763416E+03  0.27525810660E+04  0.27477026010E+04 0.  0.
        2    1    3    3  502    0  0.11423679811E+04 -0.75950464765E+03  0.15697338407E+03  0.13807579648E+04  0.25500000920E-02 0. -1.
       -2    1    3    3    0  502 -0.11423679811E+04  0.75950464765E+03  0.68342500940E+01  0.13718231012E+04  0.25500000920E-02 0.  1.
</event>
<event>
 5   0  0.7681342E-06  0.2789229E+04  0.7818609E-02  0.8306620E-01
        1   -1    0    0  501    0  0.00000000000E+00  0.00000000000E+00  0.13962496841E+04  0.13962496841E+04  0.50400001928E-02 0.  1.
       -1   -1    0    0    0  501  0.00000000000E+00  0.00000000000E+00 -0.13929814165E+04  0.13929814165E+04  0.50400001928E-02 0. -1.
    10030    2    1    2    0    0  0.00000000000E+00  0.00000000000E+00  0.32682675514E+01  0.27892311006E+04  0.27892291858E+04 0.  0.
        2    1    3    3  502    0  0.10263857614E+04 -0.40870894942E+03 -0.84950634864E+03  0.13936182307E+04  0.25500000920E-02 0.  1.
       -2    1    3    3    0  502 -0.10263857614E+04  0.40870894942E+03  0.85277461619E+03  0.13956128699E+04  0.25500000920E-02 0. -1.
</event>
<event>
 5   0  0.7555871E-06  0.2702799E+04  0.7818609E-02  0.8334097E-01
       -1   -1    0    0    0  501  0.00000000000E+00  0.00000000000E+00  0.13672499151E+04  0.13672499151E+04  0.50400001928E-02 0.  1.
        1   -1    0    0  501    0  0.00000000000E+00  0.00000000000E+00 -0.13357333162E+04  0.13357333162E+04  0.50400001928E-02 0. -1.
    10030    2    1    2    0    0  0.00000000000E+00  0.00000000000E+00  0.31516598845E+02  0.27029832313E+04  0.27027994844E+04 0.  0.
        3    1    3    3  502    0 -0.19622172168E+03 -0.89589062171E+03  0.10083771776E+04  0.13630654836E+04  0.10100000352E+00 0.  1.
       -3    1    3    3    0  502  0.19622172168E+03  0.89589062171E+03 -0.97686057875E+03  0.13399177477E+04  0.10100000352E+00 0. -1.
</event>
<event>
 5   0  0.1814230E-05  0.2759881E+04  0.7818609E-02  0.8315833E-01
       -2   -1    0    0    0  501  0.00000000000E+00  0.00000000000E+00  0.78525802624E+03  0.78525802624E+03  0.25500000920E-02 0.  1.
        2   -1    0    0  501    0  0.00000000000E+00  0.00000000000E+00 -0.24249808535E+04  0.24249808535E+04  0.25500000920E-02 0. -1.
    10030    2    1    2    0    0  0.00000000000E+00  0.00000000000E+00 -0.16397228272E+04  0.32102388797E+04  0.27598809240E+04 0.  0.
        5    1    3    3  502    0  0.12904870270E+04  0.19070635293E+03 -0.29644594503E+03  0.13377697740E+04  0.46999998093E+01 0. -1.
       -5    1    3    3    0  502 -0.12904870270E+04 -0.19070635293E+03 -0.13432768822E+04  0.18724691058E+04  0.46999998093E+01 0.  1.
</event>
<event>
 5   0  0.1904553E-05  0.2728063E+04  0.7818609E-02  0.8325957E-01
        2   -1    0    0  501    0  0.00000000000E+00  0.00000000000E+00  0.12639654269E+04  0.12639654269E+04  0.25500000920E-02 0. -1.
       -2   -1    0    0    0  501  0.00000000000E+00  0.00000000000E+00 -0.14720196810E+04  0.14720196810E+04  0.25500000920E-02 0.  1.
    10030    2    1    2    0    0  0.00000000000E+00  0.00000000000E+00 -0.20805425410E+03  0.27359851079E+04  0.27280630377E+04 0.  0.
        1    1    3    3  502    0 -0.55766884442E+03 -0.79995114493E+03 -0.10605606962E+04  0.14407308439E+04  0.50400001928E-02 0.  1.
       -1    1    3    3    0  502  0.55766884442E+03  0.79995114493E+03  0.85250644212E+03  0.12952542639E+04  0.50400001928E-02 0. -1.
</event>
<event>
 5   0  0.7509685E-06  0.2645010E+04  0.7818609E-02  0.8353071E-01
        1   -1    0    0  501    0  0.00000000000E+00  0.00000000000E+00  0.28489154237E+04  0.28489154237E+04  0.50400001928E-02 0. -1.
       -1   -1    0    0    0  501  0.00000000000E+00  0.00000000000E+00 -0.61392453579E+03  0.61392453581E+03  0.50400001928E-02 0.  1.
    10030    2    1    2    0    0  0.00000000000E+00  0.00000000000E+00  0.22349908879E+04  0.34628399595E+04  0.26450097006E+04 0.  0.
        4    1    3    3  502    0 -0.99859154082E+03 -0.77113577417E+03  0.59844856723E+03  0.13964160369E+04  0.12699999809E+01 0.  1.
       -4    1    3    3    0  502  0.99859154082E+03  0.77113577417E+03  0.16365423206E+04  0.20664239226E+04  0.12699999809E+01 0. -1.
</event>
<event>
 5   0  0.7555871E-06  0.3160734E+04  0.7818609E-02  0.8199265E-01
        1   -1    0    0  501    0  0.00000000000E+00  0.00000000000E+00  0.15891899658E+04  0.15891899658E+04  0.50400001928E-02 0.  1.
       -1   -1    0    0    0  501  0.00000000000E+00  0.00000000000E+00 -0.15715930300E+04  0.15715930300E+04  0.50400001928E-02 0. -1.
    10030    2    1    2    0    0  0.00000000000E+00  0.00000000000E+00  0.17596935841E+02  0.31607829958E+04  0.31607340120E+04 0.  0.
        3    1    3    3  502    0 -0.10034156458E+04 -0.37419340396E+03  0.11710110418E+04  0.15868618504E+04  0.10100000352E+00 0.  1.
       -3    1    3    3    0  502  0.10034156458E+04  0.37419340396E+03 -0.11534141060E+04  0.15739211454E+04  0.10100000352E+00 0. -1.
</event>
<event>
 5   0  0.1814230E-05  0.2719550E+04  0.7818609E-02  0.8328689E-01
       -2   -1    0    0    0  501  0.00000000000E+00  0.00000000000E+00  0.71864176943E+03  0.71864176944E+03  0.25500000920E-02 0. -1.
        2   -1    0    0  501    0  0.00000000000E+00  0.00000000000E+00 -0.25728929445E+04  0.25728929445E+04  0.25500000920E-02 0.  1.
    10030    2    1    2    0    0  0.00000000000E+00  0.00000000000E+00 -0.18542511751E+04  0.32915347139E+04  0.27195502115E+04 0.  0.
        5    1    3    3  502    0 -0.12260409326E+04 -0.50723675719E+03 -0.12871855554E+04  0.18486033215E+04  0.46999998093E+01 0.  1.
       -5    1    3    3    0  502  0.12260409326E+04  0.50723675719E+03 -0.56706561971E+03  0.14429313925E+04  0.46999998093E+01 0. -1.
</event>
<event>
 5   0  0.1814230E-05  0.2795991E+04  0.7818609E-02  0.8304514E-01
        2   -1    0    0  501    0  0.00000000000E+00  0.00000000000E+00  0.18065898655E+04  0.18065898655E+04  0.25500000920E-02 0.  1.
       -2   -1    0    0    0  501  0.00000000000E+00  0.00000000000E+00 -0.10818127017E+04  0.10818127017E+04  0.25500000920E-02 0. -1.
    10030    2    1    2    0    0  0.00000000000E+00  0.00000000000E+00  0.72477716380E+03  0.28884025671E+04  0.27959913184E+04 0.  0.
        5    1    3    3  502    0 -0.46694347387E+03 -0.11645070903E+03 -0.99353716251E+03  0.11039633865E+04  0.46999998093E+01 0. -1.
       -5    1    3    3    0  502  0.46694347387E+03  0.11645070903E+03  0.17183143263E+04  0.17844391806E+04  0.46999998093E+01 0.  1.
</event>
<event>
 5   0  0.1832502E-05  0.3054221E+04  0.7818609E-02  0.8228415E-01
        2   -1    0    0  501    0  0.00000000000E+00  0.00000000000E+00  0.92582611417E+03  0.92582611418E+03  0.25500000920E-02 0.  1.
       -2   -1    0    0    0  501  0.00000000000E+00  0.00000000000E+00 -0.25189039525E+04  0.25189039525E+04  0.25500000920E-02 0. -1.
    10030    2    1    2    0    0  0.00000000000E+00  0.00000000000E+00 -0.15930778383E+04  0.34447300667E+04  0.30542213792E+04 0.  0.
        2    1    3    3  502    0 -0.67010066467E+03  0.39062902274E+03  0.68711666900E+03  0.10362216225E+04  0.25500000920E-02 0.  1.
       -2    1    3    3    0  502  0.67010066467E+03 -0.39062902274E+03 -0.22801945074E+04  0.24085084442E+04  0.25500000920E-02 0. -1.
</event>
<event>
 5   0  0.1923559E-05  0.2835641E+04  0.7818609E-02  0.8292288E-01
        2   -1    0    0  501    0  0.00000000000E+00  0.00000000000E+00  0.16363076032E+04  0.16363076032E+04  0.25500000920E-02 0.  1.
       -2   -1    0    0    0  501  0.00000000000E+00  0.00000000000E+00 -0.12285069398E+04  0.12285069398E+04  0.25500000920E-02 0. -1.
    10030    2    1    2    0    0  0.00000000000E+00  0.00000000000E+00  0.40780066333E+03  0.28648145430E+04  0.28356411946E+04 0.  0.
        4    1    3    3  502    0  0.13215865341E+04 -0.34910873024E+03  0.58426509302E+03  0.14865514402E+04  0.12699999809E+01 0.  1.
       -4    1    3    3    0  502 -0.13215865341E+04  0.34910873024E+03 -0.17646442969E+03  0.13782631028E+04  0.12699999809E+01 0. -1.
</event>
<event>
 5   0  0.7388013E-06  0.2850176E+04  0.7818609E-02  0.8287858E-01
        1   -1    0    0  501    0  0.00000000000E+00  0.00000000000E+00  0.19591274654E+04  0.19591274654E+04  0.50400001928E-02 0. -1.
       -1   -1    0    0    0  501  0.00000000000E+00  0.00000000000E+00 -0.10366227615E+04  0.10366227615E+04  0.50400001928E-02 0.  1.
    10030    2    1    2    0    0  0.00000000000E+00  0.00000000000E+00  0.92250470393E+03  0.29957502269E+04  0.28501762214E+04 0.  0.
        1    1    3    3  502    0 -0.61064828296E+03  0.38328035643E+03  0.17532976977E+04  0.18957447016E+04  0.50400001928E-02 0. -1.
       -1    1    3    3    0  502  0.61064828296E+03 -0.38328035643E+03 -0.83079299374E+03  0.11000055253E+04  0.50400001928E-02 0.  1.
</event>
<event>
 5   0  0.7388013E-06  0.2516186E+04  0.7818609E-02  0.8397242E-01
       -1   -1    0    0    0  501  0.00000000000E+00  0.00000000000E+00  0.90972932451E+03  0.90972932453E+03  0.50400001928E-02 0. -1.
        1   -1    0    0  501    0  0.00000000000E+00  0.00000000000E+00 -0.17398556017E+04  0.17398556017E+04  0.50400001928E-02 0.  1.
    10030    2    1    2    0    0  0.00000000000E+00  0.00000000000E+00 -0.83012627722E+03  0.26495849263E+04  0.25161857335E+04 0.  0.
        1    1    3    3  502    0 -0.65805395058E+03  0.10718767940E+04 -0.38449303733E+03  0.13152147198E+04  0.50400001928E-02 0. -1.
       -1    1    3    3    0  502  0.65805395058E+03 -0.10718767940E+04 -0.44563323989E+03  0.13343702065E+04  0.50400001928E-02 0.  1.
</event>
<event>
 5   0  0.7613444E-06  0.2801492E+04  0.7818609E-02  0.8302805E-01
        1   -1    0    0  501    0  0.00000000000E+00  0.00000000000E+00  0.19700358391E+04  0.19700358391E+04  0.50400001928E-02 0. -1.
       -1   -1    0    0    0  501  0.00000000000E+00  0.00000000000E+00 -0.99596613200E+03  0.99596613202E+03  0.50400001928E-02 0.  1.
    10030    2    1    2    0    0  0.00000000000E+00  0.00000000000E+00  0.97406970709E+03  0.29660019711E+04  0.28014917273E+04 0.  0.
        5    1    3    3  502    0 -0.64929695861E+03  0.86696665440E+02  0.17978699887E+04  0.19134945620E+04  0.46999998093E+01 0. -1.
       -5    1    3    3    0  502  0.64929695861E+03 -0.86696665440E+02 -0.82380028165E+03  0.10525074091E+04  0.46999998093E+01 0.  1.
</event>
<event>
 5   0  0.1904553E-05  0.3174873E+04  0.7818609E-02  0.8195485E-01
        2   -1    0    0  501    0  0.00000000000E+00  0.00000000000E+00  0.19345001943E+04  0.19345001943E+04  0.25500000920E-02 0.  1.
       -2   -1    0    0    0  501  0.00000000000E+00  0.00000000000E+00 -0.13026390019E+04  0.13026390019E+04  0.25500000920E-02 0. -1.
    10030    2    1    2    0    0  0.00000000000E+00  0.00000000000E+00  0.63186119234E+03  0.32371391962E+04  0.31748734792E+04 0.  0.
        1    1    3    3  502    0 -0.14149319655E+04 -0.60386193550E+03  0.71511059183E+03  0.16964860338E+04  0.50400001928E-02 0.  1.
       -1    1    3    3    0  502  0.14149319655E+04  0.60386193550E+03 -0.83249399485E+02  0.15406531624E+04  0.50400001928E-02 0. -1.
</event>
<event>
 5   0  0.1832502E-05  0.2932364E+04  0.7818609E-02  0.8263313E-01
        2   -1    0    0  501    0  0.00000000000E+00  0.00000000000E+00  0.16601116453E+04  0.16601116453E+04  0.25500000920E-02 0. -1.
       -2   -1    0    0    0  501  0.00000000000E+00  0.00000000000E+00 -0.12949068533E+04  0.12949068533E+04  0.25500000920E-02 0.  1.
    10030    2    1    2    0    0  0.00000000000E+00  0.00000000000E+00  0.36520479197E+03  0.29550184986E+04  0.29323641976E+04 0.  0.
        2    1    3    3  502    0 -0.22581064085E+03 -0.14950385126E+03  0.16346885286E+04  0.16569696534E+04  0.25500000920E-02 0. -1.
       -2    1    3    3    0  502  0.22581064085E+03  0.14950385126E+03 -0.12694837366E+04  0.12980488452E+04  0.25500000920E-02 0.  1.
</event>
<event>
 5   0  0.7509685E-06  0.1744073E+04  0.7818609E-02  0.8736620E-01
        1   -1    0    0  501    0  0.00000000000E+00  0.00000000000E+00  0.16544033083E+04  0.16544033083E+04  0.50400001928E-02 0.  1.
       -1   -1    0    0    0  501  0.00000000000E+00  0.00000000000E+00 -0.45965075066E+03  0.45965075069E+03  0.50400001928E-02 0. -1.
    10030    2    1    2    0    0  0.00000000000E+00  0.00000000000E+00  0.11947525577E+04  0.21140540590E+04  0.17440730748E+04 0.  0.
        4    1    3    3  502    0  0.44710314653E+03  0.34167944144E+03 -0.21012846481E+03  0.60066766932E+03  0.12699999809E+01 0. -1.
       -4    1    3    3    0  502 -0.44710314653E+03 -0.34167944144E+03  0.14048810225E+04  0.15133863897E+04  0.12699999809E+01 0.  1.
</event>
<event>
 5   0  0.6288000E-06  0.2736888E+04  0.7818609E-02  0.8323134E-01
       -3   -1    0    0    0  501  0.00000000000E+00  0.00000000000E+00  0.13637945493E+04  0.13637945531E+04  0.10100000352E+00 0. -1.
        3   -1    0    0  501    0  0.00000000000E+00  0.00000000000E+00 -0.13731096436E+04  0.13731096474E+04  0.10100000352E+00 0.  1.
    10030    2    1    2    0    0  0.00000000000E+00  0.00000000000E+00 -0.93150943132E+01  0.27369042004E+04  0.27368883484E+04 0.  0.
        2    1    3    3  502    0  0.12495375259E+04  0.19069689056E+03 -0.52899838085E+03  0.13702367021E+04  0.25500000920E-02 0. -1.
       -2    1    3    3    0  502 -0.12495375259E+04 -0.19069689056E+03  0.51968328654E+03  0.13666674984E+04  0.25500000920E-02 0.  1.
</event>
<event>
 5   0  0.1904553E-05  0.2838147E+04  0.7818609E-02  0.8291522E-01
       -2   -1    0    0    0  501  0.00000000000E+00  0.00000000000E+00  0.11207692228E+04  0.11207692228E+04  0.25500000920E-02 0.  1.
        2   -1    0    0  501    0  0.00000000000E+00  0.00000000000E+00 -0.17967749794E+04  0.17967749794E+04  0.25500000920E-02 0. -1.
    10030    2    1    2    0    0  0.00000000000E+00  0.00000000000E+00 -0.67600575657E+03  0.29175442022E+04  0.28381473515E+04 0.  0.
        1    1    3    3  502    0  0.13778786215E+04 -0.24909643849E+03 -0.10096255516E+03  0.14038489836E+04  0.50400001928E-02 0.  1.
       -1    1    3    3    0  502 -0.13778786215E+04  0.24909643849E+03 -0.57504320141E+03  0.15136952186E+04  0.50400001928E-02 0. -1.
</event>
<event>
 5   0  0.7555871E-06  0.2809137E+04  0.7818609E-02  0.8300437E-01
       -1   -1    0    0    0  501  0.00000000000E+00  0.00000000000E+00  0.13222903435E+04  0.13222903435E+04  0.50400001928E-02 0.  1.
        1   -1    0    0  501    0  0.00000000000E+00  0.00000000000E+00 -0.14919665024E+04  0.14919665024E+04  0.50400001928E-02 0. -1.
    10030    2    1    2    0    0  0.00000000000E+00  0.00000000000E+00 -0.16967615890E+03  0.28142568459E+04  0.28091371622E+04 0.  0.
        3    1    3    3  502    0  0.15046997002E+03 -0.34141271221E+03 -0.14414141639E+04  0.14889186191E+04  0.10100000352E+00 0. -1.
       -3    1    3    3    0  502 -0.15046997002E+03  0.34141271221E+03  0.12717380050E+04  0.13253382269E+04  0.10100000352E+00 0.  1.
</event>
<event>
 5   0  0.1832502E-05  0.2807541E+04  0.7818609E-02  0.8300931E-01
       -2   -1    0    0    0  501  0.00000000000E+00  0.00000000000E+00  0.10481594752E+04  0.10481594752E+04  0.25500000920E-02 0.  1.
        2   -1    0    0  501    0  0.00000000000E+00  0.00000000000E+00 -0.18800299699E+04  0.18800299699E+04  0.25500000920E-02 0. -1.
    10030    2    1    2    0    0  0.00000000000E+00  0.00000000000E+00 -0.83187049462E+03  0.29281894451E+04  0.28075407222E+04 0.  0.
        2    1    3    3  502    0  0.76955932978E+03  0.76779655431E+03 -0.13422680647E+04  0.17272569781E+04  0.25500000920E-02 0. -1.
       -2    1    3    3    0  502 -0.76955932978E+03 -0.76779655431E+03  0.51039757005E+03  0.12009324670E+04  0.25500000920E-02 0.  1.
</event>
<event>
 5   0  0.1832502E-05  0.2773212E+04  0.7818609E-02  0.8311633E-01
       -2   -1    0    0    0  501  0.00000000000E+00  0.00000000000E+00  0.96134614927E+03  0.96134614927E+03  0.25500000920E-02 0. -1.
        2   -1    0    0  501    0  0.00000000000E+00  0.00000000000E+00 -0.19999833991E+04  0.19999833991E+04  0.25500000920E-02 0.  1.
    10030    2    1    2    0    0  0.00000000000E+00  0.00000000000E+00 -0.10386372498E+04  0.29613295483E+04  0.27732121010E+04 0.  0.
        2    1    3    3  502    0 -0.75901951727E+03 -0.73273030216E+03  0.44153717989E+03  0.11436605285E+04  0.25500000920E-02 0. -1.
       -2    1    3    3    0  502  0.75901951727E+03  0.73273030216E+03 -0.14801744297E+04  0.18176690198E+04  0.25500000920E-02 0.  1.
</event>
<event>
 5   0  0.1923559E-05  0.2848090E+04  0.7818609E-02  0.8288492E-01
       -2   -1    0    0    0  501  0.00000000000E+00  0.00000000000E+00  0.84813225098E+03  0.84813225099E+03  0.25500000920E-02 0.  1.
        2   -1    0    0  501    0  0.00000000000E+00  0.00000000000E+00 -0.23910231169E+04  0.23910231169E+04  0.25500000920E-02 0. -1.
    10030    2    1    2    0    0  0.00000000000E+00  0.00000000000E+00 -0.15428908659E+04  0.32391553679E+04  0.28480897586E+04 0.  0.
        4    1    3    3  502    0 -0.85545334899E+03  0.10354427262E+04 -0.23322092822E+03  0.13632078659E+04  0.12699999809E+01 0. -1.
       -4    1    3    3    0  502  0.85545334899E+03 -0.10354427262E+04 -0.13096699377E+04  0.18759475020E+04  0.12699999809E+01 0.  1.
</event>
<event>
 5   0  0.1874272E-05  0.2881433E+04  0.7818609E-02  0.8278423E-01
       -2   -1    0    0    0  501  0.00000000000E+00  0.00000000000E+00  0.11737709273E+04  0.11737709273E+04  0.25500000920E-02 0.  1.
        2   -1    0    0  501    0  0.00000000000E+00  0.00000000000E+00 -0.17683721698E+04  0.17683721698E+04  0.25500000920E-02 0. -1.
    10030    2    1    2    0    0  0.00000000000E+00  0.00000000000E+00 -0.59460124253E+03  0.29421430971E+04  0.28814328669E+04 0.  0.
        3    1    3    3  502    0 -0.11840328077E+04 -0.12424225111E+03 -0.11257485873E+04  0.16384992275E+04  0.10100000352E+00 0. -1.
       -3    1    3    3    0  502  0.11840328077E+04  0.12424225111E+03  0.53114734476E+03  0.13036438696E+04  0.10100000352E+00 0.  1.
</event>
<event>
 5   0  0.1904553E-05  0.2819785E+04  0.7818609E-02  0.8297152E-01
        2   -1    0    0  501    0  0.00000000000E+00  0.00000000000E+00  0.12641787939E+04  0.12641787939E+04  0.25500000920E-02 0. -1.
       -2   -1    0    0    0  501  0.00000000000E+00  0.00000000000E+00 -0.15724011556E+04  0.15724011556E+04  0.25500000920E-02 0.  1.
    10030    2    1    2    0    0  0.00000000000E+00  0.00000000000E+00 -0.30822236166E+03  0.28365799495E+04  0.28197845282E+04 0.  0.
        1    1    3    3  502    0  0.12384805733E+04  0.59938653570E+03 -0.46367425980E+03  0.14519270535E+04  0.50400001928E-02 0.  1.
       -1    1    3    3    0  502 -0.12384805733E+04 -0.59938653570E+03  0.15545189814E+03  0.13846528959E+04  0.50400001928E-02 0. -1.
</event>
<event>
 5   0  0.1814230E-05  0.2865792E+04  0.7818609E-02  0.8283129E-01
       -2   -1    0    0    0  501  0.00000000000E+00  0.00000000000E+00  0.11275917284E+04  0.11275917284E+04  0.25500000920E-02 0. -1.
        2   -1    0    0  501    0  0.00000000000E+00  0.00000000000E+00 -0.18208643359E+04  0.18208643359E+04  0.25500000920E-02 0.  1.
    10030    2    1    2    0    0  0.00000000000E+00  0.00000000000E+00 -0.69327260754E+03  0.29484560643E+04  0.28657924305E+04 0.  0.
        5    1    3    3  502    0  0.90027593637E+03 -0.10134544463E+04  0.13106560966E+03  0.13619056356E+04  0.46999998093E+01 0. -1.
       -5    1    3    3    0  502 -0.90027593637E+03  0.10134544463E+04 -0.82433821720E+03  0.15865504286E+04  0.46999998093E+01 0.  1.
</event>
<event>
 5   0  0.7509685E-06  0.2813306E+04  0.7818609E-02  0.8299149E-01
        1   -1    0    0  501    0  0.00000000000E+00  0.00000000000E+00  0.15955827498E+04  0.15955827498E+04  0.50400001928E-02 0. -1.
       -1   -1    0    0    0  501  0.00000000000E+00  0.00000000000E+00 -0.12400943062E+04  0.12400943062E+04  0.50400001928E-02 0.  1.
    10030    2    1    2    0    0  0.00000000000E+00  0.00000000000E+00  0.35548844362E+03  0.28356770560E+04  0.28133062991E+04 0.  0.
        4    1    3    3  502    0  0.79070022423E+03 -0.19008003549E+02 -0.99473520419E+03  0.12708532127E+04  0.12699999809E+01 0.  1.
       -4    1    3    3    0  502 -0.79070022423E+03  0.19008003549E+02  0.13502236478E+04  0.15648238434E+04  0.12699999809E+01 0. -1.
</event>
<event>
 5   0  0.7613444E-06  0.2730521E+04  0.7818609E-02  0.8325169E-01
       -1   -1    0    0    0  501  0.00000000000E+00  0.00000000000E+00  0.16673297830E+04  0.16673297830E+04  0.50400001928E-02 0.  1.
        1   -1    0    0  501    0  0.00000000000E+00  0.00000000000E+00 -0.11179170790E+04  0.11179170790E+04  0.50400001928E-02 0. -1.
    10030    2    1    2    0    0  0.00000000000E+00  0.00000000000E+00  0.54941270399E+03  0.27852468621E+04  0.27305211523E+04 0.  0.
        5    1    3    3  502    0  0.66398612720E+03  0.11807385801E+04  0.10131963857E+03  0.13584214849E+04  0.46999998093E+01 0.  1.
       -5    1    3    3    0  502 -0.66398612720E+03 -0.11807385801E+04  0.44809306542E+03  0.14268253771E+04  0.46999998093E+01 0. -1.
</event>
<event>
 5   0  0.1923559E-05  0.2574224E+04  0.7818609E-02  0.8377010E-01
       -2   -1    0    0    0  501  0.00000000000E+00  0.00000000000E+00  0.13551977717E+04  0.13551977717E+04  0.25500000920E-02 0.  1.
        2   -1    0    0  501    0  0.00000000000E+00  0.00000000000E+00 -0.12224464961E+04  0.12224464961E+04  0.25500000920E-02 0. -1.
    10030    2    1    2    0    0  0.00000000000E+00  0.00000000000E+00  0.13275127561E+03  0.25776442678E+04  0.25742235859E+04 0.  0.
        4    1    3    3  502    0  0.72547590364E+03 -0.10406538448E+04 -0.15158179921E+03  0.12775971064E+04  0.12699999809E+01 0. -1.
       -4    1    3    3    0  502 -0.72547590364E+03  0.10406538448E+04  0.28433307482E+03  0.13000471614E+04  0.12699999809E+01 0.  1.
</event>
<event>
 5   0  0.1832502E-05  0.2800825E+04  0.7818609E-02  0.8303012E-01
        2   -1    0    0  501    0  0.00000000000E+00  0.00000000000E+00  0.20175330289E+04  0.20175330289E+04  0.25500000920E-02 0.  1.
       -2   -1    0    0    0  501  0.00000000000E+00  0.00000000000E+00 -0.97205606362E+03  0.97205606363E+03  0.25500000920E-02 0. -1.
    10030    2    1    2    0    0  0.00000000000E+00  0.00000000000E+00  0.10454769653E+04  0.29895890926E+04  0.28008250316E+04 0.  0.
        2    1    3    3  502    0 -0.87420983064E+03 -0.56970856478E+03  0.15196796826E+04  0.18434307729E+04  0.25500000920E-02 0.  1.
       -2    1    3    3    0  502  0.87420983064E+03  0.56970856478E+03 -0.47420271724E+03  0.11461583197E+04  0.25500000920E-02 0. -1.
</event>
<event>
 5   0  0.7613444E-06  0.2775200E+04  0.7818609E-02  0.8311009E-01
       -1   -1    0    0    0  501  0.00000000000E+00  0.00000000000E+00  0.13708201744E+04  0.13708201744E+04  0.50400001928E-02 0.  1.
        1   -1    0    0  501    0  0.00000000000E+00  0.00000000000E+00 -0.14045849107E+04  0.14045849107E+04  0.50400001928E-02 0. -1.
    10030    2    1    2    0    0  0.00000000000E+00  0.00000000000E+00 -0.33764736292E+02  0.27754050852E+04  0.27751996918E+04 0.  0.
        5    1    3    3  502    0  0.51248837738E+02  0.68595633369E+03 -0.12220643784E+04  0.14023644213E+04  0.46999998093E+01 0. -1.
       -5    1    3    3    0  502 -0.51248837738E+02 -0.68595633369E+03  0.11882996421E+04  0.13730406639E+04  0.46999998093E+01 0.  1.
</event>
<event>
 5   0  0.7509685E-06  0.2823913E+04  0.7818609E-02  0.8295883E-01
        1   -1    0    0  501    0  0.00000000000E+00  0.00000000000E+00  0.25583573733E+04  0.25583573733E+04  0.50400001928E-02 0. -1.
       -1   -1    0    0    0  501  0.00000000000E+00  0.00000000000E+00 -0.77925815400E+03  0.77925815402E+03  0.50400001928E-02 0.  1.
    10030    2    1    2    0    0  0.00000000000E+00  0.00000000000E+00  0.17790992193E+04  0.33376155273E+04  0.28239127777E+04 0.  0.
        4    1    3    3  502    0 -0.20391767738E+03 -0.17506024116E+03 -0.74874828636E+03  0.79552128596E+03  0.12699999809E+01 0.  1.
       -4    1    3    3    0  502  0.20391767738E+03  0.17506024116E+03  0.25278475057E+04  0.25420942414E+04  0.12699999809E+01 0. -1.
</event>
<event>
 5   0  0.1814230E-05  0.2831916E+04  0.7818609E-02  0.8293428E-01
        2   -1    0    0  501    0  0.00000000000E+00  0.00000000000E+00  0.71534084099E+03  0.71534084099E+03  0.25500000920E-02 0. -1.
       -2   -1    0    0    0  501  0.00000000000E+00  0.00000000000E+00 -0.28027710496E+04  0.28027710496E+04  0.25500000920E-02 0.  1.
    10030    2    1    2    0    0  0.00000000000E+00  0.00000000000E+00 -0.20874302086E+04  0.35181118905E+04  0.28319156765E+04 0.  0.
        5    1    3    3  502    0  0.43395025654E+03 -0.42922421575E+03 -0.26309397580E+04  0.27008169788E+04  0.46999998093E+01 0.  1.
       -5    1    3    3    0  502 -0.43395025654E+03  0.42922421575E+03  0.54350954943E+03  0.81729491180E+03  0.46999998093E+01 0. -1.
</event>
<event>
 5   0  0.7681342E-06  0.2442777E+04  0.7818609E-02  0.8423660E-01
        1   -1    0    0  501    0  0.00000000000E+00  0.00000000000E+00  0.16067698188E+04  0.16067698188E+04  0.50400001928E-02 0. -1.
       -1   -1    0    0    0  501  0.00000000000E+00  0.00000000000E+00 -0.92844008628E+03  0.92844008629E+03  0.50400001928E-02 0.  1.
    10030    2    1    2    0    0  0.00000000000E+00  0.00000000000E+00  0.67832973251E+03  0.25352099051E+04  0.24427767063E+04 0.  0.
        2    1    3    3  502    0 -0.45256389304E+03  0.11298852971E+04  0.44467106621E+03  0.12958345647E+04  0.25500000920E-02 0.  1.
       -2    1    3    3    0  502  0.45256389304E+03 -0.11298852971E+04  0.23365866630E+03  0.12393753404E+04  0.25500000920E-02 0. -1.
</event>
<event>
 5   0  0.7555871E-06  0.2796929E+04  0.7818609E-02  0.8304222E-01
       -1   -1    0    0    0  501  0.00000000000E+00  0.00000000000E+00  0.14644405567E+04  0.14644405567E+04  0.50400001928E-02 0.  1.
        1   -1    0    0  501    0  0.00000000000E+00  0.00000000000E+00 -0.13354606343E+04  0.13354606343E+04  0.50400001928E-02 0. -1.
    10030    2    1    2    0    0  0.00000000000E+00  0.00000000000E+00  0.12897992239E+03  0.27999011910E+04  0.27969288262E+04 0.  0.
        3    1    3    3  502    0 -0.94434772432E+03  0.10279775495E+04 -0.20289105564E+02  0.13960451729E+04  0.10100000352E+00 0.  1.
       -3    1    3    3    0  502  0.94434772432E+03 -0.10279775495E+04  0.14926902795E+03  0.14038560181E+04  0.10100000352E+00 0. -1.
</event>
<event>
 5   0  0.7388013E-06  0.2835353E+04  0.7818609E-02  0.8292376E-01
       -1   -1    0    0    0  501  0.00000000000E+00  0.00000000000E+00  0.88861606714E+03  0.88861606716E+03  0.50400001928E-02 0. -1.
        1   -1    0    0  501    0  0.00000000000E+00  0.00000000000E+00 -0.22617263894E+04  0.22617263894E+04  0.50400001928E-02 0.  1.
    10030    2    1    2    0    0  0.00000000000E+00  0.00000000000E+00 -0.13731103222E+04  0.31503424565E+04  0.28353528240E+04 0.  0.
        1    1    3    3  502    0 -0.11625150686E+04  0.59791869066E+01 -0.15880687421E+04  0.19681055269E+04  0.50400001928E-02 0. -1.
       -1    1    3    3    0  502  0.11625150686E+04 -0.59791869066E+01  0.21495841986E+03  0.11822369296E+04  0.50400001928E-02 0.  1.
</event>
<event>
 5   0  0.1904553E-05  0.2911293E+04  0.7818609E-02  0.8269525E-01
        2   -1    0    0  501    0  0.00000000000E+00  0.00000000000E+00  0.18606406435E+04  0.18606406435E+04  0.25500000920E-02 0. -1.
       -2   -1    0    0    0  501  0.00000000000E+00  0.00000000000E+00 -0.11388051171E+04  0.11388051171E+04  0.25500000920E-02 0.  1.
    10030    2    1    2    0    0  0.00000000000E+00  0.00000000000E+00  0.72183552636E+03  0.29994457606E+04  0.29112932424E+04 0.  0.
        1    1    3    3  502    0  0.99463085926E+03  0.15424135833E+03  0.14443418511E+04  0.17604557154E+04  0.50400001928E-02 0. -1.
       -1    1    3    3    0  502 -0.99463085926E+03 -0.15424135833E+03 -0.72250632476E+03  0.12389900452E+04  0.50400001928E-02 0.  1.
</event>
<event>
 5   0  0.1874272E-05  0.2818670E+04  0.7818609E-02  0.8297496E-01
        2   -1    0    0  501    0  0.00000000000E+00  0.00000000000E+00  0.19503254823E+04  0.19503254823E+04  0.25500000920E-02 0.  1.
       -2   -1    0    0    0  501  0.00000000000E+00  0.00000000000E+00 -0.10184067611E+04  0.10184067611E+04  0.25500000920E-02 0. -1.
    10030    2    1    2    0    0  0.00000000000E+00  0.00000000000E+00  0.93191872120E+03  0.29687322435E+04  0.28186696561E+04 0.  0.
        3    1    3    3  502    0  0.43383964405E+03  0.19347398078E+03  0.18634670049E+04  0.19230596212E+04  0.10100000352E+00 0.  1.
       -3    1    3    3    0  502 -0.43383964405E+03 -0.19347398078E+03 -0.93154828368E+03  0.10456726223E+04  0.10100000352E+00 0. -1.
</event>
<event>
 5   0  0.1814230E-05  0.2112453E+04  0.7818609E-02  0.8555777E-01
        2   -1    0    0  501    0  0.00000000000E+00  0.00000000000E+00  0.22289624406E+04  0.22289624406E+04  0.25500000920E-02 0. -1.
       -2   -1    0    0    0  501  0.00000000000E+00  0.00000000000E+00 -0.50050848697E+03  0.50050848698E+03  0.25500000920E-02 0.  1.
    10030    2    1    2    0    0  0.00000000000E+00  0.00000000000E+00  0.17284539536E+04  0.27294709275E+04  0.21124531887E+04 0.  0.
        5    1    3    3  502    0  0.10140994753E+04  0.24278429422E+03  0.64705440165E+03  0.12272096186E+04  0.46999998093E+01 0.  1.
       -5    1    3    3    0  502 -0.10140994753E+04 -0.24278429422E+03  0.10813995519E+04  0.15022613089E+04  0.46999998093E+01 0. -1.
</event>
<event>
 5   0  0.1923559E-05  0.2766705E+04  0.7818609E-02  0.8313680E-01
       -2   -1    0    0    0  501  0.00000000000E+00  0.00000000000E+00  0.17216836252E+04  0.17216836252E+04  0.25500000920E-02 0.  1.
        2   -1    0    0  501    0  0.00000000000E+00  0.00000000000E+00 -0.11115071786E+04  0.11115071786E+04  0.25500000920E-02 0. -1.
    10030    2    1    2    0    0  0.00000000000E+00  0.00000000000E+00  0.61017644664E+03  0.28331908038E+04  0.27667046887E+04 0.  0.
        4    1    3    3  502    0  0.23446203244E+03 -0.65273090870E+03  0.15307773770E+04  0.16805686759E+04  0.12699999809E+01 0.  1.
       -4    1    3    3    0  502 -0.23446203244E+03  0.65273090870E+03 -0.92060093032E+03  0.11526221279E+04  0.12699999809E+01 0. -1.
</event>
<event>
 5   0  0.1904553E-05  0.2802449E+04  0.7818609E-02  0.8302509E-01
       -2   -1    0    0    0  501  0.00000000000E+00  0.00000000000E+00  0.18264892886E+04  0.18264892886E+04  0.25500000920E-02 0.  1.
        2   -1    0    0  501    0  0.00000000000E+00  0.00000000000E+00 -0.10749747120E+04  0.10749747120E+04  0.25500000920E-02 0. -1.
    10030    2    1    2    0    0  0.00000000000E+00  0.00000000000E+00  0.75151457666E+03  0.29014640006E+04  0.28024487842E+04 0.  0.
        1    1    3    3  502    0  0.11890726508E+04  0.44445986416E+03  0.99000785202E+03  0.16098303907E+04  0.50400001928E-02 0. -1.
       -1    1    3    3    0  502 -0.11890726508E+04 -0.44445986416E+03 -0.23849327536E+03  0.12916336099E+04  0.50400001928E-02 0.  1.
</event>
<event>
 5   0  0.7681342E-06  0.3244885E+04  0.7818609E-02  0.8177063E-01
       -1   -1    0    0    0  501  0.00000000000E+00  0.00000000000E+00  0.10895675910E+04  0.10895675910E+04  0.50400001928E-02 0. -1.
        1   -1    0    0  501    0  0.00000000000E+00  0.00000000000E+00 -0.24159301494E+04  0.24159301494E+04  0.50400001928E-02 0.  1.
    10030    2    1    2    0    0  0.00000000000E+00  0.00000000000E+00 -0.13263625584E+04  0.35054977404E+04  0.32448847085E+04 0.  0.
        2    1    3    3  502    0 -0.14721083892E+04 -0.83590071394E+02  0.68112035930E+02  0.14760520516E+04  0.25500000920E-02 0. -1.
       -2    1    3    3    0  502  0.14721083892E+04  0.83590071394E+02 -0.13944745943E+04  0.20294456888E+04  0.25500000920E-02 0.  1.
</event>
<event>
 5   0  0.7555871E-06  0.2856367E+04  0.7818609E-02  0.8285979E-01
        1   -1    0    0  501    0  0.00000000000E+00  0.00000000000E+00  0.17747481768E+04  0.17747481768E+04  0.50400001928E-02 0. -1.
       -1   -1    0    0    0  501  0.00000000000E+00  0.00000000000E+00 -0.11492944293E+04  0.11492944293E+04  0.50400001928E-02 0.  1.
    10030    2    1    2    0    0  0.00000000000E+00  0.00000000000E+00  0.62545374753E+03  0.29240426061E+04  0.28563670584E+04 0.  0.
        3    1    3    3  502    0  0.62387088283E+03 -0.12109603352E+04  0.75192377277E+03  0.15559656751E+04  0.10100000352E+00 0. -1.
       -3    1    3    3    0  502 -0.62387088283E+03  0.12109603352E+04 -0.12647002524E+03  0.13680769310E+04  0.10100000352E+00 0.  1.
</event>
<event>
 5   0  0.1874272E-05  0.2690195E+04  0.7818609E-02  0.8338193E-01
        2   -1    0    0  501    0  0.00000000000E+00  0.00000000000E+00  0.22507284091E+04  0.22507284091E+04  0.25500000920E-02 0. -1.
       -2   -1    0    0    0  501  0.00000000000E+00  0.00000000000E+00 -0.80386756344E+03  0.80386756344E+03  0.25500000920E-02 0.  1.
    10030    2    1    2    0    0  0.00000000000E+00  0.00000000000E+00  0.14468608457E+04  0.30545959725E+04  0.26901952064E+04 0.  0.
        3    1    3    3  502    0  0.24133010245E+03 -0.98905481185E+03 -0.27474890221E+03  0.10544935318E+04  0.10100000352E+00 0.  1.
       -3    1    3    3    0  502 -0.24133010245E+03  0.98905481185E+03  0.17216097479E+04  0.20001024407E+04  0.10100000352E+00 0. -1.
</event>
<event>
 5   0  0.1874272E-05  0.2753122E+04  0.7818609E-02  0.8317972E-01
       -2   -1    0    0    0  501  0.00000000000E+00  0.00000000000E+00  0.11203374628E+04  0.11203374628E+04  0.25500000920E-02 0.  1.
        2   -1    0    0  501    0  0.00000000000E+00  0.00000000000E+00 -0.16913828343E+04  0.16913828343E+04  0.25500000920E-02 0. -1.
    10030    2    1    2    0    0  0.00000000000E+00  0.00000000000E+00 -0.57104537151E+03  0.28117202972E+04  0.27531215399E+04 0.  0.
        3    1    3    3  502    0  0.96389170691E+03  0.79731277837E+03  0.30127137729E+03  0.12866854092E+04  0.10100000352E+00 0.  1.
       -3    1    3    3    0  502 -0.96389170691E+03 -0.79731277837E+03 -0.87231674880E+03  0.15250348880E+04  0.10100000352E+00 0. -1.
</event>
<event>
 5   0  0.7509685E-06  0.2771123E+04  0.7818609E-02  0.8312290E-01
        1   -1    0    0  501    0  0.00000000000E+00  0.00000000000E+00  0.13141346528E+04  0.13141346528E+04  0.50400001928E-02 0.  1.
       -1   -1    0    0    0  501  0.00000000000E+00  0.00000000000E+00 -0.14608707781E+04  0.14608707781E+04  0.50400001928E-02 0. -1.
    10030    2    1    2    0    0  0.00000000000E+00  0.00000000000E+00 -0.14673612529E+03  0.27750054310E+04  0.27711231751E+04 0.  0.
        4    1    3    3  502    0  0.16143119546E+03  0.27356660444E+02 -0.14511483725E+04  0.14603566789E+04  0.12699999809E+01 0. -1.
       -4    1    3    3    0  502 -0.16143119546E+03 -0.27356660444E+02  0.13044122472E+04  0.13146487521E+04  0.12699999809E+01 0.  1.
</event>
<event>
 5   0  0.7388013E-06  0.2707939E+04  0.7818609E-02  0.8332434E-01
       -1   -1    0    0    0  501  0.00000000000E+00  0.00000000000E+00  0.10208704190E+04  0.10208704190E+04  0.50400001928E-02 0.  1.
        1   -1    0    0  501    0  0.00000000000E+00  0.00000000000E+00 -0.17957552887E+04  0.17957552887E+04  0.50400001928E-02 0. -1.
    10030    2    1    2    0    0  0.00000000000E+00  0.00000000000E+00 -0.77488486974E+03  0.28166257077E+04  0.27079390347E+04 0.  0.
        1    1    3    3  502    0 -0.15774348740E+03 -0.68608568398E+03  0.81554024166E+03  0.10773590207E+04  0.50400001928E-02 0.  1.
       -1    1    3    3    0  502  0.15774348740E+03  0.68608568398E+03 -0.15904251114E+04  0.17392666870E+04  0.50400001928E-02 0. -1.
</event>
<event>
 5   0  0.1814230E-05  0.2812472E+04  0.7818609E-02  0.8299407E-01
       -2   -1    0    0    0  501  0.00000000000E+00  0.00000000000E+00  0.17240752538E+04  0.17240752539E+04  0.25500000920E-02 0.  1.
        2   -1    0    0  501    0  0.00000000000E+00  0.00000000000E+00 -0.11469911658E+04  0.11469911658E+04  0.25500000920E-02 0. -1.
    10030    2    1    2    0    0  0.00000000000E+00  0.00000000000E+00  0.57708408802E+03  0.28710664197E+04  0.28124715717E+04 0.  0.
        5    1    3    3  502    0 -0.61644013187E+03 -0.97930760355E+03 -0.52712610206E+03  0.12715839870E+04  0.46999998093E+01 0. -1.
       -5    1    3    3    0  502  0.61644013187E+03  0.97930760355E+03  0.11042101901E+04  0.15994824327E+04  0.46999998093E+01 0.  1.
</event>
<event>
 5   0  0.7509685E-06  0.2827032E+04  0.7818609E-02  0.8294925E-01
        1   -1    0    0  501    0  0.00000000000E+00  0.00000000000E+00  0.24588721535E+04  0.24588721535E+04  0.50400001928E-02 0. -1.
       -1   -1    0    0    0  501  0.00000000000E+00  0.00000000000E+00 -0.81257895645E+03  0.81257895647E+03  0.50400001928E-02 0.  1.
    10030    2    1    2    0    0  0.00000000000E+00  0.00000000000E+00  0.16462931970E+04  0.32714511099E+04  0.28270322025E+04 0.  0.
        4    1    3    3  502    0 -0.26865484582E+03  0.84278561226E+03  0.20989931387E+04  0.22777701428E+04  0.12699999809E+01 0. -1.
       -4    1    3    3    0  502  0.26865484582E+03 -0.84278561226E+03 -0.45269994163E+03  0.99368096715E+03  0.12699999809E+01 0.  1.
</event>
<event>
 5   0  0.7388013E-06  0.2734309E+04  0.7818609E-02  0.8323958E-01
       -1   -1    0    0    0  501  0.00000000000E+00  0.00000000000E+00  0.71440480417E+03  0.71440480419E+03  0.50400001928E-02 0. -1.
        1   -1    0    0  501    0  0.00000000000E+00  0.00000000000E+00 -0.26163195841E+04  0.26163195841E+04  0.50400001928E-02 0.  1.
    10030    2    1    2    0    0  0.00000000000E+00  0.00000000000E+00 -0.19019147799E+04  0.33307243883E+04  0.27343088927E+04 0.  0.
        1    1    3    3  502    0  0.16813716007E+03 -0.94785416509E+03  0.23157190328E+03  0.99011270535E+03  0.50400001928E-02 0.  1.
       -1    1    3    3    0  502 -0.16813716007E+03  0.94785416509E+03 -0.21334866832E+04  0.23406116829E+04  0.50400001928E-02 0. -1.
</event>
<event>
 5   0  0.1923559E-05  0.2860963E+04  0.7818609E-02  0.8284588E-01
        2   -1    0    0  501    0  0.00000000000E+00  0.00000000000E+00  0.17575122868E+04  0.17575122869E+04  0.25500000920E-02 0.  1.
       -2   -1    0    0    0  501  0.00000000000E+00  0.00000000000E+00 -0.11643032614E+04  0.11643032614E+04  0.25500000920E-02 0. -1.
    10030    2    1    2    0    0  0.00000000000E+00  0.00000000000E+00  0.59320902545E+03  0.29218155483E+04  0.28609629760E+04 0.  0.
        4    1    3    3  502    0  0.65752745940E+03  0.51899680728E+03  0.14808266513E+04  0.17013374827E+04  0.12699999809E+01 0.  1.
       -4    1    3    3    0  502 -0.65752745940E+03 -0.51899680728E+03 -0.88761762588E+03  0.12204780656E+04  0.12699999809E+01 0. -1.
</event>
<event>
 5   0  0.7555871E-06  0.2796543E+04  0.7818609E-02  0.8304342E-01
       -1   -1    0    0    0  501  0.00000000000E+00  0.00000000000E+00  0.78541199522E+03  0.78541199524E+03  0.50400001928E-02 0.  1.
        1   -1    0    0  501    0  0.00000000000E+00  0.00000000000E+00 -0.24893478315E+04  0.24893478315E+04  0.50400001928E-02 0. -1.
    10030    2    1    2    0    0  0.00000000000E+00  0.00000000000E+00 -0.17039358363E+04  0.32747598268E+04  0.27965433286E+04 0.  0.
        3    1    3    3  502    0  0.86603279412E+02 -0.11727585389E+04  0.33902343812E+02  0.11764404352E+04  0.10100000352E+00 0.  1.
       -3    1    3    3    0  502 -0.86603279412E+02  0.11727585389E+04 -0.17378381801E+04  0.20983193916E+04  0.10100000352E+00 0. -1.
</event>
<event>
 5   0  0.7555871E-06  0.2602470E+04  0.7818609E-02  0.8367363E-01
       -1   -1    0    0    0  501  0.00000000000E+00  0.00000000000E+00  0.13964751769E+04  0.13964751769E+04  0.50400001928E-02 0.  1.
        1   -1    0    0  501    0  0.00000000000E+00  0.00000000000E+00 -0.12124906246E+04  0.12124906246E+04  0.50400001928E-02 0. -1.
    10030    2    1    2    0    0  0.00000000000E+00  0.00000000000E+00  0.18398455230E+03  0.26089658015E+04  0.26024704106E+04 0.  0.
        3    1    3    3  502    0 -0.79939560506E+03  0.67986852145E+03  0.86330095827E+03  0.13588756730E+04  0.10100000352E+00 0.  1.
       -3    1    3    3    0  502  0.79939560506E+03 -0.67986852145E+03 -0.67931640598E+03  0.12500901285E+04  0.10100000352E+00 0. -1.
</event>
<event>
 5   0  0.7388013E-06  0.2818064E+04  0.7818609E-02  0.8297682E-01
       -1   -1    0    0    0  501  0.00000000000E+00  0.00000000000E+00  0.95851582878E+03  0.95851582880E+03  0.50400001928E-02 0. -1.
        1   -1    0    0  501    0  0.00000000000E+00  0.00000000000E+00 -0.20712968409E+04  0.20712968409E+04  0.50400001928E-02 0.  1.
    10030    2    1    2    0    0  0.00000000000E+00  0.00000000000E+00 -0.11127810121E+04  0.30298126697E+04  0.28180637382E+04 0.  0.
        1    1    3    3  502    0 -0.38199260425E+03 -0.10235584740E+04  0.40029097884E+03  0.11635390699E+04  0.50400001928E-02 0. -1.
       -1    1    3    3    0  502  0.38199260425E+03  0.10235584740E+04 -0.15130719910E+04  0.18662735998E+04  0.50400001928E-02 0.  1.
</event>
<event>
 5   0  0.7613444E-06  0.2809295E+04  0.7818609E-02  0.8300388E-01
        1   -1    0    0  501    0  0.00000000000E+00  0.00000000000E+00  0.11335742699E+04  0.11335742699E+04  0.50400001928E-02 0.  1.
       -1   -1    0    0    0  501  0.00000000000E+00  0.00000000000E+00 -0.17405426937E+04  0.17405426938E+04  0.50400001928E-02 0. -1.
    10030    2    1    2    0    0  0.00000000000E+00  0.00000000000E+00 -0.60696842381E+03  0.28741169637E+04  0.28092948677E+04 0.  0.
        5    1    3    3  502    0  0.75016024268E+03  0.11454691577E+04  0.17070148505E+02  0.13693624286E+04  0.46999998093E+01 0.  1.
       -5    1    3    3    0  502 -0.75016024268E+03 -0.11454691577E+04 -0.62403857232E+03  0.15047545350E+04  0.46999998093E+01 0. -1.
</event>
<event>
 5   0  0.7613444E-06  0.2817169E+04  0.7818609E-02  0.8297958E-01
       -1   -1    0    0    0  501  0.00000000000E+00  0.00000000000E+00  0.18560412984E+04  0.18560412984E+04  0.50400001928E-02 0.  1.
        1   -1    0    0  501    0  0.00000000000E+00  0.00000000000E+00 -0.10690008190E+04  0.10690008190E+04  0.50400001928E-02 0. -1.
    10030    2    1    2    0    0  0.00000000000E+00  0.00000000000E+00  0.78704047943E+03  0.29250421175E+04  0.28171685560E+04 0.  0.
        5    1    3    3  502    0  0.25750376370E+03  0.90276303967E+03  0.14838737657E+04  0.17559022571E+04  0.46999998093E+01 0.  1.
       -5    1    3    3    0  502 -0.25750376370E+03 -0.90276303967E+03 -0.69683328628E+03  0.11691398603E+04  0.46999998093E+01 0. -1.
</event>
<event>
 5   0  0.7681342E-06  0.2824937E+04  0.7818609E-02  0.8295568E-01
        1   -1    0    0  501    0  0.00000000000E+00  0.00000000000E+00  0.20039016359E+04  0.20039016359E+04  0.50400001928E-02 0.  1.
       -1   -1    0    0    0  501  0.00000000000E+00  0.00000000000E+00 -0.99559160384E+03  0.99559160385E+03  0.50400001928E-02 0. -1.
    10030    2    1    2    0    0  0.00000000000E+00  0.00000000000E+00  0.10083100320E+04  0.29994932397E+04  0.28249372691E+04 0.  0.
        2    1    3    3  502    0 -0.36716978415E+03 -0.65131738147E+03  0.17765510202E+04  0.19274754238E+04  0.25500000920E-02 0.  1.
       -2    1    3    3    0  502  0.36716978415E+03  0.65131738147E+03 -0.76824098818E+03  0.10720178160E+04  0.25500000920E-02 0. -1.
</event>
<event>
 5   0  0.7681342E-06  0.2807213E+04  0.7818609E-02  0.8301033E-01
        1   -1    0    0  501    0  0.00000000000E+00  0.00000000000E+00  0.10717295858E+04  0.10717295858E+04  0.50400001928E-02 0.  1.
       -1   -1    0    0    0  501  0.00000000000E+00  0.00000000000E+00 -0.18382539017E+04  0.18382539017E+04  0.50400001928E-02 0. -1.
    10030    2    1    2    0    0  0.00000000000E+00  0.00000000000E+00 -0.76652431585E+03  0.29099834875E+04  0.28072129187E+04 0.  0.
        2    1    3    3  502    0  0.11705042085E+04 -0.74445524059E+03 -0.16137594297E+03  0.13965442715E+04  0.25500000920E-02 0.  1.
       -2    1    3    3    0  502 -0.11705042085E+04  0.74445524059E+03 -0.60514837288E+03  0.15134392160E+04  0.25500000920E-02 0. -1.
</event>
<event>
 5   0  0.7681342E-06  0.2784286E+04  0.7818609E-02  0.8308164E-01
       -1   -1    0    0    0  501  0.00000000000E+00  0.00000000000E+00  0.13759196303E+04  0.13759196303E+04  0.50400001928E-02 0.  1.
        1   -1    0    0  501    0  0.00000000000E+00  0.00000000000E+00 -0.14085571778E+04  0.14085571778E+04  0.50400001928E-02 0. -1.
    10030    2    1    2    0    0  0.00000000000E+00  0.00000000000E+00 -0.32637547505E+02  0.27844768081E+04  0.27842855252E+04 0.  0.
        2    1    3    3  502    0  0.61648818840E+02 -0.13103457306E+04 -0.48245696467E+03  0.13977021261E+04  0.25500000920E-02 0. -1.
       -2    1    3    3    0  502 -0.61648818840E+02  0.13103457306E+04  0.44981941717E+03  0.13867746820E+04  0.25500000920E-02 0.  1.
</event>
<event>
 5   0  0.1814230E-05  0.2775962E+04  0.7818609E-02  0.8310770E-01
        2   -1    0    0  501    0  0.00000000000E+00  0.00000000000E+00  0.23469071553E+04  0.23469071553E+04  0.25500000920E-02 0.  1.
       -2   -1    0    0    0  501  0.00000000000E+00  0.00000000000E+00 -0.82086396006E+03  0.82086396007E+03  0.25500000920E-02 0. -1.
    10030    2    1    2    0    0  0.00000000000E+00  0.00000000000E+00  0.15260431952E+04  0.31677711154E+04  0.27759621766E+04 0.  0.
        5    1    3    3  502    0 -0.11678814917E+04 -0.40317060270E+03  0.41321020738E+02  0.12362132625E+04  0.46999998093E+01 0. -1.
       -5    1    3    3    0  502  0.11678814917E+04  0.40317060270E+03  0.14847221745E+04  0.19315578529E+04  0.46999998093E+01 0.  1.
</event>
<event>
 5   0  0.7388013E-06  0.2268238E+04  0.7818609E-02  0.8490551E-01
       -1   -1    0    0    0  501  0.00000000000E+00  0.00000000000E+00  0.19227070946E+04  0.19227070946E+04  0.50400001928E-02 0. -1.
        1   -1    0    0  501    0  0.00000000000E+00  0.00000000000E+00 -0.66896618600E+03  0.66896618602E+03  0.50400001928E-02 0.  1.
    10030    2    1    2    0    0  0.00000000000E+00  0.00000000000E+00  0.12537409086E+04  0.25916732807E+04  0.22682381109E+04 0.  0.
        1    1    3    3  502    0 -0.73196552944E+03 -0.80209222707E+03  0.10007980083E+04  0.14767268300E+04  0.50400001928E-02 0. -1.
       -1    1    3    3    0  502  0.73196552944E+03  0.80209222707E+03  0.25294290036E+03  0.11149464507E+04  0.50400001928E-02 0.  1.
</event>
<event>
 5   0  0.1874272E-05  0.2774939E+04  0.7818609E-02  0.8311091E-01
        2   -1    0    0  501    0  0.00000000000E+00  0.00000000000E+00  0.11471088090E+04  0.11471088090E+04  0.25500000920E-02 0.  1.
       -2   -1    0    0    0  501  0.00000000000E+00  0.00000000000E+00 -0.16781945044E+04  0.16781945045E+04  0.25500000920E-02 0. -1.
    10030    2    1    2    0    0  0.00000000000E+00  0.00000000000E+00 -0.53108569547E+03  0.28253033134E+04  0.27749390618E+04 0.  0.
        3    1    3    3  502    0  0.11988342972E+03 -0.87843028321E+03  0.82109520144E+03  0.12083911367E+04  0.10100000352E+00 0.  1.
       -3    1    3    3    0  502 -0.11988342972E+03  0.87843028321E+03 -0.13521808969E+04  0.16169121768E+04  0.10100000352E+00 0. -1.
</event>
<event>
 5   0  0.7509685E-06  0.2841522E+04  0.7818609E-02  0.8290492E-01
        1   -1    0    0  501    0  0.00000000000E+00  0.00000000000E+00  0.16678410687E+04  0.16678410687E+04  0.50400001928E-02 0.  1.
       -1   -1    0    0    0  501  0.00000000000E+00  0.00000000000E+00 -0.12102841436E+04  0.12102841436E+04  0.50400001928E-02 0. -1.
    10030    2    1    2    0    0  0.00000000000E+00  0.00000000000E+00  0.45755692511E+03  0.28781252123E+04  0.28415218454E+04 0.  0.
        4    1    3    3  502    0  0.61127439145E+03 -0.87841334658E+03  0.11753181381E+04  0.15895410431E+04  0.12699999809E+01 0.  1.
       -4    1    3    3    0  502 -0.61127439145E+03  0.87841334658E+03 -0.71776121302E+03  0.12885841691E+04  0.12699999809E+01 0. -1.
</event>
<event>
 5   0  0.1923559E-05  0.2750236E+04  0.7818609E-02  0.8318887E-01
       -2   -1    0    0    0  501  0.00000000000E+00  0.00000000000E+00  0.79957496899E+03  0.79957496899E+03  0.25500000920E-02 0. -1.
        2   -1    0    0  501    0  0.00000000000E+00  0.00000000000E+00 -0.23649435743E+04  0.23649435743E+04  0.25500000920E-02 0.  1.
    10030    2    1    2    0    0  0.00000000000E+00  0.00000000000E+00 -0.15653686053E+04  0.31645185433E+04  0.27502361245E+04 0.  0.
        4    1    3    3  502    0 -0.43923729054E+03 -0.12941432704E+04 -0.95798866880E+03  0.16689757650E+04  0.12699999809E+01 0. -1.
       -4    1    3    3    0  502  0.43923729054E+03  0.12941432704E+04 -0.60737993654E+03  0.14955427783E+04  0.12699999809E+01 0.  1.
</event>
<event>
 5   0  0.1904553E-05  0.2678572E+04  0.7818609E-02  0.8341991E-01
        2   -1    0    0  501    0  0.00000000000E+00  0.00000000000E+00  0.19059727960E+04  0.19059727960E+04  0.25500000920E-02 0. -1.
       -2   -1    0    0    0  501  0.00000000000E+00  0.00000000000E+00 -0.94108770234E+03  0.94108770235E+03  0.25500000920E-02 0.  1.
    10030    2    1    2    0    0  0.00000000000E+00  0.00000000000E+00  0.96488509365E+03  0.28470604983E+04  0.26785724252E+04 0.  0.
        1    1    3    3  502    0 -0.33308811890E+03 -0.36745144805E+02 -0.89580582494E+03  0.95643398970E+03  0.50400001928E-02 0.  1.
       -1    1    3    3    0  502  0.33308811890E+03  0.36745144805E+02  0.18606909186E+04  0.18906265086E+04  0.50400001928E-02 0. -1.
</event>
<event>
 5   0  0.7555871E-06  0.2181031E+04  0.7818609E-02  0.8526365E-01
       -1   -1    0    0    0  501  0.00000000000E+00  0.00000000000E+00  0.15133390374E+04  0.15133390374E+04  0.50400001928E-02 0.  1.
        1   -1    0    0  501    0  0.00000000000E+00  0.00000000000E+00 -0.78582779330E+03  0.78582779332E+03  0.50400001928E-02 0. -1.
    10030    2    1    2    0    0  0.00000000000E+00  0.00000000000E+00  0.72751124410E+03  0.22991668307E+04  0.21810308355E+04 0.  0.
        3    1    3    3  502    0 -0.92298906549E+03 -0.57711904947E+03  0.29504334301E+03  0.11278412108E+04  0.10100000352E+00 0.  1.
       -3    1    3    3    0  502  0.92298906549E+03  0.57711904947E+03  0.43246790109E+03  0.11713256199E+04  0.10100000352E+00 0. -1.
</event>
<event>
 5   0  0.1874272E-05  0.2836956E+04  0.7818609E-02  0.8291886E-01
       -2   -1    0    0    0  501  0.00000000000E+00  0.00000000000E+00  0.17066483698E+04  0.17066483698E+04  0.25500000920E-02 0.  1.
        2   -1    0    0  501    0  0.00000000000E+00  0.00000000000E+00 -0.11789660722E+04  0.11789660722E+04  0.25500000920E-02 0. -1.
    10030    2    1    2    0    0  0.00000000000E+00  0.00000000000E+00  0.52768229764E+03  0.28856144420E+04  0.28369564855E+04 0.  0.
        3    1    3    3  502    0  0.93843592878E+03 -0.73808470684E+03  0.10429084497E+04  0.15852725543E+04  0.10100000352E+00 0.  1.
       -3    1    3    3    0  502 -0.93843592878E+03  0.73808470684E+03 -0.51522615206E+03  0.13003418877E+04  0.10100000352E+00 0. -1.
</event>
<event>
 5   0  0.7509685E-06  0.1803442E+04  0.7818609E-02  0.8704471E-01
        1   -1    0    0  501    0  0.00000000000E+00  0.00000000000E+00  0.10375080783E+04  0.10375080784E+04  0.50400001928E-02 0. -1.
       -1   -1    0    0    0  501  0.00000000000E+00  0.00000000000E+00 -0.78370504325E+03  0.78370504327E+03  0.50400001928E-02 0.  1.
    10030    2    1    2    0    0  0.00000000000E+00  0.00000000000E+00  0.25380303510E+03  0.18212131216E+04  0.18034415027E+04 0.  0.
        4    1    3    3  502    0 -0.36975582067E+03 -0.56953375310E+03  0.72605295387E+03  0.99410390180E+03  0.12699999809E+01 0. -1.
       -4    1    3    3    0  502  0.36975582067E+03  0.56953375310E+03 -0.47224991877E+03  0.82710921983E+03  0.12699999809E+01 0.  1.
</event>
<event>
 5   0  0.1832502E-05  0.2599305E+04  0.7818609E-02  0.8368437E-01
       -2   -1    0    0    0  501  0.00000000000E+00  0.00000000000E+00  0.11110458026E+04  0.11110458026E+04  0.25500000920E-02 0. -1.
        2   -1    0    0  501    0  0.00000000000E+00  0.00000000000E+00 -0.15202767109E+04  0.15202767109E+04  0.25500000920E-02 0.  1.
    10030    2    1    2    0    0  0.00000000000E+00  0.00000000000E+00 -0.40923090833E+03  0.26313225135E+04  0.25993053367E+04 0.  0.
        2    1    3    3  502    0 -0.10468807531E+04 -0.80698727407E+02 -0.97996446640E+03  0.14362457837E+04  0.25500000920E-02 0.  1.
       -2    1    3    3    0  502  0.10468807531E+04  0.80698727407E+02  0.57073355808E+03  0.11950767298E+04  0.25500000920E-02 0. -1.
</event>
<event>
 5   0  0.7509685E-06  0.2836186E+04  0.7818609E-02  0.8292121E-01
        1   -1    0    0  501    0  0.00000000000E+00  0.00000000000E+00  0.22130031371E+04  0.22130031371E+04  0.50400001928E-02 0. -1.
       -1   -1    0    0    0  501  0.00000000000E+00  0.00000000000E+00 -0.90871432580E+03  0.90871432582E+03  0.50400001928E-02 0.  1.
    10030    2    1    2    0    0  0.00000000000E+00  0.00000000000E+00  0.13042888113E+04  0.31217174629E+04  0.28361859274E+04 0.  0.
        4    1    3    3  502    0  0.12908585578E+04 -0.18218127781E+03  0.37853447172E+02  0.13042010315E+04  0.12699999809E+01 0.  1.
       -4    1    3    3    0  502 -0.12908585578E+04  0.18218127781E+03  0.12664353641E+04  0.18175164314E+04  0.12699999809E+01 0. -1.
</event>
<event>
 5   0  0.7509685E-06  0.2770112E+04  0.7818609E-02  0.8312608E-01
        1   -1    0    0  501    0  0.00000000000E+00  0.00000000000E+00  0.14325935298E+04  0.14325935298E+04  0.50400001928E-02 0. -1.
       -1   -1    0    0    0  501  0.00000000000E+00  0.00000000000E+00 -0.13390956215E+04  0.13390956215E+04  0.50400001928E-02 0.  1.
    10030    2    1    2    0    0  0.00000000000E+00  0.00000000000E+00  0.93497908260E+02  0.27716891513E+04  0.27701117112E+04 0.  0.
        4    1    3    3  502    0 -0.63487547134E+03 -0.58272821235E+03 -0.10381835355E+04  0.13492463452E+04  0.12699999809E+01 0.  1.
       -4    1    3    3    0  502  0.63487547134E+03  0.58272821235E+03  0.11316814438E+04  0.14224428061E+04  0.12699999809E+01 0. -1.
</event>
<event>
 5   0  0.7681342E-06  0.3077833E+04  0.7818609E-02  0.8221848E-01
        1   -1    0    0  501    0  0.00000000000E+00  0.00000000000E+00  0.26655703410E+04  0.26655703410E+04  0.50400001928E-02 0.  1.
       -1   -1    0    0    0  501  0.00000000000E+00  0.00000000000E+00 -0.88846451169E+03  0.88846451170E+03  0.50400001928E-02 0. -1.
    10030    2    1    2    0    0  0.00000000000E+00  0.00000000000E+00  0.17771058293E+04  0.35540348527E+04  0.30778334272E+04 0.  0.
        2    1    3    3  502    0 -0.87778444857E+03 -0.12305427430E+04  0.12222722403E+04  0.19438853901E+04  0.25500000920E-02 0. -1.
       -2    1    3    3    0  502  0.87778444857E+03  0.12305427430E+04  0.55483358899E+03  0.16101494626E+04  0.25500000920E-02 0.  1.
</event>
<event>
 5   0  0.1832502E-05  0.2771157E+04  0.7818609E-02  0.8312279E-01
        2   -1    0    0  501    0  0.00000000000E+00  0.00000000000E+00  0.22174825773E+04  0.22174825773E+04  0.25500000920E-02 0. -1.
       -2   -1    0    0    0  501  0.00000000000E+00  0.00000000000E+00 -0.86576930561E+03  0.86576930562E+03  0.25500000920E-02 0.  1.
    10030    2    1    2    0    0  0.00000000000E+00  0.00000000000E+00  0.13517132717E+04  0.30832518829E+04  0.27711574125E+04 0.  0.
        2    1    3    3  502    0  0.44155122902E+03 -0.13105391296E+04  0.77123150416E+03  0.15834387677E+04  0.25500000920E-02 0.  1.
       -2    1    3    3    0  502 -0.44155122902E+03  0.13105391296E+04  0.58048176751E+03  0.14998131152E+04  0.25500000920E-02 0. -1.
</event>
<event>
 5   0  0.1904553E-05  0.2807812E+04  0.7818609E-02  0.8300847E-01
        2   -1    0    0  501    0  0.00000000000E+00  0.00000000000E+00  0.22709936917E+04  0.22709936917E+04  0.25500000920E-02 0. -1.
       -2   -1    0    0    0  501  0.00000000000E+00  0.00000000000E+00 -0.86788102053E+03  0.86788102053E+03  0.25500000920E-02 0.  1.
    10030    2    1    2    0    0  0.00000000000E+00  0.00000000000E+00  0.14031126712E+04  0.31388747122E+04  0.28078121894E+04 0.  0.
        1    1    3    3  502    0  0.11932016736E+04  0.45852784122E+02  0.15269323220E+04  0.19383898028E+04  0.50400001928E-02 0. -1.
       -1    1    3    3    0  502 -0.11932016736E+04 -0.45852784122E+02 -0.12381965078E+03  0.12004849094E+04  0.50400001928E-02 0.  1.
</event>
<event>
 5   0  0.1814230E-05  0.2762818E+04  0.7818609E-02  0.8314906E-01
       -2   -1    0    0    0  501  0.00000000000E+00  0.00000000000E+00  0.11487059833E+04  0.11487059833E+04  0.25500000920E-02 0. -1.
        2   -1    0    0  501    0  0.00000000000E+00  0.00000000000E+00 -0.16612529596E+04  0.16612529596E+04  0.25500000920E-02 0.  1.
    10030    2    1    2    0    0  0.00000000000E+00  0.00000000000E+00 -0.51254697629E+03  0.28099589429E+04  0.27628182817E+04 0.  0.
        5    1    3    3  502    0 -0.13065289772E+04 -0.12428383694E+03 -0.69467897657E+03  0.14849462653E+04  0.46999998093E+01 0.  1.
       -5    1    3    3    0  502  0.13065289772E+04  0.12428383694E+03  0.18213200028E+03  0.13250126776E+04  0.46999998093E+01 0. -1.
</event>
<event>
 5   0  0.1904553E-05  0.2893087E+04  0.7818609E-02  0.8274937E-01
        2   -1    0    0  501    0  0.00000000000E+00  0.00000000000E+00  0.26277737322E+04  0.26277737322E+04  0.25500000920E-02 0. -1.
       -2   -1    0    0    0  501  0.00000000000E+00  0.00000000000E+00 -0.79629695392E+03  0.79629695393E+03  0.25500000920E-02 0.  1.
    10030    2    1    2    0    0  0.00000000000E+00  0.00000000000E+00  0.18314767783E+04  0.34240706862E+04  0.28930870838E+04 0.  0.
        1    1    3    3  502    0 -0.85804332037E+03 -0.11747001078E+03  0.22870317840E+04  0.24455166988E+04  0.50400001928E-02 0. -1.
       -1    1    3    3    0  502  0.85804332037E+03  0.11747001078E+03 -0.45555500565E+03  0.97855398740E+03  0.50400001928E-02 0.  1.
</event>
<event>
 5   0  0.7388013E-06  0.2810067E+04  0.7818609E-02  0.8300150E-01
        1   -1    0    0  501    0  0.00000000000E+00  0.00000000000E+00  0.16853332467E+04  0.16853332467E+04  0.50400001928E-02 0. -1.
       -1   -1    0    0    0  501  0.00000000000E+00  0.00000000000E+00 -0.11713521615E+04  0.11713521615E+04  0.50400001928E-02 0.  1.
    10030    2    1    2    0    0  0.00000000000E+00  0.00000000000E+00  0.51398108519E+03  0.28566854082E+04  0.28100667191E+04 0.  0.
        1    1    3    3  502    0  0.12868509020E+04 -0.18701117160E+02  0.83006577402E+03  0.15314516529E+04  0.50400001928E-02 0. -1.
       -1    1    3    3    0  502 -0.12868509020E+04  0.18701117160E+02 -0.31608468883E+03  0.13252337554E+04  0.50400001928E-02 0.  1.
</event>
<event>
 5   0  0.1814230E-05  0.2805500E+04  0.7818609E-02  0.8301563E-01
       -2   -1    0    0    0  501  0.00000000000E+00  0.00000000000E+00  0.10680844056E+04  0.10680844056E+04  0.25500000920E-02 0. -1.
        2   -1    0    0  501    0  0.00000000000E+00  0.00000000000E+00 -0.18422771843E+04  0.18422771843E+04  0.25500000920E-02 0.  1.
    10030    2    1    2    0    0  0.00000000000E+00  0.00000000000E+00 -0.77419277865E+03  0.29103615899E+04  0.28054999778E+04 0.  0.
        5    1    3    3  502    0  0.87843461329E+03  0.18792071620E+03  0.73054155903E+03  0.11578750472E+04  0.46999998093E+01 0. -1.
       -5    1    3    3    0  502 -0.87843461329E+03 -0.18792071620E+03 -0.15047343377E+04  0.17524865427E+04  0.46999998093E+01 0.  1.
</event>
<event>
 5   0  0.1923559E-05  0.2697665E+04  0.7818609E-02  0.8335763E-01
       -2   -1    0    0    0  501  0.00000000000E+00  0.00000000000E+00  0.90686226438E+03  0.90686226438E+03  0.25500000920E-02 0. -1.
        2   -1    0    0  501    0  0.00000000000E+00  0.00000000000E+00 -0.20062029778E+04  0.20062029778E+04  0.25500000920E-02 0.  1.
    10030    2    1    2    0    0  0.00000000000E+00  0.00000000000E+00 -0.10993407134E+04  0.29130652421E+04  0.26976654909E+04 0.  0.
        4    1    3    3  502    0  0.10389936933E+04 -0.82533517594E+03 -0.81121207538E+03  0.15552339668E+04  0.12699999809E+01 0.  1.
       -4    1    3    3    0  502 -0.10389936933E+04  0.82533517594E+03 -0.28812863800E+03  0.13578312753E+04  0.12699999809E+01 0. -1.
</event>
<event>
 5   0  0.1923559E-05  0.2438754E+04  0.7818609E-02  0.8425136E-01
        2   -1    0    0  501    0  0.00000000000E+00  0.00000000000E+00  0.18966555945E+04  0.18966555945E+04  0.25500000920E-02 0.  1.
       -2   -1    0    0    0  501  0.00000000000E+00  0.00000000000E+00 -0.78394829249E+03  0.78394829249E+03  0.25500000920E-02 0. -1.
    10030    2    1    2    0    0  0.00000000000E+00  0.00000000000E+00  0.11127073020E+04  0.26806038870E+04  0.24387537102E+04 0.  0.
        4    1    3    3  502    0 -0.55636423230E+03  0.85417926140E+02  0.17453081247E+04  0.18338319018E+04  0.12699999809E+01 0.  1.
       -4    1    3    3    0  502  0.55636423230E+03 -0.85417926140E+02 -0.63260082270E+03  0.84677198517E+03  0.12699999809E+01 0. -1.
</event>
<event>
 5   0  0.7681342E-06  0.2781696E+04  0.7818609E-02  0.8308973E-01
       -1   -1    0    0    0  501  0.00000000000E+00  0.00000000000E+00  0.86442722126E+03  0.86442722127E+03  0.50400001928E-02 0.  1.
        1   -1    0    0  501    0  0.00000000000E+00  0.00000000000E+00 -0.22378504447E+04  0.22378504447E+04  0.50400001928E-02 0. -1.
    10030    2    1    2    0    0  0.00000000000E+00  0.00000000000E+00 -0.13734232234E+04  0.31022776660E+04  0.27816964907E+04 0.  0.
        2    1    3    3  502    0 -0.97577115313E+02 -0.11815519816E+04 -0.14977593193E+04  0.19102013918E+04  0.25500000920E-02 0. -1.
       -2    1    3    3    0  502  0.97577115313E+02  0.11815519816E+04  0.12433609588E+03  0.11920762742E+04  0.25500000920E-02 0.  1.
</event>
<event>
 5   0  0.7555871E-06  0.2781882E+04  0.7818609E-02  0.8308915E-01
        1   -1    0    0  501    0  0.00000000000E+00  0.00000000000E+00  0.16289453887E+04  0.16289453887E+04  0.50400001928E-02 0. -1.
       -1   -1    0    0    0  501  0.00000000000E+00  0.00000000000E+00 -0.11877113075E+04  0.11877113075E+04  0.50400001928E-02 0.  1.
    10030    2    1    2    0    0  0.00000000000E+00  0.00000000000E+00  0.44123408121E+03  0.28166566962E+04  0.27818819942E+04 0.  0.
        3    1    3    3  502    0 -0.34448484768E+03  0.10345354369E+04  0.10949998064E+04  0.15453019015E+04  0.10100000352E+00 0. -1.
       -3    1    3    3    0  502  0.34448484768E+03 -0.10345354369E+04 -0.65376572521E+03  0.12713547947E+04  0.10100000352E+00 0.  1.
</event>
<event>
 5   0  0.7613444E-06  0.2742665E+04  0.7818609E-02  0.8321293E-01
        1   -1    0    0  501    0  0.00000000000E+00  0.00000000000E+00  0.19407800679E+04  0.19407800679E+04  0.50400001928E-02 0.  1.
       -1   -1    0    0    0  501  0.00000000000E+00  0.00000000000E+00 -0.96896780646E+03  0.96896780647E+03  0.50400001928E-02 0. -1.
    10030    2    1    2    0    0  0.00000000000E+00  0.00000000000E+00  0.97181226145E+03  0.29097478744E+04  0.27426654227E+04 0.  0.
        5    1    3    3  502    0 -0.32985460804E+03  0.11098239456E+04  0.12655327722E+04  0.17152575726E+04  0.46999998093E+01 0.  1.
       -5    1    3    3    0  502  0.32985460804E+03 -0.11098239456E+04 -0.29372051075E+03  0.11944903018E+04  0.46999998093E+01 0. -1.
</event>
<event>
 5   0  0.1923559E-05  0.2697270E+04  0.7818609E-02  0.8335891E-01
        2   -1    0    0  501    0  0.00000000000E+00  0.00000000000E+00  0.16959622276E+04  0.16959622276E+04  0.25500000920E-02 0.  1.
       -2   -1    0    0    0  501  0.00000000000E+00  0.00000000000E+00 -0.10724394442E+04  0.10724394442E+04  0.25500000920E-02 0. -1.
    10030    2    1    2    0    0  0.00000000000E+00  0.00000000000E+00  0.62352278343E+03  0.27684016718E+04  0.26972703155E+04 0.  0.
        4    1    3    3  502    0 -0.80333737833E+03  0.91926997291E+03  0.89994213149E+03  0.15166758650E+04  0.12699999809E+01 0. -1.
       -4    1    3    3    0  502  0.80333737833E+03 -0.91926997291E+03 -0.27641934806E+03  0.12517258068E+04  0.12699999809E+01 0.  1.
</event>
<event>
 5   0  0.1814230E-05  0.2791622E+04  0.7818609E-02  0.8305874E-01
       -2   -1    0    0    0  501  0.00000000000E+00  0.00000000000E+00  0.13311723071E+04  0.13311723071E+04  0.25500000920E-02 0. -1.
        2   -1    0    0  501    0  0.00000000000E+00  0.00000000000E+00 -0.14635886631E+04  0.14635886631E+04  0.25500000920E-02 0.  1.
    10030    2    1    2    0    0  0.00000000000E+00  0.00000000000E+00 -0.13241635599E+03  0.27947609702E+04  0.27916222505E+04 0.  0.
        5    1    3    3  502    0  0.11579775639E+04  0.45987860641E+02  0.71263804262E+03  0.13604785892E+04  0.46999998093E+01 0.  1.
       -5    1    3    3    0  502 -0.11579775639E+04 -0.45987860641E+02 -0.84505439861E+03  0.14342823810E+04  0.46999998093E+01 0. -1.
</event>
<event>
 5   0  0.1904553E-05  0.2908104E+04  0.7818609E-02  0.8270470E-01
       -2   -1    0    0    0  501  0.00000000000E+00  0.00000000000E+00  0.25917844545E+04  0.25917844545E+04  0.25500000920E-02 0.  1.
        2   -1    0    0  501    0  0.00000000000E+00  0.00000000000E+00 -0.81575725667E+03  0.81575725668E+03  0.25500000920E-02 0. -1.
    10030    2    1    2    0    0  0.00000000000E+00  0.00000000000E+00  0.17760271979E+04  0.34075417112E+04  0.29081038335E+04 0.  0.
        1    1    3    3  502    0  0.38026474483E+02 -0.74130741227E+03 -0.57702899976E+03  0.94018357721E+03  0.50400001928E-02 0. -1.
       -1    1    3    3    0  502 -0.38026474483E+02  0.74130741227E+03  0.23530561976E+04  0.24673581340E+04  0.50400001928E-02 0.  1.
</event>
<event>
 5   0  0.1904553E-05  0.1967535E+04  0.7818609E-02  0.8621951E-01
        2   -1    0    0  501    0  0.00000000000E+00  0.00000000000E+00  0.11068517517E+04  0.11068517517E+04  0.25500000920E-02 0. -1.
       -2   -1    0    0    0  501  0.00000000000E+00  0.00000000000E+00 -0.87437030450E+03  0.87437030450E+03  0.25500000920E-02 0.  1.
    10030    2    1    2    0    0  0.00000000000E+00  0.00000000000E+00  0.23248144719E+03  0.19812220562E+04  0.19675348060E+04 0.  0.
        1    1    3    3  502    0  0.15612468019E+03  0.32486634508E+03 -0.80548774577E+03  0.88245315261E+03  0.50400001928E-02 0.  1.
       -1    1    3    3    0  502 -0.15612468019E+03 -0.32486634508E+03  0.10379691930E+04  0.10987689036E+04  0.50400001928E-02 0. -1.
</event>
<event>
 5   0  0.6288000E-06  0.2775172E+04  0.7818609E-02  0.8311018E-01
       -3   -1    0    0    0  501  0.00000000000E+00  0.00000000000E+00  0.14355677377E+04  0.14355677412E+04  0.10100000352E+00 0. -1.
        3   -1    0    0  501    0  0.00000000000E+00  0.00000000000E+00 -0.13412077488E+04  0.13412077526E+04  0.10100000352E+00 0.  1.
    10030    2    1    2    0    0  0.00000000000E+00  0.00000000000E+00  0.94359988889E+02  0.27767754938E+04  0.27751717669E+04 0.  0.
        3    1    3    3  502    0  0.10040046734E+04 -0.92667344391E+03  0.28948830641E+03  0.13966218334E+04  0.10100000352E+00 0. -1.
       -3    1    3    3    0  502 -0.10040046734E+04  0.92667344391E+03 -0.19512831752E+03  0.13801536604E+04  0.10100000352E+00 0.  1.
</event>
<event>
 5   0  0.6288000E-06  0.2762495E+04  0.7818609E-02  0.8315008E-01
       -3   -1    0    0    0  501  0.00000000000E+00  0.00000000000E+00  0.28166384161E+04  0.28166384179E+04  0.10100000352E+00 0.  1.
        3   -1    0    0  501    0  0.00000000000E+00  0.00000000000E+00 -0.67734797396E+03  0.67734798149E+03  0.10100000352E+00 0. -1.
    10030    2    1    2    0    0  0.00000000000E+00  0.00000000000E+00  0.21392904421E+04  0.34939863994E+04  0.27624947716E+04 0.  0.
        5    1    3    3  502    0  0.42520112628E+03  0.60643593864E+02 -0.59073027032E+03  0.73038208189E+03  0.46999998093E+01 0. -1.
       -5    1    3    3    0  502 -0.42520112628E+03 -0.60643593864E+02  0.27300207125E+04  0.27636043175E+04  0.46999998093E+01 0.  1.
</event>
<event>
 5   0  0.1923559E-05  0.2747759E+04  0.7818609E-02  0.8319673E-01
        2   -1    0    0  501    0  0.00000000000E+00  0.00000000000E+00  0.13659865775E+04  0.13659865775E+04  0.25500000920E-02 0. -1.
       -2   -1    0    0    0  501  0.00000000000E+00  0.00000000000E+00 -0.13818179361E+04  0.13818179361E+04  0.25500000920E-02 0.  1.
    10030    2    1    2    0    0  0.00000000000E+00  0.00000000000E+00 -0.15831358607E+02  0.27478045136E+04  0.27477589074E+04 0.  0.
        4    1    3    3  502    0 -0.38990337926E+03 -0.95182747141E+03  0.90289192769E+03  0.13686546776E+04  0.12699999809E+01 0. -1.
       -4    1    3    3    0  502  0.38990337926E+03  0.95182747141E+03 -0.91872328629E+03  0.13791498360E+04  0.12699999809E+01 0.  1.
</event>
<event>
 5   0  0.7509685E-06  0.2780106E+04  0.7818609E-02  0.8309471E-01
        1   -1    0    0  501    0  0.00000000000E+00  0.00000000000E+00  0.19006291532E+04  0.19006291532E+04  0.50400001928E-02 0. -1.
       -1   -1    0    0    0  501  0.00000000000E+00  0.00000000000E+00 -0.10166357945E+04  0.10166357945E+04  0.50400001928E-02 0.  1.
    10030    2    1    2    0    0  0.00000000000E+00  0.00000000000E+00  0.88399335870E+03  0.29172649477E+04  0.27801062061E+04 0.  0.
        4    1    3    3  502    0  0.27456629505E+03  0.22738130810E+02  0.18716920868E+04  0.18918606063E+04  0.12699999809E+01 0. -1.
       -4    1    3    3    0  502 -0.27456629505E+03 -0.22738130810E+02 -0.98769872812E+03  0.10254043414E+04  0.12699999809E+01 0.  1.
</event>
<event>
 5   0  0.1923559E-05  0.2158519E+04  0.7818609E-02  0.8535894E-01
        2   -1    0    0  501    0  0.00000000000E+00  0.00000000000E+00  0.92720526992E+03  0.92720526992E+03  0.25500000920E-02 0.  1.
       -2   -1    0    0    0  501  0.00000000000E+00  0.00000000000E+00 -0.12562497526E+04  0.12562497526E+04  0.25500000920E-02 0. -1.
    10030    2    1    2    0    0  0.00000000000E+00  0.00000000000E+00 -0.32904448268E+03  0.21834550225E+04  0.21585192989E+04 0.  0.
        4    1    3    3  502    0  0.32379201579E+03 -0.37687135597E+03 -0.11336750657E+04  0.12377778702E+04  0.12699999809E+01 0. -1.
       -4    1    3    3    0  502 -0.32379201579E+03  0.37687135597E+03  0.80463058301E+03  0.94567715234E+03  0.12699999809E+01 0.  1.
</event>
<event>
 5   0  0.7555871E-06  0.2717579E+04  0.7818609E-02  0.8329324E-01
        1   -1    0    0  501    0  0.00000000000E+00  0.00000000000E+00  0.13066298359E+04  0.13066298359E+04  0.50400001928E-02 0. -1.
       -1   -1    0    0    0  501  0.00000000000E+00  0.00000000000E+00 -0.14130312376E+04  0.14130312376E+04  0.50400001928E-02 0.  1.
    10030    2    1    2    0    0  0.00000000000E+00  0.00000000000E+00 -0.10640140169E+03  0.27196610734E+04  0.27175789034E+04 0.  0.
        3    1    3    3  502    0  0.98043342561E+03 -0.86660357912E+03 -0.41961959048E+03  0.13741659566E+04  0.10100000352E+00 0.  1.
       -3    1    3    3    0  502 -0.98043342561E+03  0.86660357912E+03  0.31321818879E+03  0.13454951168E+04  0.10100000352E+00 0. -1.
</event>
<event>
 5   0  0.7509685E-06  0.2732754E+04  0.7818609E-02  0.8324455E-01
        1   -1    0    0  501    0  0.00000000000E+00  0.00000000000E+00  0.21681502141E+04  0.21681502141E+04  0.50400001928E-02 0. -1.
       -1   -1    0    0    0  501  0.00000000000E+00  0.00000000000E+00 -0.86109633379E+03  0.86109633381E+03  0.50400001928E-02 0.  1.
    10030    2    1    2    0    0  0.00000000000E+00  0.00000000000E+00  0.13070538803E+04  0.30292465479E+04  0.27327540691E+04 0.  0.
        4    1    3    3  502    0  0.25683851985E+03  0.89620951935E+03  0.17608177888E+04  0.19923951481E+04  0.12699999809E+01 0. -1.
       -4    1    3    3    0  502 -0.25683851985E+03 -0.89620951935E+03 -0.45376390846E+03  0.10368513999E+04  0.12699999809E+01 0.  1.
</event>
<event>
 5   0  0.7681342E-06  0.2725990E+04  0.7818609E-02  0.8326621E-01
        1   -1    0    0  501    0  0.00000000000E+00  0.00000000000E+00  0.12680183374E+04  0.12680183374E+04  0.50400001928E-02 0. -1.
       -1   -1    0    0    0  501  0.00000000000E+00  0.00000000000E+00 -0.14650853230E+04  0.14650853230E+04  0.50400001928E-02 0.  1.
    10030    2    1    2    0    0  0.00000000000E+00  0.00000000000E+00 -0.19706698556E+03  0.27331036604E+04  0.27259897692E+04 0.  0.
        2    1    3    3  502    0 -0.19963655847E+02  0.11569151169E+04 -0.82076321657E+03  0.14186272917E+04  0.25500000920E-02 0.  1.
       -2    1    3    3    0  502  0.19963655847E+02 -0.11569151169E+04  0.62369623101E+03  0.13144763686E+04  0.25500000920E-02 0. -1.
</event>
<event>
 5   0  0.1904553E-05  0.2789489E+04  0.7818609E-02  0.8306539E-01
       -2   -1    0    0    0  501  0.00000000000E+00  0.00000000000E+00  0.78524118213E+03  0.78524118213E+03  0.25500000920E-02 0. -1.
        2   -1    0    0  501    0  0.00000000000E+00  0.00000000000E+00 -0.24773438013E+04  0.24773438013E+04  0.25500000920E-02 0.  1.
    10030    2    1    2    0    0  0.00000000000E+00  0.00000000000E+00 -0.16921026192E+04  0.32625849834E+04  0.27894891110E+04 0.  0.
        1    1    3    3  502    0 -0.13698300350E+04  0.19862496510E+03 -0.10466850911E+04  0.17353489221E+04  0.50400001928E-02 0.  1.
       -1    1    3    3    0  502  0.13698300350E+04 -0.19862496510E+03 -0.64541752806E+03  0.15272360613E+04  0.50400001928E-02 0. -1.
</event>
<event>
 5   0  0.7555871E-06  0.2858698E+04  0.7818609E-02  0.8285273E-01
        1   -1    0    0  501    0  0.00000000000E+00  0.00000000000E+00  0.22744175931E+04  0.22744175931E+04  0.50400001928E-02 0.  1.
       -1   -1    0    0    0  501  0.00000000000E+00  0.00000000000E+00 -0.89826868839E+03  0.89826868840E+03  0.50400001928E-02 0. -1.
    10030    2    1    2    0    0  0.00000000000E+00  0.00000000000E+00  0.13761489047E+04  0.31726862815E+04  0.28586976813E+04 0.  0.
        3    1    3    3  502    0 -0.23891943205E+03 -0.12839869639E+04  0.43477323418E+02  0.13067499020E+04  0.10100000352E+00 0.  1.
       -3    1    3    3    0  502  0.23891943205E+03  0.12839869639E+04  0.13326715813E+04  0.18659363795E+04  0.10100000352E+00 0. -1.
</event>
<event>
 5   0  0.1904553E-05  0.2860887E+04  0.7818609E-02  0.8284611E-01
        2   -1    0    0  501    0  0.00000000000E+00  0.00000000000E+00  0.21091368670E+04  0.21091368670E+04  0.25500000920E-02 0.  1.
       -2   -1    0    0    0  501  0.00000000000E+00  0.00000000000E+00 -0.97014520300E+03  0.97014520300E+03  0.25500000920E-02 0. -1.
    10030    2    1    2    0    0  0.00000000000E+00  0.00000000000E+00  0.11389916640E+04  0.30792820700E+04  0.28608872847E+04 0.  0.
        1    1    3    3  502    0  0.22576051602E+03  0.23450186273E+03  0.20687425402E+04  0.20941954617E+04  0.50400001928E-02 0.  1.
       -1    1    3    3    0  502 -0.22576051602E+03 -0.23450186273E+03 -0.92975087615E+03  0.98508660834E+03  0.50400001928E-02 0. -1.
</event>
<event>
 5   0  0.1832502E-05  0.2802606E+04  0.7818609E-02  0.8302460E-01
       -2   -1    0    0    0  501  0.00000000000E+00  0.00000000000E+00  0.28381138317E+04  0.28381138317E+04  0.25500000920E-02 0. -1.
        2   -1    0    0  501    0  0.00000000000E+00  0.00000000000E+00 -0.69188570484E+03  0.69188570485E+03  0.25500000920E-02 0.  1.
    10030    2    1    2    0    0  0.00000000000E+00  0.00000000000E+00  0.21462281268E+04  0.35299995365E+04  0.28026062077E+04 0.  0.
        2    1    3    3  502    0 -0.64886064792E+03 -0.69781548632E+03  0.23672488056E+04  0.25518294420E+04  0.25500000920E-02 0. -1.
       -2    1    3    3    0  502  0.64886064792E+03  0.69781548632E+03 -0.22102067879E+03  0.97817009452E+03  0.25500000920E-02 0.  1.
</event>
<event>
 5   0  0.1923559E-05  0.2851361E+04  0.7818609E-02  0.8287498E-01
       -2   -1    0    0    0  501  0.00000000000E+00  0.00000000000E+00  0.14123219806E+04  0.14123219806E+04  0.25500000920E-02 0. -1.
        2   -1    0    0  501    0  0.00000000000E+00  0.00000000000E+00 -0.14391650745E+04  0.14391650745E+04  0.25500000920E-02 0.  1.
    10030    2    1    2    0    0  0.00000000000E+00  0.00000000000E+00 -0.26843093934E+02  0.28514870551E+04  0.28513607056E+04 0.  0.
        4    1    3    3  502    0 -0.79453103520E+03 -0.57963950337E+03 -0.10456016422E+04  0.14354601795E+04  0.12699999809E+01 0.  1.
       -4    1    3    3    0  502  0.79453103520E+03  0.57963950337E+03  0.10187585483E+04  0.14160268756E+04  0.12699999809E+01 0. -1.
</event>
<event>
 5   0  0.7509685E-06  0.2755074E+04  0.7818609E-02  0.8317353E-01
        1   -1    0    0  501    0  0.00000000000E+00  0.00000000000E+00  0.10663033665E+04  0.10663033665E+04  0.50400001928E-02 0. -1.
       -1   -1    0    0    0  501  0.00000000000E+00  0.00000000000E+00 -0.17796143865E+04  0.17796143865E+04  0.50400001928E-02 0.  1.
    10030    2    1    2    0    0  0.00000000000E+00  0.00000000000E+00 -0.71331101999E+03  0.28459177530E+04  0.27550744538E+04 0.  0.
        4    1    3    3  502    0 -0.41207472183E+03 -0.10226411855E+04  0.49641180547E+03  0.12091430288E+04  0.12699999809E+01 0. -1.
       -4    1    3    3    0  502  0.41207472183E+03  0.10226411855E+04 -0.12097228255E+04  0.16367747242E+04  0.12699999809E+01 0.  1.
</event>
<event>
 5   0  0.7388013E-06  0.2896943E+04  0.7818609E-02  0.8273788E-01
       -1   -1    0    0    0  501  0.00000000000E+00  0.00000000000E+00  0.13246936585E+04  0.13246936585E+04  0.50400001928E-02 0. -1.
        1   -1    0    0  501    0  0.00000000000E+00  0.00000000000E+00 -0.15838145219E+04  0.15838145219E+04  0.50400001928E-02 0.  1.
    10030    2    1    2    0    0  0.00000000000E+00  0.00000000000E+00 -0.25912086334E+03  0.29085081804E+04  0.28969425630E+04 0.  0.
        1    1    3    3  502    0 -0.84138006030E+03 -0.33121835497E+03 -0.12656446799E+04  0.15554685661E+04  0.50400001928E-02 0.  1.
       -1    1    3    3    0  502  0.84138006030E+03  0.33121835497E+03  0.10065238165E+04  0.13530396143E+04  0.50400001928E-02 0. -1.
</event>
<event>
 5   0  0.1923559E-05  0.2757021E+04  0.7818609E-02  0.8316737E-01
       -2   -1    0    0    0  501  0.00000000000E+00  0.00000000000E+00  0.14001146069E+04  0.14001146069E+04  0.25500000920E-02 0.  1.
        2   -1    0    0  501    0  0.00000000000E+00  0.00000000000E+00 -0.13572401883E+04  0.13572401883E+04  0.25500000920E-02 0. -1.
    10030    2    1    2    0    0  0.00000000000E+00  0.00000000000E+00  0.42874418596E+02  0.27573547951E+04  0.27570214454E+04 0.  0.
        4    1    3    3  502    0 -0.51237184138E+03  0.69710869853E+03  0.10947886443E+04  0.13953670593E+04  0.12699999809E+01 0.  1.
       -4    1    3    3    0  502  0.51237184138E+03 -0.69710869853E+03 -0.10519142257E+04  0.13619877359E+04  0.12699999809E+01 0. -1.
</event>
<event>
 5   0  0.1814230E-05  0.2779795E+04  0.7818609E-02  0.8309569E-01
        2   -1    0    0  501    0  0.00000000000E+00  0.00000000000E+00  0.12941209626E+04  0.12941209626E+04  0.25500000920E-02 0. -1.
       -2   -1    0    0    0  501  0.00000000000E+00  0.00000000000E+00 -0.14927623725E+04  0.14927623725E+04  0.25500000920E-02 0.  1.
    10030    2    1    2    0    0  0.00000000000E+00  0.00000000000E+00 -0.19864140991E+03  0.27868833352E+04  0.27797950130E+04 0.  0.
        5    1    3    3  502    0 -0.88219239659E+03  0.64986834158E+03 -0.95660391311E+03  0.14545464663E+04  0.46999998093E+01 0.  1.
       -5    1    3    3    0  502  0.88219239659E+03 -0.64986834158E+03  0.75796250320E+03  0.13323368689E+04  0.46999998093E+01 0. -1.
</event>
<event>
 5   0  0.7681342E-06  0.2723448E+04  0.7818609E-02  0.8327437E-01
        1   -1    0    0  501    0  0.00000000000E+00  0.00000000000E+00  0.10081492068E+04  0.10081492068E+04  0.50400001928E-02 0. -1.
       -1   -1    0    0    0  501  0.00000000000E+00  0.00000000000E+00 -0.18393039239E+04  0.18393039240E+04  0.50400001928E-02 0.  1.
    10030    2    1    2    0    0  0.00000000000E+00  0.00000000000E+00 -0.83115471714E+03  0.28474531308E+04  0.27234483964E+04 0.  0.
        2    1    3    3  502    0 -0.34964958322E+03 -0.12058023620E+04  0.13576484414E+03  0.12627930394E+04  0.25500000920E-02 0. -1.
       -2    1    3    3    0  502  0.34964958322E+03  0.12058023620E+04 -0.96691956128E+03  0.15846600914E+04  0.25500000920E-02 0.  1.
</event>
<event>
 5   0  0.7555871E-06  0.2724856E+04  0.7818609E-02  0.8326985E-01
        1   -1    0    0  501    0  0.00000000000E+00  0.00000000000E+00  0.29304453949E+04  0.29304453949E+04  0.50400001928E-02 0.  1.
       -1   -1    0    0    0  501  0.00000000000E+00  0.00000000000E+00 -0.63342272793E+03  0.63342272795E+03  0.50400001928E-02 0. -1.
    10030    2    1    2    0    0  0.00000000000E+00  0.00000000000E+00  0.22970226670E+04  0.35638681229E+04  0.27248564851E+04 0.  0.
        3    1    3    3  502    0 -0.71278500927E+03  0.66807537554E+02  0.26646074120E+04  0.27591046349E+04  0.10100000352E+00 0.  1.
       -3    1    3    3    0  502  0.71278500927E+03 -0.66807537554E+02 -0.36758474498E+03  0.80476348790E+03  0.10100000352E+00 0. -1.
</event>
<event>
 5   0  0.1832502E-05  0.2802820E+04  0.7818609E-02  0.8302393E-01
        2   -1    0    0  501    0  0.00000000000E+00  0.00000000000E+00  0.25547203652E+04  0.25547203652E+04  0.25500000920E-02 0.  1.
       -2   -1    0    0    0  501  0.00000000000E+00  0.00000000000E+00 -0.76875329292E+03  0.76875329293E+03  0.25500000920E-02 0. -1.
    10030    2    1    2    0    0  0.00000000000E+00  0.00000000000E+00  0.17859670723E+04  0.33234736581E+04  0.28028197896E+04 0.  0.
        2    1    3    3  502    0 -0.31066885228E+03 -0.10435094662E+04  0.19392267746E+04  0.22239666421E+04  0.25500000920E-02 0.  1.
       -2    1    3    3    0  502  0.31066885228E+03  0.10435094662E+04 -0.15325970231E+03  0.10995070160E+04  0.25500000920E-02 0. -1.
</event>
<event>
 5   0  0.1923559E-05  0.2809796E+04  0.7818609E-02  0.8300234E-01
        2   -1    0    0  501    0  0.00000000000E+00  0.00000000000E+00  0.15206214778E+04  0.15206214778E+04  0.25500000920E-02 0.  1.
       -2   -1    0    0    0  501  0.00000000000E+00  0.00000000000E+00 -0.12979811000E+04  0.12979811000E+04  0.25500000920E-02 0. -1.
    10030    2    1    2    0    0  0.00000000000E+00  0.00000000000E+00  0.22264037775E+03  0.28186025778E+04  0.28097956783E+04 0.  0.
        4    1    3    3  502    0 -0.74118211637E+03 -0.10884157442E+04  0.60248386647E+03  0.14480981266E+04  0.12699999809E+01 0.  1.
       -4    1    3    3    0  502  0.74118211637E+03  0.10884157442E+04 -0.37984348872E+03  0.13705044512E+04  0.12699999809E+01 0. -1.
</event>
<event>
 5   0  0.7388013E-06  0.2802455E+04  0.7818609E-02  0.8302507E-01
       -1   -1    0    0    0  501  0.00000000000E+00  0.00000000000E+00  0.15173627002E+04  0.15173627002E+04  0.50400001928E-02 0.  1.
        1   -1    0    0  501    0  0.00000000000E+00  0.00000000000E+00 -0.12939811682E+04  0.12939811682E+04  0.50400001928E-02 0. -1.
    10030    2    1    2    0    0  0.00000000000E+00  0.00000000000E+00  0.22338153201E+03  0.28113438685E+04  0.28024551804E+04 0.  0.
        1    1    3    3  502    0  0.47797530683E+03 -0.82331511553E+03 -0.91973888712E+03  0.13237174147E+04  0.50400001928E-02 0. -1.
       -1    1    3    3    0  502 -0.47797530683E+03  0.82331511553E+03  0.11431204191E+04  0.14876264538E+04  0.50400001928E-02 0.  1.
</event>
<event>
 5   0  0.7388013E-06  0.2842691E+04  0.7818609E-02  0.8290136E-01
        1   -1    0    0  501    0  0.00000000000E+00  0.00000000000E+00  0.15051863754E+04  0.15051863754E+04  0.50400001928E-02 0.  1.
       -1   -1    0    0    0  501  0.00000000000E+00  0.00000000000E+00 -0.13421746472E+04  0.13421746472E+04  0.50400001928E-02 0. -1.
    10030    2    1    2    0    0  0.00000000000E+00  0.00000000000E+00  0.16301172820E+03  0.28473610225E+04  0.28426909732E+04 0.  0.
        1    1    3    3  502    0  0.47637470699E+02 -0.13580938127E+04  0.49876537966E+03  0.14475686639E+04  0.50400001928E-02 0.  1.
       -1    1    3    3    0  502 -0.47637470699E+02  0.13580938127E+04 -0.33575365146E+03  0.13997923586E+04  0.50400001928E-02 0. -1.
</event>
<event>
 5   0  0.1874272E-05  0.2558566E+04  0.7818609E-02  0.8382413E-01
        2   -1    0    0  501    0  0.00000000000E+00  0.00000000000E+00  0.76069375589E+03  0.76069375590E+03  0.25500000920E-02 0.  1.
       -2   -1    0    0    0  501  0.00000000000E+00  0.00000000000E+00 -0.21514114538E+04  0.21514114538E+04  0.25500000920E-02 0. -1.
    10030    2    1    2    0    0  0.00000000000E+00  0.00000000000E+00 -0.13907176979E+04  0.29121052097E+04  0.25585662073E+04 0.  0.
        3    1    3    3  502    0 -0.10292295397E+04 -0.69979262819E+03 -0.35860014053E+03  0.12952286435E+04  0.10100000352E+00 0.  1.
       -3    1    3    3    0  502  0.10292295397E+04  0.69979262819E+03 -0.10321175574E+04  0.16168765662E+04  0.10100000352E+00 0. -1.
</event>
<event>
 5   0  0.7509685E-06  0.2701841E+04  0.7818609E-02  0.8334408E-01
       -1   -1    0    0    0  501  0.00000000000E+00  0.00000000000E+00  0.11550349002E+04  0.11550349002E+04  0.50400001928E-02 0. -1.
        1   -1    0    0  501    0  0.00000000000E+00  0.00000000000E+00 -0.15800273038E+04  0.15800273038E+04  0.50400001928E-02 0.  1.
    10030    2    1    2    0    0  0.00000000000E+00  0.00000000000E+00 -0.42499240360E+03  0.27350622040E+04  0.27018413567E+04 0.  0.
        4    1    3    3  502    0  0.12376596974E+04  0.18517755077E+03 -0.72756751331E+03  0.14475663547E+04  0.12699999809E+01 0.  1.
       -4    1    3    3    0  502 -0.12376596974E+04 -0.18517755077E+03  0.30257510971E+03  0.12874958493E+04  0.12699999809E+01 0. -1.
</event>
<event>
 5   0  0.7555871E-06  0.2784651E+04  0.7818609E-02  0.8308049E-01
       -1   -1    0    0    0  501  0.00000000000E+00  0.00000000000E+00  0.27225016156E+04  0.27225016156E+04  0.50400001928E-02 0.  1.
        1   -1    0    0  501    0  0.00000000000E+00  0.00000000000E+00 -0.71205494300E+03  0.71205494302E+03  0.50400001928E-02 0. -1.
    10030    2    1    2    0    0  0.00000000000E+00  0.00000000000E+00  0.20104466726E+04  0.34345565586E+04  0.27846513123E+04 0.  0.
        3    1    3    3  502    0  0.30026922506E+03  0.11577295805E+04  0.18843717501E+04  0.22318952242E+04  0.10100000352E+00 0.  1.
       -3    1    3    3    0  502 -0.30026922506E+03 -0.11577295805E+04  0.12607492246E+03  0.12026613344E+04  0.10100000352E+00 0. -1.
</event>
<event>
 5   0  0.7388013E-06  0.2769317E+04  0.7818609E-02  0.8312858E-01
       -1   -1    0    0    0  501  0.00000000000E+00  0.00000000000E+00  0.10583566579E+04  0.10583566579E+04  0.50400001928E-02 0. -1.
        1   -1    0    0  501    0  0.00000000000E+00  0.00000000000E+00 -0.18115618846E+04  0.18115618847E+04  0.50400001928E-02 0.  1.
    10030    2    1    2    0    0  0.00000000000E+00  0.00000000000E+00 -0.75320522675E+03  0.28699185426E+04  0.27693165813E+04 0.  0.
        1    1    3    3  502    0 -0.55235065719E+03 -0.46598567002E+03  0.84742446121E+03  0.11137154532E+04  0.50400001928E-02 0. -1.
       -1    1    3    3    0  502  0.55235065719E+03  0.46598567002E+03 -0.16006296880E+04  0.17562030894E+04  0.50400001928E-02 0.  1.
</event>
<event>
 5   0  0.7555871E-06  0.2808204E+04  0.7818609E-02  0.8300726E-01
       -1   -1    0    0    0  501  0.00000000000E+00  0.00000000000E+00  0.11905799110E+04  0.11905799110E+04  0.50400001928E-02 0.  1.
        1   -1    0    0  501    0  0.00000000000E+00  0.00000000000E+00 -0.16559179144E+04  0.16559179144E+04  0.50400001928E-02 0. -1.
    10030    2    1    2    0    0  0.00000000000E+00  0.00000000000E+00 -0.46533800336E+03  0.28464978254E+04  0.28082041259E+04 0.  0.
        3    1    3    3  502    0  0.79382334511E+03 -0.22676645025E+03 -0.13839047214E+04  0.16114499106E+04  0.10100000352E+00 0. -1.
       -3    1    3    3    0  502 -0.79382334511E+03  0.22676645025E+03  0.91856671802E+03  0.12350479148E+04  0.10100000352E+00 0.  1.
</event>
<event>
 5   0  0.1814230E-05  0.2834809E+04  0.7818609E-02  0.8292542E-01
       -2   -1    0    0    0  501  0.00000000000E+00  0.00000000000E+00  0.17185933539E+04  0.17185933539E+04  0.25500000920E-02 0.  1.
        2   -1    0    0  501    0  0.00000000000E+00  0.00000000000E+00 -0.11689998065E+04  0.11689998065E+04  0.25500000920E-02 0. -1.
    10030    2    1    2    0    0  0.00000000000E+00  0.00000000000E+00  0.54959354737E+03  0.28875931604E+04  0.28348088459E+04 0.  0.
        5    1    3    3  502    0  0.10983428427E+04 -0.54726413119E+03  0.99734109710E+03  0.15813179261E+04  0.46999998093E+01 0.  1.
       -5    1    3    3    0  502 -0.10983428427E+04  0.54726413119E+03 -0.44774754973E+03  0.13062752343E+04  0.46999998093E+01 0. -1.
</event>
<event>
 5   0  0.7509685E-06  0.2886878E+04  0.7818609E-02  0.8276792E-01
       -1   -1    0    0    0  501  0.00000000000E+00  0.00000000000E+00  0.13409689438E+04  0.13409689438E+04  0.50400001928E-02 0.  1.
        1   -1    0    0  501    0  0.00000000000E+00  0.00000000000E+00 -0.15537390451E+04  0.15537390451E+04  0.50400001928E-02 0. -1.
    10030    2    1    2    0    0  0.00000000000E+00  0.00000000000E+00 -0.21277010134E+03  0.28947079889E+04  0.28868777642E+04 0.  0.
        4    1    3    3  502    0  0.48025759764E+03  0.10760005248E+03  0.12542365173E+04  0.13473440487E+04  0.12699999809E+01 0.  1.
       -4    1    3    3    0  502 -0.48025759764E+03 -0.10760005248E+03 -0.14670066187E+04  0.15473639402E+04  0.12699999809E+01 0. -1.
</event>
<event>
 5   0  0.7388013E-06  0.3018212E+04  0.7818609E-02  0.8238549E-01
       -1   -1    0    0    0  501  0.00000000000E+00  0.00000000000E+00  0.10893592755E+04  0.10893592755E+04  0.50400001928E-02 0. -1.
        1   -1    0    0  501    0  0.00000000000E+00  0.00000000000E+00 -0.20905878851E+04  0.20905878851E+04  0.50400001928E-02 0.  1.
    10030    2    1    2    0    0  0.00000000000E+00  0.00000000000E+00 -0.10012286096E+04  0.31799471607E+04  0.30182122549E+04 0.  0.
        1    1    3    3  502    0  0.71982797836E+03 -0.10414065284E+04  0.36481655416E+03  0.13174866200E+04  0.50400001928E-02 0. -1.
       -1    1    3    3    0  502 -0.71982797836E+03  0.10414065284E+04 -0.13660451638E+04  0.18624605406E+04  0.50400001928E-02 0.  1.
</event>
<event>
 5   0  0.7555871E-06  0.1740127E+04  0.7818609E-02  0.8738804E-01
        1   -1    0    0  501    0  0.00000000000E+00  0.00000000000E+00  0.93141464184E+03  0.93141464186E+03  0.50400001928E-02 0.  1.
       -1   -1    0    0    0  501  0.00000000000E+00  0.00000000000E+00 -0.81275315015E+03  0.81275315017E+03  0.50400001928E-02 0. -1.
    10030    2    1    2    0    0  0.00000000000E+00  0.00000000000E+00  0.11866149169E+03  0.17441677920E+04  0.17401266440E+04 0.  0.
        3    1    3    3  502    0  0.14012535346E+03 -0.33050202227E+03 -0.73506485651E+03  0.81803854120E+03  0.10100000352E+00 0. -1.
       -3    1    3    3    0  502 -0.14012535346E+03  0.33050202227E+03  0.85372634821E+03  0.92612925082E+03  0.10100000352E+00 0.  1.
</event>
<event>
 5   0  0.1814230E-05  0.2847485E+04  0.7818609E-02  0.8288676E-01
       -2   -1    0    0    0  501  0.00000000000E+00  0.00000000000E+00  0.20773766577E+04  0.20773766577E+04  0.25500000920E-02 0. -1.
        2   -1    0    0  501    0  0.00000000000E+00  0.00000000000E+00 -0.97577027748E+03  0.97577027748E+03  0.25500000920E-02 0.  1.
    10030    2    1    2    0    0  0.00000000000E+00  0.00000000000E+00  0.11016063802E+04  0.30531469352E+04  0.28474847832E+04 0.  0.
        5    1    3    3  502    0  0.11175623932E+04 -0.28102816381E+03 -0.34570704889E+03  0.12031034807E+04  0.46999998093E+01 0.  1.
       -5    1    3    3    0  502 -0.11175623932E+04  0.28102816381E+03  0.14473134291E+04  0.18500434545E+04  0.46999998093E+01 0. -1.
</event>
<event>
 5   0  0.1923559E-05  0.2342818E+04  0.7818609E-02  0.8461227E-01
       -2   -1    0    0    0  501  0.00000000000E+00  0.00000000000E+00  0.11384735622E+04  0.11384735622E+04  0.25500000920E-02 0.  1.
        2   -1    0    0  501    0  0.00000000000E+00  0.00000000000E+00 -0.12052971918E+04  0.12052971918E+04  0.25500000920E-02 0. -1.
    10030    2    1    2    0    0  0.00000000000E+00  0.00000000000E+00 -0.66823629657E+02  0.23437707540E+04  0.23428179507E+04 0.  0.
        4    1    3    3  502    0 -0.52910771598E+03 -0.53902494287E+03 -0.92914990557E+03  0.11974239116E+04  0.12699999809E+01 0. -1.
       -4    1    3    3    0  502  0.52910771598E+03  0.53902494287E+03  0.86232627591E+03  0.11463468424E+04  0.12699999809E+01 0.  1.
</event>
<event>
 5   0  0.7613444E-06  0.2739350E+04  0.7818609E-02  0.8322349E-01
       -1   -1    0    0    0  501  0.00000000000E+00  0.00000000000E+00  0.14748522247E+04  0.14748522247E+04  0.50400001928E-02 0. -1.
        1   -1    0    0  501    0  0.00000000000E+00  0.00000000000E+00 -0.12719985697E+04  0.12719985697E+04  0.50400001928E-02 0.  1.
    10030    2    1    2    0    0  0.00000000000E+00  0.00000000000E+00  0.20285365504E+03  0.27468507945E+04  0.27393502298E+04 0.  0.
        5    1    3    3  502    0  0.61233761537E+03  0.49354310908E+03  0.12258560515E+04  0.14564639730E+04  0.46999998093E+01 0. -1.
       -5    1    3    3    0  502 -0.61233761537E+03 -0.49354310908E+03 -0.10230023965E+04  0.12903868214E+04  0.46999998093E+01 0.  1.
</event>
<event>
 5   0  0.1923559E-05  0.2825988E+04  0.7818609E-02  0.8295245E-01
        2   -1    0    0  501    0  0.00000000000E+00  0.00000000000E+00  0.16651584353E+04  0.16651584353E+04  0.25500000920E-02 0. -1.
       -2   -1    0    0    0  501  0.00000000000E+00  0.00000000000E+00 -0.11990164383E+04  0.11990164383E+04  0.25500000920E-02 0.  1.
    10030    2    1    2    0    0  0.00000000000E+00  0.00000000000E+00  0.46614199700E+03  0.28641748735E+04  0.28259882068E+04 0.  0.
        4    1    3    3  502    0  0.63882108282E+03 -0.97002761548E+03 -0.58247915216E+03  0.12993573512E+04  0.12699999809E+01 0.  1.
       -4    1    3    3    0  502 -0.63882108282E+03  0.97002761548E+03  0.10486211492E+04  0.15648175223E+04  0.12699999809E+01 0. -1.
</event>
<event>
 5   0  0.7555871E-06  0.2798989E+04  0.7818609E-02  0.8303582E-01
        1   -1    0    0  501    0  0.00000000000E+00  0.00000000000E+00  0.19044955429E+04  0.19044955429E+04  0.50400001928E-02 0.  1.
       -1   -1    0    0    0  501  0.00000000000E+00  0.00000000000E+00 -0.10284005605E+04  0.10284005605E+04  0.50400001928E-02 0. -1.
    10030    2    1    2    0    0  0.00000000000E+00  0.00000000000E+00  0.87609498245E+03  0.29328961034E+04  0.27989885915E+04 0.  0.
        3    1    3    3  502    0 -0.29774028952E+02 -0.13041404918E+03  0.18977811743E+04  0.19024898720E+04  0.10100000352E+00 0.  1.
       -3    1    3    3    0  502  0.29774028952E+02  0.13041404918E+03 -0.10216861919E+04  0.10304062315E+04  0.10100000352E+00 0. -1.
</event>
<event>
 5   0  0.1832502E-05  0.1890248E+04  0.7818609E-02  0.8659726E-01
        2   -1    0    0  501    0  0.00000000000E+00  0.00000000000E+00  0.86657009776E+03  0.86657009777E+03  0.25500000920E-02 0.  1.
       -2   -1    0    0    0  501  0.00000000000E+00  0.00000000000E+00 -0.10307990996E+04  0.10307990996E+04  0.25500000920E-02 0. -1.
    10030    2    1    2    0    0  0.00000000000E+00  0.00000000000E+00 -0.16422900179E+03  0.18973691973E+04  0.18902483186E+04 0.  0.
        2    1    3    3  502    0  0.79725515923E+02 -0.33364480979E+03  0.80187598444E+03  0.87216977213E+03  0.25500000920E-02 0.  1.
       -2    1    3    3    0  502 -0.79725515923E+02  0.33364480979E+03 -0.96610498623E+03  0.10251994252E+04  0.25500000920E-02 0. -1.
</event>
<event>
 5   0  0.1904553E-05  0.2793271E+04  0.7818609E-02  0.8305361E-01
       -2   -1    0    0    0  501  0.00000000000E+00  0.00000000000E+00  0.15469750244E+04  0.15469750244E+04  0.25500000920E-02 0. -1.
        2   -1    0    0  501    0  0.00000000000E+00  0.00000000000E+00 -0.12609060562E+04  0.12609060562E+04  0.25500000920E-02 0.  1.
    10030    2    1    2    0    0  0.00000000000E+00  0.00000000000E+00  0.28606896816E+03  0.28078810807E+04  0.27932706114E+04 0.  0.
        1    1    3    3  502    0  0.12447628169E+04  0.19404572856E+03 -0.46303033967E+03  0.13421942150E+04  0.50400001928E-02 0.  1.
       -1    1    3    3    0  502 -0.12447628169E+04 -0.19404572856E+03  0.74909930783E+03  0.14656868657E+04  0.50400001928E-02 0. -1.
</event>
<event>
 5   0  0.7509685E-06  0.2797949E+04  0.7818609E-02  0.8303905E-01
       -1   -1    0    0    0  501  0.00000000000E+00  0.00000000000E+00  0.15847938793E+04  0.15847938793E+04  0.50400001928E-02 0. -1.
        1   -1    0    0  501    0  0.00000000000E+00  0.00000000000E+00 -0.12349426047E+04  0.12349426047E+04  0.50400001928E-02 0.  1.
    10030    2    1    2    0    0  0.00000000000E+00  0.00000000000E+00  0.34985127465E+03  0.28197364840E+04  0.27979488782E+04 0.  0.
        4    1    3    3  502    0 -0.10729122853E+03 -0.13781310325E+04  0.39194249372E+03  0.14367940290E+04  0.12699999809E+01 0. -1.
       -4    1    3    3    0  502  0.10729122853E+03  0.13781310325E+04 -0.42091219063E+02  0.13829424550E+04  0.12699999809E+01 0.  1.
</event>
<event>
 5   0  0.1904553E-05  0.2839542E+04  0.7818609E-02  0.8291096E-01
       -2   -1    0    0    0  501  0.00000000000E+00  0.00000000000E+00  0.13304100852E+04  0.13304100852E+04  0.25500000920E-02 0. -1.
        2   -1    0    0  501    0  0.00000000000E+00  0.00000000000E+00 -0.15151343589E+04  0.15151343589E+04  0.25500000920E-02 0.  1.
    10030    2    1    2    0    0  0.00000000000E+00  0.00000000000E+00 -0.18472427372E+03  0.28455444442E+04  0.28395422389E+04 0.  0.
        1    1    3    3  502    0  0.77152482501E+03  0.70953857941E+03  0.86729170958E+03  0.13604743514E+04  0.50400001928E-02 0. -1.
       -1    1    3    3    0  502 -0.77152482501E+03 -0.70953857941E+03 -0.10520159833E+04  0.14850700928E+04  0.50400001928E-02 0.  1.
</event>
<event>
 5   0  0.7681342E-06  0.2808008E+04  0.7818609E-02  0.8300787E-01
        1   -1    0    0  501    0  0.00000000000E+00  0.00000000000E+00  0.18371195789E+04  0.18371195789E+04  0.50400001928E-02 0. -1.
       -1   -1    0    0    0  501  0.00000000000E+00  0.00000000000E+00 -0.10729988928E+04  0.10729988928E+04  0.50400001928E-02 0.  1.
    10030    2    1    2    0    0  0.00000000000E+00  0.00000000000E+00  0.76412068608E+03  0.29101184717E+04  0.28080080300E+04 0.  0.
        2    1    3    3  502    0  0.28960606995E+03 -0.58073068575E+03 -0.90824717768E+03  0.11162583665E+04  0.25500000920E-02 0.  1.
       -2    1    3    3    0  502 -0.28960606995E+03  0.58073068575E+03  0.16723678638E+04  0.17938601052E+04  0.25500000920E-02 0. -1.
</event>
<event>
 5   0  0.1923559E-05  0.2824281E+04  0.7818609E-02  0.8295769E-01
        2   -1    0    0  501    0  0.00000000000E+00  0.00000000000E+00  0.19718505846E+04  0.19718505846E+04  0.25500000920E-02 0.  1.
       -2   -1    0    0    0  501  0.00000000000E+00  0.00000000000E+00 -0.10113045568E+04  0.10113045568E+04  0.25500000920E-02 0. -1.
    10030    2    1    2    0    0  0.00000000000E+00  0.00000000000E+00  0.96054602780E+03  0.29831551413E+04  0.28242814884E+04 0.  0.
        4    1    3    3  502    0  0.82016308964E+03 -0.35241309775E+03 -0.67548057228E+03  0.11194365107E+04  0.12699999809E+01 0. -1.
       -4    1    3    3    0  502 -0.82016308964E+03  0.35241309775E+03  0.16360266001E+04  0.18637186306E+04  0.12699999809E+01 0.  1.
</event>
<event>
 5   0  0.1874272E-05  0.2778101E+04  0.7818609E-02  0.8310100E-01
       -2   -1    0    0    0  501  0.00000000000E+00  0.00000000000E+00  0.13315824098E+04  0.13315824099E+04  0.25500000920E-02 0.  1.
        2   -1    0    0  501    0  0.00000000000E+00  0.00000000000E+00 -0.14489985375E+04  0.14489985375E+04  0.25500000920E-02 0. -1.
    10030    2    1    2    0    0  0.00000000000E+00  0.00000000000E+00 -0.11741612765E+03  0.27805809473E+04  0.27781007645E+04 0.  0.
        3    1    3    3  502    0  0.68399324767E+03 -0.98877836956E+03 -0.75498098756E+03  0.14196921246E+04  0.10100000352E+00 0. -1.
       -3    1    3    3    0  502 -0.68399324767E+03  0.98877836956E+03  0.63756485992E+03  0.13608888227E+04  0.10100000352E+00 0.  1.
</event>
<event>
 5   0  0.7681342E-06  0.2900560E+04  0.7818609E-02  0.8272711E-01
       -1   -1    0    0    0  501  0.00000000000E+00  0.00000000000E+00  0.10789315583E+04  0.10789315584E+04  0.50400001928E-02 0. -1.
        1   -1    0    0  501    0  0.00000000000E+00  0.00000000000E+00 -0.19494394753E+04  0.19494394753E+04  0.50400001928E-02 0.  1.
    10030    2    1    2    0    0  0.00000000000E+00  0.00000000000E+00 -0.87050791691E+03  0.30283710336E+04  0.29005597880E+04 0.  0.
        2    1    3    3  502    0  0.33574919162E+03  0.54387488076E+03 -0.17944574646E+04  0.19048897600E+04  0.25500000920E-02 0.  1.
       -2    1    3    3    0  502 -0.33574919162E+03 -0.54387488076E+03  0.92394954765E+03  0.11234812736E+04  0.25500000920E-02 0. -1.
</event>
<event>
 5   0  0.7509685E-06  0.2750842E+04  0.7818609E-02  0.8318695E-01
        1   -1    0    0  501    0  0.00000000000E+00  0.00000000000E+00  0.15704055987E+04  0.15704055988E+04  0.50400001928E-02 0. -1.
       -1   -1    0    0    0  501  0.00000000000E+00  0.00000000000E+00 -0.12046457116E+04  0.12046457116E+04  0.50400001928E-02 0.  1.
    10030    2    1    2    0    0  0.00000000000E+00  0.00000000000E+00  0.36575988716E+03  0.27750513104E+04  0.27508415949E+04 0.  0.
        4    1    3    3  502    0 -0.44083885545E+03  0.90941751469E+03  0.11240438994E+04  0.15115738200E+04  0.12699999809E+01 0. -1.
       -4    1    3    3    0  502  0.44083885545E+03 -0.90941751469E+03 -0.75828401227E+03  0.12634774904E+04  0.12699999809E+01 0.  1.
</event>
<event>
 5   0  0.7555871E-06  0.2778346E+04  0.7818609E-02  0.8310023E-01
        1   -1    0    0  501    0  0.00000000000E+00  0.00000000000E+00  0.24259031435E+04  0.24259031435E+04  0.50400001928E-02 0. -1.
       -1   -1    0    0    0  501  0.00000000000E+00  0.00000000000E+00 -0.79549807526E+03  0.79549807527E+03  0.50400001928E-02 0.  1.
    10030    2    1    2    0    0  0.00000000000E+00  0.00000000000E+00  0.16304050683E+04  0.32214012188E+04  0.27783457535E+04 0.  0.
        3    1    3    3  502    0  0.91696854060E+03 -0.23612009530E+03 -0.36336468007E+03  0.10142080185E+04  0.10100000352E+00 0.  1.
       -3    1    3    3    0  502 -0.91696854060E+03  0.23612009530E+03  0.19937697483E+04  0.22071932003E+04  0.10100000352E+00 0. -1.
</event>
<event>
 5   0  0.7555871E-06  0.2786594E+04  0.7818609E-02  0.8307443E-01
       -1   -1    0    0    0  501  0.00000000000E+00  0.00000000000E+00  0.14618444750E+04  0.14618444751E+04  0.50400001928E-02 0. -1.
        1   -1    0    0  501    0  0.00000000000E+00  0.00000000000E+00 -0.13279635191E+04  0.13279635191E+04  0.50400001928E-02 0.  1.
    10030    2    1    2    0    0  0.00000000000E+00  0.00000000000E+00  0.13388095596E+03  0.27898079941E+04  0.27865937152E+04 0.  0.
        3    1    3    3  502    0 -0.97248601532E+03  0.88229166097E+03  0.53342697033E+03  0.14172903612E+04  0.10100000352E+00 0.  1.
       -3    1    3    3    0  502  0.97248601532E+03 -0.88229166097E+03 -0.39954601437E+03  0.13725176330E+04  0.10100000352E+00 0. -1.
</event>
<event>
 5   0  0.1874272E-05  0.2699228E+04  0.7818609E-02  0.8335255E-01
       -2   -1    0    0    0  501  0.00000000000E+00  0.00000000000E+00  0.15625830351E+04  0.15625830351E+04  0.25500000920E-02 0. -1.
        2   -1    0    0  501    0  0.00000000000E+00  0.00000000000E+00 -0.11656711864E+04  0.11656711864E+04  0.25500000920E-02 0.  1.
    10030    2    1    2    0    0  0.00000000000E+00  0.00000000000E+00  0.39691184867E+03  0.27282542216E+04  0.26992280529E+04 0.  0.
        3    1    3    3  502    0  0.10133368254E+04  0.15926259824E+03 -0.68803996616E+03  0.12351579260E+04  0.10100000352E+00 0. -1.
       -3    1    3    3    0  502 -0.10133368254E+04 -0.15926259824E+03  0.10849518148E+04  0.14930962955E+04  0.10100000352E+00 0.  1.
</event>
<event>
 5   0  0.1814230E-05  0.2794749E+04  0.7818609E-02  0.8304900E-01
       -2   -1    0    0    0  501  0.00000000000E+00  0.00000000000E+00  0.13697642924E+04  0.13697642924E+04  0.25500000920E-02 0. -1.
        2   -1    0    0  501    0  0.00000000000E+00  0.00000000000E+00 -0.14255411672E+04  0.14255411672E+04  0.25500000920E-02 0.  1.
    10030    2    1    2    0    0  0.00000000000E+00  0.00000000000E+00 -0.55776874795E+02  0.27953054596E+04  0.27947489248E+04 0.  0.
        5    1    3    3  502    0  0.69131309514E+03  0.12469884117E+03  0.11803130796E+04  0.13735445578E+04  0.46999998093E+01 0. -1.
       -5    1    3    3    0  502 -0.69131309514E+03 -0.12469884117E+03 -0.12360899544E+04  0.14217609018E+04  0.46999998093E+01 0.  1.
</event>
<event>
 5   0  0.1832502E-05  0.3251548E+04  0.7818609E-02  0.8175334E-01
        2   -1    0    0  501    0  0.00000000000E+00  0.00000000000E+00  0.25685779808E+04  0.25685779808E+04  0.25500000920E-02 0.  1.
       -2   -1    0    0    0  501  0.00000000000E+00  0.00000000000E+00 -0.10290292095E+04  0.10290292095E+04  0.25500000920E-02 0. -1.
    10030    2    1    2    0    0  0.00000000000E+00  0.00000000000E+00  0.15395487713E+04  0.35976071903E+04  0.32515484121E+04 0.  0.
        2    1    3    3  502    0 -0.59712741416E+03 -0.72083204404E+03  0.22405267466E+04  0.24281927614E+04  0.25500000920E-02 0.  1.
       -2    1    3    3    0  502  0.59712741416E+03  0.72083204404E+03 -0.70097797532E+03  0.11694144288E+04  0.25500000920E-02 0. -1.
</event>
<event>
 5   0  0.7555871E-06  0.2818435E+04  0.7818609E-02  0.8297568E-01
       -1   -1    0    0    0  501  0.00000000000E+00  0.00000000000E+00  0.92371582120E+03  0.92371582121E+03  0.50400001928E-02 0.  1.
        1   -1    0    0  501    0  0.00000000000E+00  0.00000000000E+00 -0.21498964675E+04  0.21498964675E+04  0.50400001928E-02 0. -1.
    10030    2    1    2    0    0  0.00000000000E+00  0.00000000000E+00 -0.12261806463E+04  0.30736122887E+04  0.28184345875E+04 0.  0.
        3    1    3    3  502    0  0.76948703787E+03 -0.94135782845E+03 -0.13900779913E+04  0.18467760272E+04  0.10100000352E+00 0. -1.
       -3    1    3    3    0  502 -0.76948703787E+03  0.94135782845E+03  0.16389734500E+03  0.12268362615E+04  0.10100000352E+00 0.  1.
</event>
<event>
 5   0  0.1832502E-05  0.1734751E+04  0.7818609E-02  0.8741789E-01
       -2   -1    0    0    0  501  0.00000000000E+00  0.00000000000E+00  0.96376644191E+03  0.96376644192E+03  0.25500000920E-02 0.  1.
        2   -1    0    0  501    0  0.00000000000E+00  0.00000000000E+00 -0.78062502787E+03  0.78062502787E+03  0.25500000920E-02 0. -1.
    10030    2    1    2    0    0  0.00000000000E+00  0.00000000000E+00  0.18314141405E+03  0.17443914698E+04  0.17347509396E+04 0.  0.
        2    1    3    3  502    0  0.80447870204E+03  0.31504005564E+03  0.14306293062E+02  0.86408384357E+03  0.25500000920E-02 0. -1.
       -2    1    3    3    0  502 -0.80447870204E+03 -0.31504005564E+03  0.16883512098E+03  0.88030762622E+03  0.25500000920E-02 0.  1.
</event>
<event>
 5   0  0.7388013E-06  0.2795145E+04  0.7818609E-02  0.8304777E-01
        1   -1    0    0  501    0  0.00000000000E+00  0.00000000000E+00  0.15079472511E+04  0.15079472511E+04  0.50400001928E-02 0.  1.
       -1   -1    0    0    0  501  0.00000000000E+00  0.00000000000E+00 -0.12952768283E+04  0.12952768284E+04  0.50400001928E-02 0. -1.
    10030    2    1    2    0    0  0.00000000000E+00  0.00000000000E+00  0.21267042277E+03  0.28032240795E+04  0.27951451717E+04 0.  0.
        1    1    3    3  502    0 -0.11191756328E+04 -0.34877699320E+03  0.86946137806E+03  0.14595076485E+04  0.50400001928E-02 0.  1.
       -1    1    3    3    0  502  0.11191756328E+04  0.34877699320E+03 -0.65679095530E+03  0.13437164310E+04  0.50400001928E-02 0. -1.
</event>
<event>
 5   0  0.6288000E-06  0.2346090E+04  0.7818609E-02  0.8459967E-01
       -3   -1    0    0    0  501  0.00000000000E+00  0.00000000000E+00  0.75899584786E+03  0.75899585458E+03  0.10100000352E+00 0. -1.
        3   -1    0    0  501    0  0.00000000000E+00  0.00000000000E+00 -0.18129665892E+04  0.18129665921E+04  0.10100000352E+00 0.  1.
    10030    2    1    2    0    0  0.00000000000E+00  0.00000000000E+00 -0.10539707414E+04  0.25719624466E+04  0.23460896196E+04 0.  0.
        2    1    3    3  502    0  0.30554352665E+03 -0.70446103540E+02 -0.17661726832E+04  0.17937908036E+04  0.25500000920E-02 0.  1.
       -2    1    3    3    0  502 -0.30554352665E+03  0.70446103540E+02  0.71220194179E+03  0.77817164306E+03  0.25500000920E-02 0. -1.
</event>
<event>
 5   0  0.1923559E-05  0.2857732E+04  0.7818609E-02  0.8285566E-01
       -2   -1    0    0    0  501  0.00000000000E+00  0.00000000000E+00  0.13165456384E+04  0.13165456384E+04  0.25500000920E-02 0. -1.
        2   -1    0    0  501    0  0.00000000000E+00  0.00000000000E+00 -0.15507683811E+04  0.15507683811E+04  0.25500000920E-02 0.  1.
    10030    2    1    2    0    0  0.00000000000E+00  0.00000000000E+00 -0.23422274275E+03  0.28673140195E+04  0.28577315117E+04 0.  0.
        4    1    3    3  502    0  0.57209204379E+03 -0.13092663418E+04 -0.10335134227E+03  0.14325329920E+04  0.12699999809E+01 0. -1.
       -4    1    3    3    0  502 -0.57209204379E+03  0.13092663418E+04 -0.13087140048E+03  0.14347810275E+04  0.12699999809E+01 0.  1.
</event>
<event>
 5   0  0.7555871E-06  0.2510422E+04  0.7818609E-02  0.8399282E-01
        1   -1    0    0  501    0  0.00000000000E+00  0.00000000000E+00  0.14021220645E+04  0.14021220645E+04  0.50400001928E-02 0. -1.
       -1   -1    0    0    0  501  0.00000000000E+00  0.00000000000E+00 -0.11236932817E+04  0.11236932817E+04  0.50400001928E-02 0.  1.
    10030    2    1    2    0    0  0.00000000000E+00  0.00000000000E+00  0.27842878272E+03  0.25258153462E+04  0.25104223900E+04 0.  0.
        3    1    3    3  502    0 -0.88418584272E+03 -0.11244554666E+03 -0.75001844563E+03  0.11648846657E+04  0.10100000352E+00 0.  1.
       -3    1    3    3    0  502  0.88418584272E+03  0.11244554666E+03  0.10284472283E+04  0.13609306805E+04  0.10100000352E+00 0. -1.
</event>
<event>
 5   0  0.7388013E-06  0.2435732E+04  0.7818609E-02  0.8426246E-01
        1   -1    0    0  501    0  0.00000000000E+00  0.00000000000E+00  0.14125276903E+04  0.14125276903E+04  0.50400001928E-02 0. -1.
       -1   -1    0    0    0  501  0.00000000000E+00  0.00000000000E+00 -0.10500310091E+04  0.10500310091E+04  0.50400001928E-02 0.  1.
    10030    2    1    2    0    0  0.00000000000E+00  0.00000000000E+00  0.36249668118E+03  0.24625586994E+04  0.24357322316E+04 0.  0.
        1    1    3    3  502    0  0.46095388966E+03 -0.47075487997E+03 -0.85429290721E+03  0.10788442968E+04  0.50400001928E-02 0.  1.
       -1    1    3    3    0  502 -0.46095388966E+03  0.47075487997E+03  0.12167895884E+04  0.13837144026E+04  0.50400001928E-02 0. -1.
</event>
<event>
 5   0  0.7681342E-06  0.2819079E+04  0.7818609E-02  0.8297370E-01
       -1   -1    0    0    0  501  0.00000000000E+00  0.00000000000E+00  0.11066624214E+04  0.11066624214E+04  0.50400001928E-02 0. -1.
        1   -1    0    0  501    0  0.00000000000E+00  0.00000000000E+00 -0.17953089752E+04  0.17953089752E+04  0.50400001928E-02 0.  1.
    10030    2    1    2    0    0  0.00000000000E+00  0.00000000000E+00 -0.68864655373E+03  0.29019713966E+04  0.28190785570E+04 0.  0.
        2    1    3    3  502    0  0.11441688291E+04  0.70567983727E+03 -0.78069188998E+03  0.15545372846E+04  0.25500000920E-02 0.  1.
       -2    1    3    3    0  502 -0.11441688291E+04 -0.70567983727E+03  0.92045336247E+02  0.13474341120E+04  0.25500000920E-02 0. -1.
</event>
<event>
 5   0  0.7509685E-06  0.2574265E+04  0.7818609E-02  0.8376996E-01
        1   -1    0    0  501    0  0.00000000000E+00  0.00000000000E+00  0.15639038431E+04  0.15639038431E+04  0.50400001928E-02 0.  1.
       -1   -1    0    0    0  501  0.00000000000E+00  0.00000000000E+00 -0.10593422880E+04  0.10593422880E+04  0.50400001928E-02 0. -1.
    10030    2    1    2    0    0  0.00000000000E+00  0.00000000000E+00  0.50456155506E+03  0.26232461311E+04  0.25742645361E+04 0.  0.
        4    1    3    3  502    0  0.97344275476E+03 -0.84118494198E+03  0.29207453671E+03  0.13192770942E+04  0.12699999809E+01 0. -1.
       -4    1    3    3    0  502 -0.97344275476E+03  0.84118494198E+03  0.21248701835E+03  0.13039690369E+04  0.12699999809E+01 0.  1.
</event>
<event>
 5   0  0.6288000E-06  0.2801636E+04  0.7818609E-02  0.8302760E-01
        3   -1    0    0  501    0  0.00000000000E+00  0.00000000000E+00  0.94202119117E+03  0.94202119658E+03  0.10100000352E+00 0. -1.
       -3   -1    0    0    0  501  0.00000000000E+00  0.00000000000E+00 -0.20830653781E+04  0.20830653805E+04  0.10100000352E+00 0.  1.
    10030    2    1    2    0    0  0.00000000000E+00  0.00000000000E+00 -0.11410441869E+04  0.30250865771E+04  0.28016364794E+04 0.  0.
        3    1    3    3  502    0  0.63261393149E+03 -0.10923315344E+04 -0.12263384051E+04  0.17599131972E+04  0.10100000352E+00 0.  1.
       -3    1    3    3    0  502 -0.63261393149E+03  0.10923315344E+04  0.85294218235E+02  0.12651733799E+04  0.10100000352E+00 0. -1.
</event>
<event>
 5   0  0.1904553E-05  0.2834293E+04  0.7818609E-02  0.8292700E-01
        2   -1    0    0  501    0  0.00000000000E+00  0.00000000000E+00  0.16276351687E+04  0.16276351687E+04  0.25500000920E-02 0.  1.
       -2   -1    0    0    0  501  0.00000000000E+00  0.00000000000E+00 -0.12338784813E+04  0.12338784813E+04  0.25500000920E-02 0. -1.
    10030    2    1    2    0    0  0.00000000000E+00  0.00000000000E+00  0.39375668742E+03  0.28615136499E+04  0.28342928642E+04 0.  0.
        1    1    3    3  502    0 -0.80835903786E+03  0.56370711330E+03  0.12250370380E+04  0.15722359200E+04  0.50400001928E-02 0.  1.
       -1    1    3    3    0  502  0.80835903786E+03 -0.56370711330E+03 -0.83128035057E+03  0.12892777299E+04  0.50400001928E-02 0. -1.
</event>
<event>
 5   0  0.7681342E-06  0.2765157E+04  0.7818609E-02  0.8314168E-01
        1   -1    0    0  501    0  0.00000000000E+00  0.00000000000E+00  0.14288015174E+04  0.14288015174E+04  0.50400001928E-02 0. -1.
       -1   -1    0    0    0  501  0.00000000000E+00  0.00000000000E+00 -0.13378511198E+04  0.13378511199E+04  0.50400001928E-02 0.  1.
    10030    2    1    2    0    0  0.00000000000E+00  0.00000000000E+00  0.90950397517E+02  0.27666526372E+04  0.27651572903E+04 0.  0.
        2    1    3    3  502    0 -0.81053195895E+03 -0.11006018627E+04 -0.16257280022E+03  0.13764869894E+04  0.25500000920E-02 0.  1.
       -2    1    3    3    0  502  0.81053195895E+03  0.11006018627E+04  0.25352319773E+03  0.13901656478E+04  0.25500000920E-02 0. -1.
</event>
<event>
 5   0  0.1874272E-05  0.2789456E+04  0.7818609E-02  0.8306549E-01
        2   -1    0    0  501    0  0.00000000000E+00  0.00000000000E+00  0.12651907558E+04  0.12651907558E+04  0.25500000920E-02 0.  1.
       -2   -1    0    0    0  501  0.00000000000E+00  0.00000000000E+00 -0.15375283229E+04  0.15375283229E+04  0.25500000920E-02 0. -1.
    10030    2    1    2    0    0  0.00000000000E+00  0.00000000000E+00 -0.27233756710E+03  0.28027190787E+04  0.27894563061E+04 0.  0.
        3    1    3    3  502    0  0.86405333808E+03  0.38592516016E+02  0.96319487416E+03  0.12945354105E+04  0.10100000352E+00 0.  1.
       -3    1    3    3    0  502 -0.86405333808E+03 -0.38592516016E+02 -0.12355324413E+04  0.15081836682E+04  0.10100000352E+00 0. -1.
</event>
<event>
 5   0  0.7509685E-06  0.2825487E+04  0.7818609E-02  0.8295399E-01
       -1   -1    0    0    0  501  0.00000000000E+00  0.00000000000E+00  0.72602690413E+03  0.72602690415E+03  0.50400001928E-02 0.  1.
        1   -1    0    0  501    0  0.00000000000E+00  0.00000000000E+00 -0.27489941808E+04  0.27489941808E+04  0.50400001928E-02 0. -1.
    10030    2    1    2    0    0  0.00000000000E+00  0.00000000000E+00 -0.20229672767E+04  0.34750210849E+04  0.28254866728E+04 0.  0.
        4    1    3    3  502    0 -0.52251096903E+03 -0.69656069211E+01 -0.26257625502E+04  0.26772554632E+04  0.12699999809E+01 0. -1.
       -4    1    3    3    0  502  0.52251096903E+03  0.69656069211E+01  0.60279527357E+03  0.79776562170E+03  0.12699999809E+01 0.  1.
</event>
<event>
 5   0  0.1904553E-05  0.2875996E+04  0.7818609E-02  0.8280055E-01
       -2   -1    0    0    0  501  0.00000000000E+00  0.00000000000E+00  0.10347284246E+04  0.10347284246E+04  0.25500000920E-02 0.  1.
        2   -1    0    0  501    0  0.00000000000E+00  0.00000000000E+00 -0.19984351790E+04  0.19984351790E+04  0.25500000920E-02 0. -1.
    10030    2    1    2    0    0  0.00000000000E+00  0.00000000000E+00 -0.96370675444E+03  0.30331636036E+04  0.28759956080E+04 0.  0.
        1    1    3    3  502    0 -0.77117852806E+03 -0.11605408160E+04 -0.10709489055E+03  0.13975122981E+04  0.50400001928E-02 0.  1.
       -1    1    3    3    0  502  0.77117852806E+03  0.11605408160E+04 -0.85661186389E+03  0.16356513055E+04  0.50400001928E-02 0. -1.
</event>
<event>
 5   0  0.7555871E-06  0.2786744E+04  0.7818609E-02  0.8307396E-01
       -1   -1    0    0    0  501  0.00000000000E+00  0.00000000000E+00  0.13982294908E+04  0.13982294908E+04  0.50400001928E-02 0. -1.
        1   -1    0    0  501    0  0.00000000000E+00  0.00000000000E+00 -0.13885313739E+04  0.13885313739E+04  0.50400001928E-02 0.  1.
    10030    2    1    2    0    0  0.00000000000E+00  0.00000000000E+00  0.96981169172E+01  0.27867608647E+04  0.27867439896E+04 0.  0.
        3    1    3    3  502    0  0.69858467135E+03 -0.44519191221E+03 -0.11155456606E+04  0.13894813827E+04  0.10100000352E+00 0.  1.
       -3    1    3    3    0  502 -0.69858467135E+03  0.44519191221E+03  0.11252437776E+04  0.13972794820E+04  0.10100000352E+00 0. -1.
</event>
<event>
 5   0  0.1923559E-05  0.2836169E+04  0.7818609E-02  0.8292126E-01
        2   -1    0    0  501    0  0.00000000000E+00  0.00000000000E+00  0.22062198468E+04  0.22062198468E+04  0.25500000920E-02 0. -1.
       -2   -1    0    0    0  501  0.00000000000E+00  0.00000000000E+00 -0.91149768948E+03  0.91149768948E+03  0.25500000920E-02 0.  1.
    10030    2    1    2    0    0  0.00000000000E+00  0.00000000000E+00  0.12947221574E+04  0.31177175363E+04  0.28361694540E+04 0.  0.
        4    1    3    3  502    0  0.12018426308E+04 -0.72687693535E+03  0.43254749290E+03  0.14696512290E+04  0.12699999809E+01 0.  1.
       -4    1    3    3    0  502 -0.12018426308E+04  0.72687693535E+03  0.86217466447E+03  0.16480663073E+04  0.12699999809E+01 0. -1.
</event>
<event>
 5   0  0.1832502E-05  0.2793227E+04  0.7818609E-02  0.8305374E-01
        2   -1    0    0  501    0  0.00000000000E+00  0.00000000000E+00  0.12539044705E+04  0.12539044705E+04  0.25500000920E-02 0.  1.
       -2   -1    0    0    0  501  0.00000000000E+00  0.00000000000E+00 -0.15555644975E+04  0.15555644975E+04  0.25500000920E-02 0. -1.
    10030    2    1    2    0    0  0.00000000000E+00  0.00000000000E+00 -0.30166002701E+03  0.28094689681E+04  0.27932270066E+04 0.  0.
        2    1    3    3  502    0  0.16301260881E+03  0.12475291403E+04  0.45901830667E+03  0.13392534758E+04  0.25500000920E-02 0.  1.
       -2    1    3    3    0  502 -0.16301260881E+03 -0.12475291403E+04 -0.76067833368E+03  0.14702154923E+04  0.25500000920E-02 0. -1.
</event>
<event>
 5   0  0.1814230E-05  0.2790177E+04  0.7818609E-02  0.8306325E-01
       -2   -1    0    0    0  501  0.00000000000E+00  0.00000000000E+00  0.11189867635E+04  0.11189867635E+04  0.25500000920E-02 0. -1.
        2   -1    0    0  501    0  0.00000000000E+00  0.00000000000E+00 -0.17393162832E+04  0.17393162832E+04  0.25500000920E-02 0.  1.
    10030    2    1    2    0    0  0.00000000000E+00  0.00000000000E+00 -0.62032951974E+03  0.28583030467E+04  0.27901769825E+04 0.  0.
        5    1    3    3  502    0  0.26493959840E+03  0.11070719378E+04 -0.11363605789E+04  0.16084584923E+04  0.46999998093E+01 0.  1.
       -5    1    3    3    0  502 -0.26493959840E+03 -0.11070719378E+04  0.51603105911E+03  0.12498445544E+04  0.46999998093E+01 0. -1.
</event>
<event>
 5   0  0.1832502E-05  0.2808835E+04  0.7818609E-02  0.8300531E-01
        2   -1    0    0  501    0  0.00000000000E+00  0.00000000000E+00  0.13319643836E+04  0.13319643836E+04  0.25500000920E-02 0.  1.
       -2   -1    0    0    0  501  0.00000000000E+00  0.00000000000E+00 -0.14808119584E+04  0.14808119584E+04  0.25500000920E-02 0. -1.
    10030    2    1    2    0    0  0.00000000000E+00  0.00000000000E+00 -0.14884757480E+03  0.28127763419E+04  0.28088351944E+04 0.  0.
        2    1    3    3  502    0  0.40974051342E+03 -0.11755770332E+04  0.57650375637E+03  0.13719421381E+04  0.25500000920E-02 0.  1.
       -2    1    3    3    0  502 -0.40974051342E+03  0.11755770332E+04 -0.72535133117E+03  0.14408342038E+04  0.25500000920E-02 0. -1.
</event>
<event>
 5   0  0.1874272E-05  0.2790499E+04  0.7818609E-02  0.8306224E-01
       -2   -1    0    0    0  501  0.00000000000E+00  0.00000000000E+00  0.12920861234E+04  0.12920861234E+04  0.25500000920E-02 0.  1.
        2   -1    0    0  501    0  0.00000000000E+00  0.00000000000E+00 -0.15066497591E+04  0.15066497591E+04  0.25500000920E-02 0. -1.
    10030    2    1    2    0    0  0.00000000000E+00  0.00000000000E+00 -0.21456363573E+03  0.27987358825E+04  0.27904990568E+04 0.  0.
        3    1    3    3  502    0 -0.11177185231E+04  0.33761089923E+03  0.65880881713E+03  0.13406359998E+04  0.10100000352E+00 0.  1.
       -3    1    3    3    0  502  0.11177185231E+04 -0.33761089923E+03 -0.87337245286E+03  0.14580998827E+04  0.10100000352E+00 0. -1.
</event>
<event>
 5   0  0.1874272E-05  0.2749343E+04  0.7818609E-02  0.8319170E-01
       -2   -1    0    0    0  501  0.00000000000E+00  0.00000000000E+00  0.92464589880E+03  0.92464589880E+03  0.25500000920E-02 0.  1.
        2   -1    0    0  501    0  0.00000000000E+00  0.00000000000E+00 -0.20437247445E+04  0.20437247445E+04  0.25500000920E-02 0. -1.
    10030    2    1    2    0    0  0.00000000000E+00  0.00000000000E+00 -0.11190788457E+04  0.29683706433E+04  0.27493429785E+04 0.  0.
        3    1    3    3  502    0 -0.34509719759E+03 -0.11259990668E+04 -0.13250791208E+04  0.17727945907E+04  0.10100000352E+00 0. -1.
       -3    1    3    3    0  502  0.34509719759E+03  0.11259990668E+04  0.20600027506E+03  0.11955760527E+04  0.10100000352E+00 0.  1.
</event>
<event>
 5   0  0.1832502E-05  0.2812299E+04  0.7818609E-02  0.8299460E-01
        2   -1    0    0  501    0  0.00000000000E+00  0.00000000000E+00  0.19239477742E+04  0.19239477742E+04  0.25500000920E-02 0. -1.
       -2   -1    0    0    0  501  0.00000000000E+00  0.00000000000E+00 -0.10277077755E+04  0.10277077755E+04  0.25500000920E-02 0.  1.
    10030    2    1    2    0    0  0.00000000000E+00  0.00000000000E+00  0.89623999870E+03  0.29516555498E+04  0.28122987660E+04 0.  0.
        2    1    3    3  502    0  0.66929892583E+03  0.94470965553E+03  0.12856726616E+04  0.17301420688E+04  0.25500000920E-02 0. -1.
       -2    1    3    3    0  502 -0.66929892583E+03 -0.94470965553E+03 -0.38943266289E+03  0.12215134810E+04  0.25500000920E-02 0.  1.
</event>
<event>
 5   0  0.1814230E-05  0.2801607E+04  0.7818609E-02  0.8302770E-01
        2   -1    0    0  501    0  0.00000000000E+00  0.00000000000E+00  0.24511038395E+04  0.24511038396E+04  0.25500000920E-02 0. -1.
       -2   -1    0    0    0  501  0.00000000000E+00  0.00000000000E+00 -0.80055797701E+03  0.80055797701E+03  0.25500000920E-02 0.  1.
    10030    2    1    2    0    0  0.00000000000E+00  0.00000000000E+00  0.16505458625E+04  0.32516618166E+04  0.28016072039E+04 0.  0.
        5    1    3    3  502    0 -0.23471047216E+03  0.63252998024E+03  0.22500971949E+04  0.23490727230E+04  0.46999998093E+01 0. -1.
       -5    1    3    3    0  502  0.23471047216E+03 -0.63252998024E+03 -0.59955133234E+03  0.90258909353E+03  0.46999998093E+01 0.  1.
</event>
<event>
 5   0  0.1874272E-05  0.2899074E+04  0.7818609E-02  0.8273153E-01
        2   -1    0    0  501    0  0.00000000000E+00  0.00000000000E+00  0.20557908035E+04  0.20557908035E+04  0.25500000920E-02 0.  1.
       -2   -1    0    0    0  501  0.00000000000E+00  0.00000000000E+00 -0.10220677742E+04  0.10220677742E+04  0.25500000920E-02 0. -1.
    10030    2    1    2    0    0  0.00000000000E+00  0.00000000000E+00  0.10337230293E+04  0.30778585777E+04  0.28990740113E+04 0.  0.
        3    1    3    3  502    0  0.21138422484E+03 -0.87255234724E+03 -0.69135696795E+03  0.11331396015E+04  0.10100000352E+00 0. -1.
       -3    1    3    3    0  502 -0.21138422484E+03  0.87255234724E+03  0.17250799973E+04  0.19447189762E+04  0.10100000352E+00 0.  1.
</event>
<event>
 5   0  0.7388013E-06  0.2893242E+04  0.7818609E-02  0.8274891E-01
       -1   -1    0    0    0  501  0.00000000000E+00  0.00000000000E+00  0.10955182323E+04  0.10955182323E+04  0.50400001928E-02 0. -1.
        1   -1    0    0  501    0  0.00000000000E+00  0.00000000000E+00 -0.19102486950E+04  0.19102486950E+04  0.50400001928E-02 0.  1.
    10030    2    1    2    0    0  0.00000000000E+00  0.00000000000E+00 -0.81473046271E+03  0.30057669273E+04  0.28932419695E+04 0.  0.
        1    1    3    3  502    0  0.11950966341E+03 -0.11947809782E+04  0.43081432612E+03  0.12756900600E+04  0.50400001928E-02 0. -1.
       -1    1    3    3    0  502 -0.11950966341E+03  0.11947809782E+04 -0.12455447888E+04  0.17300768673E+04  0.50400001928E-02 0.  1.
</event>
<event>
 5   0  0.1904553E-05  0.2743261E+04  0.7818609E-02  0.8321103E-01
        2   -1    0    0  501    0  0.00000000000E+00  0.00000000000E+00  0.26936398710E+04  0.26936398710E+04  0.25500000920E-02 0. -1.
       -2   -1    0    0    0  501  0.00000000000E+00  0.00000000000E+00 -0.69844890676E+03  0.69844890676E+03  0.25500000920E-02 0.  1.
    10030    2    1    2    0    0  0.00000000000E+00  0.00000000000E+00  0.19951909643E+04  0.33920887778E+04  0.27432607044E+04 0.  0.
        1    1    3    3  502    0 -0.84054353242E+03 -0.76385212027E+03  0.46693464492E+02  0.11367338172E+04  0.50400001928E-02 0.  1.
       -1    1    3    3    0  502  0.84054353242E+03  0.76385212027E+03  0.19484974998E+04  0.22553549606E+04  0.50400001928E-02 0. -1.
</event>
<event>
 5   0  0.1832502E-05  0.1748867E+04  0.7818609E-02  0.8733974E-01
        2   -1    0    0  501    0  0.00000000000E+00  0.00000000000E+00  0.11760068433E+04  0.11760068433E+04  0.25500000920E-02 0. -1.
       -2   -1    0    0    0  501  0.00000000000E+00  0.00000000000E+00 -0.65019512225E+03  0.65019512226E+03  0.25500000920E-02 0.  1.
    10030    2    1    2    0    0  0.00000000000E+00  0.00000000000E+00  0.52581172109E+03  0.18262019656E+04  0.17488669627E+04 0.  0.
        2    1    3    3  502    0 -0.19289090764E+03  0.28973481115E+03 -0.57473877579E+03  0.67192099494E+03  0.25500000920E-02 0.  1.
       -2    1    3    3    0  502  0.19289090764E+03 -0.28973481115E+03  0.11005504969E+04  0.11542809707E+04  0.25500000920E-02 0. -1.
</event>
<event>
 5   0  0.7681342E-06  0.2816113E+04  0.7818609E-02  0.8298283E-01
        1   -1    0    0  501    0  0.00000000000E+00  0.00000000000E+00  0.12136952792E+04  0.12136952792E+04  0.50400001928E-02 0. -1.
       -1   -1    0    0    0  501  0.00000000000E+00  0.00000000000E+00 -0.16335430628E+04  0.16335430628E+04  0.50400001928E-02 0.  1.
    10030    2    1    2    0    0  0.00000000000E+00  0.00000000000E+00 -0.41984778358E+03  0.28472383419E+04  0.28161132815E+04 0.  0.
        2    1    3    3  502    0 -0.10811349455E+04 -0.72854514019E+03 -0.74777408383E+03  0.15029294302E+04  0.25500000920E-02 0.  1.
       -2    1    3    3    0  502  0.10811349455E+04  0.72854514019E+03  0.32792630024E+03  0.13443089117E+04  0.25500000920E-02 0. -1.
</event>
<event>
 5   0  0.1814230E-05  0.1727279E+04  0.7818609E-02  0.8745957E-01
       -2   -1    0    0    0  501  0.00000000000E+00  0.00000000000E+00  0.95741578015E+03  0.95741578015E+03  0.25500000920E-02 0. -1.
        2   -1    0    0  501    0  0.00000000000E+00  0.00000000000E+00 -0.77904832638E+03  0.77904832639E+03  0.25500000920E-02 0.  1.
    10030    2    1    2    0    0  0.00000000000E+00  0.00000000000E+00  0.17836745376E+03  0.17364641065E+04  0.17272789713E+04 0.  0.
        5    1    3    3  502    0  0.58526260116E+03 -0.54110639676E+03  0.42340102425E+03  0.90256244231E+03  0.46999998093E+01 0. -1.
       -5    1    3    3    0  502 -0.58526260116E+03  0.54110639676E+03 -0.24503357049E+03  0.83390166422E+03  0.46999998093E+01 0.  1.
</event>
<event>
 5   0  0.7555871E-06  0.2765632E+04  0.7818609E-02  0.8314018E-01
       -1   -1    0    0    0  501  0.00000000000E+00  0.00000000000E+00  0.12140323173E+04  0.12140323174E+04  0.50400001928E-02 0.  1.
        1   -1    0    0  501    0  0.00000000000E+00  0.00000000000E+00 -0.15750657409E+04  0.15750657409E+04  0.50400001928E-02 0. -1.
    10030    2    1    2    0    0  0.00000000000E+00  0.00000000000E+00 -0.36103342357E+03  0.27890980583E+04  0.27656324495E+04 0.  0.
        3    1    3    3  502    0  0.58762429384E+02  0.76820888701E+03 -0.13385552746E+04  0.15444507602E+04  0.10100000352E+00 0. -1.
       -3    1    3    3    0  502 -0.58762429384E+02 -0.76820888701E+03  0.97752185105E+03  0.12446472981E+04  0.10100000352E+00 0.  1.
</event>
<event>
 5   0  0.7555871E-06  0.2807097E+04  0.7818609E-02  0.8301068E-01
       -1   -1    0    0    0  501  0.00000000000E+00  0.00000000000E+00  0.12694811587E+04  0.12694811588E+04  0.50400001928E-02 0. -1.
        1   -1    0    0  501    0  0.00000000000E+00  0.00000000000E+00 -0.15517748943E+04  0.15517748943E+04  0.50400001928E-02 0.  1.
    10030    2    1    2    0    0  0.00000000000E+00  0.00000000000E+00 -0.28229373557E+03  0.28212560531E+04  0.28070974269E+04 0.  0.
        3    1    3    3  502    0 -0.12503784991E+04  0.62839296134E+03 -0.24950940824E+03  0.14214707384E+04  0.10100000352E+00 0. -1.
       -3    1    3    3    0  502  0.12503784991E+04 -0.62839296134E+03 -0.32784327323E+02  0.13997853147E+04  0.10100000352E+00 0.  1.
</event>
<event>
 5   0  0.7509685E-06  0.2871023E+04  0.7818609E-02  0.8281552E-01
        1   -1    0    0  501    0  0.00000000000E+00  0.00000000000E+00  0.13491400035E+04  0.13491400036E+04  0.50400001928E-02 0.  1.
       -1   -1    0    0    0  501  0.00000000000E+00  0.00000000000E+00 -0.15274124818E+04  0.15274124818E+04  0.50400001928E-02 0. -1.
    10030    2    1    2    0    0  0.00000000000E+00  0.00000000000E+00 -0.17827247822E+03  0.28765524853E+04  0.28710230101E+04 0.  0.
        4    1    3    3  502    0  0.65115689160E+03 -0.29512837099E+03  0.11580847689E+04  0.13609805280E+04  0.12699999809E+01 0.  1.
       -4    1    3    3    0  502 -0.65115689160E+03  0.29512837099E+03 -0.13363572471E+04  0.15155719573E+04  0.12699999809E+01 0. -1.
</event>
<event>
 5   0  0.1923559E-05  0.2914941E+04  0.7818609E-02  0.8268446E-01
        2   -1    0    0  501    0  0.00000000000E+00  0.00000000000E+00  0.15051825970E+04  0.15051825970E+04  0.25500000920E-02 0. -1.
       -2   -1    0    0    0  501  0.00000000000E+00  0.00000000000E+00 -0.14112708912E+04  0.14112708912E+04  0.25500000920E-02 0.  1.
    10030    2    1    2    0    0  0.00000000000E+00  0.00000000000E+00  0.93911705729E+02  0.29164534882E+04  0.29149410869E+04 0.  0.
        4    1    3    3  502    0  0.41467642333E+03  0.10826122063E+04 -0.83679913324E+03  0.14297692568E+04  0.12699999809E+01 0.  1.
       -4    1    3    3    0  502 -0.41467642333E+03 -0.10826122063E+04  0.93071083897E+03  0.14866842314E+04  0.12699999809E+01 0. -1.
</event>
<event>
 5   0  0.1832502E-05  0.2829937E+04  0.7818609E-02  0.8294034E-01
       -2   -1    0    0    0  501  0.00000000000E+00  0.00000000000E+00  0.20709731941E+04  0.20709731941E+04  0.25500000920E-02 0.  1.
        2   -1    0    0  501    0  0.00000000000E+00  0.00000000000E+00 -0.96676075140E+03  0.96676075140E+03  0.25500000920E-02 0. -1.
    10030    2    1    2    0    0  0.00000000000E+00  0.00000000000E+00  0.11042124427E+04  0.30377339455E+04  0.28299368200E+04 0.  0.
        2    1    3    3  502    0 -0.10716766452E+04 -0.63428536313E+02  0.15415377939E+04  0.18785240965E+04  0.25500000920E-02 0.  1.
       -2    1    3    3    0  502  0.10716766452E+04  0.63428536313E+02 -0.43732535120E+03  0.11592098490E+04  0.25500000920E-02 0. -1.
</event>
<event>
 5   0  0.1923559E-05  0.2798932E+04  0.7818609E-02  0.8303600E-01
        2   -1    0    0  501    0  0.00000000000E+00  0.00000000000E+00  0.14925814517E+04  0.14925814517E+04  0.25500000920E-02 0. -1.
       -2   -1    0    0    0  501  0.00000000000E+00  0.00000000000E+00 -0.13121592290E+04  0.13121592290E+04  0.25500000920E-02 0.  1.
    10030    2    1    2    0    0  0.00000000000E+00  0.00000000000E+00  0.18042222266E+03  0.28047406807E+04  0.27989316011E+04 0.  0.
        4    1    3    3  502    0  0.96146423345E+03 -0.37823860412E+03 -0.85568920980E+03  0.13415228476E+04  0.12699999809E+01 0.  1.
       -4    1    3    3    0  502 -0.96146423345E+03  0.37823860412E+03  0.10361114325E+04  0.14632178331E+04  0.12699999809E+01 0. -1.
</event>
<event>
 5   0  0.1904553E-05  0.2737854E+04  0.7818609E-02  0.8322826E-01
        2   -1    0    0  501    0  0.00000000000E+00  0.00000000000E+00  0.24118489348E+04  0.24118489348E+04  0.25500000920E-02 0.  1.
       -2   -1    0    0    0  501  0.00000000000E+00  0.00000000000E+00 -0.77698127725E+03  0.77698127726E+03  0.25500000920E-02 0. -1.
    10030    2    1    2    0    0  0.00000000000E+00  0.00000000000E+00  0.16348676575E+04  0.31888302120E+04  0.27378542444E+04 0.  0.
        1    1    3    3  502    0  0.37598245809E+03 -0.75145809985E+03 -0.44127606446E+03  0.94909254012E+03  0.50400001928E-02 0. -1.
       -1    1    3    3    0  502 -0.37598245809E+03  0.75145809985E+03  0.20761437220E+04  0.22397376719E+04  0.50400001928E-02 0.  1.
</event>
<event>
 5   0  0.1874272E-05  0.1981589E+04  0.7818609E-02  0.8615277E-01
        2   -1    0    0  501    0  0.00000000000E+00  0.00000000000E+00  0.85020237405E+03  0.85020237405E+03  0.25500000920E-02 0. -1.
       -2   -1    0    0    0  501  0.00000000000E+00  0.00000000000E+00 -0.11546358795E+04  0.11546358795E+04  0.25500000920E-02 0.  1.
    10030    2    1    2    0    0  0.00000000000E+00  0.00000000000E+00 -0.30443350542E+03  0.20048382535E+04  0.19815894286E+04 0.  0.
        3    1    3    3  502    0  0.60598653113E+03  0.62388192400E+03 -0.63236434621E+03  0.10753292554E+04  0.10100000352E+00 0. -1.
       -3    1    3    3    0  502 -0.60598653113E+03 -0.62388192400E+03  0.32793084079E+03  0.92950899810E+03  0.10100000352E+00 0.  1.
</event>
<event>
 5   0  0.7388013E-06  0.2771965E+04  0.7818609E-02  0.8312025E-01
       -1   -1    0    0    0  501  0.00000000000E+00  0.00000000000E+00  0.86463151125E+03  0.86463151127E+03  0.50400001928E-02 0. -1.
        1   -1    0    0  501    0  0.00000000000E+00  0.00000000000E+00 -0.22216948498E+04  0.22216948498E+04  0.50400001928E-02 0.  1.
    10030    2    1    2    0    0  0.00000000000E+00  0.00000000000E+00 -0.13570633385E+04  0.30863263611E+04  0.27719649172E+04 0.  0.
        1    1    3    3  502    0  0.26515105208E+03 -0.73253340538E+03  0.59778350675E+03  0.98196506628E+03  0.50400001928E-02 0. -1.
       -1    1    3    3    0  502 -0.26515105208E+03  0.73253340538E+03 -0.19548468453E+04  0.21043612948E+04  0.50400001928E-02 0.  1.
</event>
<event>
 5   0  0.1832502E-05  0.2770870E+04  0.7818609E-02  0.8312370E-01
       -2   -1    0    0    0  501  0.00000000000E+00  0.00000000000E+00  0.10156084462E+04  0.10156084462E+04  0.25500000920E-02 0. -1.
        2   -1    0    0  501    0  0.00000000000E+00  0.00000000000E+00 -0.18899311323E+04  0.18899311323E+04  0.25500000920E-02 0.  1.
    10030    2    1    2    0    0  0.00000000000E+00  0.00000000000E+00 -0.87432268610E+03  0.29055395784E+04  0.27708699144E+04 0.  0.
        2    1    3    3  502    0 -0.76977084302E+03  0.47871966952E+03  0.66147645740E+03  0.11221723470E+04  0.25500000920E-02 0. -1.
       -2    1    3    3    0  502  0.76977084302E+03 -0.47871966952E+03 -0.15357991435E+04  0.17833672314E+04  0.25500000920E-02 0.  1.
</event>
<event>
 5   0  0.7681342E-06  0.2766360E+04  0.7818609E-02  0.8313789E-01
        1   -1    0    0  501    0  0.00000000000E+00  0.00000000000E+00  0.16732917875E+04  0.16732917875E+04  0.50400001928E-02 0.  1.
       -1   -1    0    0    0  501  0.00000000000E+00  0.00000000000E+00 -0.11433671100E+04  0.11433671100E+04  0.50400001928E-02 0. -1.
    10030    2    1    2    0    0  0.00000000000E+00  0.00000000000E+00  0.52992467759E+03  0.28166588975E+04  0.27663599153E+04 0.  0.
        2    1    3    3  502    0 -0.64079847459E+03 -0.37922584681E+03 -0.92188715874E+03  0.11850362279E+04  0.25500000920E-02 0. -1.
       -2    1    3    3    0  502  0.64079847459E+03  0.37922584681E+03  0.14518118363E+04  0.16316226696E+04  0.25500000920E-02 0.  1.
</event>
<event>
 5   0  0.1832502E-05  0.2834919E+04  0.7818609E-02  0.8292509E-01
       -2   -1    0    0    0  501  0.00000000000E+00  0.00000000000E+00  0.15082315426E+04  0.15082315426E+04  0.25500000920E-02 0. -1.
        2   -1    0    0  501    0  0.00000000000E+00  0.00000000000E+00 -0.13321501379E+04  0.13321501379E+04  0.25500000920E-02 0.  1.
    10030    2    1    2    0    0  0.00000000000E+00  0.00000000000E+00  0.17608140478E+03  0.28403816805E+04  0.28349185932E+04 0.  0.
        2    1    3    3  502    0 -0.46175957682E+03 -0.11232829340E+04 -0.64426065874E+03  0.13747938947E+04  0.25500000920E-02 0.  1.
       -2    1    3    3    0  502  0.46175957682E+03  0.11232829340E+04  0.82034206352E+03  0.14655877858E+04  0.25500000920E-02 0. -1.
</event>
<event>
 5   0  0.1923559E-05  0.2815051E+04  0.7818609E-02  0.8298611E-01
        2   -1    0    0  501    0  0.00000000000E+00  0.00000000000E+00  0.14061742283E+04  0.14061742283E+04  0.25500000920E-02 0. -1.
       -2   -1    0    0    0  501  0.00000000000E+00  0.00000000000E+00 -0.14088784543E+04  0.14088784543E+04  0.25500000920E-02 0.  1.
    10030    2    1    2    0    0  0.00000000000E+00  0.00000000000E+00 -0.27042260692E+01  0.28150526826E+04  0.28150513837E+04 0.  0.
        4    1    3    3  502    0  0.43718740046E+03  0.35130319999E+03 -0.12923136682E+04  0.14087664786E+04  0.12699999809E+01 0.  1.
       -4    1    3    3    0  502 -0.43718740046E+03 -0.35130319999E+03  0.12896094421E+04  0.14062862040E+04  0.12699999809E+01 0. -1.
</event>
<event>
 5   0  0.7388013E-06  0.2732048E+04  0.7818609E-02  0.8324681E-01
        1   -1    0    0  501    0  0.00000000000E+00  0.00000000000E+00  0.12512182259E+04  0.12512182259E+04  0.50400001928E-02 0. -1.
       -1   -1    0    0    0  501  0.00000000000E+00  0.00000000000E+00 -0.14913636997E+04  0.14913636997E+04  0.50400001928E-02 0.  1.
    10030    2    1    2    0    0  0.00000000000E+00  0.00000000000E+00 -0.24014547381E+03  0.27425819257E+04  0.27320479078E+04 0.  0.
        1    1    3    3  502    0  0.74980600803E+03  0.55869179440E+03  0.87959614232E+03  0.12837581331E+04  0.50400001928E-02 0. -1.
       -1    1    3    3    0  502 -0.74980600803E+03 -0.55869179440E+03 -0.11197416161E+04  0.14588237925E+04  0.50400001928E-02 0.  1.
</event>
<event>
 5   0  0.7555871E-06  0.2805673E+04  0.7818609E-02  0.8301509E-01
       -1   -1    0    0    0  501  0.00000000000E+00  0.00000000000E+00  0.21829710720E+04  0.21829710720E+04  0.50400001928E-02 0. -1.
        1   -1    0    0  501    0  0.00000000000E+00  0.00000000000E+00 -0.90150112576E+03  0.90150112577E+03  0.50400001928E-02 0.  1.
    10030    2    1    2    0    0  0.00000000000E+00  0.00000000000E+00  0.12814699462E+04  0.30844721978E+04  0.28056734514E+04 0.  0.
        3    1    3    3  502    0  0.12008990664E+04 -0.54288645432E+03  0.11691952199E+04  0.17617893581E+04  0.10100000352E+00 0. -1.
       -3    1    3    3    0  502 -0.12008990664E+04  0.54288645432E+03  0.11227472637E+03  0.13226828397E+04  0.10100000352E+00 0.  1.
</event>
<event>
 5   0  0.1874272E-05  0.2211741E+04  0.7818609E-02  0.8513557E-01
        2   -1    0    0  501    0  0.00000000000E+00  0.00000000000E+00  0.10365520639E+04  0.10365520639E+04  0.25500000920E-02 0. -1.
       -2   -1    0    0    0  501  0.00000000000E+00  0.00000000000E+00 -0.11798249695E+04  0.11798249695E+04  0.25500000920E-02 0.  1.
    10030    2    1    2    0    0  0.00000000000E+00  0.00000000000E+00 -0.14327290563E+03  0.22163770334E+04  0.22117414019E+04 0.  0.
        3    1    3    3  502    0 -0.74006875681E+03 -0.15752686044E+03 -0.87982138839E+03  0.11604318861E+04  0.10100000352E+00 0.  1.
       -3    1    3    3    0  502  0.74006875681E+03  0.15752686044E+03  0.73654848277E+03  0.10559451474E+04  0.10100000352E+00 0. -1.
</event>
<event>
 5   0  0.7613444E-06  0.2167567E+04  0.7818609E-02  0.8532050E-01
       -1   -1    0    0    0  501  0.00000000000E+00  0.00000000000E+00  0.51807791280E+03  0.51807791283E+03  0.50400001928E-02 0. -1.
        1   -1    0    0  501    0  0.00000000000E+00  0.00000000000E+00 -0.22672008655E+04  0.22672008655E+04  0.50400001928E-02 0.  1.
    10030    2    1    2    0    0  0.00000000000E+00  0.00000000000E+00 -0.17491229527E+04  0.27852787783E+04  0.21675670161E+04 0.  0.
        5    1    3    3  502    0  0.76177930711E+03  0.44474750270E+03 -0.16836460751E+04  0.19007351868E+04  0.46999998093E+01 0.  1.
       -5    1    3    3    0  502 -0.76177930711E+03 -0.44474750270E+03 -0.65476877572E+02  0.88454359158E+03  0.46999998093E+01 0. -1.
</event>
<event>
 5   0  0.7509685E-06  0.2826002E+04  0.7818609E-02  0.8295241E-01
       -1   -1    0    0    0  501  0.00000000000E+00  0.00000000000E+00  0.10881241430E+04  0.10881241430E+04  0.50400001928E-02 0. -1.
        1   -1    0    0  501    0  0.00000000000E+00  0.00000000000E+00 -0.18348753409E+04  0.18348753409E+04  0.50400001928E-02 0.  1.
    10030    2    1    2    0    0  0.00000000000E+00  0.00000000000E+00 -0.74675119788E+03  0.29229994839E+04  0.28260022348E+04 0.  0.
        4    1    3    3  502    0  0.12734934221E+04 -0.50121213167E+03 -0.73696842484E+03  0.15543883585E+04  0.12699999809E+01 0.  1.
       -4    1    3    3    0  502 -0.12734934221E+04  0.50121213167E+03 -0.97827730340E+01  0.13686111254E+04  0.12699999809E+01 0. -1.
</event>
<event>
 5   0  0.1923559E-05  0.2752723E+04  0.7818609E-02  0.8318098E-01
       -2   -1    0    0    0  501  0.00000000000E+00  0.00000000000E+00  0.13549702104E+04  0.13549702104E+04  0.25500000920E-02 0.  1.
        2   -1    0    0  501    0  0.00000000000E+00  0.00000000000E+00 -0.13980902153E+04  0.13980902153E+04  0.25500000920E-02 0. -1.
    10030    2    1    2    0    0  0.00000000000E+00  0.00000000000E+00 -0.43120004841E+02  0.27530604257E+04  0.27527227199E+04 0.  0.
        4    1    3    3  502    0  0.71524202772E+03  0.11496678096E+04  0.22557707032E+03  0.13726594109E+04  0.12699999809E+01 0. -1.
       -4    1    3    3    0  502 -0.71524202772E+03 -0.11496678096E+04 -0.26869707516E+03  0.13804010148E+04  0.12699999809E+01 0.  1.
</event>
<event>
 5   0  0.1904553E-05  0.2718701E+04  0.7818609E-02  0.8328963E-01
        2   -1    0    0  501    0  0.00000000000E+00  0.00000000000E+00  0.25588455657E+04  0.25588455657E+04  0.25500000920E-02 0. -1.
       -2   -1    0    0    0  501  0.00000000000E+00  0.00000000000E+00 -0.72213552088E+03  0.72213552089E+03  0.25500000920E-02 0.  1.
    10030    2    1    2    0    0  0.00000000000E+00  0.00000000000E+00  0.18367100448E+04  0.32809810866E+04  0.27187006275E+04 0.  0.
        1    1    3    3  502    0  0.13508978078E+04 -0.12861407208E+03  0.10146499129E+04  0.16943969170E+04  0.50400001928E-02 0. -1.
       -1    1    3    3    0  502 -0.13508978078E+04  0.12861407208E+03  0.82206013199E+03  0.15865841696E+04  0.50400001928E-02 0.  1.
</event>
<event>
 5   0  0.7681342E-06  0.2795550E+04  0.7818609E-02  0.8304651E-01
        1   -1    0    0  501    0  0.00000000000E+00  0.00000000000E+00  0.15613357913E+04  0.15613357913E+04  0.50400001928E-02 0.  1.
       -1   -1    0    0    0  501  0.00000000000E+00  0.00000000000E+00 -0.12513487757E+04  0.12513487757E+04  0.50400001928E-02 0. -1.
    10030    2    1    2    0    0  0.00000000000E+00  0.00000000000E+00  0.30998701558E+03  0.28126845670E+04  0.27955504867E+04 0.  0.
        2    1    3    3  502    0  0.35601960903E+03  0.84370929163E+03  0.12174868927E+04  0.15234400759E+04  0.25500000920E-02 0.  1.
       -2    1    3    3    0  502 -0.35601960903E+03 -0.84370929163E+03 -0.90749987716E+03  0.12892444911E+04  0.25500000920E-02 0. -1.
</event>
<event>
 5   0  0.1832502E-05  0.2803594E+04  0.7818609E-02  0.8302153E-01
        2   -1    0    0  501    0  0.00000000000E+00  0.00000000000E+00  0.14078848766E+04  0.14078848766E+04  0.25500000920E-02 0.  1.
       -2   -1    0    0    0  501  0.00000000000E+00  0.00000000000E+00 -0.13957353526E+04  0.13957353526E+04  0.25500000920E-02 0. -1.
    10030    2    1    2    0    0  0.00000000000E+00  0.00000000000E+00  0.12149524033E+02  0.28036202291E+04  0.28035939040E+04 0.  0.
        2    1    3    3  502    0  0.79895954356E+03 -0.11513617862E+04  0.38699898290E+02  0.14019514960E+04  0.25500000920E-02 0.  1.
       -2    1    3    3    0  502 -0.79895954356E+03  0.11513617862E+04 -0.26550374256E+02  0.14016687331E+04  0.25500000920E-02 0. -1.
</event>
<event>
 5   0  0.1904553E-05  0.2830629E+04  0.7818609E-02  0.8293822E-01
        2   -1    0    0  501    0  0.00000000000E+00  0.00000000000E+00  0.14173206365E+04  0.14173206365E+04  0.25500000920E-02 0.  1.
       -2   -1    0    0    0  501  0.00000000000E+00  0.00000000000E+00 -0.14133114196E+04  0.14133114196E+04  0.25500000920E-02 0. -1.
    10030    2    1    2    0    0  0.00000000000E+00  0.00000000000E+00  0.40092168744E+01  0.28306320561E+04  0.28306292168E+04 0.  0.
        1    1    3    3  502    0  0.22702430979E+03 -0.34293914035E+03 -0.13522375518E+04  0.14133979227E+04  0.50400001928E-02 0. -1.
       -1    1    3    3    0  502 -0.22702430979E+03  0.34293914035E+03  0.13562467687E+04  0.14172341334E+04  0.50400001928E-02 0.  1.
</event>
<event>
 5   0  0.1874272E-05  0.2697918E+04  0.7818609E-02  0.8335681E-01
       -2   -1    0    0    0  501  0.00000000000E+00  0.00000000000E+00  0.17921886479E+04  0.17921886479E+04  0.25500000920E-02 0. -1.
        2   -1    0    0  501    0  0.00000000000E+00  0.00000000000E+00 -0.10153454183E+04  0.10153454183E+04  0.25500000920E-02 0.  1.
    10030    2    1    2    0    0  0.00000000000E+00  0.00000000000E+00  0.77684322954E+03  0.28075340662E+04  0.26979181103E+04 0.  0.
        3    1    3    3  502    0 -0.15241316555E+03 -0.10574074048E+04  0.12455054244E+04  0.16409216816E+04  0.10100000352E+00 0. -1.
       -3    1    3    3    0  502  0.15241316555E+03  0.10574074048E+04 -0.46866219488E+03  0.11666123846E+04  0.10100000352E+00 0.  1.
</event>
<event>
 5   0  0.1832502E-05  0.2805499E+04  0.7818609E-02  0.8301563E-01
       -2   -1    0    0    0  501  0.00000000000E+00  0.00000000000E+00  0.10479161127E+04  0.10479161127E+04  0.25500000920E-02 0. -1.
        2   -1    0    0  501    0  0.00000000000E+00  0.00000000000E+00 -0.18777331578E+04  0.18777331578E+04  0.25500000920E-02 0.  1.
    10030    2    1    2    0    0  0.00000000000E+00  0.00000000000E+00 -0.82981704516E+03  0.29256492705E+04  0.28054994788E+04 0.  0.
        2    1    3    3  502    0  0.51921848189E+03 -0.11595010604E+04 -0.10350846463E+04  0.16387283992E+04  0.25500000920E-02 0.  1.
       -2    1    3    3    0  502 -0.51921848189E+03  0.11595010604E+04  0.20526760118E+03  0.12869208714E+04  0.25500000920E-02 0. -1.
</event>
<event>
 5   0  0.7613444E-06  0.2853757E+04  0.7818609E-02  0.8286771E-01
        1   -1    0    0  501    0  0.00000000000E+00  0.00000000000E+00  0.23038546871E+04  0.23038546871E+04  0.50400001928E-02 0. -1.
       -1   -1    0    0    0  501  0.00000000000E+00  0.00000000000E+00 -0.88372829402E+03  0.88372829404E+03  0.50400001928E-02 0.  1.
    10030    2    1    2    0    0  0.00000000000E+00  0.00000000000E+00  0.14201263931E+04  0.31875829812E+04  0.28537565225E+04 0.  0.
        5    1    3    3  502    0  0.10352943740E+04 -0.76885239767E+03  0.13922350202E+04  0.18977114880E+04  0.46999998093E+01 0. -1.
       -5    1    3    3    0  502 -0.10352943740E+04  0.76885239767E+03  0.27891372947E+02  0.12898714932E+04  0.46999998093E+01 0.  1.
</event>
<event>
 5   0  0.1923559E-05  0.2288105E+04  0.7818609E-02  0.8482626E-01
       -2   -1    0    0    0  501  0.00000000000E+00  0.00000000000E+00  0.56167783122E+03  0.56167783123E+03  0.25500000920E-02 0.  1.
        2   -1    0    0  501    0  0.00000000000E+00  0.00000000000E+00 -0.23302618080E+04  0.23302618080E+04  0.25500000920E-02 0. -1.
    10030    2    1    2    0    0  0.00000000000E+00  0.00000000000E+00 -0.17685839768E+04  0.28919396392E+04  0.22881052410E+04 0.  0.
        4    1    3    3  502    0 -0.45546746499E+03  0.10201132934E+04 -0.57271260154E+03  0.12554214750E+04  0.12699999809E+01 0. -1.
       -4    1    3    3    0  502  0.45546746499E+03 -0.10201132934E+04 -0.11958713752E+04  0.16365181642E+04  0.12699999809E+01 0.  1.
</event>
<event>
 5   0  0.7555871E-06  0.2732672E+04  0.7818609E-02  0.8324481E-01
       -1   -1    0    0    0  501  0.00000000000E+00  0.00000000000E+00  0.12481516868E+04  0.12481516868E+04  0.50400001928E-02 0.  1.
        1   -1    0    0  501    0  0.00000000000E+00  0.00000000000E+00 -0.14957104365E+04  0.14957104365E+04  0.50400001928E-02 0. -1.
    10030    2    1    2    0    0  0.00000000000E+00  0.00000000000E+00 -0.24755874970E+03  0.27438621234E+04  0.27326715898E+04 0.  0.
        3    1    3    3  502    0 -0.77583746584E+03  0.96983732992E+03  0.44808365351E+03  0.13203360143E+04  0.10100000352E+00 0.  1.
       -3    1    3    3    0  502  0.77583746584E+03 -0.96983732992E+03 -0.69564240321E+03  0.14235261091E+04  0.10100000352E+00 0. -1.
</event>
<event>
 5   0  0.7555871E-06  0.2752661E+04  0.7818609E-02  0.8318118E-01
        1   -1    0    0  501    0  0.00000000000E+00  0.00000000000E+00  0.30019687619E+04  0.30019687619E+04  0.50400001928E-02 0.  1.
       -1   -1    0    0    0  501  0.00000000000E+00  0.00000000000E+00 -0.63101448732E+03  0.63101448734E+03  0.50400001928E-02 0. -1.
    10030    2    1    2    0    0  0.00000000000E+00  0.00000000000E+00  0.23709542746E+04  0.36329832492E+04  0.27526610974E+04 0.  0.
        3    1    3    3  502    0 -0.93519079043E+03 -0.80279699831E+03  0.37702524774E+03  0.12888804765E+04  0.10100000352E+00 0. -1.
       -3    1    3    3    0  502  0.93519079043E+03  0.80279699831E+03  0.19939290268E+04  0.23441027728E+04  0.10100000352E+00 0.  1.
</event>
<event>
 5   0  0.1874272E-05  0.2766983E+04  0.7818609E-02  0.8313593E-01
        2   -1    0    0  501    0  0.00000000000E+00  0.00000000000E+00  0.13736914428E+04  0.13736914428E+04  0.25500000920E-02 0. -1.
       -2   -1    0    0    0  501  0.00000000000E+00  0.00000000000E+00 -0.13933617404E+04  0.13933617404E+04  0.25500000920E-02 0.  1.
    10030    2    1    2    0    0  0.00000000000E+00  0.00000000000E+00 -0.19670297586E+02  0.27670531832E+04  0.27669832667E+04 0.  0.
        3    1    3    3  502    0 -0.32783709542E+03  0.28517310630E+03  0.13036850895E+04  0.13741891007E+04  0.10100000352E+00 0. -1.
       -3    1    3    3    0  502  0.32783709542E+03 -0.28517310630E+03 -0.13233553871E+04  0.13928640825E+04  0.10100000352E+00 0.  1.
</event>
<event>
 5   0  0.7555871E-06  0.2283034E+04  0.7818609E-02  0.8484641E-01
       -1   -1    0    0    0  501  0.00000000000E+00  0.00000000000E+00  0.12813142641E+04  0.12813142641E+04  0.50400001928E-02 0. -1.
        1   -1    0    0  501    0  0.00000000000E+00  0.00000000000E+00 -0.10169725001E+04  0.10169725001E+04  0.50400001928E-02 0.  1.
    10030    2    1    2    0    0  0.00000000000E+00  0.00000000000E+00  0.26434176401E+03  0.22982867642E+04  0.22830342710E+04 0.  0.
        3    1    3    3  502    0 -0.67959104677E+03 -0.62992074253E+03 -0.53892910146E+03  0.10719555585E+04  0.10100000352E+00 0.  1.
       -3    1    3    3    0  502  0.67959104677E+03  0.62992074253E+03  0.80327086546E+03  0.12263312058E+04  0.10100000352E+00 0. -1.
</event>
<event>
 5   0  0.7509685E-06  0.2788422E+04  0.7818609E-02  0.8306872E-01
        1   -1    0    0  501    0  0.00000000000E+00  0.00000000000E+00  0.13058446487E+04  0.13058446487E+04  0.50400001928E-02 0.  1.
       -1   -1    0    0    0  501  0.00000000000E+00  0.00000000000E+00 -0.14885568012E+04  0.14885568012E+04  0.50400001928E-02 0. -1.
    10030    2    1    2    0    0  0.00000000000E+00  0.00000000000E+00 -0.18271215253E+03  0.27944014499E+04  0.27884217279E+04 0.  0.
        4    1    3    3  502    0 -0.40328022276E+03 -0.68241883676E+03  0.10580524944E+04  0.13220465577E+04  0.12699999809E+01 0.  1.
       -4    1    3    3    0  502  0.40328022276E+03  0.68241883676E+03 -0.12407646469E+04  0.14723548923E+04  0.12699999809E+01 0. -1.
</event>
<event>
 5   0  0.7613444E-06  0.2803809E+04  0.7818609E-02  0.8302087E-01
       -1   -1    0    0    0  501  0.00000000000E+00  0.00000000000E+00  0.23040600718E+04  0.23040600718E+04  0.50400001928E-02 0.  1.
        1   -1    0    0  501    0  0.00000000000E+00  0.00000000000E+00 -0.85298798271E+03  0.85298798273E+03  0.50400001928E-02 0. -1.
    10030    2    1    2    0    0  0.00000000000E+00  0.00000000000E+00  0.14510720891E+04  0.31570480545E+04  0.28038085189E+04 0.  0.
        5    1    3    3  502    0 -0.12857739894E+04  0.38024605376E+03  0.26469054650E+03  0.13667058895E+04  0.46999998093E+01 0. -1.
       -5    1    3    3    0  502  0.12857739894E+04 -0.38024605376E+03  0.11863815426E+04  0.17903421650E+04  0.46999998093E+01 0.  1.
</event>
<event>
 5   0  0.7509685E-06  0.1724071E+04  0.7818609E-02  0.8747754E-01
       -1   -1    0    0    0  501  0.00000000000E+00  0.00000000000E+00  0.42492321848E+03  0.42492321851E+03  0.50400001928E-02 0. -1.
        1   -1    0    0  501    0  0.00000000000E+00  0.00000000000E+00 -0.17487985933E+04  0.17487985933E+04  0.50400001928E-02 0.  1.
    10030    2    1    2    0    0  0.00000000000E+00  0.00000000000E+00 -0.13238753748E+04  0.21737218118E+04  0.17240709113E+04 0.  0.
        4    1    3    3  502    0  0.51244230808E+03  0.52178051560E+03 -0.12373019666E+04  0.14372786073E+04  0.12699999809E+01 0.  1.
       -4    1    3    3    0  502 -0.51244230808E+03 -0.52178051560E+03 -0.86573408227E+02  0.73644320452E+03  0.12699999809E+01 0. -1.
</event>
<event>
 5   0  0.1874272E-05  0.2787295E+04  0.7818609E-02  0.8307224E-01
        2   -1    0    0  501    0  0.00000000000E+00  0.00000000000E+00  0.87964475911E+03  0.87964475911E+03  0.25500000920E-02 0.  1.
       -2   -1    0    0    0  501  0.00000000000E+00  0.00000000000E+00 -0.22079974359E+04  0.22079974359E+04  0.25500000920E-02 0. -1.
    10030    2    1    2    0    0  0.00000000000E+00  0.00000000000E+00 -0.13283526768E+04  0.30876421950E+04  0.27872950132E+04 0.  0.
        3    1    3    3  502    0 -0.42057277169E+03 -0.99337126231E+03  0.31327955353E+03  0.11233040594E+04  0.10100000352E+00 0.  1.
       -3    1    3    3    0  502  0.42057277169E+03  0.99337126231E+03 -0.16416322303E+04  0.19643381355E+04  0.10100000352E+00 0. -1.
</event>
<event>
 5   0  0.7388013E-06  0.2838741E+04  0.7818609E-02  0.8291341E-01
        1   -1    0    0  501    0  0.00000000000E+00  0.00000000000E+00  0.13524386107E+04  0.13524386107E+04  0.50400001928E-02 0.  1.
       -1   -1    0    0    0  501  0.00000000000E+00  0.00000000000E+00 -0.14896152253E+04  0.14896152253E+04  0.50400001928E-02 0. -1.
    10030    2    1    2    0    0  0.00000000000E+00  0.00000000000E+00 -0.13717661460E+03  0.28420538361E+04  0.28387413731E+04 0.  0.
        1    1    3    3  502    0 -0.51033175824E+03 -0.87231743713E+03 -0.10663639609E+04  0.14691862754E+04  0.50400001928E-02 0. -1.
       -1    1    3    3    0  502  0.51033175824E+03  0.87231743713E+03  0.92918734632E+03  0.13728675607E+04  0.50400001928E-02 0.  1.
</event>
<event>
 5   0  0.1874272E-05  0.2874621E+04  0.7818609E-02  0.8280469E-01
       -2   -1    0    0    0  501  0.00000000000E+00  0.00000000000E+00  0.18685932315E+04  0.18685932315E+04  0.25500000920E-02 0. -1.
        2   -1    0    0  501    0  0.00000000000E+00  0.00000000000E+00 -0.11055703469E+04  0.11055703469E+04  0.25500000920E-02 0.  1.
    10030    2    1    2    0    0  0.00000000000E+00  0.00000000000E+00  0.76302288459E+03  0.29741635784E+04  0.28746208565E+04 0.  0.
        3    1    3    3  502    0  0.25143706255E+03  0.86178363809E+03 -0.77984174410E+03  0.11891361534E+04  0.10100000352E+00 0.  1.
       -3    1    3    3    0  502 -0.25143706255E+03 -0.86178363809E+03  0.15428646287E+04  0.17850274250E+04  0.10100000352E+00 0. -1.
</event>
<event>
 5   0  0.1923559E-05  0.2777356E+04  0.7818609E-02  0.8310333E-01
       -2   -1    0    0    0  501  0.00000000000E+00  0.00000000000E+00  0.15644243864E+04  0.15644243864E+04  0.25500000920E-02 0. -1.
        2   -1    0    0  501    0  0.00000000000E+00  0.00000000000E+00 -0.12326746129E+04  0.12326746129E+04  0.25500000920E-02 0.  1.
    10030    2    1    2    0    0  0.00000000000E+00  0.00000000000E+00  0.33174977351E+03  0.27970989993E+04  0.27773557388E+04 0.  0.
        4    1    3    3  502    0  0.57189195488E+03  0.12047972205E+04 -0.22395274371E+03  0.13523140149E+04  0.12699999809E+01 0. -1.
       -4    1    3    3    0  502 -0.57189195488E+03 -0.12047972205E+04  0.55570251722E+03  0.14447849844E+04  0.12699999809E+01 0.  1.
</event>
<event>
 5   0  0.7509685E-06  0.2709084E+04  0.7818609E-02  0.8332063E-01
        1   -1    0    0  501    0  0.00000000000E+00  0.00000000000E+00  0.17991152730E+04  0.17991152731E+04  0.50400001928E-02 0.  1.
       -1   -1    0    0    0  501  0.00000000000E+00  0.00000000000E+00 -0.10198259537E+04  0.10198259537E+04  0.50400001928E-02 0. -1.
    10030    2    1    2    0    0  0.00000000000E+00  0.00000000000E+00  0.77928931934E+03  0.28189412268E+04  0.27090843097E+04 0.  0.
        4    1    3    3  502    0 -0.10652594759E+03 -0.55582590168E+03  0.16701962557E+04  0.17634759300E+04  0.12699999809E+01 0.  1.
       -4    1    3    3    0  502  0.10652594759E+03  0.55582590168E+03 -0.89090693634E+03  0.10554652967E+04  0.12699999809E+01 0. -1.
</event>
<event>
 5   0  0.7388013E-06  0.2828657E+04  0.7818609E-02  0.8294426E-01
       -1   -1    0    0    0  501  0.00000000000E+00  0.00000000000E+00  0.94049234106E+03  0.94049234107E+03  0.50400001928E-02 0.  1.
        1   -1    0    0  501    0  0.00000000000E+00  0.00000000000E+00 -0.21268915454E+04  0.21268915454E+04  0.50400001928E-02 0. -1.
    10030    2    1    2    0    0  0.00000000000E+00  0.00000000000E+00 -0.11863992044E+04  0.30673838865E+04  0.28286570727E+04 0.  0.
        1    1    3    3  502    0  0.90183733705E+03  0.51928410899E+03 -0.16318213451E+04  0.19354088639E+04  0.50400001928E-02 0. -1.
       -1    1    3    3    0  502 -0.90183733705E+03 -0.51928410899E+03  0.44542214067E+03  0.11319750226E+04  0.50400001928E-02 0.  1.
</event>
<event>
 5   0  0.1832502E-05  0.2771573E+04  0.7818609E-02  0.8312148E-01
       -2   -1    0    0    0  501  0.00000000000E+00  0.00000000000E+00  0.81292914470E+03  0.81292914471E+03  0.25500000920E-02 0. -1.
        2   -1    0    0  501    0  0.00000000000E+00  0.00000000000E+00 -0.23623270354E+04  0.23623270354E+04  0.25500000920E-02 0.  1.
    10030    2    1    2    0    0  0.00000000000E+00  0.00000000000E+00 -0.15493978907E+04  0.31752561801E+04  0.27715731969E+04 0.  0.
        2    1    3    3  502    0  0.38994990463E+03  0.59396174169E+02 -0.22966549274E+04  0.23302816759E+04  0.25500000920E-02 0.  1.
       -2    1    3    3    0  502 -0.38994990463E+03 -0.59396174169E+02  0.74725703676E+03  0.84497450412E+03  0.25500000920E-02 0. -1.
</event>
<event>
 5   0  0.1874272E-05  0.2860108E+04  0.7818609E-02  0.8284846E-01
        2   -1    0    0  501    0  0.00000000000E+00  0.00000000000E+00  0.14521426819E+04  0.14521426819E+04  0.25500000920E-02 0. -1.
       -2   -1    0    0    0  501  0.00000000000E+00  0.00000000000E+00 -0.14083017215E+04  0.14083017215E+04  0.25500000920E-02 0.  1.
    10030    2    1    2    0    0  0.00000000000E+00  0.00000000000E+00  0.43840960438E+02  0.28604444034E+04  0.28601084167E+04 0.  0.
        3    1    3    3  502    0  0.12556457840E+04  0.60661776619E+03 -0.29501354307E+03  0.14253646726E+04  0.10100000352E+00 0.  1.
       -3    1    3    3    0  502 -0.12556457840E+04 -0.60661776619E+03  0.33885450351E+03  0.14350797308E+04  0.10100000352E+00 0. -1.
</event>
<event>
 5   0  0.7509685E-06  0.2400309E+04  0.7818609E-02  0.8439388E-01
       -1   -1    0    0    0  501  0.00000000000E+00  0.00000000000E+00  0.47007944612E+03  0.47007944614E+03  0.50400001928E-02 0. -1.
        1   -1    0    0  501    0  0.00000000000E+00  0.00000000000E+00 -0.30641007601E+04  0.30641007601E+04  0.50400001928E-02 0.  1.
    10030    2    1    2    0    0  0.00000000000E+00  0.00000000000E+00 -0.25940213140E+04  0.35341802063E+04  0.24003089703E+04 0.  0.
        4    1    3    3  502    0 -0.72064278604E+03  0.52749915845E+03 -0.24774817337E+04  0.26335335087E+04  0.12699999809E+01 0.  1.
       -4    1    3    3    0  502  0.72064278604E+03 -0.52749915845E+03 -0.11653958024E+03  0.90064669760E+03  0.12699999809E+01 0. -1.
</event>
<event>
 5   0  0.7681342E-06  0.2833321E+04  0.7818609E-02  0.8292998E-01
        1   -1    0    0  501    0  0.00000000000E+00  0.00000000000E+00  0.95401076957E+03  0.95401076958E+03  0.50400001928E-02 0. -1.
       -1   -1    0    0    0  501  0.00000000000E+00  0.00000000000E+00 -0.21036735635E+04  0.21036735635E+04  0.50400001928E-02 0.  1.
    10030    2    1    2    0    0  0.00000000000E+00  0.00000000000E+00 -0.11496627939E+04  0.30576843331E+04  0.28333211857E+04 0.  0.
        2    1    3    3  502    0  0.13939708405E+04  0.87652375475E+02 -0.83041793753E+03  0.16249404894E+04  0.25500000920E-02 0.  1.
       -2    1    3    3    0  502 -0.13939708405E+04 -0.87652375475E+02 -0.31924485640E+03  0.14327438437E+04  0.25500000920E-02 0. -1.
</event>
<event>
 5   0  0.7388013E-06  0.2736602E+04  0.7818609E-02  0.8323226E-01
       -1   -1    0    0    0  501  0.00000000000E+00  0.00000000000E+00  0.94542494338E+03  0.94542494340E+03  0.50400001928E-02 0. -1.
        1   -1    0    0  501    0  0.00000000000E+00  0.00000000000E+00 -0.19803245770E+04  0.19803245770E+04  0.50400001928E-02 0.  1.
    10030    2    1    2    0    0  0.00000000000E+00  0.00000000000E+00 -0.10348996336E+04  0.29257495204E+04  0.27366024564E+04 0.  0.
        1    1    3    3  502    0  0.59498365575E+03  0.12308235089E+04 -0.57901641456E+03  0.14846521711E+04  0.50400001928E-02 0.  1.
       -1    1    3    3    0  502 -0.59498365575E+03 -0.12308235089E+04 -0.45588321905E+03  0.14410973493E+04  0.50400001928E-02 0. -1.
</event>
<event>
 5   0  0.1832502E-05  0.2805974E+04  0.7818609E-02  0.8301416E-01
       -2   -1    0    0    0  501  0.00000000000E+00  0.00000000000E+00  0.13990003769E+04  0.13990003769E+04  0.25500000920E-02 0. -1.
        2   -1    0    0  501    0  0.00000000000E+00  0.00000000000E+00 -0.14069846184E+04  0.14069846184E+04  0.25500000920E-02 0.  1.
    10030    2    1    2    0    0  0.00000000000E+00  0.00000000000E+00 -0.79842415126E+01  0.28059849953E+04  0.28059736359E+04 0.  0.
        2    1    3    3  502    0 -0.38509515892E+03 -0.46444939434E+03  0.12626465333E+04  0.13993883626E+04  0.25500000920E-02 0. -1.
       -2    1    3    3    0  502  0.38509515892E+03  0.46444939434E+03 -0.12706307748E+04  0.14065966327E+04  0.25500000920E-02 0.  1.
</event>
<event>
 5   0  0.7613444E-06  0.2765090E+04  0.7818609E-02  0.8314189E-01
       -1   -1    0    0    0  501  0.00000000000E+00  0.00000000000E+00  0.96290783167E+03  0.96290783168E+03  0.50400001928E-02 0. -1.
        1   -1    0    0  501    0  0.00000000000E+00  0.00000000000E+00 -0.19850604259E+04  0.19850604259E+04  0.50400001928E-02 0.  1.
    10030    2    1    2    0    0  0.00000000000E+00  0.00000000000E+00 -0.10221525943E+04  0.29479682576E+04  0.27650896770E+04 0.  0.
        5    1    3    3  502    0 -0.13981106979E+03  0.43659356902E+02 -0.19767567588E+04  0.19821812854E+04  0.46999998093E+01 0.  1.
       -5    1    3    3    0  502  0.13981106979E+03 -0.43659356902E+02  0.95460416456E+03  0.96578697220E+03  0.46999998093E+01 0. -1.
</event>
<event>
 5   0  0.7555871E-06  0.2752416E+04  0.7818609E-02  0.8318195E-01
        1   -1    0    0  501    0  0.00000000000E+00  0.00000000000E+00  0.17251162878E+04  0.17251162879E+04  0.50400001928E-02 0. -1.
       -1   -1    0    0    0  501  0.00000000000E+00  0.00000000000E+00 -0.10978669662E+04  0.10978669662E+04  0.50400001928E-02 0.  1.
    10030    2    1    2    0    0  0.00000000000E+00  0.00000000000E+00  0.62724932167E+03  0.28229832540E+04  0.27524158009E+04 0.  0.
        3    1    3    3  502    0 -0.39007045521E+03 -0.95474081899E+02  0.16636850009E+04  0.17114666380E+04  0.10100000352E+00 0. -1.
       -3    1    3    3    0  502  0.39007045521E+03  0.95474081899E+02 -0.10364356793E+04  0.11115166161E+04  0.10100000352E+00 0.  1.
</event>
<event>
 5   0  0.1874272E-05  0.2560411E+04  0.7818609E-02  0.8381774E-01
       -2   -1    0    0    0  501  0.00000000000E+00  0.00000000000E+00  0.75349042124E+03  0.75349042125E+03  0.25500000920E-02 0.  1.
        2   -1    0    0  501    0  0.00000000000E+00  0.00000000000E+00 -0.21751119940E+04  0.21751119940E+04  0.25500000920E-02 0. -1.
    10030    2    1    2    0    0  0.00000000000E+00  0.00000000000E+00 -0.14216215727E+04  0.29286024152E+04  0.25604109456E+04 0.  0.
        3    1    3    3  502    0  0.92430764091E+03  0.35145737148E+03  0.21916341178E+03  0.10128669756E+04  0.10100000352E+00 0. -1.
       -3    1    3    3    0  502 -0.92430764091E+03 -0.35145737148E+03 -0.16407849845E+04  0.19157354396E+04  0.10100000352E+00 0.  1.
</event>
<event>
 5   0  0.1874272E-05  0.2694800E+04  0.7818609E-02  0.8336694E-01
       -2   -1    0    0    0  501  0.00000000000E+00  0.00000000000E+00  0.10732977861E+04  0.10732977862E+04  0.25500000920E-02 0.  1.
        2   -1    0    0  501    0  0.00000000000E+00  0.00000000000E+00 -0.16915027097E+04  0.16915027097E+04  0.25500000920E-02 0. -1.
    10030    2    1    2    0    0  0.00000000000E+00  0.00000000000E+00 -0.61820492359E+03  0.27648004959E+04  0.26947995203E+04 0.  0.
        3    1    3    3  502    0  0.52790219764E+03 -0.81843485505E+03  0.64619651456E+03  0.11687969404E+04  0.10100000352E+00 0.  1.
       -3    1    3    3    0  502 -0.52790219764E+03  0.81843485505E+03 -0.12644014381E+04  0.15960035555E+04  0.10100000352E+00 0. -1.
</event>
<event>
 5   0  0.7388013E-06  0.2896515E+04  0.7818609E-02  0.8273915E-01
       -1   -1    0    0    0  501  0.00000000000E+00  0.00000000000E+00  0.11607814269E+04  0.11607814269E+04  0.50400001928E-02 0.  1.
        1   -1    0    0  501    0  0.00000000000E+00  0.00000000000E+00 -0.18069293358E+04  0.18069293358E+04  0.50400001928E-02 0. -1.
    10030    2    1    2    0    0  0.00000000000E+00  0.00000000000E+00 -0.64614790889E+03  0.29677107627E+04  0.28965151563E+04 0.  0.
        1    1    3    3  502    0 -0.11651484862E+04  0.78705776230E+03  0.32470123143E+02  0.14064441777E+04  0.50400001928E-02 0.  1.
       -1    1    3    3    0  502  0.11651484862E+04 -0.78705776230E+03 -0.67861803203E+03  0.15612665850E+04  0.50400001928E-02 0. -1.
</event>
<event>
 5   0  0.1904553E-05  0.2808586E+04  0.7818609E-02  0.8300608E-01
        2   -1    0    0  501    0  0.00000000000E+00  0.00000000000E+00  0.20491769826E+04  0.20491769826E+04  0.25500000920E-02 0. -1.
       -2   -1    0    0    0  501  0.00000000000E+00  0.00000000000E+00 -0.96235667937E+03  0.96235667937E+03  0.25500000920E-02 0.  1.
    10030    2    1    2    0    0  0.00000000000E+00  0.00000000000E+00  0.10868203032E+04  0.30115336619E+04  0.28085862325E+04 0.  0.
        1    1    3    3  502    0  0.10980096189E+04 -0.83624616800E+03  0.26564237405E+03  0.14055243319E+04  0.50400001928E-02 0. -1.
       -1    1    3    3    0  502 -0.10980096189E+04  0.83624616800E+03  0.82117792915E+03  0.16060093300E+04  0.50400001928E-02 0.  1.
</event>
<event>
 5   0  0.7681342E-06  0.2831636E+04  0.7818609E-02  0.8293513E-01
        1   -1    0    0  501    0  0.00000000000E+00  0.00000000000E+00  0.14094258467E+04  0.14094258467E+04  0.50400001928E-02 0.  1.
       -1   -1    0    0    0  501  0.00000000000E+00  0.00000000000E+00 -0.14222394131E+04  0.14222394131E+04  0.50400001928E-02 0. -1.
    10030    2    1    2    0    0  0.00000000000E+00  0.00000000000E+00 -0.12813566353E+02  0.28316652598E+04  0.28316362684E+04 0.  0.
        2    1    3    3  502    0  0.65473207023E+02 -0.13900739922E+04  0.25426530188E+03  0.14146530629E+04  0.25500000920E-02 0. -1.
       -2    1    3    3    0  502 -0.65473207023E+02  0.13900739922E+04 -0.26707886823E+03  0.14170121970E+04  0.25500000920E-02 0.  1.
</event>
<event>
 5   0  0.7388013E-06  0.2703001E+04  0.7818609E-02  0.8334032E-01
       -1   -1    0    0    0  501  0.00000000000E+00  0.00000000000E+00  0.10182118892E+04  0.10182118893E+04  0.50400001928E-02 0.  1.
        1   -1    0    0  501    0  0.00000000000E+00  0.00000000000E+00 -0.17938830290E+04  0.17938830290E+04  0.50400001928E-02 0. -1.
    10030    2    1    2    0    0  0.00000000000E+00  0.00000000000E+00 -0.77567113971E+03  0.28120949182E+04  0.27030005757E+04 0.  0.
        1    1    3    3  502    0  0.81161354344E+03  0.29430103381E+03 -0.14696220578E+04  0.17044408571E+04  0.50400001928E-02 0. -1.
       -1    1    3    3    0  502 -0.81161354344E+03 -0.29430103381E+03  0.69395091811E+03  0.11076540611E+04  0.50400001928E-02 0.  1.
</event>
<event>
 5   0  0.6288000E-06  0.2758182E+04  0.7818609E-02  0.8316370E-01
        4   -1    0    0  501    0  0.00000000000E+00  0.00000000000E+00  0.19029587946E+04  0.19029592184E+04  0.12699999809E+01 0. -1.
       -4   -1    0    0    0  501  0.00000000000E+00  0.00000000000E+00 -0.99943855575E+03  0.99943936266E+03  0.12699999809E+01 0.  1.
    10030    2    1    2    0    0  0.00000000000E+00  0.00000000000E+00  0.90352023889E+03  0.29023985811E+04  0.27581821371E+04 0.  0.
        1    1    3    3  502    0  0.12979377776E+04 -0.62631320118E+02  0.93778336751E+03  0.16024989239E+04  0.50400001928E-02 0. -1.
       -1    1    3    3    0  502 -0.12979377776E+04  0.62631320118E+02 -0.34263128614E+02  0.12998996572E+04  0.50400001928E-02 0.  1.
</event>
<event>
 5   0  0.1904553E-05  0.2838504E+04  0.7818609E-02  0.8291413E-01
       -2   -1    0    0    0  501  0.00000000000E+00  0.00000000000E+00  0.14599548244E+04  0.14599548244E+04  0.25500000920E-02 0. -1.
        2   -1    0    0  501    0  0.00000000000E+00  0.00000000000E+00 -0.13796839119E+04  0.13796839119E+04  0.25500000920E-02 0.  1.
    10030    2    1    2    0    0  0.00000000000E+00  0.00000000000E+00  0.80270912492E+02  0.28396387363E+04  0.28385039605E+04 0.  0.
        1    1    3    3  502    0  0.11667638715E+04 -0.73578336606E+03  0.37427660502E+03  0.14292648707E+04  0.50400001928E-02 0. -1.
       -1    1    3    3    0  502 -0.11667638715E+04  0.73578336606E+03 -0.29400569253E+03  0.14103738656E+04  0.50400001928E-02 0.  1.
</event>
<event>
 5   0  0.7509685E-06  0.2630284E+04  0.7818609E-02  0.8357987E-01
       -1   -1    0    0    0  501  0.00000000000E+00  0.00000000000E+00  0.79067047721E+03  0.79067047723E+03  0.50400001928E-02 0. -1.
        1   -1    0    0  501    0  0.00000000000E+00  0.00000000000E+00 -0.21875084528E+04  0.21875084528E+04  0.50400001928E-02 0.  1.
    10030    2    1    2    0    0  0.00000000000E+00  0.00000000000E+00 -0.13968379756E+04  0.29781789300E+04  0.26302839028E+04 0.  0.
        4    1    3    3  502    0  0.10879550839E+03  0.82899362270E+03  0.45100021309E+03  0.94998404946E+03  0.12699999809E+01 0. -1.
       -4    1    3    3    0  502 -0.10879550839E+03 -0.82899362270E+03 -0.18478381887E+04  0.20281948806E+04  0.12699999809E+01 0.  1.
</event>
<event>
 5   0  0.7681342E-06  0.2713712E+04  0.7818609E-02  0.8330570E-01
        1   -1    0    0  501    0  0.00000000000E+00  0.00000000000E+00  0.17856584154E+04  0.17856584154E+04  0.50400001928E-02 0.  1.
       -1   -1    0    0    0  501  0.00000000000E+00  0.00000000000E+00 -0.10310245187E+04  0.10310245187E+04  0.50400001928E-02 0. -1.
    10030    2    1    2    0    0  0.00000000000E+00  0.00000000000E+00  0.75463389667E+03  0.28166829342E+04  0.27137115605E+04 0.  0.
        2    1    3    3  502    0 -0.21782827085E+03  0.64743094498E+03  0.15941680153E+04  0.17343551093E+04  0.25500000920E-02 0.  1.
       -2    1    3    3    0  502  0.21782827085E+03 -0.64743094498E+03 -0.83953411864E+03  0.10823278249E+04  0.25500000920E-02 0. -1.
</event>
<event>
 5   0  0.1832502E-05  0.2619355E+04  0.7818609E-02  0.8361656E-01
       -2   -1    0    0    0  501  0.00000000000E+00  0.00000000000E+00  0.12692977563E+04  0.12692977563E+04  0.25500000920E-02 0. -1.
        2   -1    0    0  501    0  0.00000000000E+00  0.00000000000E+00 -0.13513422275E+04  0.13513422275E+04  0.25500000920E-02 0.  1.
    10030    2    1    2    0    0  0.00000000000E+00  0.00000000000E+00 -0.82044471210E+02  0.26206399838E+04  0.26193553844E+04 0.  0.
        2    1    3    3  502    0  0.12121409615E+04  0.46185154177E+03 -0.22184022632E+03  0.13159808673E+04  0.25500000920E-02 0. -1.
       -2    1    3    3    0  502 -0.12121409615E+04 -0.46185154177E+03  0.13979575511E+03  0.13046591165E+04  0.25500000920E-02 0.  1.
</event>
<event>
 5   0  0.7555871E-06  0.2992016E+04  0.7818609E-02  0.8246014E-01
       -1   -1    0    0    0  501  0.00000000000E+00  0.00000000000E+00  0.11149191074E+04  0.11149191074E+04  0.50400001928E-02 0.  1.
        1   -1    0    0  501    0  0.00000000000E+00  0.00000000000E+00 -0.20073564904E+04  0.20073564905E+04  0.50400001928E-02 0. -1.
    10030    2    1    2    0    0  0.00000000000E+00  0.00000000000E+00 -0.89243738301E+03  0.31222755979E+04  0.29920161140E+04 0.  0.
        3    1    3    3  502    0 -0.84857578966E+03 -0.20473463589E+03 -0.17140363742E+04  0.19235170507E+04  0.10100000352E+00 0. -1.
       -3    1    3    3    0  502  0.84857578966E+03  0.20473463589E+03  0.82159899122E+03  0.11987585472E+04  0.10100000352E+00 0.  1.
</event>
<event>
 5   0  0.1814230E-05  0.2742442E+04  0.7818609E-02  0.8321364E-01
       -2   -1    0    0    0  501  0.00000000000E+00  0.00000000000E+00  0.98533776629E+03  0.98533776629E+03  0.25500000920E-02 0.  1.
        2   -1    0    0  501    0  0.00000000000E+00  0.00000000000E+00 -0.19082258203E+04  0.19082258203E+04  0.25500000920E-02 0. -1.
    10030    2    1    2    0    0  0.00000000000E+00  0.00000000000E+00 -0.92288805396E+03  0.28935635866E+04  0.27424419537E+04 0.  0.
        5    1    3    3  502    0  0.22575776998E+03 -0.13364488862E+04 -0.68064869274E+03  0.15166960569E+04  0.46999998093E+01 0. -1.
       -5    1    3    3    0  502 -0.22575776998E+03  0.13364488862E+04 -0.24223936123E+03  0.13768675297E+04  0.46999998093E+01 0.  1.
</event>
<event>
 5   0  0.7555871E-06  0.2730077E+04  0.7818609E-02  0.8325311E-01
       -1   -1    0    0    0  501  0.00000000000E+00  0.00000000000E+00  0.10869614407E+04  0.10869614407E+04  0.50400001928E-02 0.  1.
        1   -1    0    0  501    0  0.00000000000E+00  0.00000000000E+00 -0.17142564246E+04  0.17142564246E+04  0.50400001928E-02 0. -1.
    10030    2    1    2    0    0  0.00000000000E+00  0.00000000000E+00 -0.62729498394E+03  0.28012178653E+04  0.27300773857E+04 0.  0.
        3    1    3    3  502    0 -0.13011951698E+04 -0.35891765655E+03 -0.10487589599E+03  0.13538573477E+04  0.10100000352E+00 0.  1.
       -3    1    3    3    0  502  0.13011951698E+04  0.35891765655E+03 -0.52241908795E+03  0.14473605176E+04  0.10100000352E+00 0. -1.
</event>
<event>
 5   0  0.1832502E-05  0.2786094E+04  0.7818609E-02  0.8307599E-01
        2   -1    0    0  501    0  0.00000000000E+00  0.00000000000E+00  0.17228712517E+04  0.17228712517E+04  0.25500000920E-02 0. -1.
       -2   -1    0    0    0  501  0.00000000000E+00  0.00000000000E+00 -0.11263637327E+04  0.11263637327E+04  0.25500000920E-02 0.  1.
    10030    2    1    2    0    0  0.00000000000E+00  0.00000000000E+00  0.59650751903E+03  0.28492349844E+04  0.27860938204E+04 0.  0.
        2    1    3    3  502    0 -0.12436009885E+04 -0.62224018389E+03  0.38291536380E+03  0.14423419986E+04  0.25500000920E-02 0.  1.
       -2    1    3    3    0  502  0.12436009885E+04  0.62224018389E+03  0.21359215523E+03  0.14068929859E+04  0.25500000920E-02 0. -1.
</event>
<event>
 5   0  0.1832502E-05  0.2216303E+04  0.7818609E-02  0.8511673E-01
       -2   -1    0    0    0  501  0.00000000000E+00  0.00000000000E+00  0.68630538118E+03  0.68630538118E+03  0.25500000920E-02 0.  1.
        2   -1    0    0  501    0  0.00000000000E+00  0.00000000000E+00 -0.17892913667E+04  0.17892913667E+04  0.25500000920E-02 0. -1.
    10030    2    1    2    0    0  0.00000000000E+00  0.00000000000E+00 -0.11029859855E+04  0.24755967479E+04  0.22163034932E+04 0.  0.
        2    1    3    3  502    0  0.10890458468E+04 -0.93755116123E+02 -0.75498646088E+03  0.13284635615E+04  0.25500000920E-02 0. -1.
       -2    1    3    3    0  502 -0.10890458468E+04  0.93755116123E+02 -0.34799952463E+03  0.11471331864E+04  0.25500000920E-02 0.  1.
</event>
<event>
 5   0  0.7388013E-06  0.2870219E+04  0.7818609E-02  0.8281794E-01
       -1   -1    0    0    0  501  0.00000000000E+00  0.00000000000E+00  0.20472052489E+04  0.20472052489E+04  0.50400001928E-02 0. -1.
        1   -1    0    0  501    0  0.00000000000E+00  0.00000000000E+00 -0.10060246149E+04  0.10060246149E+04  0.50400001928E-02 0.  1.
    10030    2    1    2    0    0  0.00000000000E+00  0.00000000000E+00  0.10411806341E+04  0.30532298638E+04  0.28702187179E+04 0.  0.
        1    1    3    3  502    0  0.94383993591E+03 -0.21095903089E+03  0.16484798272E+04  0.19112360603E+04  0.50400001928E-02 0. -1.
       -1    1    3    3    0  502 -0.94383993591E+03  0.21095903089E+03 -0.60729919312E+03  0.11419938035E+04  0.50400001928E-02 0.  1.
</event>
<event>
 5   0  0.1874272E-05  0.2789446E+04  0.7818609E-02  0.8306552E-01
        2   -1    0    0  501    0  0.00000000000E+00  0.00000000000E+00  0.17034312504E+04  0.17034312504E+04  0.25500000920E-02 0.  1.
       -2   -1    0    0    0  501  0.00000000000E+00  0.00000000000E+00 -0.11419610086E+04  0.11419610086E+04  0.25500000920E-02 0. -1.
    10030    2    1    2    0    0  0.00000000000E+00  0.00000000000E+00  0.56147024185E+03  0.28453922590E+04  0.27894458724E+04 0.  0.
        3    1    3    3  502    0 -0.12383240195E+04  0.41211077366E+03 -0.22103560527E+03  0.13236836541E+04  0.10100000352E+00 0. -1.
       -3    1    3    3    0  502  0.12383240195E+04 -0.41211077366E+03  0.78250584712E+03  0.15217086049E+04  0.10100000352E+00 0.  1.
</event>
<event>
 5   0  0.1832502E-05  0.2745832E+04  0.7818609E-02  0.8320285E-01
       -2   -1    0    0    0  501  0.00000000000E+00  0.00000000000E+00  0.10543913351E+04  0.10543913351E+04  0.25500000920E-02 0.  1.
        2   -1    0    0  501    0  0.00000000000E+00  0.00000000000E+00 -0.17876647017E+04  0.17876647017E+04  0.25500000920E-02 0. -1.
    10030    2    1    2    0    0  0.00000000000E+00  0.00000000000E+00 -0.73327336659E+03  0.28420560368E+04  0.27458318751E+04 0.  0.
        2    1    3    3  502    0  0.77731601572E+03  0.89257870640E+03  0.35343039727E+03  0.12352449074E+04  0.25500000920E-02 0.  1.
       -2    1    3    3    0  502 -0.77731601572E+03 -0.89257870640E+03 -0.10867037639E+04  0.16068111295E+04  0.25500000920E-02 0. -1.
</event>
<event>
 5   0  0.7555871E-06  0.2845303E+04  0.7818609E-02  0.8289340E-01
        1   -1    0    0  501    0  0.00000000000E+00  0.00000000000E+00  0.16529624139E+04  0.16529624139E+04  0.50400001928E-02 0. -1.
       -1   -1    0    0    0  501  0.00000000000E+00  0.00000000000E+00 -0.12244299957E+04  0.12244299957E+04  0.50400001928E-02 0.  1.
    10030    2    1    2    0    0  0.00000000000E+00  0.00000000000E+00  0.42853241820E+03  0.28773924097E+04  0.28453026282E+04 0.  0.
        3    1    3    3  502    0  0.12721039217E+04  0.42341896875E+03  0.69545265612E+03  0.15103596982E+04  0.10100000352E+00 0. -1.
       -3    1    3    3    0  502 -0.12721039217E+04 -0.42341896875E+03 -0.26692023792E+03  0.13670327115E+04  0.10100000352E+00 0.  1.
</event>
<event>
 5   0  0.7613444E-06  0.2897898E+04  0.7818609E-02  0.8273503E-01
       -1   -1    0    0    0  501  0.00000000000E+00  0.00000000000E+00  0.99113591572E+03  0.99113591573E+03  0.50400001928E-02 0.  1.
        1   -1    0    0  501    0  0.00000000000E+00  0.00000000000E+00 -0.21182289441E+04  0.21182289441E+04  0.50400001928E-02 0. -1.
    10030    2    1    2    0    0  0.00000000000E+00  0.00000000000E+00 -0.11270930284E+04  0.31093648598E+04  0.28978977099E+04 0.  0.
        5    1    3    3  502    0  0.11812457417E+03 -0.56281049705E+02 -0.21118685614E+04  0.21159234112E+04  0.46999998093E+01 0. -1.
       -5    1    3    3    0  502 -0.11812457417E+03  0.56281049705E+02  0.98477553297E+03  0.99344144866E+03  0.46999998093E+01 0.  1.
</event>
<event>
 5   0  0.7509685E-06  0.2810225E+04  0.7818609E-02  0.8300101E-01
        1   -1    0    0  501    0  0.00000000000E+00  0.00000000000E+00  0.16945011452E+04  0.16945011452E+04  0.50400001928E-02 0.  1.
       -1   -1    0    0    0  501  0.00000000000E+00  0.00000000000E+00 -0.11651459401E+04  0.11651459401E+04  0.50400001928E-02 0. -1.
    10030    2    1    2    0    0  0.00000000000E+00  0.00000000000E+00  0.52935520510E+03  0.28596470853E+04  0.28102249945E+04 0.  0.
        4    1    3    3  502    0 -0.33822775836E+03  0.66649586575E+03 -0.94608991501E+03  0.12056958554E+04  0.12699999809E+01 0. -1.
       -4    1    3    3    0  502  0.33822775836E+03 -0.66649586575E+03  0.14754451201E+04  0.16539512299E+04  0.12699999809E+01 0.  1.
</event>
<event>
 5   0  0.1874272E-05  0.2801961E+04  0.7818609E-02  0.8302660E-01
       -2   -1    0    0    0  501  0.00000000000E+00  0.00000000000E+00  0.80341186395E+03  0.80341186395E+03  0.25500000920E-02 0.  1.
        2   -1    0    0  501    0  0.00000000000E+00  0.00000000000E+00 -0.24430137586E+04  0.24430137586E+04  0.25500000920E-02 0. -1.
    10030    2    1    2    0    0  0.00000000000E+00  0.00000000000E+00 -0.16396018946E+04  0.32464256225E+04  0.28019609115E+04 0.  0.
        3    1    3    3  502    0  0.12947634383E+03  0.11220286736E+04  0.14055542826E+03  0.11381864112E+04  0.10100000352E+00 0.  1.
       -3    1    3    3    0  502 -0.12947634383E+03 -0.11220286736E+04 -0.17801573229E+04  0.21082392114E+04  0.10100000352E+00 0. -1.
</event>
<event>
 5   0  0.1832502E-05  0.2932105E+04  0.7818609E-02  0.8263389E-01
        2   -1    0    0  501    0  0.00000000000E+00  0.00000000000E+00  0.18726648391E+04  0.18726648391E+04  0.25500000920E-02 0. -1.
       -2   -1    0    0    0  501  0.00000000000E+00  0.00000000000E+00 -0.11477281382E+04  0.11477281382E+04  0.25500000920E-02 0.  1.
    10030    2    1    2    0    0  0.00000000000E+00  0.00000000000E+00  0.72493670089E+03  0.30203929772E+04  0.29321051339E+04 0.  0.
        2    1    3    3  502    0  0.26927124764E+02  0.12032050588E+04 -0.49992731839E+03  0.13032094257E+04  0.25500000920E-02 0.  1.
       -2    1    3    3    0  502 -0.26927124764E+02 -0.12032050588E+04  0.12248640193E+04  0.17171835515E+04  0.25500000920E-02 0. -1.
</event>
<event>
 5   0  0.1923559E-05  0.2855018E+04  0.7818609E-02  0.8286388E-01
        2   -1    0    0  501    0  0.00000000000E+00  0.00000000000E+00  0.12271507462E+04  0.12271507462E+04  0.25500000920E-02 0.  1.
       -2   -1    0    0    0  501  0.00000000000E+00  0.00000000000E+00 -0.16605803308E+04  0.16605803308E+04  0.25500000920E-02 0. -1.
    10030    2    1    2    0    0  0.00000000000E+00  0.00000000000E+00 -0.43342958462E+03  0.28877310770E+04  0.28550183131E+04 0.  0.
        4    1    3    3  502    0 -0.78877014425E+01 -0.12730131010E+03 -0.16548049406E+04  0.16597134824E+04  0.12699999809E+01 0. -1.
       -4    1    3    3    0  502  0.78877014425E+01  0.12730131010E+03  0.12213753560E+04  0.12280175946E+04  0.12699999809E+01 0.  1.
</event>
<event>
 5   0  0.7681342E-06  0.2834755E+04  0.7818609E-02  0.8292559E-01
        1   -1    0    0  501    0  0.00000000000E+00  0.00000000000E+00  0.27192084051E+04  0.27192084051E+04  0.50400001928E-02 0.  1.
       -1   -1    0    0    0  501  0.00000000000E+00  0.00000000000E+00 -0.73880308397E+03  0.73880308399E+03  0.50400001928E-02 0. -1.
    10030    2    1    2    0    0  0.00000000000E+00  0.00000000000E+00  0.19804053211E+04  0.34580114891E+04  0.28347554079E+04 0.  0.
        2    1    3    3  502    0 -0.48906889563E+03  0.98971568898E+03 -0.94195325176E+02  0.11079703466E+04  0.25500000920E-02 0. -1.
       -2    1    3    3    0  502  0.48906889563E+03 -0.98971568898E+03  0.20746006463E+04  0.23500411425E+04  0.25500000920E-02 0.  1.
</event>
<event>
 5   0  0.1874272E-05  0.2805262E+04  0.7818609E-02  0.8301637E-01
        2   -1    0    0  501    0  0.00000000000E+00  0.00000000000E+00  0.12261823948E+04  0.12261823948E+04  0.25500000920E-02 0. -1.
       -2   -1    0    0    0  501  0.00000000000E+00  0.00000000000E+00 -0.16044706537E+04  0.16044706537E+04  0.25500000920E-02 0.  1.
    10030    2    1    2    0    0  0.00000000000E+00  0.00000000000E+00 -0.37828825884E+03  0.28306530485E+04  0.28052619618E+04 0.  0.
        3    1    3    3  502    0 -0.11831373881E+04  0.27931847689E+03 -0.89514892463E+03  0.15096769516E+04  0.10100000352E+00 0.  1.
       -3    1    3    3    0  502  0.11831373881E+04 -0.27931847689E+03  0.51686066580E+03  0.13209760969E+04  0.10100000352E+00 0. -1.
</event>
<event>
 5   0  0.1832502E-05  0.2718383E+04  0.7818609E-02  0.8329065E-01
       -2   -1    0    0    0  501  0.00000000000E+00  0.00000000000E+00  0.89555821959E+03  0.89555821959E+03  0.25500000920E-02 0.  1.
        2   -1    0    0  501    0  0.00000000000E+00  0.00000000000E+00 -0.20628494286E+04  0.20628494286E+04  0.25500000920E-02 0. -1.
    10030    2    1    2    0    0  0.00000000000E+00  0.00000000000E+00 -0.11672912090E+04  0.29584076482E+04  0.27183831677E+04 0.  0.
        2    1    3    3  502    0  0.53280945421E+03  0.11821644724E+04 -0.14023576926E+03  0.13042487590E+04  0.25500000920E-02 0. -1.
       -2    1    3    3    0  502 -0.53280945421E+03 -0.11821644724E+04 -0.10270554398E+04  0.16541588892E+04  0.25500000920E-02 0.  1.
</event>
<event>
 5   0  0.7388013E-06  0.1725289E+04  0.7818609E-02  0.8747071E-01
       -1   -1    0    0    0  501  0.00000000000E+00  0.00000000000E+00  0.74358385096E+03  0.74358385097E+03  0.50400001928E-02 0. -1.
        1   -1    0    0  501    0  0.00000000000E+00  0.00000000000E+00 -0.10007687730E+04  0.10007687730E+04  0.50400001928E-02 0.  1.
    10030    2    1    2    0    0  0.00000000000E+00  0.00000000000E+00 -0.25718492207E+03  0.17443526240E+04  0.17252889592E+04 0.  0.
        1    1    3    3  502    0  0.17402468086E+03  0.49826853249E+03  0.56129561003E+03  0.77046017540E+03  0.50400001928E-02 0. -1.
       -1    1    3    3    0  502 -0.17402468086E+03 -0.49826853249E+03 -0.81848053210E+03  0.97389244861E+03  0.50400001928E-02 0.  1.
</event>
<event>
 5   0  0.7613444E-06  0.2633030E+04  0.7818609E-02  0.8357067E-01
       -1   -1    0    0    0  501  0.00000000000E+00  0.00000000000E+00  0.10334062589E+04  0.10334062589E+04  0.50400001928E-02 0. -1.
        1   -1    0    0  501    0  0.00000000000E+00  0.00000000000E+00 -0.16771837933E+04  0.16771837933E+04  0.50400001928E-02 0.  1.
    10030    2    1    2    0    0  0.00000000000E+00  0.00000000000E+00 -0.64377753441E+03  0.27105900523E+04  0.26330303678E+04 0.  0.
        5    1    3    3  502    0 -0.13055799555E+04  0.12782551593E+03 -0.20766197361E+03  0.13281656402E+04  0.46999998093E+01 0.  1.
       -5    1    3    3    0  502  0.13055799555E+04 -0.12782551593E+03 -0.43611556080E+03  0.13824244120E+04  0.46999998093E+01 0. -1.
</event>
<event>
 5   0  0.7509685E-06  0.2757663E+04  0.7818609E-02  0.8316534E-01
        1   -1    0    0  501    0  0.00000000000E+00  0.00000000000E+00  0.11292973525E+04  0.11292973526E+04  0.50400001928E-02 0.  1.
       -1   -1    0    0    0  501  0.00000000000E+00  0.00000000000E+00 -0.16835034001E+04  0.16835034001E+04  0.50400001928E-02 0. -1.
    10030    2    1    2    0    0  0.00000000000E+00  0.00000000000E+00 -0.55420604756E+03  0.28128007527E+04  0.27576627298E+04 0.  0.
        4    1    3    3  502    0  0.68721633276E+03  0.64881827026E+03  0.74693428968E+03  0.12046343353E+04  0.12699999809E+01 0.  1.
       -4    1    3    3    0  502 -0.68721633276E+03 -0.64881827026E+03 -0.13011403372E+04  0.16081664174E+04  0.12699999809E+01 0. -1.
</event>
<event>
 5   0  0.7555871E-06  0.2649198E+04  0.7818609E-02  0.8351679E-01
        1   -1    0    0  501    0  0.00000000000E+00  0.00000000000E+00  0.12432262329E+04  0.12432262330E+04  0.50400001928E-02 0.  1.
       -1   -1    0    0    0  501  0.00000000000E+00  0.00000000000E+00 -0.14112980207E+04  0.14112980207E+04  0.50400001928E-02 0. -1.
    10030    2    1    2    0    0  0.00000000000E+00  0.00000000000E+00 -0.16807178773E+03  0.26545242536E+04  0.26491981593E+04 0.  0.
        3    1    3    3  502    0  0.64777838357E+03  0.47084905409E+03  0.97319057764E+03  0.12603235999E+04  0.10100000352E+00 0.  1.
       -3    1    3    3    0  502 -0.64777838357E+03 -0.47084905409E+03 -0.11412623654E+04  0.13942006537E+04  0.10100000352E+00 0. -1.
</event>
<event>
 5   0  0.1874272E-05  0.2778829E+04  0.7818609E-02  0.8309871E-01
        2   -1    0    0  501    0  0.00000000000E+00  0.00000000000E+00  0.19774779094E+04  0.19774779094E+04  0.25500000920E-02 0. -1.
       -2   -1    0    0    0  501  0.00000000000E+00  0.00000000000E+00 -0.97622954446E+03  0.97622954446E+03  0.25500000920E-02 0.  1.
    10030    2    1    2    0    0  0.00000000000E+00  0.00000000000E+00  0.10012483649E+04  0.29537074539E+04  0.27788287883E+04 0.  0.
        3    1    3    3  502    0 -0.10388407102E+04 -0.61944570111E+03 -0.22619889331E+03  0.12304750901E+04  0.10100000352E+00 0.  1.
       -3    1    3    3    0  502  0.10388407102E+04  0.61944570111E+03  0.12274472583E+04  0.17232323638E+04  0.10100000352E+00 0. -1.
</event>
<event>
 5   0  0.7681342E-06  0.2877897E+04  0.7818609E-02  0.8279484E-01
       -1   -1    0    0    0  501  0.00000000000E+00  0.00000000000E+00  0.14712883829E+04  0.14712883829E+04  0.50400001928E-02 0.  1.
        1   -1    0    0  501    0  0.00000000000E+00  0.00000000000E+00 -0.14073195592E+04  0.14073195592E+04  0.50400001928E-02 0. -1.
    10030    2    1    2    0    0  0.00000000000E+00  0.00000000000E+00  0.63968823740E+02  0.28786079421E+04  0.28778970923E+04 0.  0.
        2    1    3    3  502    0  0.13407862862E+04  0.39013509666E+03  0.37943120428E+03  0.14470249817E+04  0.25500000920E-02 0.  1.
       -2    1    3    3    0  502 -0.13407862862E+04 -0.39013509666E+03 -0.31546238054E+03  0.14315829604E+04  0.25500000920E-02 0. -1.
</event>
<event>
 5   0  0.1904553E-05  0.2817301E+04  0.7818609E-02  0.8297917E-01
       -2   -1    0    0    0  501  0.00000000000E+00  0.00000000000E+00  0.13572854571E+04  0.13572854571E+04  0.25500000920E-02 0. -1.
        2   -1    0    0  501    0  0.00000000000E+00  0.00000000000E+00 -0.14619596054E+04  0.14619596054E+04  0.25500000920E-02 0.  1.
    10030    2    1    2    0    0  0.00000000000E+00  0.00000000000E+00 -0.10467414830E+03  0.28192450626E+04  0.28173011989E+04 0.  0.
        1    1    3    3  502    0 -0.60085568035E+03  0.67771044617E+03  0.10272852189E+04  0.13695378485E+04  0.50400001928E-02 0. -1.
       -1    1    3    3    0  502  0.60085568035E+03 -0.67771044617E+03 -0.11319593672E+04  0.14497072141E+04  0.50400001928E-02 0.  1.
</event>
<event>
 5   0  0.7681342E-06  0.3027257E+04  0.7818609E-02  0.8235990E-01
        1   -1    0    0  501    0  0.00000000000E+00  0.00000000000E+00  0.15748984512E+04  0.15748984512E+04  0.50400001928E-02 0.  1.
       -1   -1    0    0    0  501  0.00000000000E+00  0.00000000000E+00 -0.14547425288E+04  0.14547425288E+04  0.50400001928E-02 0. -1.
    10030    2    1    2    0    0  0.00000000000E+00  0.00000000000E+00  0.12015592242E+03  0.30296409800E+04  0.30272573432E+04 0.  0.
        2    1    3    3  502    0  0.52962722698E+02  0.87612188789E+03 -0.11740504043E+04  0.14658748119E+04  0.25500000920E-02 0. -1.
       -2    1    3    3    0  502 -0.52962722698E+02 -0.87612188789E+03  0.12942063267E+04  0.15637661681E+04  0.25500000920E-02 0.  1.
</event>
<event>
 5   0  0.7555871E-06  0.2637299E+04  0.7818609E-02  0.8355641E-01
       -1   -1    0    0    0  501  0.00000000000E+00  0.00000000000E+00  0.97277969326E+03  0.97277969327E+03  0.50400001928E-02 0.  1.
        1   -1    0    0  501    0  0.00000000000E+00  0.00000000000E+00 -0.17874931499E+04  0.17874931499E+04  0.50400001928E-02 0. -1.
    10030    2    1    2    0    0  0.00000000000E+00  0.00000000000E+00 -0.81471345662E+03  0.27602728432E+04  0.26372994051E+04 0.  0.
        3    1    3    3  502    0 -0.18622312759E+03  0.54343217643E+03  0.83493423769E+03  0.10134657247E+04  0.10100000352E+00 0.  1.
       -3    1    3    3    0  502  0.18622312759E+03 -0.54343217643E+03 -0.16496476943E+04  0.17468071185E+04  0.10100000352E+00 0. -1.
</event>
<event>
 5   0  0.1923559E-05  0.2751587E+04  0.7818609E-02  0.8318458E-01
        2   -1    0    0  501    0  0.00000000000E+00  0.00000000000E+00  0.21716233520E+04  0.21716233520E+04  0.25500000920E-02 0. -1.
       -2   -1    0    0    0  501  0.00000000000E+00  0.00000000000E+00 -0.87160942944E+03  0.87160942945E+03  0.25500000920E-02 0.  1.
    10030    2    1    2    0    0  0.00000000000E+00  0.00000000000E+00  0.13000139225E+04  0.30432327814E+04  0.27515867355E+04 0.  0.
        4    1    3    3  502    0  0.42485368229E+03 -0.13011404197E+04  0.80381038198E+03  0.15873184262E+04  0.12699999809E+01 0.  1.
       -4    1    3    3    0  502 -0.42485368229E+03  0.13011404197E+04  0.49620354054E+03  0.14559143552E+04  0.12699999809E+01 0. -1.
</event>
<event>
 5   0  0.7509685E-06  0.2794903E+04  0.7818609E-02  0.8304852E-01
        1   -1    0    0  501    0  0.00000000000E+00  0.00000000000E+00  0.97838139844E+03  0.97838139846E+03  0.50400001928E-02 0. -1.
       -1   -1    0    0    0  501  0.00000000000E+00  0.00000000000E+00 -0.19960222517E+04  0.19960222517E+04  0.50400001928E-02 0.  1.
    10030    2    1    2    0    0  0.00000000000E+00  0.00000000000E+00 -0.10176408532E+04  0.29744036501E+04  0.27949032484E+04 0.  0.
        4    1    3    3  502    0 -0.78972981758E+03  0.11497258126E+04 -0.59991453614E+03  0.15183681018E+04  0.12699999809E+01 0.  1.
       -4    1    3    3    0  502  0.78972981758E+03 -0.11497258126E+04 -0.41772631707E+03  0.14560355483E+04  0.12699999809E+01 0. -1.
</event>
<event>
 5   0  0.1832502E-05  0.2790731E+04  0.7818609E-02  0.8306152E-01
        2   -1    0    0  501    0  0.00000000000E+00  0.00000000000E+00  0.15284366831E+04  0.15284366831E+04  0.25500000920E-02 0. -1.
       -2   -1    0    0    0  501  0.00000000000E+00  0.00000000000E+00 -0.12738796935E+04  0.12738796935E+04  0.25500000920E-02 0.  1.
    10030    2    1    2    0    0  0.00000000000E+00  0.00000000000E+00  0.25455698961E+03  0.28023163766E+04  0.27907306953E+04 0.  0.
        2    1    3    3  502    0 -0.29779242727E+02  0.39371719060E+03  0.14711710197E+04  0.15232347812E+04  0.25500000920E-02 0. -1.
       -2    1    3    3    0  502  0.29779242727E+02 -0.39371719060E+03 -0.12166140301E+04  0.12790815954E+04  0.25500000920E-02 0.  1.
</event>
<event>
 5   0  0.7613444E-06  0.2729020E+04  0.7818609E-02  0.8325650E-01
        1   -1    0    0  501    0  0.00000000000E+00  0.00000000000E+00  0.12962559246E+04  0.12962559246E+04  0.50400001928E-02 0.  1.
       -1   -1    0    0    0  501  0.00000000000E+00  0.00000000000E+00 -0.14363583465E+04  0.14363583465E+04  0.50400001928E-02 0. -1.
    10030    2    1    2    0    0  0.00000000000E+00  0.00000000000E+00 -0.14010242196E+03  0.27326142711E+04  0.27290203491E+04 0.  0.
        5    1    3    3  502    0 -0.10276405750E+04 -0.68192677615E+03 -0.65459791325E+03  0.13962771206E+04  0.46999998093E+01 0. -1.
       -5    1    3    3    0  502  0.10276405750E+04  0.68192677615E+03  0.51449549129E+03  0.13363371505E+04  0.46999998093E+01 0.  1.
</event>
<event>
 5   0  0.1874272E-05  0.2765626E+04  0.7818609E-02  0.8314020E-01
       -2   -1    0    0    0  501  0.00000000000E+00  0.00000000000E+00  0.16471524754E+04  0.16471524754E+04  0.25500000920E-02 0. -1.
        2   -1    0    0  501    0  0.00000000000E+00  0.00000000000E+00 -0.11608955283E+04  0.11608955283E+04  0.25500000920E-02 0.  1.
    10030    2    1    2    0    0  0.00000000000E+00  0.00000000000E+00  0.48625694712E+03  0.28080480037E+04  0.27656261085E+04 0.  0.
        3    1    3    3  502    0  0.34662354775E+03  0.82277873071E+03 -0.82903257614E+03  0.12183627317E+04  0.10100000352E+00 0.  1.
       -3    1    3    3    0  502 -0.34662354775E+03 -0.82277873071E+03  0.13152895233E+04  0.15896852719E+04  0.10100000352E+00 0. -1.
</event>
<event>
 5   0  0.7681342E-06  0.2767150E+04  0.7818609E-02  0.8313540E-01
       -1   -1    0    0    0  501  0.00000000000E+00  0.00000000000E+00  0.86575316244E+03  0.86575316245E+03  0.50400001928E-02 0.  1.
        1   -1    0    0  501    0  0.00000000000E+00  0.00000000000E+00 -0.22111150595E+04  0.22111150595E+04  0.50400001928E-02 0. -1.
    10030    2    1    2    0    0  0.00000000000E+00  0.00000000000E+00 -0.13453618971E+04  0.30768682220E+04  0.27671500540E+04 0.  0.
        2    1    3    3  502    0 -0.10042739998E+04  0.84542838389E+03 -0.18677475599E+03  0.13259714282E+04  0.25500000920E-02 0.  1.
       -2    1    3    3    0  502  0.10042739998E+04 -0.84542838389E+03 -0.11585871411E+04  0.17508967938E+04  0.25500000920E-02 0. -1.
</event>
<event>
 5   0  0.1832502E-05  0.3194816E+04  0.7818609E-02  0.8190188E-01
       -2   -1    0    0    0  501  0.00000000000E+00  0.00000000000E+00  0.13307932263E+04  0.13307932263E+04  0.25500000920E-02 0. -1.
        2   -1    0    0  501    0  0.00000000000E+00  0.00000000000E+00 -0.19174372174E+04  0.19174372174E+04  0.25500000920E-02 0.  1.
    10030    2    1    2    0    0  0.00000000000E+00  0.00000000000E+00 -0.58664399102E+03  0.32482304437E+04  0.31948160891E+04 0.  0.
        2    1    3    3  502    0  0.14752202284E+04  0.50493613587E+03  0.59579476089E+02  0.15603797415E+04  0.25500000920E-02 0. -1.
       -2    1    3    3    0  502 -0.14752202284E+04 -0.50493613587E+03 -0.64622346711E+03  0.16878507022E+04  0.25500000920E-02 0.  1.
</event>
<event>
 5   0  0.1904553E-05  0.2832520E+04  0.7818609E-02  0.8293243E-01
        2   -1    0    0  501    0  0.00000000000E+00  0.00000000000E+00  0.14069791864E+04  0.14069791864E+04  0.25500000920E-02 0.  1.
       -2   -1    0    0    0  501  0.00000000000E+00  0.00000000000E+00 -0.14256016159E+04  0.14256016159E+04  0.25500000920E-02 0. -1.
    10030    2    1    2    0    0  0.00000000000E+00  0.00000000000E+00 -0.18622429529E+02  0.28325808023E+04  0.28325195863E+04 0.  0.
        1    1    3    3  502    0 -0.52802345121E+03  0.11954030578E+04  0.53658936829E+03  0.14127014496E+04  0.50400001928E-02 0.  1.
       -1    1    3    3    0  502  0.52802345121E+03 -0.11954030578E+04 -0.55521179782E+03  0.14198793526E+04  0.50400001928E-02 0. -1.
</event>
<event>
 5   0  0.7555871E-06  0.2903397E+04  0.7818609E-02  0.8271868E-01
       -1   -1    0    0    0  501  0.00000000000E+00  0.00000000000E+00  0.12551340302E+04  0.12551340302E+04  0.50400001928E-02 0.  1.
        1   -1    0    0  501    0  0.00000000000E+00  0.00000000000E+00 -0.16790463915E+04  0.16790463915E+04  0.50400001928E-02 0. -1.
    10030    2    1    2    0    0  0.00000000000E+00  0.00000000000E+00 -0.42391236133E+03  0.29341804217E+04  0.29033968136E+04 0.  0.
        3    1    3    3  502    0 -0.60850482377E+03  0.95321053852E+03  0.70793638158E+03  0.13341897848E+04  0.10100000352E+00 0.  1.
       -3    1    3    3    0  502  0.60850482377E+03 -0.95321053852E+03 -0.11318487429E+04  0.15999906369E+04  0.10100000352E+00 0. -1.
</event>
<event>
 5   0  0.7509685E-06  0.2812514E+04  0.7818609E-02  0.8299394E-01
       -1   -1    0    0    0  501  0.00000000000E+00  0.00000000000E+00  0.11832767216E+04  0.11832767216E+04  0.50400001928E-02 0.  1.
        1   -1    0    0  501    0  0.00000000000E+00  0.00000000000E+00 -0.16712562702E+04  0.16712562702E+04  0.50400001928E-02 0. -1.
    10030    2    1    2    0    0  0.00000000000E+00  0.00000000000E+00 -0.48797954863E+03  0.28545329919E+04  0.28125139221E+04 0.  0.
        4    1    3    3  502    0  0.62131532579E+03 -0.11299884523E+04  0.32532771295E+03  0.13299422432E+04  0.12699999809E+01 0.  1.
       -4    1    3    3    0  502 -0.62131532579E+03  0.11299884523E+04 -0.81330726158E+03  0.15245907487E+04  0.12699999809E+01 0. -1.
</event>
<event>
 5   0  0.1832502E-05  0.2750198E+04  0.7818609E-02  0.8318899E-01
       -2   -1    0    0    0  501  0.00000000000E+00  0.00000000000E+00  0.78890197002E+03  0.78890197002E+03  0.25500000920E-02 0. -1.
        2   -1    0    0  501    0  0.00000000000E+00  0.00000000000E+00 -0.23968724392E+04  0.23968724392E+04  0.25500000920E-02 0.  1.
    10030    2    1    2    0    0  0.00000000000E+00  0.00000000000E+00 -0.16079704692E+04  0.31857744092E+04  0.27501980941E+04 0.  0.
        2    1    3    3  502    0  0.12060799184E+04  0.49419329915E+03 -0.13116168980E+04  0.18491064528E+04  0.25500000920E-02 0.  1.
       -2    1    3    3    0  502 -0.12060799184E+04 -0.49419329915E+03 -0.29635357112E+03  0.13366679564E+04  0.25500000920E-02 0. -1.
</event>
<event>
 5   0  0.1923559E-05  0.2885991E+04  0.7818609E-02  0.8277058E-01
       -2   -1    0    0    0  501  0.00000000000E+00  0.00000000000E+00  0.11038822238E+04  0.11038822239E+04  0.25500000920E-02 0.  1.
        2   -1    0    0  501    0  0.00000000000E+00  0.00000000000E+00 -0.18862840919E+04  0.18862840919E+04  0.25500000920E-02 0. -1.
    10030    2    1    2    0    0  0.00000000000E+00  0.00000000000E+00 -0.78240186801E+03  0.29901663157E+04  0.28859906293E+04 0.  0.
        4    1    3    3  502    0  0.91957847405E+03 -0.11117422632E+04 -0.36502158004E+03  0.14882331123E+04  0.12699999809E+01 0.  1.
       -4    1    3    3    0  502 -0.91957847405E+03  0.11117422632E+04 -0.41738028797E+03  0.15019332034E+04  0.12699999809E+01 0. -1.
</event>
<event>
 5   0  0.1874272E-05  0.2803081E+04  0.7818609E-02  0.8302312E-01
        2   -1    0    0  501    0  0.00000000000E+00  0.00000000000E+00  0.17142564599E+04  0.17142564599E+04  0.25500000920E-02 0. -1.
       -2   -1    0    0    0  501  0.00000000000E+00  0.00000000000E+00 -0.11458705057E+04  0.11458705057E+04  0.25500000920E-02 0.  1.
    10030    2    1    2    0    0  0.00000000000E+00  0.00000000000E+00  0.56838595421E+03  0.28601269656E+04  0.28030811024E+04 0.  0.
        3    1    3    3  502    0 -0.60220013489E+03 -0.59521305402E+02 -0.10057052488E+04  0.11737252004E+04  0.10100000352E+00 0.  1.
       -3    1    3    3    0  502  0.60220013489E+03  0.59521305402E+02  0.15740912030E+04  0.16864017653E+04  0.10100000352E+00 0. -1.
</event>
<event>
 5   0  0.1814230E-05  0.2816099E+04  0.7818609E-02  0.8298288E-01
       -2   -1    0    0    0  501  0.00000000000E+00  0.00000000000E+00  0.80922352881E+03  0.80922352882E+03  0.25500000920E-02 0. -1.
        2   -1    0    0  501    0  0.00000000000E+00  0.00000000000E+00 -0.24500064475E+04  0.24500064475E+04  0.25500000920E-02 0.  1.
    10030    2    1    2    0    0  0.00000000000E+00  0.00000000000E+00 -0.16407829187E+04  0.32592299763E+04  0.28160986226E+04 0.  0.
        5    1    3    3  502    0 -0.13431719087E+04  0.29327436275E+03 -0.11723118495E+04  0.18067810578E+04  0.46999998093E+01 0. -1.
       -5    1    3    3    0  502  0.13431719087E+04 -0.29327436275E+03 -0.46847106918E+03  0.14524489185E+04  0.46999998093E+01 0.  1.
</event>
<event>
 5   0  0.7509685E-06  0.2830792E+04  0.7818609E-02  0.8293772E-01
        1   -1    0    0  501    0  0.00000000000E+00  0.00000000000E+00  0.17120377884E+04  0.17120377884E+04  0.50400001928E-02 0. -1.
       -1   -1    0    0    0  501  0.00000000000E+00  0.00000000000E+00 -0.11701531813E+04  0.11701531813E+04  0.50400001928E-02 0.  1.
    10030    2    1    2    0    0  0.00000000000E+00  0.00000000000E+00  0.54188460714E+03  0.28821909697E+04  0.28307924436E+04 0.  0.
        4    1    3    3  502    0 -0.79310006909E+03  0.31731606639E+03  0.14199934865E+04  0.16571301458E+04  0.12699999809E+01 0. -1.
       -4    1    3    3    0  502  0.79310006909E+03 -0.31731606639E+03 -0.87810887931E+03  0.12250608240E+04  0.12699999809E+01 0.  1.
</event>
<event>
 5   0  0.7613444E-06  0.2818890E+04  0.7818609E-02  0.8297428E-01
        1   -1    0    0  501    0  0.00000000000E+00  0.00000000000E+00  0.15946693501E+04  0.15946693501E+04  0.50400001928E-02 0. -1.
       -1   -1    0    0    0  501  0.00000000000E+00  0.00000000000E+00 -0.12457347745E+04  0.12457347745E+04  0.50400001928E-02 0.  1.
    10030    2    1    2    0    0  0.00000000000E+00  0.00000000000E+00  0.34893457559E+03  0.28404041246E+04  0.28188898973E+04 0.  0.
        5    1    3    3  502    0 -0.13851578986E+04 -0.46644606106E+02 -0.83759662335E+02  0.13884797062E+04  0.46999998093E+01 0.  1.
       -5    1    3    3    0  502  0.13851578986E+04  0.46644606106E+02  0.43269423792E+03  0.14519244185E+04  0.46999998093E+01 0. -1.
</event>
<event>
 5   0  0.7388013E-06  0.2659670E+04  0.7818609E-02  0.8348210E-01
       -1   -1    0    0    0  501  0.00000000000E+00  0.00000000000E+00  0.11819380916E+04  0.11819380916E+04  0.50400001928E-02 0. -1.
        1   -1    0    0  501    0  0.00000000000E+00  0.00000000000E+00 -0.14962387231E+04  0.14962387231E+04  0.50400001928E-02 0.  1.
    10030    2    1    2    0    0  0.00000000000E+00  0.00000000000E+00 -0.31430063148E+03  0.26781768147E+04  0.26596703111E+04 0.  0.
        1    1    3    3  502    0 -0.12369338773E+04 -0.27177397248E+03 -0.56567641008E+03  0.13870314740E+04  0.50400001928E-02 0.  1.
       -1    1    3    3    0  502  0.12369338773E+04  0.27177397248E+03  0.25137577860E+03  0.12911453407E+04  0.50400001928E-02 0. -1.
</event>
<event>
 5   0  0.1923559E-05  0.2866637E+04  0.7818609E-02  0.8282874E-01
       -2   -1    0    0    0  501  0.00000000000E+00  0.00000000000E+00  0.11326602466E+04  0.11326602466E+04  0.25500000920E-02 0.  1.
        2   -1    0    0  501    0  0.00000000000E+00  0.00000000000E+00 -0.18137845635E+04  0.18137845635E+04  0.25500000920E-02 0. -1.
    10030    2    1    2    0    0  0.00000000000E+00  0.00000000000E+00 -0.68112431692E+03  0.29464448101E+04  0.28666368245E+04 0.  0.
        4    1    3    3  502    0 -0.77322916658E+03 -0.11147298403E+04 -0.81592478611E+03  0.15831111238E+04  0.12699999809E+01 0.  1.
       -4    1    3    3    0  502  0.77322916658E+03  0.11147298403E+04  0.13480046919E+03  0.13633336863E+04  0.12699999809E+01 0. -1.
</event>
<event>
 5   0  0.1923559E-05  0.2754064E+04  0.7818609E-02  0.8317673E-01
        2   -1    0    0  501    0  0.00000000000E+00  0.00000000000E+00  0.16527803635E+04  0.16527803636E+04  0.25500000920E-02 0.  1.
       -2   -1    0    0    0  501  0.00000000000E+00  0.00000000000E+00 -0.11472893854E+04  0.11472893854E+04  0.25500000920E-02 0. -1.
    10030    2    1    2    0    0  0.00000000000E+00  0.00000000000E+00  0.50549097814E+03  0.28000697490E+04  0.27540641732E+04 0.  0.
        4    1    3    3  502    0 -0.11015547615E+04  0.82621674531E+03  0.26555563901E+03  0.14023474652E+04  0.12699999809E+01 0.  1.
       -4    1    3    3    0  502  0.11015547615E+04 -0.82621674531E+03  0.23993533913E+03  0.13977222838E+04  0.12699999809E+01 0. -1.
</event>
<event>
 5   0  0.6288000E-06  0.2955055E+04  0.7818609E-02  0.8256683E-01
        3   -1    0    0  501    0  0.00000000000E+00  0.00000000000E+00  0.12195389594E+04  0.12195389636E+04  0.10100000352E+00 0.  1.
       -3   -1    0    0    0  501  0.00000000000E+00  0.00000000000E+00 -0.17900928245E+04  0.17900928273E+04  0.10100000352E+00 0. -1.
    10030    2    1    2    0    0  0.00000000000E+00  0.00000000000E+00 -0.57055386504E+03  0.30096317910E+04  0.29550552963E+04 0.  0.
        5    1    3    3  502    0 -0.66092701759E+03 -0.13120486028E+04 -0.12498597485E+03  0.14744285818E+04  0.46999998093E+01 0.  1.
       -5    1    3    3    0  502  0.66092701759E+03  0.13120486028E+04 -0.44556789019E+03  0.15352032092E+04  0.46999998093E+01 0. -1.
</event>
<event>
 5   0  0.1832502E-05  0.2749947E+04  0.7818609E-02  0.8318979E-01
       -2   -1    0    0    0  501  0.00000000000E+00  0.00000000000E+00  0.12913581295E+04  0.12913581295E+04  0.25500000920E-02 0. -1.
        2   -1    0    0  501    0  0.00000000000E+00  0.00000000000E+00 -0.14640028267E+04  0.14640028267E+04  0.25500000920E-02 0.  1.
    10030    2    1    2    0    0  0.00000000000E+00  0.00000000000E+00 -0.17264469715E+03  0.27553609562E+04  0.27499468735E+04 0.  0.
        2    1    3    3  502    0  0.78556905549E+03 -0.97222136736E+03  0.48770943393E+03  0.13417129425E+04  0.25500000920E-02 0. -1.
       -2    1    3    3    0  502 -0.78556905549E+03  0.97222136736E+03 -0.66035413109E+03  0.14136480137E+04  0.25500000920E-02 0.  1.
</event>
<event>
 5   0  0.7681342E-06  0.2676016E+04  0.7818609E-02  0.8342829E-01
       -1   -1    0    0    0  501  0.00000000000E+00  0.00000000000E+00  0.10740872497E+04  0.10740872498E+04  0.50400001928E-02 0. -1.
        1   -1    0    0  501    0  0.00000000000E+00  0.00000000000E+00 -0.16667789619E+04  0.16667789619E+04  0.50400001928E-02 0.  1.
    10030    2    1    2    0    0  0.00000000000E+00  0.00000000000E+00 -0.59269171214E+03  0.27408662116E+04  0.26760164657E+04 0.  0.
        2    1    3    3  502    0  0.43217620639E+03  0.50052124219E+03 -0.14877054248E+04  0.16280556558E+04  0.25500000920E-02 0.  1.
       -2    1    3    3    0  502 -0.43217620639E+03 -0.50052124219E+03  0.89501371271E+03  0.11128105558E+04  0.25500000920E-02 0. -1.
</event>
<event>
 5   0  0.7555871E-06  0.1834521E+04  0.7818609E-02  0.8688154E-01
       -1   -1    0    0    0  501  0.00000000000E+00  0.00000000000E+00  0.80862627609E+03  0.80862627610E+03  0.50400001928E-02 0.  1.
        1   -1    0    0  501    0  0.00000000000E+00  0.00000000000E+00 -0.10404887379E+04  0.10404887379E+04  0.50400001928E-02 0. -1.
    10030    2    1    2    0    0  0.00000000000E+00  0.00000000000E+00 -0.23186246179E+03  0.18491150140E+04  0.18345206823E+04 0.  0.
        3    1    3    3  502    0 -0.97756788282E+02  0.67953105358E+03 -0.72908606405E+03  0.10014416316E+04  0.10100000352E+00 0. -1.
       -3    1    3    3    0  502  0.97756788282E+02 -0.67953105358E+03  0.49722360226E+03  0.84767338243E+03  0.10100000352E+00 0.  1.
</event>
<event>
 5   0  0.1814230E-05  0.2830246E+04  0.7818609E-02  0.8293939E-01
       -2   -1    0    0    0  501  0.00000000000E+00  0.00000000000E+00  0.10708532275E+04  0.10708532275E+04  0.25500000920E-02 0. -1.
        2   -1    0    0  501    0  0.00000000000E+00  0.00000000000E+00 -0.18700728595E+04  0.18700728595E+04  0.25500000920E-02 0.  1.
    10030    2    1    2    0    0  0.00000000000E+00  0.00000000000E+00 -0.79921963204E+03  0.29409260870E+04  0.28302463195E+04 0.  0.
        5    1    3    3  502    0  0.88810129312E+03  0.36585124400E+03  0.68025108772E+03  0.11770024095E+04  0.46999998093E+01 0. -1.
       -5    1    3    3    0  502 -0.88810129312E+03 -0.36585124400E+03 -0.14794707198E+04  0.17639236775E+04  0.46999998093E+01 0.  1.
</event>
<event>
 5   0  0.1904553E-05  0.2801723E+04  0.7818609E-02  0.8302734E-01
       -2   -1    0    0    0  501  0.00000000000E+00  0.00000000000E+00  0.16006742111E+04  0.16006742111E+04  0.25500000920E-02 0.  1.
        2   -1    0    0  501    0  0.00000000000E+00  0.00000000000E+00 -0.12259911343E+04  0.12259911343E+04  0.25500000920E-02 0. -1.
    10030    2    1    2    0    0  0.00000000000E+00  0.00000000000E+00  0.37468307684E+03  0.28266653454E+04  0.28017226071E+04 0.  0.
        1    1    3    3  502    0 -0.80102756769E+03 -0.98835315651E+02 -0.96784044923E+03  0.12602097917E+04  0.50400001928E-02 0. -1.
       -1    1    3    3    0  502  0.80102756769E+03  0.98835315651E+02  0.13425235261E+04  0.15664555538E+04  0.50400001928E-02 0.  1.
</event>
<event>
 5   0  0.7509685E-06  0.2787292E+04  0.7818609E-02  0.8307225E-01
        1   -1    0    0  501    0  0.00000000000E+00  0.00000000000E+00  0.11902612829E+04  0.11902612829E+04  0.50400001928E-02 0. -1.
       -1   -1    0    0    0  501  0.00000000000E+00  0.00000000000E+00 -0.16317840745E+04  0.16317840745E+04  0.50400001928E-02 0.  1.
    10030    2    1    2    0    0  0.00000000000E+00  0.00000000000E+00 -0.44152279156E+03  0.28220453574E+04  0.27872921669E+04 0.  0.
        4    1    3    3  502    0  0.93056343930E+03  0.19419652779E+03 -0.12525791006E+04  0.15724556026E+04  0.12699999809E+01 0.  1.
       -4    1    3    3    0  502 -0.93056343930E+03 -0.19419652779E+03  0.81105630906E+03  0.12495897548E+04  0.12699999809E+01 0. -1.
</event>
<event>
 5   0  0.7509685E-06  0.2846856E+04  0.7818609E-02  0.8288867E-01
        1   -1    0    0  501    0  0.00000000000E+00  0.00000000000E+00  0.19853113447E+04  0.19853113447E+04  0.50400001928E-02 0.  1.
       -1   -1    0    0    0  501  0.00000000000E+00  0.00000000000E+00 -0.10205691544E+04  0.10205691544E+04  0.50400001928E-02 0. -1.
    10030    2    1    2    0    0  0.00000000000E+00  0.00000000000E+00  0.96474219026E+03  0.30058804991E+04  0.28468561750E+04 0.  0.
        4    1    3    3  502    0 -0.31642535540E+03 -0.11325855011E+04 -0.36447241837E+03  0.12311444592E+04  0.12699999809E+01 0. -1.
       -4    1    3    3    0  502  0.31642535540E+03  0.11325855011E+04  0.13292146086E+04  0.17747360399E+04  0.12699999809E+01 0.  1.
</event>
<event>
 5   0  0.7613444E-06  0.2790040E+04  0.7818609E-02  0.8306367E-01
       -1   -1    0    0    0  501  0.00000000000E+00  0.00000000000E+00  0.12676588440E+04  0.12676588440E+04  0.50400001928E-02 0.  1.
        1   -1    0    0  501    0  0.00000000000E+00  0.00000000000E+00 -0.15351775800E+04  0.15351775800E+04  0.50400001928E-02 0. -1.
    10030    2    1    2    0    0  0.00000000000E+00  0.00000000000E+00 -0.26751873601E+03  0.28028364240E+04  0.27900404559E+04 0.  0.
        5    1    3    3  502    0  0.30414095779E+03  0.29572812969E+03 -0.14688022155E+04  0.15288423357E+04  0.46999998093E+01 0. -1.
       -5    1    3    3    0  502 -0.30414095779E+03 -0.29572812969E+03  0.12012834795E+04  0.12739940883E+04  0.46999998093E+01 0.  1.
</event>
<event>
 5   0  0.1923559E-05  0.2707281E+04  0.7818609E-02  0.8332646E-01
        2   -1    0    0  501    0  0.00000000000E+00  0.00000000000E+00  0.92948032690E+03  0.92948032691E+03  0.25500000920E-02 0.  1.
       -2   -1    0    0    0  501  0.00000000000E+00  0.00000000000E+00 -0.19713629731E+04  0.19713629731E+04  0.25500000920E-02 0. -1.
    10030    2    1    2    0    0  0.00000000000E+00  0.00000000000E+00 -0.10418826462E+04  0.29008433000E+04  0.27072813675E+04 0.  0.
        4    1    3    3  502    0 -0.80298726391E+03 -0.60993824285E+03 -0.14885736932E+04  0.17979617513E+04  0.12699999809E+01 0. -1.
       -4    1    3    3    0  502  0.80298726391E+03  0.60993824285E+03  0.44669104702E+03  0.11028815487E+04  0.12699999809E+01 0.  1.
</event>
<event>
 5   0  0.6288000E-06  0.2424483E+04  0.7818609E-02  0.8430394E-01
       -3   -1    0    0    0  501  0.00000000000E+00  0.00000000000E+00  0.21567412712E+04  0.21567412736E+04  0.10100000352E+00 0. -1.
        3   -1    0    0  501    0  0.00000000000E+00  0.00000000000E+00 -0.68136578247E+03  0.68136578996E+03  0.10100000352E+00 0.  1.
    10030    2    1    2    0    0  0.00000000000E+00  0.00000000000E+00  0.14753754888E+04  0.28381070635E+04  0.24244832174E+04 0.  0.
        2    1    3    3  502    0  0.27099434951E+03 -0.63840401155E+03 -0.42618361249E+03  0.81402094014E+03  0.25500000920E-02 0.  1.
       -2    1    3    3    0  502 -0.27099434951E+03  0.63840401155E+03  0.19015591012E+04  0.20240861234E+04  0.25500000920E-02 0. -1.
</event>
<event>
 5   0  0.1874272E-05  0.2841636E+04  0.7818609E-02  0.8290457E-01
        2   -1    0    0  501    0  0.00000000000E+00  0.00000000000E+00  0.27976984562E+04  0.27976984562E+04  0.25500000920E-02 0. -1.
       -2   -1    0    0    0  501  0.00000000000E+00  0.00000000000E+00 -0.72156570788E+03  0.72156570788E+03  0.25500000920E-02 0.  1.
    10030    2    1    2    0    0  0.00000000000E+00  0.00000000000E+00  0.20761327483E+04  0.35192641641E+04  0.28416356325E+04 0.  0.
        3    1    3    3  502    0  0.80120084418E+03 -0.85847256954E+03  0.47430193255E+02  0.11752223529E+04  0.10100000352E+00 0.  1.
       -3    1    3    3    0  502 -0.80120084418E+03  0.85847256954E+03  0.20287025551E+04  0.23440418112E+04  0.10100000352E+00 0. -1.
</event>
<event>
 5   0  0.1874272E-05  0.2603486E+04  0.7818609E-02  0.8367018E-01
        2   -1    0    0  501    0  0.00000000000E+00  0.00000000000E+00  0.13855124500E+04  0.13855124500E+04  0.25500000920E-02 0.  1.
       -2   -1    0    0    0  501  0.00000000000E+00  0.00000000000E+00 -0.12230379094E+04  0.12230379094E+04  0.25500000920E-02 0. -1.
    10030    2    1    2    0    0  0.00000000000E+00  0.00000000000E+00  0.16247454058E+03  0.26085503595E+04  0.26034855486E+04 0.  0.
        3    1    3    3  502    0  0.11766355352E+04 -0.52758205436E+03  0.25968549896E+03  0.13153898948E+04  0.10100000352E+00 0. -1.
       -3    1    3    3    0  502 -0.11766355352E+04  0.52758205436E+03 -0.97210958377E+02  0.12931604647E+04  0.10100000352E+00 0.  1.
</event>
<event>
 5   0  0.7613444E-06  0.2750867E+04  0.7818609E-02  0.8318687E-01
       -1   -1    0    0    0  501  0.00000000000E+00  0.00000000000E+00  0.16398033343E+04  0.16398033343E+04  0.50400001928E-02 0. -1.
        1   -1    0    0  501    0  0.00000000000E+00  0.00000000000E+00 -0.11536856625E+04  0.11536856625E+04  0.50400001928E-02 0.  1.
    10030    2    1    2    0    0  0.00000000000E+00  0.00000000000E+00  0.48611767179E+03  0.27934889967E+04  0.27508672058E+04 0.  0.
        5    1    3    3  502    0  0.63439902137E+03 -0.10423815781E+04 -0.40141912598E+03  0.12845936624E+04  0.46999998093E+01 0.  1.
       -5    1    3    3    0  502 -0.63439902137E+03  0.10423815781E+04  0.88753679777E+03  0.15088953344E+04  0.46999998093E+01 0. -1.
</event>
<event>
 5   0  0.1874272E-05  0.2873370E+04  0.7818609E-02  0.8280845E-01
        2   -1    0    0  501    0  0.00000000000E+00  0.00000000000E+00  0.18277151945E+04  0.18277151945E+04  0.25500000920E-02 0. -1.
       -2   -1    0    0    0  501  0.00000000000E+00  0.00000000000E+00 -0.11293136748E+04  0.11293136748E+04  0.25500000920E-02 0.  1.
    10030    2    1    2    0    0  0.00000000000E+00  0.00000000000E+00  0.69840151965E+03  0.29570288693E+04  0.28733699816E+04 0.  0.
        3    1    3    3  502    0 -0.78627811589E+03 -0.11639329827E+04  0.38601418438E+02  0.14051559855E+04  0.10100000352E+00 0.  1.
       -3    1    3    3    0  502  0.78627811589E+03  0.11639329827E+04  0.65980010121E+03  0.15518728838E+04  0.10100000352E+00 0. -1.
</event>
<event>
 5   0  0.1832502E-05  0.2823777E+04  0.7818609E-02  0.8295924E-01
        2   -1    0    0  501    0  0.00000000000E+00  0.00000000000E+00  0.15281714811E+04  0.15281714811E+04  0.25500000920E-02 0.  1.
       -2   -1    0    0    0  501  0.00000000000E+00  0.00000000000E+00 -0.13044538050E+04  0.13044538050E+04  0.25500000920E-02 0. -1.
    10030    2    1    2    0    0  0.00000000000E+00  0.00000000000E+00  0.22371767615E+03  0.28326252861E+04  0.28237769765E+04 0.  0.
        2    1    3    3  502    0 -0.41979624069E+03 -0.35170199765E+03 -0.11935666710E+04  0.13132115507E+04  0.25500000920E-02 0. -1.
       -2    1    3    3    0  502  0.41979624069E+03  0.35170199765E+03  0.14172843471E+04  0.15194137354E+04  0.25500000920E-02 0.  1.
</event>
<event>
 5   0  0.1904553E-05  0.2795247E+04  0.7818609E-02  0.8304745E-01
       -2   -1    0    0    0  501  0.00000000000E+00  0.00000000000E+00  0.11005790218E+04  0.11005790218E+04  0.25500000920E-02 0.  1.
        2   -1    0    0  501    0  0.00000000000E+00  0.00000000000E+00 -0.17748399822E+04  0.17748399822E+04  0.25500000920E-02 0. -1.
    10030    2    1    2    0    0  0.00000000000E+00  0.00000000000E+00 -0.67426096040E+03  0.28754190040E+04  0.27952471457E+04 0.  0.
        1    1    3    3  502    0 -0.13424846794E+04 -0.38714266324E+03 -0.37287024468E+03  0.14460901685E+04  0.50400001928E-02 0. -1.
       -1    1    3    3    0  502  0.13424846794E+04  0.38714266324E+03 -0.30139071572E+03  0.14293288354E+04  0.50400001928E-02 0.  1.
</event>
<event>
 5   0  0.7388013E-06  0.2755517E+04  0.7818609E-02  0.8317213E-01
        1   -1    0    0  501    0  0.00000000000E+00  0.00000000000E+00  0.98330829883E+03  0.98330829884E+03  0.50400001928E-02 0. -1.
       -1   -1    0    0    0  501  0.00000000000E+00  0.00000000000E+00 -0.19304411959E+04  0.19304411959E+04  0.50400001928E-02 0.  1.
    10030    2    1    2    0    0  0.00000000000E+00  0.00000000000E+00 -0.94713289710E+03  0.29137494948E+04  0.27555172643E+04 0.  0.
        1    1    3    3  502    0 -0.27239711193E+03  0.10889191441E+04 -0.13183638512E+04  0.17314815428E+04  0.50400001928E-02 0.  1.
       -1    1    3    3    0  502  0.27239711193E+03 -0.10889191441E+04  0.37123095408E+03  0.11822679520E+04  0.50400001928E-02 0. -1.
</event>
<event>
 5   0  0.1923559E-05  0.2811181E+04  0.7818609E-02  0.8299805E-01
        2   -1    0    0  501    0  0.00000000000E+00  0.00000000000E+00  0.23436524619E+04  0.23436524619E+04  0.25500000920E-02 0. -1.
       -2   -1    0    0    0  501  0.00000000000E+00  0.00000000000E+00 -0.84299405566E+03  0.84299405567E+03  0.25500000920E-02 0.  1.
    10030    2    1    2    0    0  0.00000000000E+00  0.00000000000E+00  0.15006584062E+04  0.31866465175E+04  0.28111813132E+04 0.  0.
        4    1    3    3  502    0  0.45530501224E+02 -0.13441097071E+04  0.28712053582E+03  0.13751886221E+04  0.12699999809E+01 0.  1.
       -4    1    3    3    0  502 -0.45530501224E+02  0.13441097071E+04  0.12135378704E+04  0.18114578955E+04  0.12699999809E+01 0. -1.
</event>
<event>
 5   0  0.1923559E-05  0.2632217E+04  0.7818609E-02  0.8357339E-01
        2   -1    0    0  501    0  0.00000000000E+00  0.00000000000E+00  0.15773933223E+04  0.15773933223E+04  0.25500000920E-02 0. -1.
       -2   -1    0    0    0  501  0.00000000000E+00  0.00000000000E+00 -0.10981040473E+04  0.10981040473E+04  0.25500000920E-02 0.  1.
    10030    2    1    2    0    0  0.00000000000E+00  0.00000000000E+00  0.47928927507E+03  0.26754973696E+04  0.26322173097E+04 0.  0.
        4    1    3    3  502    0 -0.93788099683E+03  0.49628707589E+03 -0.55175795909E+03  0.11959766236E+04  0.12699999809E+01 0.  1.
       -4    1    3    3    0  502  0.93788099683E+03 -0.49628707589E+03  0.10310472342E+04  0.14795207460E+04  0.12699999809E+01 0. -1.
</event>
<event>
 5   0  0.1814230E-05  0.2805844E+04  0.7818609E-02  0.8301456E-01
        2   -1    0    0  501    0  0.00000000000E+00  0.00000000000E+00  0.12433892588E+04  0.12433892588E+04  0.25500000920E-02 0.  1.
       -2   -1    0    0    0  501  0.00000000000E+00  0.00000000000E+00 -0.15829230127E+04  0.15829230127E+04  0.25500000920E-02 0. -1.
    10030    2    1    2    0    0  0.00000000000E+00  0.00000000000E+00 -0.33953375395E+03  0.28263122715E+04  0.28058435249E+04 0.  0.
        5    1    3    3  502    0  0.11055222336E+04  0.35494904325E+03  0.62337748810E+03  0.13178732166E+04  0.46999998093E+01 0.  1.
       -5    1    3    3    0  502 -0.11055222336E+04 -0.35494904325E+03 -0.96291124205E+03  0.15084390549E+04  0.46999998093E+01 0. -1.
</event>
<event>
 5   0  0.7509685E-06  0.2793639E+04  0.7818609E-02  0.8305246E-01
        1   -1    0    0  501    0  0.00000000000E+00  0.00000000000E+00  0.12276007794E+04  0.12276007794E+04  0.50400001928E-02 0. -1.
       -1   -1    0    0    0  501  0.00000000000E+00  0.00000000000E+00 -0.15893641305E+04  0.15893641305E+04  0.50400001928E-02 0.  1.
    10030    2    1    2    0    0  0.00000000000E+00  0.00000000000E+00 -0.36176335115E+03  0.28169649099E+04  0.27936389497E+04 0.  0.
        4    1    3    3  502    0 -0.74951876632E+03  0.20998719980E+03 -0.13504064779E+04  0.15586764493E+04  0.12699999809E+01 0.  1.
       -4    1    3    3    0  502  0.74951876632E+03 -0.20998719980E+03  0.98864312673E+03  0.12582884606E+04  0.12699999809E+01 0. -1.
</event>
<event>
 5   0  0.7681342E-06  0.2800577E+04  0.7818609E-02  0.8303089E-01
       -1   -1    0    0    0  501  0.00000000000E+00  0.00000000000E+00  0.72675467687E+03  0.72675467689E+03  0.50400001928E-02 0.  1.
        1   -1    0    0  501    0  0.00000000000E+00  0.00000000000E+00 -0.26980323275E+04  0.26980323275E+04  0.50400001928E-02 0. -1.
    10030    2    1    2    0    0  0.00000000000E+00  0.00000000000E+00 -0.19712776506E+04  0.34247870044E+04  0.28005768066E+04 0.  0.
        2    1    3    3  502    0  0.12665241253E+04 -0.58000276507E+03 -0.81131405698E+03  0.16120536798E+04  0.25500000920E-02 0. -1.
       -2    1    3    3    0  502 -0.12665241253E+04  0.58000276507E+03 -0.11599635936E+04  0.18127333246E+04  0.25500000920E-02 0.  1.
</event>
<event>
 5   0  0.1874272E-05  0.2750930E+04  0.7818609E-02  0.8318667E-01
       -2   -1    0    0    0  501  0.00000000000E+00  0.00000000000E+00  0.84696273968E+03  0.84696273969E+03  0.25500000920E-02 0.  1.
        2   -1    0    0  501    0  0.00000000000E+00  0.00000000000E+00 -0.22337505891E+04  0.22337505891E+04  0.25500000920E-02 0. -1.
    10030    2    1    2    0    0  0.00000000000E+00  0.00000000000E+00 -0.13867878494E+04  0.30807133288E+04  0.27509296746E+04 0.  0.
        3    1    3    3  502    0  0.35727901251E+02 -0.41502795722E+02  0.84574139740E+03  0.84751252880E+03  0.10100000352E+00 0.  1.
       -3    1    3    3    0  502 -0.35727901251E+02  0.41502795722E+02 -0.22325292468E+04  0.22332008000E+04  0.10100000352E+00 0. -1.
</event>
<event>
 5   0  0.1923559E-05  0.2763376E+04  0.7818609E-02  0.8314730E-01
        2   -1    0    0  501    0  0.00000000000E+00  0.00000000000E+00  0.27294379452E+04  0.27294379452E+04  0.25500000920E-02 0.  1.
       -2   -1    0    0    0  501  0.00000000000E+00  0.00000000000E+00 -0.69943393869E+03  0.69943393870E+03  0.25500000920E-02 0. -1.
    10030    2    1    2    0    0  0.00000000000E+00  0.00000000000E+00  0.20300040065E+04  0.34288718839E+04  0.27633758575E+04 0.  0.
        4    1    3    3  502    0  0.10961586110E+04  0.10460112607E+03 -0.20590627701E+02  0.11013313230E+04  0.12699999809E+01 0. -1.
       -4    1    3    3    0  502 -0.10961586110E+04 -0.10460112607E+03  0.20505946342E+04  0.23275405609E+04  0.12699999809E+01 0.  1.
</event>
<event>
 5   0  0.1923559E-05  0.2837289E+04  0.7818609E-02  0.8291784E-01
        2   -1    0    0  501    0  0.00000000000E+00  0.00000000000E+00  0.13877976249E+04  0.13877976249E+04  0.25500000920E-02 0. -1.
       -2   -1    0    0    0  501  0.00000000000E+00  0.00000000000E+00 -0.14501773525E+04  0.14501773525E+04  0.25500000920E-02 0.  1.
    10030    2    1    2    0    0  0.00000000000E+00  0.00000000000E+00 -0.62379727667E+02  0.28379749774E+04  0.28372893300E+04 0.  0.
        4    1    3    3  502    0  0.54874044681E+03 -0.22594936207E+03 -0.13200593139E+04  0.14473173105E+04  0.12699999809E+01 0.  1.
       -4    1    3    3    0  502 -0.54874044681E+03  0.22594936207E+03  0.12576795862E+04  0.13906576669E+04  0.12699999809E+01 0. -1.
</event>
<event>
 5   0  0.7555871E-06  0.2878114E+04  0.7818609E-02  0.8279419E-01
       -1   -1    0    0    0  501  0.00000000000E+00  0.00000000000E+00  0.15438957221E+04  0.15438957221E+04  0.50400001928E-02 0.  1.
        1   -1    0    0  501    0  0.00000000000E+00  0.00000000000E+00 -0.13413375608E+04  0.13413375608E+04  0.50400001928E-02 0. -1.
    10030    2    1    2    0    0  0.00000000000E+00  0.00000000000E+00  0.20255816127E+03  0.28852332830E+04  0.28781141896E+04 0.  0.
        3    1    3    3  502    0  0.44827449270E+03 -0.74436356891E+03  0.12512250971E+04  0.15233487445E+04  0.10100000352E+00 0.  1.
       -3    1    3    3    0  502 -0.44827449270E+03  0.74436356891E+03 -0.10486669359E+04  0.13618845385E+04  0.10100000352E+00 0. -1.
</event>
<event>
 5   0  0.7388013E-06  0.2836451E+04  0.7818609E-02  0.8292040E-01
        1   -1    0    0  501    0  0.00000000000E+00  0.00000000000E+00  0.17153419894E+04  0.17153419894E+04  0.50400001928E-02 0.  1.
       -1   -1    0    0    0  501  0.00000000000E+00  0.00000000000E+00 -0.11725731863E+04  0.11725731863E+04  0.50400001928E-02 0. -1.
    10030    2    1    2    0    0  0.00000000000E+00  0.00000000000E+00  0.54276880314E+03  0.28879151757E+04  0.28364513196E+04 0.  0.
        1    1    3    3  502    0  0.12726109354E+04 -0.19349488635E+03 -0.33471919486E+03  0.13300435344E+04  0.50400001928E-02 0.  1.
       -1    1    3    3    0  502 -0.12726109354E+04  0.19349488635E+03  0.87748799800E+03  0.15578716413E+04  0.50400001928E-02 0. -1.
</event>
<event>
 5   0  0.7509685E-06  0.2750775E+04  0.7818609E-02  0.8318716E-01
       -1   -1    0    0    0  501  0.00000000000E+00  0.00000000000E+00  0.10117060523E+04  0.10117060523E+04  0.50400001928E-02 0.  1.
        1   -1    0    0  501    0  0.00000000000E+00  0.00000000000E+00 -0.18698027126E+04  0.18698027126E+04  0.50400001928E-02 0. -1.
    10030    2    1    2    0    0  0.00000000000E+00  0.00000000000E+00 -0.85809666036E+03  0.28815087649E+04  0.27507749606E+04 0.  0.
        4    1    3    3  502    0  0.22826744505E+01 -0.12128810186E+04  0.25031380942E+03  0.12384442628E+04  0.12699999809E+01 0.  1.
       -4    1    3    3    0  502 -0.22826744505E+01  0.12128810186E+04 -0.11084104698E+04  0.16430645022E+04  0.12699999809E+01 0. -1.
</event>
<event>
 5   0  0.1904553E-05  0.2658887E+04  0.7818609E-02  0.8348469E-01
        2   -1    0    0  501    0  0.00000000000E+00  0.00000000000E+00  0.21989703022E+04  0.21989703022E+04  0.25500000920E-02 0.  1.
       -2   -1    0    0    0  501  0.00000000000E+00  0.00000000000E+00 -0.80374894976E+03  0.80374894976E+03  0.25500000920E-02 0. -1.
    10030    2    1    2    0    0  0.00000000000E+00  0.00000000000E+00  0.13952213524E+04  0.30027192519E+04  0.26588870385E+04 0.  0.
        1    1    3    3  502    0  0.10407585244E+04 -0.66460103249E+03  0.14143370430E+03  0.12429305416E+04  0.50400001928E-02 0. -1.
       -1    1    3    3    0  502 -0.10407585244E+04  0.66460103249E+03  0.12537876481E+04  0.17597887103E+04  0.50400001928E-02 0.  1.
</event>
<event>
 5   0  0.1923559E-05  0.2783696E+04  0.7818609E-02  0.8308348E-01
        2   -1    0    0  501    0  0.00000000000E+00  0.00000000000E+00  0.12141564980E+04  0.12141564980E+04  0.25500000920E-02 0.  1.
       -2   -1    0    0    0  501  0.00000000000E+00  0.00000000000E+00 -0.15955450060E+04  0.15955450060E+04  0.25500000920E-02 0. -1.
    10030    2    1    2    0    0  0.00000000000E+00  0.00000000000E+00 -0.38138850803E+03  0.28097015040E+04  0.27836963462E+04 0.  0.
        4    1    3    3  502    0  0.12723532068E+04 -0.18349231754E+03 -0.72924001059E+03  0.14779528813E+04  0.12699999809E+01 0. -1.
       -4    1    3    3    0  502 -0.12723532068E+04  0.18349231754E+03  0.34785150256E+03  0.13317486227E+04  0.12699999809E+01 0.  1.
</event>
<event>
 5   0  0.7613444E-06  0.2758341E+04  0.7818609E-02  0.8316320E-01
        1   -1    0    0  501    0  0.00000000000E+00  0.00000000000E+00  0.12189327666E+04  0.12189327666E+04  0.50400001928E-02 0. -1.
       -1   -1    0    0    0  501  0.00000000000E+00  0.00000000000E+00 -0.15604727941E+04  0.15604727941E+04  0.50400001928E-02 0.  1.
    10030    2    1    2    0    0  0.00000000000E+00  0.00000000000E+00 -0.34154002748E+03  0.27794055608E+04  0.27583411103E+04 0.  0.
        5    1    3    3  502    0 -0.11256349940E+03 -0.13745204414E+04 -0.18145025354E+03  0.13910151939E+04  0.46999998093E+01 0.  1.
       -5    1    3    3    0  502  0.11256349940E+03  0.13745204414E+04 -0.16008977395E+03  0.13883903669E+04  0.46999998093E+01 0. -1.
</event>
<event>
 5   0  0.1904553E-05  0.2823276E+04  0.7818609E-02  0.8296078E-01
       -2   -1    0    0    0  501  0.00000000000E+00  0.00000000000E+00  0.80032558925E+03  0.80032558926E+03  0.25500000920E-02 0.  1.
        2   -1    0    0  501    0  0.00000000000E+00  0.00000000000E+00 -0.24898885480E+04  0.24898885480E+04  0.25500000920E-02 0. -1.
    10030    2    1    2    0    0  0.00000000000E+00  0.00000000000E+00 -0.16895629588E+04  0.32902141373E+04  0.28232757707E+04 0.  0.
        1    1    3    3  502    0  0.86388877067E+03  0.93399155284E+03 -0.15575551537E+04  0.20111245824E+04  0.50400001928E-02 0. -1.
       -1    1    3    3    0  502 -0.86388877067E+03 -0.93399155284E+03 -0.13200780505E+03  0.12790895549E+04  0.50400001928E-02 0.  1.
</event>
<event>
 5   0  0.7555871E-06  0.2772349E+04  0.7818609E-02  0.8311905E-01
       -1   -1    0    0    0  501  0.00000000000E+00  0.00000000000E+00  0.75148114905E+03  0.75148114907E+03  0.50400001928E-02 0.  1.
        1   -1    0    0  501    0  0.00000000000E+00  0.00000000000E+00 -0.25569235688E+04  0.25569235688E+04  0.50400001928E-02 0. -1.
    10030    2    1    2    0    0  0.00000000000E+00  0.00000000000E+00 -0.18054424198E+04  0.33084047179E+04  0.27723490845E+04 0.  0.
        3    1    3    3  502    0  0.16178355793E+03 -0.11751525873E+04 -0.46889435043E+02  0.11871630690E+04  0.10100000352E+00 0.  1.
       -3    1    3    3    0  502 -0.16178355793E+03  0.11751525873E+04 -0.17585529847E+04  0.21212416490E+04  0.10100000352E+00 0. -1.
</event>
<event>
 5   0  0.6288000E-06  0.2778464E+04  0.7818609E-02  0.8309986E-01
        3   -1    0    0  501    0  0.00000000000E+00  0.00000000000E+00  0.22028086302E+04  0.22028086325E+04  0.10100000352E+00 0. -1.
       -3   -1    0    0    0  501  0.00000000000E+00  0.00000000000E+00 -0.87613833285E+03  0.87613833868E+03  0.10100000352E+00 0.  1.
    10030    2    1    2    0    0  0.00000000000E+00  0.00000000000E+00  0.13266702973E+04  0.30789469712E+04  0.27784636714E+04 0.  0.
        3    1    3    3  502    0  0.92558322917E+03 -0.15087087826E+03  0.17991178655E+04  0.20288645692E+04  0.10100000352E+00 0. -1.
       -3    1    3    3    0  502 -0.92558322917E+03  0.15087087826E+03 -0.47244756817E+03  0.10500824020E+04  0.10100000352E+00 0.  1.
</event>
<event>
 5   0  0.7613444E-06  0.2889939E+04  0.7818609E-02  0.8275877E-01
       -1   -1    0    0    0  501  0.00000000000E+00  0.00000000000E+00  0.88731268658E+03  0.88731268660E+03  0.50400001928E-02 0.  1.
        1   -1    0    0  501    0  0.00000000000E+00  0.00000000000E+00 -0.23531011986E+04  0.23531011986E+04  0.50400001928E-02 0. -1.
    10030    2    1    2    0    0  0.00000000000E+00  0.00000000000E+00 -0.14657885120E+04  0.32404138852E+04  0.28899387857E+04 0.  0.
        5    1    3    3  502    0 -0.10396435842E+04 -0.91574892787E+03 -0.27268039875E+03  0.14120310092E+04  0.46999998093E+01 0. -1.
       -5    1    3    3    0  502  0.10396435842E+04  0.91574892787E+03 -0.11931081132E+04  0.18283828759E+04  0.46999998093E+01 0.  1.
</event>
<event>
 5   0  0.1814230E-05  0.2321309E+04  0.7818609E-02  0.8469566E-01
       -2   -1    0    0    0  501  0.00000000000E+00  0.00000000000E+00  0.74593696974E+03  0.74593696975E+03  0.25500000920E-02 0.  1.
        2   -1    0    0  501    0  0.00000000000E+00  0.00000000000E+00 -0.18059425265E+04  0.18059425265E+04  0.25500000920E-02 0. -1.
    10030    2    1    2    0    0  0.00000000000E+00  0.00000000000E+00 -0.10600055567E+04  0.25518794962E+04  0.23213093682E+04 0.  0.
        5    1    3    3  502    0  0.77319098878E+03 -0.27011631794E+03  0.37406307676E+03  0.90040680014E+03  0.46999998093E+01 0.  1.
       -5    1    3    3    0  502 -0.77319098878E+03  0.27011631794E+03 -0.14340686335E+04  0.16514726961E+04  0.46999998093E+01 0. -1.
</event>
<event>
 5   0  0.1814230E-05  0.2789504E+04  0.7818609E-02  0.8306534E-01
        2   -1    0    0  501    0  0.00000000000E+00  0.00000000000E+00  0.16796227261E+04  0.16796227261E+04  0.25500000920E-02 0.  1.
       -2   -1    0    0    0  501  0.00000000000E+00  0.00000000000E+00 -0.11581965067E+04  0.11581965067E+04  0.25500000920E-02 0. -1.
    10030    2    1    2    0    0  0.00000000000E+00  0.00000000000E+00  0.52142621937E+03  0.28378192328E+04  0.27895040233E+04 0.  0.
        5    1    3    3  502    0  0.43736371969E+03 -0.20227247120E+02  0.16078907047E+04  0.16664425502E+04  0.46999998093E+01 0.  1.
       -5    1    3    3    0  502 -0.43736371969E+03  0.20227247120E+02 -0.10864644853E+04  0.11713766826E+04  0.46999998093E+01 0. -1.
</event>
<event>
 5   0  0.1832502E-05  0.2801890E+04  0.7818609E-02  0.8302682E-01
        2   -1    0    0  501    0  0.00000000000E+00  0.00000000000E+00  0.12528184992E+04  0.12528184992E+04  0.25500000920E-02 0. -1.
       -2   -1    0    0    0  501  0.00000000000E+00  0.00000000000E+00 -0.15665852445E+04  0.15665852445E+04  0.25500000920E-02 0.  1.
    10030    2    1    2    0    0  0.00000000000E+00  0.00000000000E+00 -0.31376674530E+03  0.28194037437E+04  0.28018900584E+04 0.  0.
        2    1    3    3  502    0  0.11964349785E+04 -0.25260683439E+03  0.53104194391E+03  0.13331438095E+04  0.25500000920E-02 0. -1.
       -2    1    3    3    0  502 -0.11964349785E+04  0.25260683439E+03 -0.84480868921E+03  0.14862599342E+04  0.25500000920E-02 0.  1.
</event>
<event>
 5   0  0.7388013E-06  0.1910239E+04  0.7818609E-02  0.8649776E-01
        1   -1    0    0  501    0  0.00000000000E+00  0.00000000000E+00  0.11930814604E+04  0.11930814604E+04  0.50400001928E-02 0.  1.
       -1   -1    0    0    0  501  0.00000000000E+00  0.00000000000E+00 -0.76461968067E+03  0.76461968069E+03  0.50400001928E-02 0. -1.
    10030    2    1    2    0    0  0.00000000000E+00  0.00000000000E+00  0.42846177973E+03  0.19577011411E+04  0.19102393204E+04 0.  0.
        1    1    3    3  502    0  0.49087939320E+03 -0.29678862481E+03  0.99688552809E+03  0.11501420880E+04  0.50400001928E-02 0.  1.
       -1    1    3    3    0  502 -0.49087939320E+03  0.29678862481E+03 -0.56842374836E+03  0.80755905308E+03  0.50400001928E-02 0. -1.
</event>
<event>
 5   0  0.1814230E-05  0.2752399E+04  0.7818609E-02  0.8318201E-01
        2   -1    0    0  501    0  0.00000000000E+00  0.00000000000E+00  0.18741439838E+04  0.18741439838E+04  0.25500000920E-02 0.  1.
       -2   -1    0    0    0  501  0.00000000000E+00  0.00000000000E+00 -0.10105546043E+04  0.10105546043E+04  0.25500000920E-02 0. -1.
    10030    2    1    2    0    0  0.00000000000E+00  0.00000000000E+00  0.86358937955E+03  0.28846985881E+04  0.27523988315E+04 0.  0.
        5    1    3    3  502    0  0.60886143201E+03  0.86872289427E+03  0.13505801844E+04  0.17174052041E+04  0.46999998093E+01 0.  1.
       -5    1    3    3    0  502 -0.60886143201E+03 -0.86872289427E+03 -0.48699080485E+03  0.11672933840E+04  0.46999998093E+01 0. -1.
</event>
<event>
 5   0  0.7613444E-06  0.2807171E+04  0.7818609E-02  0.8301045E-01
       -1   -1    0    0    0  501  0.00000000000E+00  0.00000000000E+00  0.11773599626E+04  0.11773599626E+04  0.50400001928E-02 0. -1.
        1   -1    0    0  501    0  0.00000000000E+00  0.00000000000E+00 -0.16732799964E+04  0.16732799964E+04  0.50400001928E-02 0.  1.
    10030    2    1    2    0    0  0.00000000000E+00  0.00000000000E+00 -0.49592003384E+03  0.28506399590E+04  0.28071714404E+04 0.  0.
        5    1    3    3  502    0 -0.78874868661E+03  0.20299535262E+03  0.91285025127E+03  0.12233761789E+04  0.46999998093E+01 0. -1.
       -5    1    3    3    0  502  0.78874868661E+03 -0.20299535262E+03 -0.14087702851E+04  0.16272637801E+04  0.46999998093E+01 0.  1.
</event>
<event>
 5   0  0.1874272E-05  0.2813353E+04  0.7818609E-02  0.8299135E-01
       -2   -1    0    0    0  501  0.00000000000E+00  0.00000000000E+00  0.10117390335E+04  0.10117390335E+04  0.25500000920E-02 0. -1.
        2   -1    0    0  501    0  0.00000000000E+00  0.00000000000E+00 -0.19557794542E+04  0.19557794542E+04  0.25500000920E-02 0.  1.
    10030    2    1    2    0    0  0.00000000000E+00  0.00000000000E+00 -0.94404042069E+03  0.29675184877E+04  0.28133527434E+04 0.  0.
        3    1    3    3  502    0 -0.48572699059E+03 -0.25654109126E+03 -0.18379709780E+04  0.19183016882E+04  0.10100000352E+00 0.  1.
       -3    1    3    3    0  502  0.48572699059E+03  0.25654109126E+03  0.89393055727E+03  0.10492167995E+04  0.10100000352E+00 0. -1.
</event>
<event>
 5   0  0.1814230E-05  0.2847124E+04  0.7818609E-02  0.8288786E-01
        2   -1    0    0  501    0  0.00000000000E+00  0.00000000000E+00  0.12801066163E+04  0.12801066163E+04  0.25500000920E-02 0.  1.
       -2   -1    0    0    0  501  0.00000000000E+00  0.00000000000E+00 -0.15830932024E+04  0.15830932024E+04  0.25500000920E-02 0. -1.
    10030    2    1    2    0    0  0.00000000000E+00  0.00000000000E+00 -0.30298658617E+03  0.28631998187E+04  0.28471235187E+04 0.  0.
        5    1    3    3  502    0  0.13592828481E+04  0.68131562429E+01 -0.57673994337E+03  0.14765999230E+04  0.46999998093E+01 0.  1.
       -5    1    3    3    0  502 -0.13592828481E+04 -0.68131562429E+01  0.27375335720E+03  0.13865998957E+04  0.46999998093E+01 0. -1.
</event>
<event>
 5   0  0.7509685E-06  0.2673303E+04  0.7818609E-02  0.8343719E-01
        1   -1    0    0  501    0  0.00000000000E+00  0.00000000000E+00  0.15048272886E+04  0.15048272886E+04  0.50400001928E-02 0. -1.
       -1   -1    0    0    0  501  0.00000000000E+00  0.00000000000E+00 -0.11872707406E+04  0.11872707406E+04  0.50400001928E-02 0.  1.
    10030    2    1    2    0    0  0.00000000000E+00  0.00000000000E+00  0.31755654808E+03  0.26920980292E+04  0.26733031324E+04 0.  0.
        4    1    3    3  502    0 -0.80468221680E+03 -0.56730312050E+03 -0.75161831414E+03  0.12386597610E+04  0.12699999809E+01 0.  1.
       -4    1    3    3    0  502  0.80468221680E+03  0.56730312050E+03  0.10691748622E+04  0.14534382682E+04  0.12699999809E+01 0. -1.
</event>
<event>
 5   0  0.1874272E-05  0.2481527E+04  0.7818609E-02  0.8409596E-01
        2   -1    0    0  501    0  0.00000000000E+00  0.00000000000E+00  0.13735678316E+04  0.13735678316E+04  0.25500000920E-02 0. -1.
       -2   -1    0    0    0  501  0.00000000000E+00  0.00000000000E+00 -0.11207995204E+04  0.11207995204E+04  0.25500000920E-02 0.  1.
    10030    2    1    2    0    0  0.00000000000E+00  0.00000000000E+00  0.25276831120E+03  0.24943673521E+04  0.24815270839E+04 0.  0.
        3    1    3    3  502    0 -0.35855894506E+02 -0.63545001780E+03 -0.94421466126E+03  0.11386938601E+04  0.10100000352E+00 0.  1.
       -3    1    3    3    0  502  0.35855894506E+02  0.63545001780E+03  0.11969829725E+04  0.13556734920E+04  0.10100000352E+00 0. -1.
</event>
<event>
 5   0  0.1832502E-05  0.2840915E+04  0.7818609E-02  0.8290677E-01
        2   -1    0    0  501    0  0.00000000000E+00  0.00000000000E+00  0.28208448495E+04  0.28208448495E+04  0.25500000920E-02 0.  1.
       -2   -1    0    0    0  501  0.00000000000E+00  0.00000000000E+00 -0.71528183336E+03  0.71528183337E+03  0.25500000920E-02 0. -1.
    10030    2    1    2    0    0  0.00000000000E+00  0.00000000000E+00  0.21055630162E+04  0.35361266829E+04  0.28409146947E+04 0.  0.
        2    1    3    3  502    0 -0.31854798108E+03  0.10235022246E+04  0.22128854372E+04  0.24588394779E+04  0.25500000920E-02 0.  1.
       -2    1    3    3    0  502  0.31854798108E+03 -0.10235022246E+04 -0.10732242101E+03  0.10772872050E+04  0.25500000920E-02 0. -1.
</event>
<event>
 5   0  0.1923559E-05  0.3342110E+04  0.7818609E-02  0.8152262E-01
        2   -1    0    0  501    0  0.00000000000E+00  0.00000000000E+00  0.19261178829E+04  0.19261178829E+04  0.25500000920E-02 0. -1.
       -2   -1    0    0    0  501  0.00000000000E+00  0.00000000000E+00 -0.14497684169E+04  0.14497684169E+04  0.25500000920E-02 0.  1.
    10030    2    1    2    0    0  0.00000000000E+00  0.00000000000E+00  0.47634946596E+03  0.33758862999E+04  0.33421100365E+04 0.  0.
        4    1    3    3  502    0 -0.44860783069E+03 -0.76334413844E+03  0.16697059481E+04  0.18899372544E+04  0.12699999809E+01 0. -1.
       -4    1    3    3    0  502  0.44860783069E+03  0.76334413844E+03 -0.11933564821E+04  0.14859490455E+04  0.12699999809E+01 0.  1.
</event>
<event>
 5   0  0.1814230E-05  0.2305673E+04  0.7818609E-02  0.8475688E-01
        2   -1    0    0  501    0  0.00000000000E+00  0.00000000000E+00  0.21724811447E+04  0.21724811447E+04  0.25500000920E-02 0.  1.
       -2   -1    0    0    0  501  0.00000000000E+00  0.00000000000E+00 -0.61175754624E+03  0.61175754625E+03  0.25500000920E-02 0. -1.
    10030    2    1    2    0    0  0.00000000000E+00  0.00000000000E+00  0.15607235985E+04  0.27842386910E+04  0.23056727733E+04 0.  0.
        5    1    3    3  502    0  0.53068341008E+03 -0.75637863004E+03 -0.52133509692E+02  0.92545853853E+03  0.46999998093E+01 0. -1.
       -5    1    3    3    0  502 -0.53068341008E+03  0.75637863004E+03  0.16128571082E+04  0.18587801524E+04  0.46999998093E+01 0.  1.
</event>
<event>
 5   0  0.1904553E-05  0.2821130E+04  0.7818609E-02  0.8296738E-01
        2   -1    0    0  501    0  0.00000000000E+00  0.00000000000E+00  0.13083542299E+04  0.13083542299E+04  0.25500000920E-02 0.  1.
       -2   -1    0    0    0  501  0.00000000000E+00  0.00000000000E+00 -0.15207605041E+04  0.15207605041E+04  0.25500000920E-02 0. -1.
    10030    2    1    2    0    0  0.00000000000E+00  0.00000000000E+00 -0.21240627426E+03  0.28291147340E+04  0.28211298717E+04 0.  0.
        1    1    3    3  502    0  0.61427745409E+03  0.21232994997E+02  0.11669988595E+04  0.13189670082E+04  0.50400001928E-02 0.  1.
       -1    1    3    3    0  502 -0.61427745409E+03 -0.21232994997E+02 -0.13794051338E+04  0.15101477258E+04  0.50400001928E-02 0. -1.
</event>
<event>
 5   0  0.1904553E-05  0.2836039E+04  0.7818609E-02  0.8292166E-01
        2   -1    0    0  501    0  0.00000000000E+00  0.00000000000E+00  0.18869179810E+04  0.18869179810E+04  0.25500000920E-02 0.  1.
       -2   -1    0    0    0  501  0.00000000000E+00  0.00000000000E+00 -0.10656418653E+04  0.10656418653E+04  0.25500000920E-02 0. -1.
    10030    2    1    2    0    0  0.00000000000E+00  0.00000000000E+00  0.82127611566E+03  0.29525598464E+04  0.28360386436E+04 0.  0.
        1    1    3    3  502    0 -0.12087284711E+04  0.48378951227E+03  0.99559678325E+03  0.16389904709E+04  0.50400001928E-02 0. -1.
       -1    1    3    3    0  502  0.12087284711E+04 -0.48378951227E+03 -0.17432066759E+03  0.13135693754E+04  0.50400001928E-02 0.  1.
</event>
<event>
 5   0  0.7388013E-06  0.2284482E+04  0.7818609E-02  0.8484065E-01
        1   -1    0    0  501    0  0.00000000000E+00  0.00000000000E+00  0.98782057876E+03  0.98782057877E+03  0.50400001928E-02 0. -1.
       -1   -1    0    0    0  501  0.00000000000E+00  0.00000000000E+00 -0.13208007696E+04  0.13208007696E+04  0.50400001928E-02 0.  1.
    10030    2    1    2    0    0  0.00000000000E+00  0.00000000000E+00 -0.33298019084E+03  0.23086213484E+04  0.22844817186E+04 0.  0.
        1    1    3    3  502    0  0.11814413540E+03 -0.96138439972E+03  0.44529620326E+03  0.10660706869E+04  0.50400001928E-02 0. -1.
       -1    1    3    3    0  502 -0.11814413540E+03  0.96138439972E+03 -0.77827639411E+03  0.12425506615E+04  0.50400001928E-02 0.  1.
</event>
<event>
 5   0  0.7681342E-06  0.2631665E+04  0.7818609E-02  0.8357524E-01
       -1   -1    0    0    0  501  0.00000000000E+00  0.00000000000E+00  0.14124622877E+04  0.14124622877E+04  0.50400001928E-02 0. -1.
        1   -1    0    0  501    0  0.00000000000E+00  0.00000000000E+00 -0.12258135677E+04  0.12258135677E+04  0.50400001928E-02 0.  1.
    10030    2    1    2    0    0  0.00000000000E+00  0.00000000000E+00  0.18664871996E+03  0.26382758554E+04  0.26316652038E+04 0.  0.
        2    1    3    3  502    0  0.12251324107E+04  0.21502889733E+03 -0.33697239787E+03  0.12886959484E+04  0.25500000920E-02 0.  1.
       -2    1    3    3    0  502 -0.12251324107E+04 -0.21502889733E+03  0.52362111783E+03  0.13495799071E+04  0.25500000920E-02 0. -1.
</event>
<event>
 5   0  0.1904553E-05  0.2752612E+04  0.7818609E-02  0.8318133E-01
       -2   -1    0    0    0  501  0.00000000000E+00  0.00000000000E+00  0.33443010876E+04  0.33443010876E+04  0.25500000920E-02 0. -1.
        2   -1    0    0  501    0  0.00000000000E+00  0.00000000000E+00 -0.56640189220E+03  0.56640189221E+03  0.25500000920E-02 0.  1.
    10030    2    1    2    0    0  0.00000000000E+00  0.00000000000E+00  0.27778991954E+04  0.39107029798E+04  0.27526121878E+04 0.  0.
        1    1    3    3  502    0 -0.90001275337E+03  0.81597898610E+03  0.23078999419E+04  0.26081117314E+04  0.50400001928E-02 0. -1.
       -1    1    3    3    0  502  0.90001275337E+03 -0.81597898610E+03  0.46999925353E+03  0.13025912484E+04  0.50400001928E-02 0.  1.
</event>
<event>
 5   0  0.7613444E-06  0.2794656E+04  0.7818609E-02  0.8304929E-01
       -1   -1    0    0    0  501  0.00000000000E+00  0.00000000000E+00  0.87881388864E+03  0.87881388865E+03  0.50400001928E-02 0.  1.
        1   -1    0    0  501    0  0.00000000000E+00  0.00000000000E+00 -0.22217733379E+04  0.22217733380E+04  0.50400001928E-02 0. -1.
    10030    2    1    2    0    0  0.00000000000E+00  0.00000000000E+00 -0.13429594493E+04  0.31005872266E+04  0.27946558048E+04 0.  0.
        5    1    3    3  502    0  0.31209481530E+03 -0.10220599900E+04  0.32734747998E+03  0.11176709084E+04  0.46999998093E+01 0.  1.
       -5    1    3    3    0  502 -0.31209481530E+03  0.10220599900E+04 -0.16703069293E+04  0.19829163182E+04  0.46999998093E+01 0. -1.
</event>
<event>
 5   0  0.1814230E-05  0.2842417E+04  0.7818609E-02  0.8290219E-01
       -2   -1    0    0    0  501  0.00000000000E+00  0.00000000000E+00  0.18652946639E+04  0.18652946639E+04  0.25500000920E-02 0.  1.
        2   -1    0    0  501    0  0.00000000000E+00  0.00000000000E+00 -0.10828499409E+04  0.10828499409E+04  0.25500000920E-02 0. -1.
    10030    2    1    2    0    0  0.00000000000E+00  0.00000000000E+00  0.78244472294E+03  0.29481446048E+04  0.28424174335E+04 0.  0.
        5    1    3    3  502    0 -0.14097198334E+04 -0.74318760692E+02  0.56158429386E+03  0.15192867721E+04  0.46999998093E+01 0.  1.
       -5    1    3    3    0  502  0.14097198334E+04  0.74318760692E+02  0.22086042908E+03  0.14288578327E+04  0.46999998093E+01 0. -1.
</event>
<event>
 5   0  0.7555871E-06  0.2872194E+04  0.7818609E-02  0.8281199E-01
        1   -1    0    0  501    0  0.00000000000E+00  0.00000000000E+00  0.83580370247E+03  0.83580370249E+03  0.50400001928E-02 0. -1.
       -1   -1    0    0    0  501  0.00000000000E+00  0.00000000000E+00 -0.24675343139E+04  0.24675343139E+04  0.50400001928E-02 0.  1.
    10030    2    1    2    0    0  0.00000000000E+00  0.00000000000E+00 -0.16317306114E+04  0.33033380164E+04  0.28721938065E+04 0.  0.
        3    1    3    3  502    0  0.58080683107E+02 -0.37427440482E+03  0.77732503454E+03  0.86469006897E+03  0.10100000352E+00 0. -1.
       -3    1    3    3    0  502 -0.58080683107E+02  0.37427440482E+03 -0.24090556459E+04  0.24386479474E+04  0.10100000352E+00 0.  1.
</event>
<event>
 5   0  0.1832502E-05  0.2793731E+04  0.7818609E-02  0.8305217E-01
        2   -1    0    0  501    0  0.00000000000E+00  0.00000000000E+00  0.24103474452E+04  0.24103474452E+04  0.25500000920E-02 0. -1.
       -2   -1    0    0    0  501  0.00000000000E+00  0.00000000000E+00 -0.80952390925E+03  0.80952390926E+03  0.25500000920E-02 0.  1.
    10030    2    1    2    0    0  0.00000000000E+00  0.00000000000E+00  0.16008235360E+04  0.32198713545E+04  0.27937314735E+04 0.  0.
        2    1    3    3  502    0 -0.10361732355E+04  0.88490340203E+03  0.11547572755E+04  0.17861056436E+04  0.25500000920E-02 0.  1.
       -2    1    3    3    0  502  0.10361732355E+04 -0.88490340203E+03  0.44606626046E+03  0.14337657108E+04  0.25500000920E-02 0. -1.
</event>
<event>
 5   0  0.7509685E-06  0.2783747E+04  0.7818609E-02  0.8308332E-01
        1   -1    0    0  501    0  0.00000000000E+00  0.00000000000E+00  0.14686161385E+04  0.14686161385E+04  0.50400001928E-02 0. -1.
       -1   -1    0    0    0  501  0.00000000000E+00  0.00000000000E+00 -0.13191406074E+04  0.13191406074E+04  0.50400001928E-02 0.  1.
    10030    2    1    2    0    0  0.00000000000E+00  0.00000000000E+00  0.14947553102E+03  0.27877567459E+04  0.27837465294E+04 0.  0.
        4    1    3    3  502    0  0.13767450311E+04  0.13585694736E+03 -0.78536899354E+02  0.13856600046E+04  0.12699999809E+01 0. -1.
       -4    1    3    3    0  502 -0.13767450311E+04 -0.13585694736E+03  0.22801243037E+03  0.14020967413E+04  0.12699999809E+01 0.  1.
</event>
<event>
 5   0  0.7613444E-06  0.2782962E+04  0.7818609E-02  0.8308578E-01
        1   -1    0    0  501    0  0.00000000000E+00  0.00000000000E+00  0.17315112366E+04  0.17315112366E+04  0.50400001928E-02 0. -1.
       -1   -1    0    0    0  501  0.00000000000E+00  0.00000000000E+00 -0.11182248460E+04  0.11182248461E+04  0.50400001928E-02 0.  1.
    10030    2    1    2    0    0  0.00000000000E+00  0.00000000000E+00  0.61328639052E+03  0.28497360826E+04  0.27829616497E+04 0.  0.
        5    1    3    3  502    0  0.59327840643E+03  0.56769872937E+03  0.14569562003E+04  0.16724247590E+04  0.46999998093E+01 0. -1.
       -5    1    3    3    0  502 -0.59327840643E+03 -0.56769872937E+03 -0.84366980978E+03  0.11773113236E+04  0.46999998093E+01 0.  1.
</event>
<event>
 5   0  0.7388013E-06  0.2813541E+04  0.7818609E-02  0.8299077E-01
        1   -1    0    0  501    0  0.00000000000E+00  0.00000000000E+00  0.15486726650E+04  0.15486726650E+04  0.50400001928E-02 0.  1.
       -1   -1    0    0    0  501  0.00000000000E+00  0.00000000000E+00 -0.12778704084E+04  0.12778704084E+04  0.50400001928E-02 0. -1.
    10030    2    1    2    0    0  0.00000000000E+00  0.00000000000E+00  0.27080225661E+03  0.28265430735E+04  0.28135408090E+04 0.  0.
        1    1    3    3  502    0 -0.59746941804E+03  0.73343610350E+03 -0.91061411254E+03  0.13130560862E+04  0.50400001928E-02 0. -1.
       -1    1    3    3    0  502  0.59746941804E+03 -0.73343610350E+03  0.11814163691E+04  0.15134869873E+04  0.50400001928E-02 0.  1.
</event>
<event>
 5   0  0.7681342E-06  0.2296935E+04  0.7818609E-02  0.8479130E-01
        1   -1    0    0  501    0  0.00000000000E+00  0.00000000000E+00  0.25264881357E+04  0.25264881357E+04  0.50400001928E-02 0.  1.
       -1   -1    0    0    0  501  0.00000000000E+00  0.00000000000E+00 -0.52205987620E+03  0.52205987623E+03  0.50400001928E-02 0. -1.
    10030    2    1    2    0    0  0.00000000000E+00  0.00000000000E+00  0.20044282595E+04  0.30485480119E+04  0.22969354221E+04 0.  0.
        2    1    3    3  502    0 -0.53807538473E+02  0.32992438267E+03 -0.45606196072E+03  0.56545367759E+03  0.25500000920E-02 0. -1.
       -2    1    3    3    0  502  0.53807538473E+02 -0.32992438267E+03  0.24604902202E+04  0.24830943343E+04  0.25500000920E-02 0.  1.
</event>
<event>
 5   0  0.1874272E-05  0.2728779E+04  0.7818609E-02  0.8325727E-01
        2   -1    0    0  501    0  0.00000000000E+00  0.00000000000E+00  0.19547691182E+04  0.19547691182E+04  0.25500000920E-02 0. -1.
       -2   -1    0    0    0  501  0.00000000000E+00  0.00000000000E+00 -0.95231620561E+03  0.95231620561E+03  0.25500000920E-02 0.  1.
    10030    2    1    2    0    0  0.00000000000E+00  0.00000000000E+00  0.10024529126E+04  0.29070853238E+04  0.27287787081E+04 0.  0.
        3    1    3    3  502    0 -0.78277775510E+03  0.48326102172E+03 -0.57222284081E+03  0.10833841510E+04  0.10100000352E+00 0.  1.
       -3    1    3    3    0  502  0.78277775510E+03 -0.48326102172E+03  0.15746757534E+04  0.18237011727E+04  0.10100000352E+00 0. -1.
</event>
<event>
 5   0  0.1904553E-05  0.2859709E+04  0.7818609E-02  0.8284967E-01
        2   -1    0    0  501    0  0.00000000000E+00  0.00000000000E+00  0.19296189449E+04  0.19296189449E+04  0.25500000920E-02 0.  1.
       -2   -1    0    0    0  501  0.00000000000E+00  0.00000000000E+00 -0.10595272212E+04  0.10595272212E+04  0.25500000920E-02 0. -1.
    10030    2    1    2    0    0  0.00000000000E+00  0.00000000000E+00  0.87009172369E+03  0.29891461660E+04  0.28597089352E+04 0.  0.
        1    1    3    3  502    0 -0.33582815080E+03 -0.21566506525E+03  0.18702150252E+04  0.19123274322E+04  0.50400001928E-02 0.  1.
       -1    1    3    3    0  502  0.33582815080E+03  0.21566506525E+03 -0.10001233015E+04  0.10768187338E+04  0.50400001928E-02 0. -1.
</event>
<event>
 5   0  0.7681342E-06  0.2771391E+04  0.7818609E-02  0.8312206E-01
       -1   -1    0    0    0  501  0.00000000000E+00  0.00000000000E+00  0.10918991877E+04  0.10918991878E+04  0.50400001928E-02 0. -1.
        1   -1    0    0  501    0  0.00000000000E+00  0.00000000000E+00 -0.17585430153E+04  0.17585430153E+04  0.50400001928E-02 0.  1.
    10030    2    1    2    0    0  0.00000000000E+00  0.00000000000E+00 -0.66664382757E+03  0.28504422031E+04  0.27713907628E+04 0.  0.
        2    1    3    3  502    0 -0.83515439999E+03  0.73744921052E+03  0.51409549322E+03  0.12270323492E+04  0.25500000920E-02 0. -1.
       -2    1    3    3    0  502  0.83515439999E+03 -0.73744921052E+03 -0.11807393208E+04  0.16234098539E+04  0.25500000920E-02 0.  1.
</event>
<event>
 5   0  0.7509685E-06  0.2691206E+04  0.7818609E-02  0.8337864E-01
       -1   -1    0    0    0  501  0.00000000000E+00  0.00000000000E+00  0.88005327082E+03  0.88005327084E+03  0.50400001928E-02 0.  1.
        1   -1    0    0  501    0  0.00000000000E+00  0.00000000000E+00 -0.20574294365E+04  0.20574294365E+04  0.50400001928E-02 0. -1.
    10030    2    1    2    0    0  0.00000000000E+00  0.00000000000E+00 -0.11773761657E+04  0.29374827073E+04  0.26912060531E+04 0.  0.
        4    1    3    3  502    0  0.57657860140E+03  0.10654488796E+04  0.50589037136E+02  0.12125118813E+04  0.12699999809E+01 0. -1.
       -4    1    3    3    0  502 -0.57657860140E+03 -0.10654488796E+04 -0.12279652028E+04  0.17249708261E+04  0.12699999809E+01 0.  1.
</event>
<event>
 5   0  0.7555871E-06  0.2834672E+04  0.7818609E-02  0.8292584E-01
       -1   -1    0    0    0  501  0.00000000000E+00  0.00000000000E+00  0.13975828096E+04  0.13975828096E+04  0.50400001928E-02 0. -1.
        1   -1    0    0  501    0  0.00000000000E+00  0.00000000000E+00 -0.14373681448E+04  0.14373681448E+04  0.50400001928E-02 0.  1.
    10030    2    1    2    0    0  0.00000000000E+00  0.00000000000E+00 -0.39785335205E+02  0.28349509545E+04  0.28346717696E+04 0.  0.
        3    1    3    3  502    0  0.33916686103E+03 -0.13642059650E+04 -0.20087713271E+03  0.14200153898E+04  0.10100000352E+00 0. -1.
       -3    1    3    3    0  502 -0.33916686103E+03  0.13642059650E+04  0.16109179751E+03  0.14149355646E+04  0.10100000352E+00 0.  1.
</event>
<event>
 5   0  0.7509685E-06  0.2195174E+04  0.7818609E-02  0.8520439E-01
       -1   -1    0    0    0  501  0.00000000000E+00  0.00000000000E+00  0.11687909748E+04  0.11687909748E+04  0.50400001928E-02 0. -1.
        1   -1    0    0  501    0  0.00000000000E+00  0.00000000000E+00 -0.10307208667E+04  0.10307208667E+04  0.50400001928E-02 0.  1.
    10030    2    1    2    0    0  0.00000000000E+00  0.00000000000E+00  0.13807010813E+03  0.21995118415E+04  0.21951740218E+04 0.  0.
        4    1    3    3  502    0  0.34492543266E+03 -0.10417964973E+04  0.49448080451E+02  0.10985263863E+04  0.12699999809E+01 0. -1.
       -4    1    3    3    0  502 -0.34492543266E+03  0.10417964973E+04  0.88622027683E+02  0.11009854552E+04  0.12699999809E+01 0.  1.
</event>
<event>
 5   0  0.1832502E-05  0.2101060E+04  0.7818609E-02  0.8560777E-01
        2   -1    0    0  501    0  0.00000000000E+00  0.00000000000E+00  0.14032802051E+04  0.14032802052E+04  0.25500000920E-02 0.  1.
       -2   -1    0    0    0  501  0.00000000000E+00  0.00000000000E+00 -0.78645248346E+03  0.78645248346E+03  0.25500000920E-02 0. -1.
    10030    2    1    2    0    0  0.00000000000E+00  0.00000000000E+00  0.61682772169E+03  0.21897326886E+04  0.21010599252E+04 0.  0.
        2    1    3    3  502    0 -0.68863179328E+03  0.51035279242E+03  0.94145251542E+03  0.12731875582E+04  0.25500000920E-02 0.  1.
       -2    1    3    3    0  502  0.68863179328E+03 -0.51035279242E+03 -0.32462479373E+03  0.91654513046E+03  0.25500000920E-02 0. -1.
</event>
<event>
 5   0  0.1904553E-05  0.2676358E+04  0.7818609E-02  0.8342717E-01
        2   -1    0    0  501    0  0.00000000000E+00  0.00000000000E+00  0.17412811884E+04  0.17412811884E+04  0.25500000920E-02 0.  1.
       -2   -1    0    0    0  501  0.00000000000E+00  0.00000000000E+00 -0.10283939412E+04  0.10283939412E+04  0.25500000920E-02 0. -1.
    10030    2    1    2    0    0  0.00000000000E+00  0.00000000000E+00  0.71288724714E+03  0.27696751296E+04  0.26763579911E+04 0.  0.
        1    1    3    3  502    0 -0.85063888786E+03  0.47350735830E+03  0.13065663003E+04  0.16293898346E+04  0.50400001928E-02 0.  1.
       -1    1    3    3    0  502  0.85063888786E+03 -0.47350735830E+03 -0.59367905315E+03  0.11402852950E+04  0.50400001928E-02 0. -1.
</event>
<event>
 5   0  0.7388013E-06  0.2508479E+04  0.7818609E-02  0.8399971E-01
       -1   -1    0    0    0  501  0.00000000000E+00  0.00000000000E+00  0.91130817052E+03  0.91130817053E+03  0.50400001928E-02 0. -1.
        1   -1    0    0  501    0  0.00000000000E+00  0.00000000000E+00 -0.17262176751E+04  0.17262176751E+04  0.50400001928E-02 0.  1.
    10030    2    1    2    0    0  0.00000000000E+00  0.00000000000E+00 -0.81490950459E+03  0.26375258457E+04  0.25084786397E+04 0.  0.
        1    1    3    3  502    0  0.86057460633E+03 -0.39291087726E+02 -0.13659337544E+04  0.16149016886E+04  0.50400001928E-02 0.  1.
       -1    1    3    3    0  502 -0.86057460633E+03  0.39291087726E+02  0.55102424977E+03  0.10226241570E+04  0.50400001928E-02 0. -1.
</event>
<event>
 5   0  0.1832502E-05  0.2783017E+04  0.7818609E-02  0.8308560E-01
        2   -1    0    0  501    0  0.00000000000E+00  0.00000000000E+00  0.12150023289E+04  0.12150023289E+04  0.25500000920E-02 0. -1.
       -2   -1    0    0    0  501  0.00000000000E+00  0.00000000000E+00 -0.15936557034E+04  0.15936557034E+04  0.25500000920E-02 0.  1.
    10030    2    1    2    0    0  0.00000000000E+00  0.00000000000E+00 -0.37865337451E+03  0.28086580323E+04  0.27830166302E+04 0.  0.
        2    1    3    3  502    0 -0.45541025483E+03 -0.13054126221E+04 -0.34824105513E+03  0.14257532910E+04  0.25500000920E-02 0. -1.
       -2    1    3    3    0  502  0.45541025483E+03  0.13054126221E+04 -0.30412319374E+02  0.13829047413E+04  0.25500000920E-02 0.  1.
</event>
<event>
 5   0  0.7555871E-06  0.2745638E+04  0.7818609E-02  0.8320347E-01
        1   -1    0    0  501    0  0.00000000000E+00  0.00000000000E+00  0.13115280382E+04  0.13115280382E+04  0.50400001928E-02 0. -1.
       -1   -1    0    0    0  501  0.00000000000E+00  0.00000000000E+00 -0.14369740239E+04  0.14369740239E+04  0.50400001928E-02 0.  1.
    10030    2    1    2    0    0  0.00000000000E+00  0.00000000000E+00 -0.12544598569E+03  0.27485020622E+04  0.27456377930E+04 0.  0.
        3    1    3    3  502    0  0.60845685144E+03  0.87260859059E+03 -0.93136448335E+03  0.14138972040E+04  0.10100000352E+00 0.  1.
       -3    1    3    3    0  502 -0.60845685144E+03 -0.87260859059E+03  0.80591849765E+03  0.13346048582E+04  0.10100000352E+00 0. -1.
</event>
<event>
 5   0  0.1904553E-05  0.2785965E+04  0.7818609E-02  0.8307639E-01
        2   -1    0    0  501    0  0.00000000000E+00  0.00000000000E+00  0.17738704173E+04  0.17738704173E+04  0.25500000920E-02 0.  1.
       -2   -1    0    0    0  501  0.00000000000E+00  0.00000000000E+00 -0.10938793426E+04  0.10938793426E+04  0.25500000920E-02 0. -1.
    10030    2    1    2    0    0  0.00000000000E+00  0.00000000000E+00  0.67999107468E+03  0.28677497599E+04  0.27859649717E+04 0.  0.
        1    1    3    3  502    0 -0.12006488653E+04 -0.60735281944E+03  0.71108524358E+03  0.15218664096E+04  0.50400001928E-02 0. -1.
       -1    1    3    3    0  502  0.12006488653E+04  0.60735281944E+03 -0.31094168907E+02  0.13458833503E+04  0.50400001928E-02 0.  1.
</event>
<event>
 5   0  0.7555871E-06  0.2821901E+04  0.7818609E-02  0.8296501E-01
        1   -1    0    0  501    0  0.00000000000E+00  0.00000000000E+00  0.17113835251E+04  0.17113835251E+04  0.50400001928E-02 0.  1.
       -1   -1    0    0    0  501  0.00000000000E+00  0.00000000000E+00 -0.11632580901E+04  0.11632580901E+04  0.50400001928E-02 0. -1.
    10030    2    1    2    0    0  0.00000000000E+00  0.00000000000E+00  0.54812543500E+03  0.28746416152E+04  0.28219005871E+04 0.  0.
        3    1    3    3  502    0  0.44647972045E+03 -0.28369772042E+03 -0.10584180051E+04  0.11832485880E+04  0.10100000352E+00 0. -1.
       -3    1    3    3    0  502 -0.44647972045E+03  0.28369772042E+03  0.16065434401E+04  0.16913930272E+04  0.10100000352E+00 0.  1.
</event>
<event>
 5   0  0.1814230E-05  0.2643881E+04  0.7818609E-02  0.8353447E-01
        2   -1    0    0  501    0  0.00000000000E+00  0.00000000000E+00  0.22661206923E+04  0.22661206923E+04  0.25500000920E-02 0.  1.
       -2   -1    0    0    0  501  0.00000000000E+00  0.00000000000E+00 -0.77115364447E+03  0.77115364448E+03  0.25500000920E-02 0. -1.
    10030    2    1    2    0    0  0.00000000000E+00  0.00000000000E+00  0.14949670479E+04  0.30372743368E+04  0.26438814124E+04 0.  0.
        5    1    3    3  502    0  0.45547464943E+03  0.12010011688E+04  0.38850768117E+03  0.13419468216E+04  0.46999998093E+01 0. -1.
       -5    1    3    3    0  502 -0.45547464943E+03 -0.12010011688E+04  0.11064593667E+04  0.16953275152E+04  0.46999998093E+01 0.  1.
</event>
<event>
 5   0  0.1904553E-05  0.2525065E+04  0.7818609E-02  0.8394110E-01
       -2   -1    0    0    0  501  0.00000000000E+00  0.00000000000E+00  0.87585942517E+03  0.87585942517E+03  0.25500000920E-02 0.  1.
        2   -1    0    0  501    0  0.00000000000E+00  0.00000000000E+00 -0.18199137240E+04  0.18199137240E+04  0.25500000920E-02 0. -1.
    10030    2    1    2    0    0  0.00000000000E+00  0.00000000000E+00 -0.94405429888E+03  0.26957731492E+04  0.25250652175E+04 0.  0.
        1    1    3    3  502    0  0.24641906093E+03  0.11963414070E+03  0.84375212512E+03  0.88710333664E+03  0.50400001928E-02 0.  1.
       -1    1    3    3    0  502 -0.24641906093E+03 -0.11963414070E+03 -0.17878064240E+04  0.18086698126E+04  0.50400001928E-02 0. -1.
</event>
<event>
 5   0  0.7681342E-06  0.2770984E+04  0.7818609E-02  0.8312334E-01
       -1   -1    0    0    0  501  0.00000000000E+00  0.00000000000E+00  0.13700336732E+04  0.13700336732E+04  0.50400001928E-02 0.  1.
        1   -1    0    0  501    0  0.00000000000E+00  0.00000000000E+00 -0.14011252257E+04  0.14011252257E+04  0.50400001928E-02 0. -1.
    10030    2    1    2    0    0  0.00000000000E+00  0.00000000000E+00 -0.31091552518E+02  0.27711588990E+04  0.27709844746E+04 0.  0.
        2    1    3    3  502    0  0.26849476409E+03 -0.71350313738E+03 -0.11725164228E+04  0.13985603051E+04  0.25500000920E-02 0. -1.
       -2    1    3    3    0  502 -0.26849476409E+03  0.71350313738E+03  0.11414248702E+04  0.13725985938E+04  0.25500000920E-02 0.  1.
</event>
<event>
 5   0  0.1832502E-05  0.2798870E+04  0.7818609E-02  0.8303619E-01
        2   -1    0    0  501    0  0.00000000000E+00  0.00000000000E+00  0.18837028030E+04  0.18837028030E+04  0.25500000920E-02 0. -1.
       -2   -1    0    0    0  501  0.00000000000E+00  0.00000000000E+00 -0.10396644888E+04  0.10396644888E+04  0.25500000920E-02 0.  1.
    10030    2    1    2    0    0  0.00000000000E+00  0.00000000000E+00  0.84403831423E+03  0.29233672918E+04  0.27988704234E+04 0.  0.
        2    1    3    3  502    0 -0.15172303016E+02 -0.60796286649E+03 -0.89442896925E+03  0.10815970723E+04  0.25500000920E-02 0.  1.
       -2    1    3    3    0  502  0.15172303016E+02  0.60796286649E+03  0.17384672835E+04  0.18417702195E+04  0.25500000920E-02 0. -1.
</event>
<event>
 5   0  0.1904553E-05  0.2783795E+04  0.7818609E-02  0.8308317E-01
        2   -1    0    0  501    0  0.00000000000E+00  0.00000000000E+00  0.20356932252E+04  0.20356932252E+04  0.25500000920E-02 0.  1.
       -2   -1    0    0    0  501  0.00000000000E+00  0.00000000000E+00 -0.95170458998E+03  0.95170458998E+03  0.25500000920E-02 0. -1.
    10030    2    1    2    0    0  0.00000000000E+00  0.00000000000E+00  0.10839886353E+04  0.29873978152E+04  0.27837949538E+04 0.  0.
        1    1    3    3  502    0 -0.13345652747E+04 -0.23426093520E+03  0.88377831070E+03  0.16177165267E+04  0.50400001928E-02 0.  1.
       -1    1    3    3    0  502  0.13345652747E+04  0.23426093520E+03  0.20021032455E+03  0.13696812886E+04  0.50400001928E-02 0. -1.
</event>
<event>
 5   0  0.7681342E-06  0.2797677E+04  0.7818609E-02  0.8303990E-01
       -1   -1    0    0    0  501  0.00000000000E+00  0.00000000000E+00  0.10668792987E+04  0.10668792988E+04  0.50400001928E-02 0.  1.
        1   -1    0    0  501    0  0.00000000000E+00  0.00000000000E+00 -0.18340860676E+04  0.18340860676E+04  0.50400001928E-02 0. -1.
    10030    2    1    2    0    0  0.00000000000E+00  0.00000000000E+00 -0.76720676884E+03  0.29009653664E+04  0.27976765057E+04 0.  0.
        2    1    3    3  502    0  0.11669144057E+04  0.35627220913E+03  0.32585672094E+03  0.12628545917E+04  0.25500000920E-02 0.  1.
       -2    1    3    3    0  502 -0.11669144057E+04 -0.35627220913E+03 -0.10930634898E+04  0.16381107746E+04  0.25500000920E-02 0. -1.
</event>
<event>
 5   0  0.7509685E-06  0.2983836E+04  0.7818609E-02  0.8248362E-01
        1   -1    0    0  501    0  0.00000000000E+00  0.00000000000E+00  0.18000424808E+04  0.18000424808E+04  0.50400001928E-02 0.  1.
       -1   -1    0    0    0  501  0.00000000000E+00  0.00000000000E+00 -0.12365371781E+04  0.12365371781E+04  0.50400001928E-02 0. -1.
    10030    2    1    2    0    0  0.00000000000E+00  0.00000000000E+00  0.56350530266E+03  0.30365796589E+04  0.29838360878E+04 0.  0.
        4    1    3    3  502    0 -0.59444298672E+03  0.13622976212E+02 -0.11107432670E+04  0.12598810531E+04  0.12699999809E+01 0. -1.
       -4    1    3    3    0  502  0.59444298672E+03 -0.13622976212E+02  0.16742485696E+04  0.17766986058E+04  0.12699999809E+01 0.  1.
</event>
<event>
 5   0  0.1814230E-05  0.1759149E+04  0.7818609E-02  0.8728331E-01
       -2   -1    0    0    0  501  0.00000000000E+00  0.00000000000E+00  0.58650424218E+03  0.58650424219E+03  0.25500000920E-02 0. -1.
        2   -1    0    0  501    0  0.00000000000E+00  0.00000000000E+00 -0.13190883788E+04  0.13190883788E+04  0.25500000920E-02 0.  1.
    10030    2    1    2    0    0  0.00000000000E+00  0.00000000000E+00 -0.73258413658E+03  0.19055926210E+04  0.17591485781E+04 0.  0.
        5    1    3    3  502    0  0.43105782926E+03  0.62492355670E+03 -0.84743982572E+03  0.11377682770E+04  0.46999998093E+01 0. -1.
       -5    1    3    3    0  502 -0.43105782926E+03 -0.62492355670E+03  0.11485568914E+03  0.76782434398E+03  0.46999998093E+01 0.  1.
</event>
<event>
 5   0  0.7613444E-06  0.2724995E+04  0.7818609E-02  0.8326940E-01
        1   -1    0    0  501    0  0.00000000000E+00  0.00000000000E+00  0.18245501109E+04  0.18245501109E+04  0.50400001928E-02 0.  1.
       -1   -1    0    0    0  501  0.00000000000E+00  0.00000000000E+00 -0.10174558389E+04  0.10174558389E+04  0.50400001928E-02 0. -1.
    10030    2    1    2    0    0  0.00000000000E+00  0.00000000000E+00  0.80709427198E+03  0.28420059498E+04  0.27249947990E+04 0.  0.
        5    1    3    3  502    0 -0.10461729305E+04 -0.27414280090E+03  0.12678322988E+04  0.16664491902E+04  0.46999998093E+01 0.  1.
       -5    1    3    3    0  502  0.10461729305E+04  0.27414280090E+03 -0.46073802677E+03  0.11755567596E+04  0.46999998093E+01 0. -1.
</event>
<event>
 5   0  0.7555871E-06  0.2481137E+04  0.7818609E-02  0.8409737E-01
       -1   -1    0    0    0  501  0.00000000000E+00  0.00000000000E+00  0.61183196085E+03  0.61183196087E+03  0.50400001928E-02 0. -1.
        1   -1    0    0  501    0  0.00000000000E+00  0.00000000000E+00 -0.25154132090E+04  0.25154132090E+04  0.50400001928E-02 0.  1.
    10030    2    1    2    0    0  0.00000000000E+00  0.00000000000E+00 -0.19035812481E+04  0.31272451698E+04  0.24811369942E+04 0.  0.
        3    1    3    3  502    0  0.54231501121E+03 -0.74966146453E+03 -0.19933730763E+04  0.21976428541E+04  0.10100000352E+00 0.  1.
       -3    1    3    3    0  502 -0.54231501121E+03  0.74966146453E+03  0.89791828180E+02  0.92960231572E+03  0.10100000352E+00 0. -1.
</event>
<event>
 5   0  0.1874272E-05  0.2609450E+04  0.7818609E-02  0.8364998E-01
        2   -1    0    0  501    0  0.00000000000E+00  0.00000000000E+00  0.18434828283E+04  0.18434828283E+04  0.25500000920E-02 0.  1.
       -2   -1    0    0    0  501  0.00000000000E+00  0.00000000000E+00 -0.92341945237E+03  0.92341945237E+03  0.25500000920E-02 0. -1.
    10030    2    1    2    0    0  0.00000000000E+00  0.00000000000E+00  0.92006337593E+03  0.27669022807E+04  0.26094504431E+04 0.  0.
        3    1    3    3  502    0  0.38764081881E+03  0.11097407493E+04  0.10603352936E+04  0.15830669221E+04  0.10100000352E+00 0.  1.
       -3    1    3    3    0  502 -0.38764081881E+03 -0.11097407493E+04 -0.14027191763E+03  0.11838353585E+04  0.10100000352E+00 0. -1.
</event>
<event>
 5   0  0.1814230E-05  0.2376526E+04  0.7818609E-02  0.8448345E-01
        2   -1    0    0  501    0  0.00000000000E+00  0.00000000000E+00  0.88009817859E+03  0.88009817860E+03  0.25500000920E-02 0.  1.
       -2   -1    0    0    0  501  0.00000000000E+00  0.00000000000E+00 -0.16043310022E+04  0.16043310022E+04  0.25500000920E-02 0. -1.
    10030    2    1    2    0    0  0.00000000000E+00  0.00000000000E+00 -0.72423282356E+03  0.24844291808E+04  0.23765258617E+04 0.  0.
        5    1    3    3  502    0 -0.51393738467E+03  0.77089839044E+03  0.41566032376E+03  0.10154858731E+04  0.46999998093E+01 0. -1.
       -5    1    3    3    0  502  0.51393738467E+03 -0.77089839044E+03 -0.11398931473E+04  0.14689433076E+04  0.46999998093E+01 0.  1.
</event>
<event>
 5   0  0.7613444E-06  0.2838968E+04  0.7818609E-02  0.8291271E-01
        1   -1    0    0  501    0  0.00000000000E+00  0.00000000000E+00  0.11817081701E+04  0.11817081701E+04  0.50400001928E-02 0.  1.
       -1   -1    0    0    0  501  0.00000000000E+00  0.00000000000E+00 -0.17051036407E+04  0.17051036407E+04  0.50400001928E-02 0. -1.
    10030    2    1    2    0    0  0.00000000000E+00  0.00000000000E+00 -0.52339547066E+03  0.28868118108E+04  0.28389680541E+04 0.  0.
        5    1    3    3  502    0  0.38742199974E+03 -0.35868463064E+03 -0.16015383362E+04  0.16863266595E+04  0.46999998093E+01 0. -1.
       -5    1    3    3    0  502 -0.38742199974E+03  0.35868463064E+03  0.10781428655E+04  0.12004851514E+04  0.46999998093E+01 0.  1.
</event>
<event>
 5   0  0.7681342E-06  0.2802101E+04  0.7818609E-02  0.8302617E-01
        1   -1    0    0  501    0  0.00000000000E+00  0.00000000000E+00  0.28503031860E+04  0.28503031860E+04  0.50400001928E-02 0.  1.
       -1   -1    0    0    0  501  0.00000000000E+00  0.00000000000E+00 -0.68867827944E+03  0.68867827946E+03  0.50400001928E-02 0. -1.
    10030    2    1    2    0    0  0.00000000000E+00  0.00000000000E+00  0.21616249066E+04  0.35389814655E+04  0.28021005650E+04 0.  0.
        2    1    3    3  502    0 -0.13656152661E+04 -0.30512411368E+03  0.11695458649E+04  0.18236894774E+04  0.25500000920E-02 0. -1.
       -2    1    3    3    0  502  0.13656152661E+04  0.30512411368E+03  0.99207904167E+03  0.17152919881E+04  0.25500000920E-02 0.  1.
</event>
<event>
 5   0  0.1923559E-05  0.2681929E+04  0.7818609E-02  0.8340892E-01
       -2   -1    0    0    0  501  0.00000000000E+00  0.00000000000E+00  0.65936995308E+03  0.65936995309E+03  0.25500000920E-02 0.  1.
        2   -1    0    0  501    0  0.00000000000E+00  0.00000000000E+00 -0.27271272704E+04  0.27271272704E+04  0.25500000920E-02 0. -1.
    10030    2    1    2    0    0  0.00000000000E+00  0.00000000000E+00 -0.20677573173E+04  0.33864972235E+04  0.26819289926E+04 0.  0.
        4    1    3    3  502    0 -0.94000298095E+03  0.61741691432E+03 -0.11169007206E+03  0.11301705780E+04  0.12699999809E+01 0.  1.
       -4    1    3    3    0  502  0.94000298095E+03 -0.61741691432E+03 -0.19560672452E+04  0.22563266455E+04  0.12699999809E+01 0. -1.
</event>
<event>
 5   0  0.1814230E-05  0.2783212E+04  0.7818609E-02  0.8308499E-01
        2   -1    0    0  501    0  0.00000000000E+00  0.00000000000E+00  0.12172411397E+04  0.12172411397E+04  0.25500000920E-02 0.  1.
       -2   -1    0    0    0  501  0.00000000000E+00  0.00000000000E+00 -0.15909477904E+04  0.15909477904E+04  0.25500000920E-02 0. -1.
    10030    2    1    2    0    0  0.00000000000E+00  0.00000000000E+00 -0.37370665066E+03  0.28081889301E+04  0.27832118867E+04 0.  0.
        5    1    3    3  502    0  0.56371557907E+03 -0.12722366857E+04 -0.20052382980E+03  0.14059137011E+04  0.46999998093E+01 0. -1.
       -5    1    3    3    0  502 -0.56371557907E+03  0.12722366857E+04 -0.17318282086E+03  0.14022752290E+04  0.46999998093E+01 0.  1.
</event>
<event>
 5   0  0.7388013E-06  0.2812022E+04  0.7818609E-02  0.8299546E-01
       -1   -1    0    0    0  501  0.00000000000E+00  0.00000000000E+00  0.12540631419E+04  0.12540631419E+04  0.50400001928E-02 0.  1.
        1   -1    0    0  501    0  0.00000000000E+00  0.00000000000E+00 -0.15763698990E+04  0.15763698990E+04  0.50400001928E-02 0. -1.
    10030    2    1    2    0    0  0.00000000000E+00  0.00000000000E+00 -0.32230675711E+03  0.28304330409E+04  0.28120223245E+04 0.  0.
        1    1    3    3  502    0 -0.69889743923E+03 -0.23229210669E+03 -0.13666801212E+04  0.15524921279E+04  0.50400001928E-02 0. -1.
       -1    1    3    3    0  502  0.69889743923E+03  0.23229210669E+03  0.10443733641E+04  0.12779409130E+04  0.50400001928E-02 0.  1.
</event>
<event>
 5   0  0.1832502E-05  0.2861542E+04  0.7818609E-02  0.8284413E-01
        2   -1    0    0  501    0  0.00000000000E+00  0.00000000000E+00  0.12821346537E+04  0.12821346537E+04  0.25500000920E-02 0. -1.
       -2   -1    0    0    0  501  0.00000000000E+00  0.00000000000E+00 -0.15966385539E+04  0.15966385539E+04  0.25500000920E-02 0.  1.
    10030    2    1    2    0    0  0.00000000000E+00  0.00000000000E+00 -0.31450390023E+03  0.28787732076E+04  0.28615419755E+04 0.  0.
        2    1    3    3  502    0 -0.37292392556E+03  0.85527811408E+03  0.93396055604E+03  0.13201724232E+04  0.25500000920E-02 0. -1.
       -2    1    3    3    0  502  0.37292392556E+03 -0.85527811408E+03 -0.12484644563E+04  0.15586007844E+04  0.25500000920E-02 0.  1.
</event>
<event>
 5   0  0.7681342E-06  0.2762265E+04  0.7818609E-02  0.8315080E-01
        1   -1    0    0  501    0  0.00000000000E+00  0.00000000000E+00  0.10452142667E+04  0.10452142667E+04  0.50400001928E-02 0. -1.
       -1   -1    0    0    0  501  0.00000000000E+00  0.00000000000E+00 -0.18250100045E+04  0.18250100045E+04  0.50400001928E-02 0.  1.
    10030    2    1    2    0    0  0.00000000000E+00  0.00000000000E+00 -0.77979573787E+03  0.28702242712E+04  0.27622646460E+04 0.  0.
        2    1    3    3  502    0 -0.74790028930E+03 -0.14083636294E+03 -0.15874781733E+04  0.17604762636E+04  0.25500000920E-02 0.  1.
       -2    1    3    3    0  502  0.74790028930E+03  0.14083636294E+03  0.80768243547E+03  0.11097480076E+04  0.25500000920E-02 0. -1.
</event>
<event>
 5   0  0.1904553E-05  0.2823925E+04  0.7818609E-02  0.8295879E-01
       -2   -1    0    0    0  501  0.00000000000E+00  0.00000000000E+00  0.91708870222E+03  0.91708870223E+03  0.25500000920E-02 0. -1.
        2   -1    0    0  501    0  0.00000000000E+00  0.00000000000E+00 -0.21738773882E+04  0.21738773882E+04  0.25500000920E-02 0.  1.
    10030    2    1    2    0    0  0.00000000000E+00  0.00000000000E+00 -0.12567886860E+04  0.30909660905E+04  0.28239252064E+04 0.  0.
        1    1    3    3  502    0 -0.14573270081E+02 -0.62161767086E+03  0.75916431481E+03  0.98130085388E+03  0.50400001928E-02 0. -1.
       -1    1    3    3    0  502  0.14573270081E+02  0.62161767086E+03 -0.20159530008E+04  0.21096652366E+04  0.50400001928E-02 0.  1.
</event>
<event>
 5   0  0.7555871E-06  0.2711799E+04  0.7818609E-02  0.8331187E-01
       -1   -1    0    0    0  501  0.00000000000E+00  0.00000000000E+00  0.12102623461E+04  0.12102623461E+04  0.50400001928E-02 0. -1.
        1   -1    0    0  501    0  0.00000000000E+00  0.00000000000E+00 -0.15190618544E+04  0.15190618544E+04  0.50400001928E-02 0.  1.
    10030    2    1    2    0    0  0.00000000000E+00  0.00000000000E+00 -0.30879950830E+03  0.27293242004E+04  0.27117989333E+04 0.  0.
        3    1    3    3  502    0  0.30034471248E+03 -0.58222017988E+03  0.10404015256E+04  0.12294806338E+04  0.10100000352E+00 0. -1.
       -3    1    3    3    0  502 -0.30034471248E+03  0.58222017988E+03 -0.13492010339E+04  0.14998435666E+04  0.10100000352E+00 0.  1.
</event>
<event>
 5   0  0.7555871E-06  0.1800306E+04  0.7818609E-02  0.8706137E-01
        1   -1    0    0  501    0  0.00000000000E+00  0.00000000000E+00  0.10368640117E+04  0.10368640117E+04  0.50400001928E-02 0. -1.
       -1   -1    0    0    0  501  0.00000000000E+00  0.00000000000E+00 -0.78146706286E+03  0.78146706287E+03  0.50400001928E-02 0.  1.
    10030    2    1    2    0    0  0.00000000000E+00  0.00000000000E+00  0.25539694882E+03  0.18183310746E+04  0.18003056116E+04 0.  0.
        3    1    3    3  502    0  0.50988634248E+03 -0.14538222104E+03  0.86241223509E+03  0.10123610749E+04  0.10100000352E+00 0. -1.
       -3    1    3    3    0  502 -0.50988634248E+03  0.14538222104E+03 -0.60701528628E+03  0.80596999970E+03  0.10100000352E+00 0.  1.
</event>
<event>
 5   0  0.1923559E-05  0.2749533E+04  0.7818609E-02  0.8319110E-01
       -2   -1    0    0    0  501  0.00000000000E+00  0.00000000000E+00  0.12155300785E+04  0.12155300785E+04  0.25500000920E-02 0.  1.
        2   -1    0    0  501    0  0.00000000000E+00  0.00000000000E+00 -0.15548634850E+04  0.15548634850E+04  0.25500000920E-02 0. -1.
    10030    2    1    2    0    0  0.00000000000E+00  0.00000000000E+00 -0.33933340647E+03  0.27703935636E+04  0.27495332943E+04 0.  0.
        4    1    3    3  502    0  0.56524257048E+03  0.57522006244E+03  0.95215554224E+03  0.12477896751E+04  0.12699999809E+01 0.  1.
       -4    1    3    3    0  502 -0.56524257048E+03 -0.57522006244E+03 -0.12914889487E+04  0.15226038885E+04  0.12699999809E+01 0. -1.
</event>
<event>
 5   0  0.1904553E-05  0.2783624E+04  0.7818609E-02  0.8308370E-01
        2   -1    0    0  501    0  0.00000000000E+00  0.00000000000E+00  0.12112776078E+04  0.12112776078E+04  0.25500000920E-02 0. -1.
       -2   -1    0    0    0  501  0.00000000000E+00  0.00000000000E+00 -0.15992545228E+04  0.15992545228E+04  0.25500000920E-02 0.  1.
    10030    2    1    2    0    0  0.00000000000E+00  0.00000000000E+00 -0.38797691503E+03  0.28105321306E+04  0.27836243947E+04 0.  0.
        1    1    3    3  502    0  0.12600110113E+04 -0.58999214339E+03 -0.15590495850E+03  0.14000088692E+04  0.50400001928E-02 0.  1.
       -1    1    3    3    0  502 -0.12600110113E+04  0.58999214339E+03 -0.23207195653E+03  0.14105232614E+04  0.50400001928E-02 0. -1.
</event>
<event>
 5   0  0.6288000E-06  0.2796170E+04  0.7818609E-02  0.8304458E-01
        4   -1    0    0  501    0  0.00000000000E+00  0.00000000000E+00  0.99719740020E+03  0.99719820892E+03  0.12699999809E+01 0. -1.
       -4   -1    0    0    0  501  0.00000000000E+00  0.00000000000E+00 -0.19601336805E+04  0.19601340919E+04  0.12699999809E+01 0.  1.
    10030    2    1    2    0    0  0.00000000000E+00  0.00000000000E+00 -0.96293628029E+03  0.29573323008E+04  0.27961702483E+04 0.  0.
        3    1    3    3  502    0 -0.58812455139E+02  0.74287909517E+03  0.76963774519E+03  0.10712938551E+04  0.10100000352E+00 0. -1.
       -3    1    3    3    0  502  0.58812455139E+02 -0.74287909517E+03 -0.17325740255E+04  0.18860384458E+04  0.10100000352E+00 0.  1.
</event>
<event>
 5   0  0.7509685E-06  0.1710627E+04  0.7818609E-02  0.8755327E-01
       -1   -1    0    0    0  501  0.00000000000E+00  0.00000000000E+00  0.42700930393E+03  0.42700930396E+03  0.50400001928E-02 0.  1.
        1   -1    0    0  501    0  0.00000000000E+00  0.00000000000E+00 -0.17132198720E+04  0.17132198720E+04  0.50400001928E-02 0. -1.
    10030    2    1    2    0    0  0.00000000000E+00  0.00000000000E+00 -0.12862105680E+04  0.21402291759E+04  0.17106265812E+04 0.  0.
        4    1    3    3  502    0 -0.45754697562E+02  0.47615441833E+03  0.24400567852E+03  0.53698873963E+03  0.12699999809E+01 0.  1.
       -4    1    3    3    0  502  0.45754697562E+02 -0.47615441833E+03 -0.15302162466E+04  0.16032404363E+04  0.12699999809E+01 0. -1.
</event>
<event>
 5   0  0.7613444E-06  0.2466841E+04  0.7818609E-02  0.8414895E-01
        1   -1    0    0  501    0  0.00000000000E+00  0.00000000000E+00  0.27983942209E+04  0.27983942209E+04  0.50400001928E-02 0.  1.
       -1   -1    0    0    0  501  0.00000000000E+00  0.00000000000E+00 -0.54364257591E+03  0.54364257593E+03  0.50400001928E-02 0. -1.
    10030    2    1    2    0    0  0.00000000000E+00  0.00000000000E+00  0.22547516450E+04  0.33420367968E+04  0.24668410915E+04 0.  0.
        5    1    3    3  502    0 -0.94429275618E+03 -0.24418441952E+03  0.10454593564E+03  0.98095197781E+03  0.46999998093E+01 0. -1.
       -5    1    3    3    0  502  0.94429275618E+03  0.24418441952E+03  0.21502057093E+04  0.23610848190E+04  0.46999998093E+01 0.  1.
</event>
<event>
 5   0  0.1832502E-05  0.2788879E+04  0.7818609E-02  0.8306729E-01
        2   -1    0    0  501    0  0.00000000000E+00  0.00000000000E+00  0.10505527929E+04  0.10505527929E+04  0.25500000920E-02 0.  1.
       -2   -1    0    0    0  501  0.00000000000E+00  0.00000000000E+00 -0.18508937337E+04  0.18508937337E+04  0.25500000920E-02 0. -1.
    10030    2    1    2    0    0  0.00000000000E+00  0.00000000000E+00 -0.80034094078E+03  0.29014465267E+04  0.27888790446E+04 0.  0.
        2    1    3    3  502    0 -0.32937732205E+03  0.45957919198E+03 -0.17262799653E+04  0.18165200171E+04  0.25500000920E-02 0. -1.
       -2    1    3    3    0  502  0.32937732205E+03 -0.45957919198E+03  0.92593902452E+03  0.10849265095E+04  0.25500000920E-02 0.  1.
</event>
<event>
 5   0  0.7509685E-06  0.1816170E+04  0.7818609E-02  0.8697747E-01
        1   -1    0    0  501    0  0.00000000000E+00  0.00000000000E+00  0.81326878090E+03  0.81326878091E+03  0.50400001928E-02 0.  1.
       -1   -1    0    0    0  501  0.00000000000E+00  0.00000000000E+00 -0.10139555287E+04  0.10139555287E+04  0.50400001928E-02 0. -1.
    10030    2    1    2    0    0  0.00000000000E+00  0.00000000000E+00 -0.20068674776E+03  0.18272243096E+04  0.18161700104E+04 0.  0.
        4    1    3    3  502    0 -0.56438429394E+03  0.70454641566E+03 -0.19943897520E+03  0.92449597121E+03  0.12699999809E+01 0. -1.
       -4    1    3    3    0  502  0.56438429394E+03 -0.70454641566E+03 -0.12477725629E+01  0.90272833837E+03  0.12699999809E+01 0.  1.
</event>
<event>
 5   0  0.1814230E-05  0.2197091E+04  0.7818609E-02  0.8519640E-01
        2   -1    0    0  501    0  0.00000000000E+00  0.00000000000E+00  0.73673840250E+03  0.73673840250E+03  0.25500000920E-02 0. -1.
       -2   -1    0    0    0  501  0.00000000000E+00  0.00000000000E+00 -0.16380328176E+04  0.16380328176E+04  0.25500000920E-02 0.  1.
    10030    2    1    2    0    0  0.00000000000E+00  0.00000000000E+00 -0.90129441512E+03  0.23747712201E+04  0.21970905137E+04 0.  0.
        5    1    3    3  502    0  0.78652083952E+03 -0.49465111566E+03 -0.10841194816E+04  0.14278066737E+04  0.46999998093E+01 0.  1.
       -5    1    3    3    0  502 -0.78652083952E+03  0.49465111566E+03  0.18282506644E+03  0.94696454640E+03  0.46999998093E+01 0. -1.
</event>
<event>
 5   0  0.7613444E-06  0.2782180E+04  0.7818609E-02  0.8308822E-01
       -1   -1    0    0    0  501  0.00000000000E+00  0.00000000000E+00  0.16211246449E+04  0.16211246449E+04  0.50400001928E-02 0. -1.
        1   -1    0    0  501    0  0.00000000000E+00  0.00000000000E+00 -0.11936972173E+04  0.11936972173E+04  0.50400001928E-02 0.  1.
    10030    2    1    2    0    0  0.00000000000E+00  0.00000000000E+00  0.42742742761E+03  0.28148218622E+04  0.27821804237E+04 0.  0.
        5    1    3    3  502    0 -0.68776316103E+03  0.42244450583E+03 -0.93255371927E+03  0.12333515539E+04  0.46999998093E+01 0.  1.
       -5    1    3    3    0  502  0.68776316103E+03 -0.42244450583E+03  0.13599811469E+04  0.15814703083E+04  0.46999998093E+01 0. -1.
</event>
<event>
 5   0  0.7388013E-06  0.2653208E+04  0.7818609E-02  0.8350349E-01
       -1   -1    0    0    0  501  0.00000000000E+00  0.00000000000E+00  0.13445671187E+04  0.13445671187E+04  0.50400001928E-02 0.  1.
        1   -1    0    0  501    0  0.00000000000E+00  0.00000000000E+00 -0.13088806912E+04  0.13088806912E+04  0.50400001928E-02 0. -1.
    10030    2    1    2    0    0  0.00000000000E+00  0.00000000000E+00  0.35686427505E+02  0.26534478100E+04  0.26532078244E+04 0.  0.
        1    1    3    3  502    0  0.39723302007E+03  0.12607730768E+04 -0.94127246896E+02  0.13252180055E+04  0.50400001928E-02 0.  1.
       -1    1    3    3    0  502 -0.39723302007E+03 -0.12607730768E+04  0.12981367440E+03  0.13282298045E+04  0.50400001928E-02 0. -1.
</event>
<event>
 5   0  0.1832502E-05  0.2792737E+04  0.7818609E-02  0.8305527E-01
       -2   -1    0    0    0  501  0.00000000000E+00  0.00000000000E+00  0.11396534256E+04  0.11396534257E+04  0.25500000920E-02 0.  1.
        2   -1    0    0  501    0  0.00000000000E+00  0.00000000000E+00 -0.17109109248E+04  0.17109109248E+04  0.25500000920E-02 0. -1.
    10030    2    1    2    0    0  0.00000000000E+00  0.00000000000E+00 -0.57125749918E+03  0.28505643505E+04  0.27927373643E+04 0.  0.
        2    1    3    3  502    0  0.99609712601E+03 -0.18055817170E+02 -0.12843103570E+04  0.16254195121E+04  0.25500000920E-02 0. -1.
       -2    1    3    3    0  502 -0.99609712601E+03  0.18055817170E+02  0.71305285786E+03  0.12251448384E+04  0.25500000920E-02 0.  1.
</event>
<event>
 5   0  0.7613444E-06  0.2890505E+04  0.7818609E-02  0.8275708E-01
       -1   -1    0    0    0  501  0.00000000000E+00  0.00000000000E+00  0.12971666108E+04  0.12971666108E+04  0.50400001928E-02 0. -1.
        1   -1    0    0  501    0  0.00000000000E+00  0.00000000000E+00 -0.16102445501E+04  0.16102445501E+04  0.50400001928E-02 0.  1.
    10030    2    1    2    0    0  0.00000000000E+00  0.00000000000E+00 -0.31307793937E+03  0.29074111609E+04  0.28905054683E+04 0.  0.
        5    1    3    3  502    0  0.13328656324E+03  0.11866696750E+04 -0.97541543081E+03  0.15418844244E+04  0.46999998093E+01 0.  1.
       -5    1    3    3    0  502 -0.13328656324E+03 -0.11866696750E+04  0.66233749144E+03  0.13655267365E+04  0.46999998093E+01 0. -1.
</event>
<event>
 5   0  0.1904553E-05  0.2808660E+04  0.7818609E-02  0.8300585E-01
        2   -1    0    0  501    0  0.00000000000E+00  0.00000000000E+00  0.21107603049E+04  0.21107603049E+04  0.25500000920E-02 0.  1.
       -2   -1    0    0    0  501  0.00000000000E+00  0.00000000000E+00 -0.93432845207E+03  0.93432845208E+03  0.25500000920E-02 0. -1.
    10030    2    1    2    0    0  0.00000000000E+00  0.00000000000E+00  0.11764318528E+04  0.30450887570E+04  0.28086604696E+04 0.  0.
        1    1    3    3  502    0  0.69692183569E+03  0.72169875923E+03  0.16535800130E+04  0.19341344326E+04  0.50400001928E-02 0.  1.
       -1    1    3    3    0  502 -0.69692183569E+03 -0.72169875923E+03 -0.47714816011E+03  0.11109543244E+04  0.50400001928E-02 0. -1.
</event>
<event>
 5   0  0.7388013E-06  0.2628287E+04  0.7818609E-02  0.8358656E-01
       -1   -1    0    0    0  501  0.00000000000E+00  0.00000000000E+00  0.13347590105E+04  0.13347590105E+04  0.50400001928E-02 0.  1.
        1   -1    0    0  501    0  0.00000000000E+00  0.00000000000E+00 -0.12938465807E+04  0.12938465807E+04  0.50400001928E-02 0. -1.
    10030    2    1    2    0    0  0.00000000000E+00  0.00000000000E+00  0.40912429800E+02  0.26286055912E+04  0.26282871851E+04 0.  0.
        1    1    3    3  502    0 -0.17077450615E+03  0.84176945007E+03 -0.97426653061E+03  0.12988206234E+04  0.50400001928E-02 0. -1.
       -1    1    3    3    0  502  0.17077450615E+03 -0.84176945007E+03  0.10151789604E+04  0.13297849678E+04  0.50400001928E-02 0.  1.
</event>
<event>
 5   0  0.7681342E-06  0.2783988E+04  0.7818609E-02  0.8308257E-01
        1   -1    0    0  501    0  0.00000000000E+00  0.00000000000E+00  0.14777438207E+04  0.14777438207E+04  0.50400001928E-02 0. -1.
       -1   -1    0    0    0  501  0.00000000000E+00  0.00000000000E+00 -0.13112203617E+04  0.13112203617E+04  0.50400001928E-02 0.  1.
    10030    2    1    2    0    0  0.00000000000E+00  0.00000000000E+00  0.16652345905E+03  0.27889641824E+04  0.27839883528E+04 0.  0.
        2    1    3    3  502    0  0.13704523515E+04 -0.20061919775E+03 -0.55766992771E+02  0.13861809650E+04  0.25500000920E-02 0. -1.
       -2    1    3    3    0  502 -0.13704523515E+04  0.20061919775E+03  0.22229045182E+03  0.14027832175E+04  0.25500000920E-02 0.  1.
</event>
<event>
 5   0  0.1923559E-05  0.2771949E+04  0.7818609E-02  0.8312030E-01
        2   -1    0    0  501    0  0.00000000000E+00  0.00000000000E+00  0.22234989583E+04  0.22234989583E+04  0.25500000920E-02 0. -1.
       -2   -1    0    0    0  501  0.00000000000E+00  0.00000000000E+00 -0.86391999291E+03  0.86391999291E+03  0.25500000920E-02 0.  1.
    10030    2    1    2    0    0  0.00000000000E+00  0.00000000000E+00  0.13595789654E+04  0.30874189512E+04  0.27719489204E+04 0.  0.
        4    1    3    3  502    0  0.11587824352E+04  0.71571836361E+02 -0.16334504378E+03  0.11724258937E+04  0.12699999809E+01 0.  1.
       -4    1    3    3    0  502 -0.11587824352E+04 -0.71571836361E+02  0.15229240092E+04  0.19149930576E+04  0.12699999809E+01 0. -1.
</event>
<event>
 5   0  0.1832502E-05  0.2785735E+04  0.7818609E-02  0.8307711E-01
        2   -1    0    0  501    0  0.00000000000E+00  0.00000000000E+00  0.17777818020E+04  0.17777818020E+04  0.25500000920E-02 0.  1.
       -2   -1    0    0    0  501  0.00000000000E+00  0.00000000000E+00 -0.10912923161E+04  0.10912923161E+04  0.25500000920E-02 0. -1.
    10030    2    1    2    0    0  0.00000000000E+00  0.00000000000E+00  0.68648948585E+03  0.28690741181E+04  0.27857348189E+04 0.  0.
        2    1    3    3  502    0 -0.20154711109E+03  0.11025312516E+04 -0.50846765622E+03  0.12307460161E+04  0.25500000920E-02 0. -1.
       -2    1    3    3    0  502  0.20154711109E+03 -0.11025312516E+04  0.11949571421E+04  0.16383281021E+04  0.25500000920E-02 0.  1.
</event>
<event>
 5   0  0.1923559E-05  0.2795551E+04  0.7818609E-02  0.8304651E-01
        2   -1    0    0  501    0  0.00000000000E+00  0.00000000000E+00  0.14677250596E+04  0.14677250596E+04  0.25500000920E-02 0. -1.
       -2   -1    0    0    0  501  0.00000000000E+00  0.00000000000E+00 -0.13311591725E+04  0.13311591725E+04  0.25500000920E-02 0.  1.
    10030    2    1    2    0    0  0.00000000000E+00  0.00000000000E+00  0.13656588712E+03  0.27988842321E+04  0.27955505188E+04 0.  0.
        4    1    3    3  502    0 -0.72747713233E+03  0.11183232466E+04 -0.34923257963E+03  0.13790702918E+04  0.12699999809E+01 0.  1.
       -4    1    3    3    0  502  0.72747713233E+03 -0.11183232466E+04  0.48579846675E+03  0.14198139404E+04  0.12699999809E+01 0. -1.
</event>
<event>
 5   0  0.7681342E-06  0.2840271E+04  0.7818609E-02  0.8290874E-01
        1   -1    0    0  501    0  0.00000000000E+00  0.00000000000E+00  0.18216748513E+04  0.18216748513E+04  0.50400001928E-02 0. -1.
       -1   -1    0    0    0  501  0.00000000000E+00  0.00000000000E+00 -0.11071044077E+04  0.11071044078E+04  0.50400001928E-02 0.  1.
    10030    2    1    2    0    0  0.00000000000E+00  0.00000000000E+00  0.71457044355E+03  0.29287792591E+04  0.28402705909E+04 0.  0.
        2    1    3    3  502    0  0.11415623378E+04 -0.73220183676E+03  0.79172170909E+03  0.15703844642E+04  0.25500000920E-02 0. -1.
       -2    1    3    3    0  502 -0.11415623378E+04  0.73220183676E+03 -0.77151265539E+02  0.13583947948E+04  0.25500000920E-02 0.  1.
</event>
<event>
 5   0  0.1904553E-05  0.2806065E+04  0.7818609E-02  0.8301388E-01
       -2   -1    0    0    0  501  0.00000000000E+00  0.00000000000E+00  0.13936637561E+04  0.13936637561E+04  0.25500000920E-02 0.  1.
        2   -1    0    0  501    0  0.00000000000E+00  0.00000000000E+00 -0.14124641909E+04  0.14124641909E+04  0.25500000920E-02 0. -1.
    10030    2    1    2    0    0  0.00000000000E+00  0.00000000000E+00 -0.18800434879E+02  0.28061279470E+04  0.28060649669E+04 0.  0.
        1    1    3    3  502    0  0.70115079053E+03  0.35732239086E+03  0.11521801682E+04  0.13952816425E+04  0.50400001928E-02 0.  1.
       -1    1    3    3    0  502 -0.70115079053E+03 -0.35732239086E+03 -0.11709806031E+04  0.14108463045E+04  0.50400001928E-02 0. -1.
</event>
<event>
 5   0  0.7509685E-06  0.2806377E+04  0.7818609E-02  0.8301291E-01
        1   -1    0    0  501    0  0.00000000000E+00  0.00000000000E+00  0.12965900122E+04  0.12965900122E+04  0.50400001928E-02 0.  1.
       -1   -1    0    0    0  501  0.00000000000E+00  0.00000000000E+00 -0.15185511457E+04  0.15185511457E+04  0.50400001928E-02 0. -1.
    10030    2    1    2    0    0  0.00000000000E+00  0.00000000000E+00 -0.22196113350E+03  0.28151411579E+04  0.28063772010E+04 0.  0.
        4    1    3    3  502    0  0.31960536155E+02 -0.37456118213E+03  0.12451358535E+04  0.13006469396E+04  0.12699999809E+01 0.  1.
       -4    1    3    3    0  502 -0.31960536155E+02  0.37456118213E+03 -0.14670969870E+04  0.15144942183E+04  0.12699999809E+01 0. -1.
</event>
<event>
 5   0  0.7681342E-06  0.2803850E+04  0.7818609E-02  0.8302074E-01
        1   -1    0    0  501    0  0.00000000000E+00  0.00000000000E+00  0.10449575199E+04  0.10449575199E+04  0.50400001928E-02 0. -1.
       -1   -1    0    0    0  501  0.00000000000E+00  0.00000000000E+00 -0.18808361922E+04  0.18808361922E+04  0.50400001928E-02 0.  1.
    10030    2    1    2    0    0  0.00000000000E+00  0.00000000000E+00 -0.83587867231E+03  0.29257937121E+04  0.28038501549E+04 0.  0.
        2    1    3    3  502    0  0.10826426896E+04  0.79382585833E+03  0.35062321814E+01  0.13424928232E+04  0.25500000920E-02 0. -1.
       -2    1    3    3    0  502 -0.10826426896E+04 -0.79382585833E+03 -0.83938490449E+03  0.15833008889E+04  0.25500000920E-02 0.  1.
</event>
<event>
 5   0  0.7388013E-06  0.2560510E+04  0.7818609E-02  0.8381740E-01
        1   -1    0    0  501    0  0.00000000000E+00  0.00000000000E+00  0.14718913615E+04  0.14718913615E+04  0.50400001928E-02 0. -1.
       -1   -1    0    0    0  501  0.00000000000E+00  0.00000000000E+00 -0.11135688927E+04  0.11135688927E+04  0.50400001928E-02 0.  1.
    10030    2    1    2    0    0  0.00000000000E+00  0.00000000000E+00  0.35832246884E+03  0.25854602542E+04  0.25605096630E+04 0.  0.
        1    1    3    3  502    0  0.95236697815E+03 -0.79443919912E+03 -0.14160696998E+03  0.12482744234E+04  0.50400001928E-02 0. -1.
       -1    1    3    3    0  502 -0.95236697815E+03  0.79443919912E+03  0.49992943882E+03  0.13371858308E+04  0.50400001928E-02 0.  1.
</event>
<event>
 5   0  0.1904553E-05  0.2814879E+04  0.7818609E-02  0.8298664E-01
        2   -1    0    0  501    0  0.00000000000E+00  0.00000000000E+00  0.17799115831E+04  0.17799115831E+04  0.25500000920E-02 0. -1.
       -2   -1    0    0    0  501  0.00000000000E+00  0.00000000000E+00 -0.11129128894E+04  0.11129128894E+04  0.25500000920E-02 0.  1.
    10030    2    1    2    0    0  0.00000000000E+00  0.00000000000E+00  0.66699869376E+03  0.28928244725E+04  0.28148794239E+04 0.  0.
        1    1    3    3  502    0  0.11222263960E+04  0.21998577642E+03  0.11766444324E+04  0.16408162438E+04  0.50400001928E-02 0.  1.
       -1    1    3    3    0  502 -0.11222263960E+04 -0.21998577642E+03 -0.50964573862E+03  0.12520082287E+04  0.50400001928E-02 0. -1.
</event>
<event>
 5   0  0.7555871E-06  0.2728816E+04  0.7818609E-02  0.8325715E-01
        1   -1    0    0  501    0  0.00000000000E+00  0.00000000000E+00  0.11443500599E+04  0.11443500599E+04  0.50400001928E-02 0.  1.
       -1   -1    0    0    0  501  0.00000000000E+00  0.00000000000E+00 -0.16267830781E+04  0.16267830781E+04  0.50400001928E-02 0. -1.
    10030    2    1    2    0    0  0.00000000000E+00  0.00000000000E+00 -0.48243301819E+03  0.27711331380E+04  0.27288160897E+04 0.  0.
        3    1    3    3  502    0  0.85674342337E+03 -0.21816812947E+03  0.81413112427E+03  0.12018386430E+04  0.10100000352E+00 0.  1.
       -3    1    3    3    0  502 -0.85674342337E+03  0.21816812947E+03 -0.12965641425E+04  0.15692944950E+04  0.10100000352E+00 0. -1.
</event>
<event>
 5   0  0.7613444E-06  0.2739326E+04  0.7818609E-02  0.8322357E-01
        1   -1    0    0  501    0  0.00000000000E+00  0.00000000000E+00  0.21001194993E+04  0.21001194993E+04  0.50400001928E-02 0.  1.
       -1   -1    0    0    0  501  0.00000000000E+00  0.00000000000E+00 -0.89327134466E+03  0.89327134468E+03  0.50400001928E-02 0. -1.
    10030    2    1    2    0    0  0.00000000000E+00  0.00000000000E+00  0.12068481546E+04  0.29933908440E+04  0.27393258799E+04 0.  0.
        5    1    3    3  502    0  0.11555027014E+04  0.29730703541E+03  0.13383943095E+04  0.17930140501E+04  0.46999998093E+01 0.  1.
       -5    1    3    3    0  502 -0.11555027014E+04 -0.29730703541E+03 -0.13154615484E+03  0.12003767938E+04  0.46999998093E+01 0. -1.
</event>
<event>
 5   0  0.7555871E-06  0.2807794E+04  0.7818609E-02  0.8300853E-01
        1   -1    0    0  501    0  0.00000000000E+00  0.00000000000E+00  0.23258321643E+04  0.23258321643E+04  0.50400001928E-02 0. -1.
       -1   -1    0    0    0  501  0.00000000000E+00  0.00000000000E+00 -0.84740705512E+03  0.84740705513E+03  0.50400001928E-02 0.  1.
    10030    2    1    2    0    0  0.00000000000E+00  0.00000000000E+00  0.14784251092E+04  0.31732392194E+04  0.28077938564E+04 0.  0.
        3    1    3    3  502    0 -0.47466207267E+01 -0.11078449989E+04  0.17137588317E+04  0.20406646995E+04  0.10100000352E+00 0. -1.
       -3    1    3    3    0  502  0.47466207267E+01  0.11078449989E+04 -0.23533372257E+03  0.11325745200E+04  0.10100000352E+00 0.  1.
</event>
<event>
 5   0  0.1832502E-05  0.2843678E+04  0.7818609E-02  0.8289835E-01
       -2   -1    0    0    0  501  0.00000000000E+00  0.00000000000E+00  0.15585223359E+04  0.15585223360E+04  0.25500000920E-02 0.  1.
        2   -1    0    0  501    0  0.00000000000E+00  0.00000000000E+00 -0.12971432284E+04  0.12971432284E+04  0.25500000920E-02 0. -1.
    10030    2    1    2    0    0  0.00000000000E+00  0.00000000000E+00  0.26137910759E+03  0.28556655643E+04  0.28436783885E+04 0.  0.
        2    1    3    3  502    0  0.14425430857E+03  0.77752423814E+03  0.13173107638E+04  0.15364442375E+04  0.25500000920E-02 0.  1.
       -2    1    3    3    0  502 -0.14425430857E+03 -0.77752423814E+03 -0.10559316562E+04  0.13192213268E+04  0.25500000920E-02 0. -1.
</event>
<event>
 5   0  0.1832502E-05  0.2811154E+04  0.7818609E-02  0.8299814E-01
       -2   -1    0    0    0  501  0.00000000000E+00  0.00000000000E+00  0.14809289860E+04  0.14809289860E+04  0.25500000920E-02 0.  1.
        2   -1    0    0  501    0  0.00000000000E+00  0.00000000000E+00 -0.13340586133E+04  0.13340586133E+04  0.25500000920E-02 0. -1.
    10030    2    1    2    0    0  0.00000000000E+00  0.00000000000E+00  0.14687037275E+03  0.28149875993E+04  0.28111535493E+04 0.  0.
        2    1    3    3  502    0  0.69142684148E+03  0.10736481018E+04 -0.51460908236E+03  0.13768129253E+04  0.25500000920E-02 0. -1.
       -2    1    3    3    0  502 -0.69142684148E+03 -0.10736481018E+04  0.66147945511E+03  0.14381746741E+04  0.25500000920E-02 0.  1.
</event>
<event>
 5   0  0.1923559E-05  0.2898032E+04  0.7818609E-02  0.8273463E-01
       -2   -1    0    0    0  501  0.00000000000E+00  0.00000000000E+00  0.12513212356E+04  0.12513212356E+04  0.25500000920E-02 0. -1.
        2   -1    0    0  501    0  0.00000000000E+00  0.00000000000E+00 -0.16779438825E+04  0.16779438825E+04  0.25500000920E-02 0.  1.
    10030    2    1    2    0    0  0.00000000000E+00  0.00000000000E+00 -0.42662264695E+03  0.29292651181E+04  0.28980316163E+04 0.  0.
        4    1    3    3  502    0 -0.42560575945E+03 -0.11551413500E+04  0.55922518899E+03  0.13521191611E+04  0.12699999809E+01 0. -1.
       -4    1    3    3    0  502  0.42560575945E+03  0.11551413500E+04 -0.98584783595E+03  0.15771459569E+04  0.12699999809E+01 0.  1.
</event>
<event>
 5   0  0.7555871E-06  0.2808227E+04  0.7818609E-02  0.8300719E-01
        1   -1    0    0  501    0  0.00000000000E+00  0.00000000000E+00  0.24442513264E+04  0.24442513264E+04  0.50400001928E-02 0. -1.
       -1   -1    0    0    0  501  0.00000000000E+00  0.00000000000E+00 -0.80660042816E+03  0.80660042818E+03  0.50400001928E-02 0.  1.
    10030    2    1    2    0    0  0.00000000000E+00  0.00000000000E+00  0.16376508983E+04  0.32508517546E+04  0.28082266052E+04 0.  0.
        3    1    3    3  502    0 -0.12843107399E+03  0.89414583646E+03  0.20632198287E+04  0.22523026860E+04  0.10100000352E+00 0. -1.
       -3    1    3    3    0  502  0.12843107399E+03 -0.89414583646E+03 -0.42556893045E+03  0.99854906859E+03  0.10100000352E+00 0.  1.
</event>
<event>
 5   0  0.7509685E-06  0.2888731E+04  0.7818609E-02  0.8276238E-01
       -1   -1    0    0    0  501  0.00000000000E+00  0.00000000000E+00  0.12699561211E+04  0.12699561211E+04  0.50400001928E-02 0.  1.
        1   -1    0    0  501    0  0.00000000000E+00  0.00000000000E+00 -0.16427270061E+04  0.16427270061E+04  0.50400001928E-02 0. -1.
    10030    2    1    2    0    0  0.00000000000E+00  0.00000000000E+00 -0.37277088503E+03  0.29126831272E+04  0.28887306671E+04 0.  0.
        4    1    3    3  502    0 -0.63448817299E+03 -0.39237319932E+03 -0.14334338364E+04  0.16159412568E+04  0.12699999809E+01 0. -1.
       -4    1    3    3    0  502  0.63448817299E+03  0.39237319932E+03  0.10606629514E+04  0.12967418704E+04  0.12699999809E+01 0.  1.
</event>
<event>
 5   0  0.1814230E-05  0.2786257E+04  0.7818609E-02  0.8307548E-01
       -2   -1    0    0    0  501  0.00000000000E+00  0.00000000000E+00  0.13305714291E+04  0.13305714291E+04  0.25500000920E-02 0.  1.
        2   -1    0    0  501    0  0.00000000000E+00  0.00000000000E+00 -0.14586264200E+04  0.14586264201E+04  0.25500000920E-02 0. -1.
    10030    2    1    2    0    0  0.00000000000E+00  0.00000000000E+00 -0.12805499098E+03  0.27891978491E+04  0.27862567292E+04 0.  0.
        5    1    3    3  502    0 -0.10225836401E+04 -0.94449767952E+03 -0.11914360649E+03  0.13971293629E+04  0.46999998093E+01 0.  1.
       -5    1    3    3    0  502  0.10225836401E+04  0.94449767952E+03 -0.89113844907E+01  0.13920684862E+04  0.46999998093E+01 0. -1.
</event>
<event>
 5   0  0.7613444E-06  0.1939176E+04  0.7818609E-02  0.8635598E-01
       -1   -1    0    0    0  501  0.00000000000E+00  0.00000000000E+00  0.85663739807E+03  0.85663739809E+03  0.50400001928E-02 0. -1.
        1   -1    0    0  501    0  0.00000000000E+00  0.00000000000E+00 -0.10974311650E+04  0.10974311650E+04  0.50400001928E-02 0.  1.
    10030    2    1    2    0    0  0.00000000000E+00  0.00000000000E+00 -0.24079376692E+03  0.19540685631E+04  0.19391756782E+04 0.  0.
        5    1    3    3  502    0  0.27943196503E+03 -0.91323815642E+03  0.48197149963E+02  0.95625896529E+03  0.46999998093E+01 0. -1.
       -5    1    3    3    0  502 -0.27943196503E+03  0.91323815642E+03 -0.28899091688E+03  0.99780959780E+03  0.46999998093E+01 0.  1.
</event>
<event>
 5   0  0.7681342E-06  0.2725198E+04  0.7818609E-02  0.8326875E-01
       -1   -1    0    0    0  501  0.00000000000E+00  0.00000000000E+00  0.86015635636E+03  0.86015635637E+03  0.50400001928E-02 0.  1.
        1   -1    0    0  501    0  0.00000000000E+00  0.00000000000E+00 -0.21585325268E+04  0.21585325268E+04  0.50400001928E-02 0. -1.
    10030    2    1    2    0    0  0.00000000000E+00  0.00000000000E+00 -0.12983761705E+04  0.30186888832E+04  0.27251975880E+04 0.  0.
        2    1    3    3  502    0  0.11065847565E+04 -0.59916237924E+03 -0.12281113948E+04  0.17583466604E+04  0.25500000920E-02 0. -1.
       -2    1    3    3    0  502 -0.11065847565E+04  0.59916237924E+03 -0.70264775627E+02  0.12603422228E+04  0.25500000920E-02 0.  1.
</event>
<event>
 5   0  0.1874272E-05  0.2784801E+04  0.7818609E-02  0.8308003E-01
       -2   -1    0    0    0  501  0.00000000000E+00  0.00000000000E+00  0.13929620740E+04  0.13929620740E+04  0.25500000920E-02 0. -1.
        2   -1    0    0  501    0  0.00000000000E+00  0.00000000000E+00 -0.13918392693E+04  0.13918392693E+04  0.25500000920E-02 0.  1.
    10030    2    1    2    0    0  0.00000000000E+00  0.00000000000E+00  0.11228046451E+01  0.27848013433E+04  0.27848011170E+04 0.  0.
        3    1    3    3  502    0 -0.57280669104E+03 -0.11957325720E+04 -0.42475664983E+03  0.13922291876E+04  0.10100000352E+00 0.  1.
       -3    1    3    3    0  502  0.57280669104E+03  0.11957325720E+04  0.42587945448E+03  0.13925721557E+04  0.10100000352E+00 0. -1.
</event>
<event>
 5   0  0.7555871E-06  0.2764209E+04  0.7818609E-02  0.8314467E-01
        1   -1    0    0  501    0  0.00000000000E+00  0.00000000000E+00  0.10991273455E+04  0.10991273455E+04  0.50400001928E-02 0. -1.
       -1   -1    0    0    0  501  0.00000000000E+00  0.00000000000E+00 -0.17379359930E+04  0.17379359930E+04  0.50400001928E-02 0.  1.
    10030    2    1    2    0    0  0.00000000000E+00  0.00000000000E+00 -0.63880864749E+03  0.28370633384E+04  0.27642090909E+04 0.  0.
        3    1    3    3  502    0  0.11411276438E+04  0.75809306143E+03 -0.50679678583E+03  0.14607259775E+04  0.10100000352E+00 0.  1.
       -3    1    3    3    0  502 -0.11411276438E+04 -0.75809306143E+03 -0.13201186166E+03  0.13763373609E+04  0.10100000352E+00 0. -1.
</event>
<event>
 5   0  0.7555871E-06  0.2805153E+04  0.7818609E-02  0.8301670E-01
        1   -1    0    0  501    0  0.00000000000E+00  0.00000000000E+00  0.17080581327E+04  0.17080581327E+04  0.50400001928E-02 0. -1.
       -1   -1    0    0    0  501  0.00000000000E+00  0.00000000000E+00 -0.11517292129E+04  0.11517292129E+04  0.50400001928E-02 0.  1.
    10030    2    1    2    0    0  0.00000000000E+00  0.00000000000E+00  0.55632891988E+03  0.28597873456E+04  0.28051527222E+04 0.  0.
        3    1    3    3  502    0 -0.58312528130E+03 -0.11997507612E+04  0.71994429937E+03  0.15158353430E+04  0.10100000352E+00 0. -1.
       -3    1    3    3    0  502  0.58312528130E+03  0.11997507612E+04 -0.16361537949E+03  0.13439520026E+04  0.10100000352E+00 0.  1.
</event>
<event>
 5   0  0.7555871E-06  0.2760190E+04  0.7818609E-02  0.8315736E-01
        1   -1    0    0  501    0  0.00000000000E+00  0.00000000000E+00  0.24556845444E+04  0.24556845444E+04  0.50400001928E-02 0. -1.
       -1   -1    0    0    0  501  0.00000000000E+00  0.00000000000E+00 -0.77561332749E+03  0.77561332751E+03  0.50400001928E-02 0.  1.
    10030    2    1    2    0    0  0.00000000000E+00  0.00000000000E+00  0.16800712169E+04  0.32312978719E+04  0.27601896028E+04 0.  0.
        3    1    3    3  502    0 -0.11694182898E+04  0.20868379600E+03  0.17577030371E+02  0.11880223169E+04  0.10100000352E+00 0.  1.
       -3    1    3    3    0  502  0.11694182898E+04 -0.20868379600E+03  0.16624941865E+04  0.20432755550E+04  0.10100000352E+00 0. -1.
</event>
<event>
 5   0  0.6288000E-06  0.2725419E+04  0.7818609E-02  0.8326804E-01
        4   -1    0    0  501    0  0.00000000000E+00  0.00000000000E+00  0.14322895401E+04  0.14322901032E+04  0.12699999809E+01 0.  1.
       -4   -1    0    0    0  501  0.00000000000E+00  0.00000000000E+00 -0.12965080998E+04  0.12965087218E+04  0.12699999809E+01 0. -1.
    10030    2    1    2    0    0  0.00000000000E+00  0.00000000000E+00  0.13578144037E+03  0.27287988250E+04  0.27254185784E+04 0.  0.
        5    1    3    3  502    0 -0.36937217477E+02  0.57151212842E+02  0.14305797894E+04  0.14322050282E+04  0.46999998093E+01 0.  1.
       -5    1    3    3    0  502  0.36937217477E+02 -0.57151212842E+02 -0.12947983490E+04  0.12965937967E+04  0.46999998093E+01 0. -1.
</event>
<event>
 5   0  0.7509685E-06  0.2968028E+04  0.7818609E-02  0.8252920E-01
       -1   -1    0    0    0  501  0.00000000000E+00  0.00000000000E+00  0.12842483266E+04  0.12842483266E+04  0.50400001928E-02 0.  1.
        1   -1    0    0  501    0  0.00000000000E+00  0.00000000000E+00 -0.17148537911E+04  0.17148537911E+04  0.50400001928E-02 0. -1.
    10030    2    1    2    0    0  0.00000000000E+00  0.00000000000E+00 -0.43060546452E+03  0.29991021177E+04  0.29680283769E+04 0.  0.
        4    1    3    3  502    0 -0.78577917669E+03  0.10316404954E+04  0.51375326064E+03  0.13948745650E+04  0.12699999809E+01 0. -1.
       -4    1    3    3    0  502  0.78577917669E+03 -0.10316404954E+04 -0.94435872515E+03  0.16042275527E+04  0.12699999809E+01 0.  1.
</event>
<event>
 5   0  0.7509685E-06  0.2767500E+04  0.7818609E-02  0.8313430E-01
       -1   -1    0    0    0  501  0.00000000000E+00  0.00000000000E+00  0.12387693587E+04  0.12387693588E+04  0.50400001928E-02 0. -1.
        1   -1    0    0  501    0  0.00000000000E+00  0.00000000000E+00 -0.15456987126E+04  0.15456987126E+04  0.50400001928E-02 0.  1.
    10030    2    1    2    0    0  0.00000000000E+00  0.00000000000E+00 -0.30692935386E+03  0.27844680714E+04  0.27675001016E+04 0.  0.
        4    1    3    3  502    0  0.85055975017E+03 -0.10441265403E+04  0.16646362450E+03  0.13569686333E+04  0.12699999809E+01 0. -1.
       -4    1    3    3    0  502 -0.85055975017E+03  0.10441265403E+04 -0.47339297837E+03  0.14274994380E+04  0.12699999809E+01 0.  1.
</event>
<event>
 5   0  0.1874272E-05  0.2834731E+04  0.7818609E-02  0.8292566E-01
       -2   -1    0    0    0  501  0.00000000000E+00  0.00000000000E+00  0.22625421044E+04  0.22625421044E+04  0.25500000920E-02 0.  1.
        2   -1    0    0  501    0  0.00000000000E+00  0.00000000000E+00 -0.88790622244E+03  0.88790622244E+03  0.25500000920E-02 0. -1.
    10030    2    1    2    0    0  0.00000000000E+00  0.00000000000E+00  0.13746358820E+04  0.31504483268E+04  0.28347311781E+04 0.  0.
        3    1    3    3  502    0  0.75023203948E+03 -0.11965813857E+04  0.82007989614E+03  0.16331522195E+04  0.10100000352E+00 0. -1.
       -3    1    3    3    0  502 -0.75023203948E+03  0.11965813857E+04  0.55455598582E+03  0.15172961073E+04  0.10100000352E+00 0.  1.
</event>
<event>
 5   0  0.1923559E-05  0.2783524E+04  0.7818609E-02  0.8308402E-01
        2   -1    0    0  501    0  0.00000000000E+00  0.00000000000E+00  0.86659771715E+03  0.86659771715E+03  0.25500000920E-02 0. -1.
       -2   -1    0    0    0  501  0.00000000000E+00  0.00000000000E+00 -0.22351789809E+04  0.22351789809E+04  0.25500000920E-02 0.  1.
    10030    2    1    2    0    0  0.00000000000E+00  0.00000000000E+00 -0.13685812637E+04  0.31017766980E+04  0.27835236678E+04 0.  0.
        4    1    3    3  502    0  0.89689047855E+03 -0.12720888336E+02 -0.18701149222E+04  0.20741036104E+04  0.12699999809E+01 0.  1.
       -4    1    3    3    0  502 -0.89689047855E+03  0.12720888336E+02  0.50153365849E+03  0.10276730876E+04  0.12699999809E+01 0. -1.
</event>
<event>
 5   0  0.1923559E-05  0.2759006E+04  0.7818609E-02  0.8316110E-01
       -2   -1    0    0    0  501  0.00000000000E+00  0.00000000000E+00  0.17043148250E+04  0.17043148250E+04  0.25500000920E-02 0.  1.
        2   -1    0    0  501    0  0.00000000000E+00  0.00000000000E+00 -0.11165943917E+04  0.11165943917E+04  0.25500000920E-02 0. -1.
    10030    2    1    2    0    0  0.00000000000E+00  0.00000000000E+00  0.58772043334E+03  0.28209092167E+04  0.27590058900E+04 0.  0.
        4    1    3    3  502    0  0.59016628944E+03  0.13133481409E+03 -0.97391266266E+03  0.11463213206E+04  0.12699999809E+01 0. -1.
       -4    1    3    3    0  502 -0.59016628944E+03 -0.13133481409E+03  0.15616330960E+04  0.16745878962E+04  0.12699999809E+01 0.  1.
</event>
<event>
 5   0  0.7613444E-06  0.2776752E+04  0.7818609E-02  0.8310522E-01
        1   -1    0    0  501    0  0.00000000000E+00  0.00000000000E+00  0.13908916682E+04  0.13908916682E+04  0.50400001928E-02 0. -1.
       -1   -1    0    0    0  501  0.00000000000E+00  0.00000000000E+00 -0.13858649666E+04  0.13858649666E+04  0.50400001928E-02 0.  1.
    10030    2    1    2    0    0  0.00000000000E+00  0.00000000000E+00  0.50267015948E+01  0.27767566348E+04  0.27767520849E+04 0.  0.
        5    1    3    3  502    0 -0.22161432827E+03  0.71468629861E+03  0.11719922995E+04  0.13904953995E+04  0.46999998093E+01 0. -1.
       -5    1    3    3    0  502  0.22161432827E+03 -0.71468629861E+03 -0.11669655979E+04  0.13862612353E+04  0.46999998093E+01 0.  1.
</event>
<event>
 5   0  0.7555871E-06  0.2782452E+04  0.7818609E-02  0.8308737E-01
        1   -1    0    0  501    0  0.00000000000E+00  0.00000000000E+00  0.15790404817E+04  0.15790404818E+04  0.50400001928E-02 0. -1.
       -1   -1    0    0    0  501  0.00000000000E+00  0.00000000000E+00 -0.12257505049E+04  0.12257505049E+04  0.50400001928E-02 0.  1.
    10030    2    1    2    0    0  0.00000000000E+00  0.00000000000E+00  0.35328997684E+03  0.28047909867E+04  0.27824519171E+04 0.  0.
        3    1    3    3  502    0 -0.13828495627E+04 -0.14531338322E+03  0.22306648550E+03  0.14082427204E+04  0.10100000352E+00 0. -1.
       -3    1    3    3    0  502  0.13828495627E+04  0.14531338322E+03  0.13022349134E+03  0.13965482663E+04  0.10100000352E+00 0.  1.
</event>
<event>
 5   0  0.1923559E-05  0.2836206E+04  0.7818609E-02  0.8292115E-01
       -2   -1    0    0    0  501  0.00000000000E+00  0.00000000000E+00  0.10213015658E+04  0.10213015658E+04  0.25500000920E-02 0. -1.
        2   -1    0    0  501    0  0.00000000000E+00  0.00000000000E+00 -0.19690711616E+04  0.19690711616E+04  0.25500000920E-02 0.  1.
    10030    2    1    2    0    0  0.00000000000E+00  0.00000000000E+00 -0.94776959575E+03  0.29903727274E+04  0.28362055360E+04 0.  0.
        4    1    3    3  502    0 -0.86528841175E+03  0.41107695511E+03  0.62856392590E+03  0.11457759468E+04  0.12699999809E+01 0. -1.
       -4    1    3    3    0  502  0.86528841175E+03 -0.41107695511E+03 -0.15763335216E+04  0.18445967806E+04  0.12699999809E+01 0.  1.
</event>
<event>
 5   0  0.1814230E-05  0.2799079E+04  0.7818609E-02  0.8303554E-01
        2   -1    0    0  501    0  0.00000000000E+00  0.00000000000E+00  0.25264470818E+04  0.25264470818E+04  0.25500000920E-02 0. -1.
       -2   -1    0    0    0  501  0.00000000000E+00  0.00000000000E+00 -0.77528281702E+03  0.77528281703E+03  0.25500000920E-02 0.  1.
    10030    2    1    2    0    0  0.00000000000E+00  0.00000000000E+00  0.17511642648E+04  0.33017298988E+04  0.27990791419E+04 0.  0.
        5    1    3    3  502    0  0.13811995501E+03 -0.51190552398E+03  0.24033802915E+04  0.24611751874E+04  0.46999998093E+01 0. -1.
       -5    1    3    3    0  502 -0.13811995501E+03  0.51190552398E+03 -0.65221602671E+03  0.84055471145E+03  0.46999998093E+01 0.  1.
</event>
<event>
 5   0  0.7613444E-06  0.2796571E+04  0.7818609E-02  0.8304334E-01
       -1   -1    0    0    0  501  0.00000000000E+00  0.00000000000E+00  0.21425729455E+04  0.21425729455E+04  0.50400001928E-02 0.  1.
        1   -1    0    0  501    0  0.00000000000E+00  0.00000000000E+00 -0.91254899009E+03  0.91254899010E+03  0.50400001928E-02 0. -1.
    10030    2    1    2    0    0  0.00000000000E+00  0.00000000000E+00  0.12300239554E+04  0.30551219356E+04  0.27965713133E+04 0.  0.
        5    1    3    3  502    0 -0.49385872276E+03 -0.84978079156E+03 -0.47150178722E+03  0.10901191940E+04  0.46999998093E+01 0. -1.
       -5    1    3    3    0  502  0.49385872276E+03  0.84978079156E+03  0.17015257426E+04  0.19650027416E+04  0.46999998093E+01 0.  1.
</event>
<event>
 5   0  0.7555871E-06  0.2816496E+04  0.7818609E-02  0.8298165E-01
        1   -1    0    0  501    0  0.00000000000E+00  0.00000000000E+00  0.14467703064E+04  0.14467703064E+04  0.50400001928E-02 0.  1.
       -1   -1    0    0    0  501  0.00000000000E+00  0.00000000000E+00 -0.13707515352E+04  0.13707515353E+04  0.50400001928E-02 0. -1.
    10030    2    1    2    0    0  0.00000000000E+00  0.00000000000E+00  0.76018771109E+02  0.28175218416E+04  0.28164961343E+04 0.  0.
        3    1    3    3  502    0  0.76326513410E+02 -0.10958544467E+04  0.91948855822E+03  0.14325438646E+04  0.10100000352E+00 0.  1.
       -3    1    3    3    0  502 -0.76326513410E+02  0.10958544467E+04 -0.84346978711E+03  0.13849779771E+04  0.10100000352E+00 0. -1.
</event>
<event>
 5   0  0.1832502E-05  0.2739836E+04  0.7818609E-02  0.8322194E-01
       -2   -1    0    0    0  501  0.00000000000E+00  0.00000000000E+00  0.85528712414E+03  0.85528712414E+03  0.25500000920E-02 0. -1.
        2   -1    0    0  501    0  0.00000000000E+00  0.00000000000E+00 -0.21942049769E+04  0.21942049769E+04  0.25500000920E-02 0.  1.
    10030    2    1    2    0    0  0.00000000000E+00  0.00000000000E+00 -0.13389178528E+04  0.30494921011E+04  0.27398359546E+04 0.  0.
        2    1    3    3  502    0 -0.34480213895E+03  0.29389200541E+03  0.76948874584E+03  0.89295798101E+03  0.25500000920E-02 0. -1.
       -2    1    3    3    0  502  0.34480213895E+03 -0.29389200541E+03 -0.21084065986E+04  0.21565341201E+04  0.25500000920E-02 0.  1.
</event>
<event>
 5   0  0.1814230E-05  0.2956998E+04  0.7818609E-02  0.8256118E-01
       -2   -1    0    0    0  501  0.00000000000E+00  0.00000000000E+00  0.15393111752E+04  0.15393111752E+04  0.25500000920E-02 0.  1.
        2   -1    0    0  501    0  0.00000000000E+00  0.00000000000E+00 -0.14200897131E+04  0.14200897131E+04  0.25500000920E-02 0. -1.
    10030    2    1    2    0    0  0.00000000000E+00  0.00000000000E+00  0.11922146208E+03  0.29594008883E+04  0.29569984546E+04 0.  0.
        5    1    3    3  502    0  0.75829683509E+03  0.94535499364E+03 -0.78797031380E+03  0.14455550697E+04  0.46999998093E+01 0.  1.
       -5    1    3    3    0  502 -0.75829683509E+03 -0.94535499364E+03  0.90719177588E+03  0.15138458185E+04  0.46999998093E+01 0. -1.
</event>
<event>
 5   0  0.1904553E-05  0.2532404E+04  0.7818609E-02  0.8391532E-01
       -2   -1    0    0    0  501  0.00000000000E+00  0.00000000000E+00  0.97078326029E+03  0.97078326029E+03  0.25500000920E-02 0.  1.
        2   -1    0    0  501    0  0.00000000000E+00  0.00000000000E+00 -0.16515189632E+04  0.16515189632E+04  0.25500000920E-02 0. -1.
    10030    2    1    2    0    0  0.00000000000E+00  0.00000000000E+00 -0.68073570291E+03  0.26223022235E+04  0.25324035725E+04 0.  0.
        1    1    3    3  502    0  0.35242419466E+03 -0.11988899454E+04 -0.12884433208E+03  0.12562407317E+04  0.50400001928E-02 0. -1.
       -1    1    3    3    0  502 -0.35242419466E+03  0.11988899454E+04 -0.55189137084E+03  0.13660614918E+04  0.50400001928E-02 0.  1.
</event>
<event>
 5   0  0.1923559E-05  0.2826895E+04  0.7818609E-02  0.8294967E-01
        2   -1    0    0  501    0  0.00000000000E+00  0.00000000000E+00  0.29229021298E+04  0.29229021298E+04  0.25500000920E-02 0.  1.
       -2   -1    0    0    0  501  0.00000000000E+00  0.00000000000E+00 -0.68351037287E+03  0.68351037288E+03  0.25500000920E-02 0. -1.
    10030    2    1    2    0    0  0.00000000000E+00  0.00000000000E+00  0.22393917569E+04  0.36064125027E+04  0.28268950632E+04 0.  0.
        4    1    3    3  502    0 -0.56210058161E+03 -0.15264166546E+03  0.27626800172E+04  0.28234126571E+04  0.12699999809E+01 0.  1.
       -4    1    3    3    0  502  0.56210058161E+03  0.15264166546E+03 -0.52328826030E+03  0.78299984556E+03  0.12699999809E+01 0. -1.
</event>
<event>
 5   0  0.1814230E-05  0.2712890E+04  0.7818609E-02  0.8330835E-01
        2   -1    0    0  501    0  0.00000000000E+00  0.00000000000E+00  0.13661265949E+04  0.13661265949E+04  0.25500000920E-02 0. -1.
       -2   -1    0    0    0  501  0.00000000000E+00  0.00000000000E+00 -0.13468323510E+04  0.13468323510E+04  0.25500000920E-02 0.  1.
    10030    2    1    2    0    0  0.00000000000E+00  0.00000000000E+00  0.19294243913E+02  0.27129589459E+04  0.27128903359E+04 0.  0.
        5    1    3    3  502    0 -0.13366757787E+04 -0.58521748685E+02  0.23279951327E+03  0.13580665064E+04  0.46999998093E+01 0. -1.
       -5    1    3    3    0  502  0.13366757787E+04  0.58521748685E+02 -0.21350526936E+03  0.13548924395E+04  0.46999998093E+01 0.  1.
</event>
<event>
 5   0  0.1874272E-05  0.2787738E+04  0.7818609E-02  0.8307085E-01
        2   -1    0    0  501    0  0.00000000000E+00  0.00000000000E+00  0.90653463658E+03  0.90653463658E+03  0.25500000920E-02 0. -1.
       -2   -1    0    0    0  501  0.00000000000E+00  0.00000000000E+00 -0.21431835545E+04  0.21431835545E+04  0.25500000920E-02 0.  1.
    10030    2    1    2    0    0  0.00000000000E+00  0.00000000000E+00 -0.12366489179E+04  0.30497181910E+04  0.27877375233E+04 0.  0.
        3    1    3    3  502    0 -0.36471963223E+03 -0.10113388464E+04 -0.15888504752E+04  0.19184036372E+04  0.10100000352E+00 0.  1.
       -3    1    3    3    0  502  0.36471963223E+03  0.10113388464E+04  0.35220155735E+03  0.11313145538E+04  0.10100000352E+00 0. -1.
</event>
<event>
 5   0  0.7509685E-06  0.2750506E+04  0.7818609E-02  0.8318801E-01
       -1   -1    0    0    0  501  0.00000000000E+00  0.00000000000E+00  0.14886913229E+04  0.14886913229E+04  0.50400001928E-02 0. -1.
        1   -1    0    0  501    0  0.00000000000E+00  0.00000000000E+00 -0.12704590762E+04  0.12704590762E+04  0.50400001928E-02 0.  1.
    10030    2    1    2    0    0  0.00000000000E+00  0.00000000000E+00  0.21823224669E+03  0.27591503992E+04  0.27505064282E+04 0.  0.
        4    1    3    3  502    0 -0.12931022717E+04  0.43762951631E+03 -0.57800041238E+02  0.13663731322E+04  0.12699999809E+01 0.  1.
       -4    1    3    3    0  502  0.12931022717E+04 -0.43762951631E+03  0.27603228793E+03  0.13927772670E+04  0.12699999809E+01 0. -1.
</event>
<event>
 5   0  0.1814230E-05  0.2819581E+04  0.7818609E-02  0.8297215E-01
        2   -1    0    0  501    0  0.00000000000E+00  0.00000000000E+00  0.15675900478E+04  0.15675900478E+04  0.25500000920E-02 0.  1.
       -2   -1    0    0    0  501  0.00000000000E+00  0.00000000000E+00 -0.12678759406E+04  0.12678759406E+04  0.25500000920E-02 0. -1.
    10030    2    1    2    0    0  0.00000000000E+00  0.00000000000E+00  0.29971410717E+03  0.28354659884E+04  0.28195813210E+04 0.  0.
        5    1    3    3  502    0 -0.37527401703E+03 -0.59365608703E+03 -0.10794162995E+04  0.12877964804E+04  0.46999998093E+01 0. -1.
       -5    1    3    3    0  502  0.37527401703E+03  0.59365608703E+03  0.13791304066E+04  0.15476695080E+04  0.46999998093E+01 0.  1.
</event>
<event>
 5   0  0.7613444E-06  0.2872016E+04  0.7818609E-02  0.8281253E-01
       -1   -1    0    0    0  501  0.00000000000E+00  0.00000000000E+00  0.80674334559E+03  0.80674334560E+03  0.50400001928E-02 0.  1.
        1   -1    0    0  501    0  0.00000000000E+00  0.00000000000E+00 -0.25561029759E+04  0.25561029759E+04  0.50400001928E-02 0. -1.
    10030    2    1    2    0    0  0.00000000000E+00  0.00000000000E+00 -0.17493596303E+04  0.33628463215E+04  0.28720160630E+04 0.  0.
        5    1    3    3  502    0  0.82357762756E+03 -0.11757547533E+04 -0.91876587564E+03  0.17043568208E+04  0.46999998093E+01 0.  1.
       -5    1    3    3    0  502 -0.82357762756E+03  0.11757547533E+04 -0.83059375468E+03  0.16584895007E+04  0.46999998093E+01 0. -1.
</event>
<event>
 5   0  0.7613444E-06  0.3329442E+04  0.7818609E-02  0.8155444E-01
       -1   -1    0    0    0  501  0.00000000000E+00  0.00000000000E+00  0.10763750236E+04  0.10763750236E+04  0.50400001928E-02 0. -1.
        1   -1    0    0  501    0  0.00000000000E+00  0.00000000000E+00 -0.25746568324E+04  0.25746568324E+04  0.50400001928E-02 0.  1.
    10030    2    1    2    0    0  0.00000000000E+00  0.00000000000E+00 -0.14982818088E+04  0.36510318559E+04  0.33294421807E+04 0.  0.
        5    1    3    3  502    0 -0.12263006911E+04 -0.29335717685E+03  0.44276801418E+03  0.13363896971E+04  0.46999998093E+01 0. -1.
       -5    1    3    3    0  502  0.12263006911E+04  0.29335717685E+03 -0.19410498230E+04  0.23146421588E+04  0.46999998093E+01 0.  1.
</event>
<event>
 5   0  0.7613444E-06  0.2919525E+04  0.7818609E-02  0.8267092E-01
        1   -1    0    0  501    0  0.00000000000E+00  0.00000000000E+00  0.14195274284E+04  0.14195274284E+04  0.50400001928E-02 0.  1.
       -1   -1    0    0    0  501  0.00000000000E+00  0.00000000000E+00 -0.15011385074E+04  0.15011385074E+04  0.50400001928E-02 0. -1.
    10030    2    1    2    0    0  0.00000000000E+00  0.00000000000E+00 -0.81611079050E+02  0.29206659358E+04  0.29195254992E+04 0.  0.
        5    1    3    3  502    0  0.21192839953E+03 -0.72259097275E+03 -0.12918274479E+04  0.14952898065E+04  0.46999998093E+01 0. -1.
       -5    1    3    3    0  502 -0.21192839953E+03  0.72259097275E+03  0.12102163688E+04  0.14253761293E+04  0.46999998093E+01 0.  1.
</event>
<event>
 5   0  0.7388013E-06  0.2833844E+04  0.7818609E-02  0.8292837E-01
        1   -1    0    0  501    0  0.00000000000E+00  0.00000000000E+00  0.16347347800E+04  0.16347347800E+04  0.50400001928E-02 0. -1.
       -1   -1    0    0    0  501  0.00000000000E+00  0.00000000000E+00 -0.12281308201E+04  0.12281308201E+04  0.50400001928E-02 0.  1.
    10030    2    1    2    0    0  0.00000000000E+00  0.00000000000E+00  0.40660395988E+03  0.28628656001E+04  0.28338441496E+04 0.  0.
        1    1    3    3  502    0  0.12634054545E+04  0.22496869419E+03  0.81017345313E+03  0.15176248812E+04  0.50400001928E-02 0. -1.
       -1    1    3    3    0  502 -0.12634054545E+04 -0.22496869419E+03 -0.40356949325E+03  0.13452407189E+04  0.50400001928E-02 0.  1.
</event>
<event>
 5   0  0.1874272E-05  0.2794311E+04  0.7818609E-02  0.8305037E-01
       -2   -1    0    0    0  501  0.00000000000E+00  0.00000000000E+00  0.10377929430E+04  0.10377929430E+04  0.25500000920E-02 0. -1.
        2   -1    0    0  501    0  0.00000000000E+00  0.00000000000E+00 -0.18809566496E+04  0.18809566496E+04  0.25500000920E-02 0.  1.
    10030    2    1    2    0    0  0.00000000000E+00  0.00000000000E+00 -0.84316370659E+03  0.29187495925E+04  0.27943110328E+04 0.  0.
        3    1    3    3  502    0 -0.75962279953E+03  0.99374337197E+03 -0.10717906069E+04  0.16472060594E+04  0.10100000352E+00 0.  1.
       -3    1    3    3    0  502  0.75962279953E+03 -0.99374337197E+03  0.22862690033E+03  0.12715435331E+04  0.10100000352E+00 0. -1.
</event>
<event>
 5   0  0.6288000E-06  0.2415017E+04  0.7818609E-02  0.8433903E-01
       -4   -1    0    0    0  501  0.00000000000E+00  0.00000000000E+00  0.17470043414E+04  0.17470048030E+04  0.12699999809E+01 0.  1.
        4   -1    0    0  501    0  0.00000000000E+00  0.00000000000E+00 -0.83461447111E+03  0.83461543737E+03  0.12699999809E+01 0. -1.
    10030    2    1    2    0    0  0.00000000000E+00  0.00000000000E+00  0.91238987025E+03  0.25816202404E+04  0.24150171407E+04 0.  0.
        4    1    3    3  502    0 -0.39919684372E+03 -0.10457148871E+02  0.16743740623E+04  0.17213359886E+04  0.12699999809E+01 0.  1.
       -4    1    3    3    0  502  0.39919684372E+03  0.10457148871E+02 -0.76198419208E+03  0.86028425179E+03  0.12699999809E+01 0. -1.
</event>
<event>
 5   0  0.7509685E-06  0.2801776E+04  0.7818609E-02  0.8302717E-01
       -1   -1    0    0    0  501  0.00000000000E+00  0.00000000000E+00  0.16578785912E+04  0.16578785912E+04  0.50400001928E-02 0. -1.
        1   -1    0    0  501    0  0.00000000000E+00  0.00000000000E+00 -0.11837339410E+04  0.11837339410E+04  0.50400001928E-02 0.  1.
    10030    2    1    2    0    0  0.00000000000E+00  0.00000000000E+00  0.47414465020E+03  0.28416125323E+04  0.28017759786E+04 0.  0.
        4    1    3    3  502    0  0.10368714122E+02  0.37874826887E+03 -0.11307798974E+04  0.11925697257E+04  0.12699999809E+01 0.  1.
       -4    1    3    3    0  502 -0.10368714122E+02 -0.37874826887E+03  0.16049245476E+04  0.16490428066E+04  0.12699999809E+01 0. -1.
</event>
<event>
 5   0  0.1832502E-05  0.2806397E+04  0.7818609E-02  0.8301285E-01
        2   -1    0    0  501    0  0.00000000000E+00  0.00000000000E+00  0.15343752813E+04  0.15343752813E+04  0.25500000920E-02 0. -1.
       -2   -1    0    0    0  501  0.00000000000E+00  0.00000000000E+00 -0.12832363383E+04  0.12832363383E+04  0.25500000920E-02 0.  1.
    10030    2    1    2    0    0  0.00000000000E+00  0.00000000000E+00  0.25113894295E+03  0.28176116196E+04  0.28063970621E+04 0.  0.
        2    1    3    3  502    0  0.23152317301E+03 -0.59140101454E+03 -0.11306731543E+04  0.12968345775E+04  0.25500000920E-02 0.  1.
       -2    1    3    3    0  502 -0.23152317301E+03  0.59140101454E+03  0.13818120972E+04  0.15207770421E+04  0.25500000920E-02 0. -1.
</event>
<event>
 5   0  0.1832502E-05  0.2840797E+04  0.7818609E-02  0.8290713E-01
       -2   -1    0    0    0  501  0.00000000000E+00  0.00000000000E+00  0.19792143083E+04  0.19792143083E+04  0.25500000920E-02 0. -1.
        2   -1    0    0  501    0  0.00000000000E+00  0.00000000000E+00 -0.10193602607E+04  0.10193602607E+04  0.25500000920E-02 0.  1.
    10030    2    1    2    0    0  0.00000000000E+00  0.00000000000E+00  0.95985404760E+03  0.29985745691E+04  0.28407973623E+04 0.  0.
        2    1    3    3  502    0 -0.14669347956E+02  0.13793648722E+04  0.12249037984E+03  0.13848705837E+04  0.25500000920E-02 0.  1.
       -2    1    3    3    0  502  0.14669347956E+02 -0.13793648722E+04  0.83736366776E+03  0.16137039854E+04  0.25500000920E-02 0. -1.
</event>
<event>
 5   0  0.7388013E-06  0.2483089E+04  0.7818609E-02  0.8409035E-01
        1   -1    0    0  501    0  0.00000000000E+00  0.00000000000E+00  0.10651136393E+04  0.10651136393E+04  0.50400001928E-02 0.  1.
       -1   -1    0    0    0  501  0.00000000000E+00  0.00000000000E+00 -0.14472002844E+04  0.14472002844E+04  0.50400001928E-02 0. -1.
    10030    2    1    2    0    0  0.00000000000E+00  0.00000000000E+00 -0.38208664506E+03  0.25123139238E+04  0.24830890131E+04 0.  0.
        1    1    3    3  502    0 -0.38860820703E+03  0.97939346922E+03  0.47334721477E+03  0.11551127615E+04  0.50400001928E-02 0.  1.
       -1    1    3    3    0  502  0.38860820703E+03 -0.97939346922E+03 -0.85543385983E+03  0.13572011622E+04  0.50400001928E-02 0. -1.
</event>
<event>
 5   0  0.1814230E-05  0.2807842E+04  0.7818609E-02  0.8300838E-01
       -2   -1    0    0    0  501  0.00000000000E+00  0.00000000000E+00  0.11489249251E+04  0.11489249251E+04  0.25500000920E-02 0.  1.
        2   -1    0    0  501    0  0.00000000000E+00  0.00000000000E+00 -0.17155112565E+04  0.17155112565E+04  0.25500000920E-02 0. -1.
    10030    2    1    2    0    0  0.00000000000E+00  0.00000000000E+00 -0.56658633135E+03  0.28644361816E+04  0.28078416208E+04 0.  0.
        5    1    3    3  502    0  0.56623646053E+03  0.12800762558E+04 -0.39388767330E+03  0.14540937174E+04  0.46999998093E+01 0.  1.
       -5    1    3    3    0  502 -0.56623646053E+03 -0.12800762558E+04 -0.17269865805E+03  0.14103424642E+04  0.46999998093E+01 0. -1.
</event>
<event>
 5   0  0.7555871E-06  0.2813841E+04  0.7818609E-02  0.8298984E-01
        1   -1    0    0  501    0  0.00000000000E+00  0.00000000000E+00  0.22349835309E+04  0.22349835310E+04  0.50400001928E-02 0.  1.
       -1   -1    0    0    0  501  0.00000000000E+00  0.00000000000E+00 -0.88565529031E+03  0.88565529032E+03  0.50400001928E-02 0. -1.
    10030    2    1    2    0    0  0.00000000000E+00  0.00000000000E+00  0.13493282406E+04  0.31206388213E+04  0.28138407830E+04 0.  0.
        3    1    3    3  502    0 -0.97848800884E+03  0.67912359163E+03 -0.15583507455E+03  0.12012211357E+04  0.10100000352E+00 0. -1.
       -3    1    3    3    0  502  0.97848800884E+03 -0.67912359163E+03  0.15051633152E+04  0.19194176856E+04  0.10100000352E+00 0.  1.
</event>
<event>
 5   0  0.1923559E-05  0.2733891E+04  0.7818609E-02  0.8324091E-01
        2   -1    0    0  501    0  0.00000000000E+00  0.00000000000E+00  0.28480267762E+04  0.28480267762E+04  0.25500000920E-02 0. -1.
       -2   -1    0    0    0  501  0.00000000000E+00  0.00000000000E+00 -0.65608242742E+03  0.65608242742E+03  0.25500000920E-02 0.  1.
    10030    2    1    2    0    0  0.00000000000E+00  0.00000000000E+00  0.21919443487E+04  0.35041092036E+04  0.27338912346E+04 0.  0.
        4    1    3    3  502    0  0.41333600416E+03  0.18697357508E+03 -0.55677966691E+03  0.71819981934E+03  0.12699999809E+01 0.  1.
       -4    1    3    3    0  502 -0.41333600416E+03 -0.18697357508E+03  0.27487240157E+04  0.27859093842E+04  0.12699999809E+01 0. -1.
</event>
<event>
 5   0  0.6288000E-06  0.2578483E+04  0.7818609E-02  0.8375547E-01
        4   -1    0    0  501    0  0.00000000000E+00  0.00000000000E+00  0.14501094867E+04  0.14501100429E+04  0.12699999809E+01 0. -1.
       -4   -1    0    0    0  501  0.00000000000E+00  0.00000000000E+00 -0.11462185718E+04  0.11462192754E+04  0.12699999809E+01 0.  1.
    10030    2    1    2    0    0  0.00000000000E+00  0.00000000000E+00  0.30389091488E+03  0.25963293183E+04  0.25784833218E+04 0.  0.
        4    1    3    3  502    0  0.10300580799E+03 -0.10023468806E+04 -0.65788019397E+03  0.12033775085E+04  0.12699999809E+01 0.  1.
       -4    1    3    3    0  502 -0.10300580799E+03  0.10023468806E+04  0.96177110885E+03  0.13929518097E+04  0.12699999809E+01 0. -1.
</event>
<event>
 5   0  0.7555871E-06  0.2817699E+04  0.7818609E-02  0.8297794E-01
        1   -1    0    0  501    0  0.00000000000E+00  0.00000000000E+00  0.19764400967E+04  0.19764400967E+04  0.50400001928E-02 0. -1.
       -1   -1    0    0    0  501  0.00000000000E+00  0.00000000000E+00 -0.10042588867E+04  0.10042588867E+04  0.50400001928E-02 0.  1.
    10030    2    1    2    0    0  0.00000000000E+00  0.00000000000E+00  0.97218120998E+03  0.29806989834E+04  0.28176994383E+04 0.  0.
        3    1    3    3  502    0  0.10485804131E+04  0.87107896057E+03  0.10976098897E+03  0.13676062749E+04  0.10100000352E+00 0.  1.
       -3    1    3    3    0  502 -0.10485804131E+04 -0.87107896057E+03  0.86242022102E+03  0.16130927085E+04  0.10100000352E+00 0. -1.
</event>
<event>
 5   0  0.7388013E-06  0.2806246E+04  0.7818609E-02  0.8301332E-01
        1   -1    0    0  501    0  0.00000000000E+00  0.00000000000E+00  0.19950077757E+04  0.19950077757E+04  0.50400001928E-02 0.  1.
       -1   -1    0    0    0  501  0.00000000000E+00  0.00000000000E+00 -0.98684018239E+03  0.98684018240E+03  0.50400001928E-02 0. -1.
    10030    2    1    2    0    0  0.00000000000E+00  0.00000000000E+00  0.10081675933E+04  0.29818479581E+04  0.28062457749E+04 0.  0.
        1    1    3    3  502    0 -0.10025099952E+04  0.29933100757E+03 -0.48936944144E+03  0.11550358405E+04  0.50400001928E-02 0. -1.
       -1    1    3    3    0  502  0.10025099952E+04 -0.29933100757E+03  0.14975370348E+04  0.18268121176E+04  0.50400001928E-02 0.  1.
</event>
<event>
 5   0  0.7555871E-06  0.2805135E+04  0.7818609E-02  0.8301676E-01
        1   -1    0    0  501    0  0.00000000000E+00  0.00000000000E+00  0.94634104186E+03  0.94634104187E+03  0.50400001928E-02 0.  1.
       -1   -1    0    0    0  501  0.00000000000E+00  0.00000000000E+00 -0.20787379515E+04  0.20787379515E+04  0.50400001928E-02 0. -1.
    10030    2    1    2    0    0  0.00000000000E+00  0.00000000000E+00 -0.11323969096E+04  0.30250789934E+04  0.28051346055E+04 0.  0.
        3    1    3    3  502    0 -0.47776056724E+03 -0.95923558375E+03  0.40963067381E+03  0.11472512209E+04  0.10100000352E+00 0.  1.
       -3    1    3    3    0  502  0.47776056724E+03  0.95923558375E+03 -0.15420275835E+04  0.18778277725E+04  0.10100000352E+00 0. -1.
</event>
<event>
 5   0  0.1923559E-05  0.2958674E+04  0.7818609E-02  0.8255631E-01
       -2   -1    0    0    0  501  0.00000000000E+00  0.00000000000E+00  0.11316709345E+04  0.11316709345E+04  0.25500000920E-02 0. -1.
        2   -1    0    0  501    0  0.00000000000E+00  0.00000000000E+00 -0.19338114389E+04  0.19338114389E+04  0.25500000920E-02 0.  1.
    10030    2    1    2    0    0  0.00000000000E+00  0.00000000000E+00 -0.80214050434E+03  0.30654823734E+04  0.29586741614E+04 0.  0.
        4    1    3    3  502    0  0.24534624147E+03 -0.76596360480E+03  0.88533944048E+03  0.11961281536E+04  0.12699999809E+01 0. -1.
       -4    1    3    3    0  502 -0.24534624147E+03  0.76596360480E+03 -0.16874799448E+04  0.18693542198E+04  0.12699999809E+01 0.  1.
</event>
<event>
 5   0  0.1904553E-05  0.2980509E+04  0.7818609E-02  0.8249318E-01
        2   -1    0    0  501    0  0.00000000000E+00  0.00000000000E+00  0.98336509271E+03  0.98336509271E+03  0.25500000920E-02 0.  1.
       -2   -1    0    0    0  501  0.00000000000E+00  0.00000000000E+00 -0.22584279582E+04  0.22584279582E+04  0.25500000920E-02 0. -1.
    10030    2    1    2    0    0  0.00000000000E+00  0.00000000000E+00 -0.12750628655E+04  0.32417930509E+04  0.29805094991E+04 0.  0.
        1    1    3    3  502    0 -0.68871153490E+03 -0.73129695094E+03  0.55975916570E+03  0.11499778834E+04  0.50400001928E-02 0. -1.
       -1    1    3    3    0  502  0.68871153490E+03  0.73129695094E+03 -0.18348220312E+04  0.20918151675E+04  0.50400001928E-02 0.  1.
</event>
<event>
 5   0  0.6288000E-06  0.2785469E+04  0.7818609E-02  0.8307794E-01
        4   -1    0    0  501    0  0.00000000000E+00  0.00000000000E+00  0.12825639742E+04  0.12825646029E+04  0.12699999809E+01 0.  1.
       -4   -1    0    0    0  501  0.00000000000E+00  0.00000000000E+00 -0.15123668546E+04  0.15123673879E+04  0.12699999809E+01 0. -1.
    10030    2    1    2    0    0  0.00000000000E+00  0.00000000000E+00 -0.22980288047E+03  0.27949319908E+04  0.27854686265E+04 0.  0.
        1    1    3    3  502    0  0.10656581635E+04  0.56543939017E+03 -0.81322555225E+03  0.14548830964E+04  0.50400001928E-02 0. -1.
       -1    1    3    3    0  502 -0.10656581635E+04 -0.56543939017E+03  0.58342267177E+03  0.13400488944E+04  0.50400001928E-02 0.  1.
</event>
<event>
 5   0  0.7681342E-06  0.2627222E+04  0.7818609E-02  0.8359013E-01
        1   -1    0    0  501    0  0.00000000000E+00  0.00000000000E+00  0.15302119406E+04  0.15302119406E+04  0.50400001928E-02 0.  1.
       -1   -1    0    0    0  501  0.00000000000E+00  0.00000000000E+00 -0.11276701696E+04  0.11276701696E+04  0.50400001928E-02 0. -1.
    10030    2    1    2    0    0  0.00000000000E+00  0.00000000000E+00  0.40254177102E+03  0.26578821102E+04  0.26272223801E+04 0.  0.
        2    1    3    3  502    0  0.41675345570E+03  0.37703622202E+03 -0.99990763897E+03  0.11470200705E+04  0.25500000920E-02 0. -1.
       -2    1    3    3    0  502 -0.41675345570E+03 -0.37703622202E+03  0.14024494100E+04  0.15108620397E+04  0.25500000920E-02 0.  1.
</event>
<event>
 5   0  0.6288000E-06  0.2753141E+04  0.7818609E-02  0.8317966E-01
        3   -1    0    0  501    0  0.00000000000E+00  0.00000000000E+00  0.17497040684E+04  0.17497040714E+04  0.10100000352E+00 0. -1.
       -3   -1    0    0    0  501  0.00000000000E+00  0.00000000000E+00 -0.10830095773E+04  0.10830095820E+04  0.10100000352E+00 0.  1.
    10030    2    1    2    0    0  0.00000000000E+00  0.00000000000E+00  0.66669449115E+03  0.28327136534E+04  0.27531409512E+04 0.  0.
        3    1    3    3  502    0  0.30492631819E+03  0.39248618193E+03  0.16541634773E+04  0.17272180761E+04  0.10100000352E+00 0. -1.
       -3    1    3    3    0  502 -0.30492631819E+03 -0.39248618193E+03 -0.98746898616E+03  0.11054955773E+04  0.10100000352E+00 0.  1.
</event>
<event>
 5   0  0.1923559E-05  0.2732497E+04  0.7818609E-02  0.8324537E-01
       -2   -1    0    0    0  501  0.00000000000E+00  0.00000000000E+00  0.14771373990E+04  0.14771373990E+04  0.25500000920E-02 0. -1.
        2   -1    0    0  501    0  0.00000000000E+00  0.00000000000E+00 -0.12636839336E+04  0.12636839336E+04  0.25500000920E-02 0.  1.
    10030    2    1    2    0    0  0.00000000000E+00  0.00000000000E+00  0.21345346540E+03  0.27408213327E+04  0.27324968794E+04 0.  0.
        4    1    3    3  502    0  0.40881761720E+03  0.10707762087E+03 -0.11964756582E+04  0.12689180724E+04  0.12699999809E+01 0.  1.
       -4    1    3    3    0  502 -0.40881761720E+03 -0.10707762087E+03  0.14099291236E+04  0.14719032602E+04  0.12699999809E+01 0. -1.
</event>
<event>
 5   0  0.7555871E-06  0.2648519E+04  0.7818609E-02  0.8351905E-01
        1   -1    0    0  501    0  0.00000000000E+00  0.00000000000E+00  0.19735658039E+04  0.19735658039E+04  0.50400001928E-02 0.  1.
       -1   -1    0    0    0  501  0.00000000000E+00  0.00000000000E+00 -0.88857590448E+03  0.88857590450E+03  0.50400001928E-02 0. -1.
    10030    2    1    2    0    0  0.00000000000E+00  0.00000000000E+00  0.10849898994E+04  0.28621417084E+04  0.26485188459E+04 0.  0.
        3    1    3    3  502    0 -0.21622456366E+03 -0.11031958073E+04  0.12988540296E+04  0.17177938909E+04  0.10100000352E+00 0.  1.
       -3    1    3    3    0  502  0.21622456366E+03  0.11031958073E+04 -0.21386413015E+03  0.11443478175E+04  0.10100000352E+00 0. -1.
</event>
<event>
 5   0  0.1923559E-05  0.2807890E+04  0.7818609E-02  0.8300823E-01
       -2   -1    0    0    0  501  0.00000000000E+00  0.00000000000E+00  0.96926351948E+03  0.96926351948E+03  0.25500000920E-02 0. -1.
        2   -1    0    0  501    0  0.00000000000E+00  0.00000000000E+00 -0.20335660101E+04  0.20335660101E+04  0.25500000920E-02 0.  1.
    10030    2    1    2    0    0  0.00000000000E+00  0.00000000000E+00 -0.10643024906E+04  0.30028295296E+04  0.28078898469E+04 0.  0.
        4    1    3    3  502    0 -0.98736386469E+03 -0.10079149300E+03  0.52976929685E+03  0.11250348649E+04  0.12699999809E+01 0. -1.
       -4    1    3    3    0  502  0.98736386469E+03  0.10079149300E+03 -0.15940717874E+04  0.18777946647E+04  0.12699999809E+01 0.  1.
</event>
<event>
 5   0  0.7555871E-06  0.2745386E+04  0.7818609E-02  0.8320427E-01
        1   -1    0    0  501    0  0.00000000000E+00  0.00000000000E+00  0.87698667263E+03  0.87698667264E+03  0.50400001928E-02 0.  1.
       -1   -1    0    0    0  501  0.00000000000E+00  0.00000000000E+00 -0.21485915583E+04  0.21485915583E+04  0.50400001928E-02 0. -1.
    10030    2    1    2    0    0  0.00000000000E+00  0.00000000000E+00 -0.12716048857E+04  0.30255782310E+04  0.27453860651E+04 0.  0.
        3    1    3    3  502    0  0.31253363381E+03 -0.11804142380E+04  0.55278463345E+02  0.12223382365E+04  0.10100000352E+00 0.  1.
       -3    1    3    3    0  502 -0.31253363381E+03  0.11804142380E+04 -0.13268833490E+04  0.18032399945E+04  0.10100000352E+00 0. -1.
</event>
<event>
 5   0  0.7555871E-06  0.2804601E+04  0.7818609E-02  0.8301841E-01
        1   -1    0    0  501    0  0.00000000000E+00  0.00000000000E+00  0.99924262563E+03  0.99924262564E+03  0.50400001928E-02 0. -1.
       -1   -1    0    0    0  501  0.00000000000E+00  0.00000000000E+00 -0.19679372248E+04  0.19679372248E+04  0.50400001928E-02 0.  1.
    10030    2    1    2    0    0  0.00000000000E+00  0.00000000000E+00 -0.96869459914E+03  0.29671798504E+04  0.28046010480E+04 0.  0.
        3    1    3    3  502    0 -0.11979098768E+04  0.51442346409E+03 -0.10308443334E+04  0.16620047001E+04  0.10100000352E+00 0.  1.
       -3    1    3    3    0  502  0.11979098768E+04 -0.51442346409E+03  0.62149734247E+02  0.13051751503E+04  0.10100000352E+00 0. -1.
</event>
<event>
 5   0  0.1923559E-05  0.2881802E+04  0.7818609E-02  0.8278313E-01
       -2   -1    0    0    0  501  0.00000000000E+00  0.00000000000E+00  0.12813759179E+04  0.12813759179E+04  0.25500000920E-02 0. -1.
        2   -1    0    0  501    0  0.00000000000E+00  0.00000000000E+00 -0.16202856390E+04  0.16202856390E+04  0.25500000920E-02 0.  1.
    10030    2    1    2    0    0  0.00000000000E+00  0.00000000000E+00 -0.33890972102E+03  0.29016615569E+04  0.28818015185E+04 0.  0.
        4    1    3    3  502    0 -0.50063047950E+03 -0.73069222629E+03  0.97488584346E+03  0.13171734993E+04  0.12699999809E+01 0. -1.
       -4    1    3    3    0  502  0.50063047950E+03  0.73069222629E+03 -0.13137955645E+04  0.15844880576E+04  0.12699999809E+01 0.  1.
</event>
<event>
 5   0  0.1904553E-05  0.2803124E+04  0.7818609E-02  0.8302299E-01
       -2   -1    0    0    0  501  0.00000000000E+00  0.00000000000E+00  0.14028603256E+04  0.14028603256E+04  0.25500000920E-02 0. -1.
        2   -1    0    0  501    0  0.00000000000E+00  0.00000000000E+00 -0.14002647258E+04  0.14002647258E+04  0.25500000920E-02 0.  1.
    10030    2    1    2    0    0  0.00000000000E+00  0.00000000000E+00  0.25955998422E+01  0.28031250514E+04  0.28031238497E+04 0.  0.
        1    1    3    3  502    0 -0.25200642525E+03  0.10714257548E+04 -0.86640957487E+03  0.14007590578E+04  0.50400001928E-02 0.  1.
       -1    1    3    3    0  502  0.25200642525E+03 -0.10714257548E+04  0.86900517471E+03  0.14023659937E+04  0.50400001928E-02 0. -1.
</event>
<event>
 5   0  0.1832502E-05  0.2359221E+04  0.7818609E-02  0.8454930E-01
        2   -1    0    0  501    0  0.00000000000E+00  0.00000000000E+00  0.15931540860E+04  0.15931540860E+04  0.25500000920E-02 0. -1.
       -2   -1    0    0    0  501  0.00000000000E+00  0.00000000000E+00 -0.87341259029E+03  0.87341259029E+03  0.25500000920E-02 0.  1.
    10030    2    1    2    0    0  0.00000000000E+00  0.00000000000E+00  0.71974149572E+03  0.24665666763E+04  0.23592209197E+04 0.  0.
        2    1    3    3  502    0 -0.23533107308E+03  0.99688165309E+03 -0.25183827316E+03  0.10547873056E+04  0.25500000920E-02 0.  1.
       -2    1    3    3    0  502  0.23533107308E+03 -0.99688165309E+03  0.97157976888E+03  0.14117793707E+04  0.25500000920E-02 0. -1.
</event>
<event>
 5   0  0.1923559E-05  0.2767814E+04  0.7818609E-02  0.8313331E-01
       -2   -1    0    0    0  501  0.00000000000E+00  0.00000000000E+00  0.13978291278E+04  0.13978291279E+04  0.25500000920E-02 0.  1.
        2   -1    0    0  501    0  0.00000000000E+00  0.00000000000E+00 -0.13701236792E+04  0.13701236792E+04  0.25500000920E-02 0. -1.
    10030    2    1    2    0    0  0.00000000000E+00  0.00000000000E+00  0.27705448698E+02  0.27679528070E+04  0.27678141466E+04 0.  0.
        4    1    3    3  502    0  0.48188046770E+03  0.16307509338E+03 -0.12732218150E+04  0.13710936052E+04  0.12699999809E+01 0. -1.
       -4    1    3    3    0  502 -0.48188046770E+03 -0.16307509338E+03  0.13009272637E+04  0.13968592018E+04  0.12699999809E+01 0.  1.
</event>
<event>
 5   0  0.7388013E-06  0.2856034E+04  0.7818609E-02  0.8286080E-01
       -1   -1    0    0    0  501  0.00000000000E+00  0.00000000000E+00  0.11670280702E+04  0.11670280702E+04  0.50400001928E-02 0. -1.
        1   -1    0    0  501    0  0.00000000000E+00  0.00000000000E+00 -0.17473718637E+04  0.17473718638E+04  0.50400001928E-02 0.  1.
    10030    2    1    2    0    0  0.00000000000E+00  0.00000000000E+00 -0.58034379352E+03  0.29143999340E+04  0.28560336231E+04 0.  0.
        1    1    3    3  502    0 -0.10989544900E+04  0.74028993914E+03  0.25315822212E+03  0.13490067645E+04  0.50400001928E-02 0. -1.
       -1    1    3    3    0  502  0.10989544900E+04 -0.74028993914E+03 -0.83350201564E+03  0.15653931695E+04  0.50400001928E-02 0.  1.
</event>
<event>
 5   0  0.7555871E-06  0.2889697E+04  0.7818609E-02  0.8275949E-01
       -1   -1    0    0    0  501  0.00000000000E+00  0.00000000000E+00  0.10638391977E+04  0.10638391977E+04  0.50400001928E-02 0. -1.
        1   -1    0    0  501    0  0.00000000000E+00  0.00000000000E+00 -0.19623149884E+04  0.19623149884E+04  0.50400001928E-02 0.  1.
    10030    2    1    2    0    0  0.00000000000E+00  0.00000000000E+00 -0.89847579068E+03  0.30261541861E+04  0.28896972872E+04 0.  0.
        3    1    3    3  502    0  0.11397041482E+04 -0.19233257078E+03 -0.13571679171E+04  0.17826447007E+04  0.10100000352E+00 0.  1.
       -3    1    3    3    0  502 -0.11397041482E+04  0.19233257078E+03  0.45869212646E+03  0.12435094854E+04  0.10100000352E+00 0. -1.
</event>
<event>
 5   0  0.1832502E-05  0.2827704E+04  0.7818609E-02  0.8294719E-01
       -2   -1    0    0    0  501  0.00000000000E+00  0.00000000000E+00  0.14047988042E+04  0.14047988042E+04  0.25500000920E-02 0.  1.
        2   -1    0    0  501    0  0.00000000000E+00  0.00000000000E+00 -0.14229632278E+04  0.14229632278E+04  0.25500000920E-02 0. -1.
    10030    2    1    2    0    0  0.00000000000E+00  0.00000000000E+00 -0.18164423612E+02  0.28277620320E+04  0.28277036909E+04 0.  0.
        2    1    3    3  502    0  0.97705994063E+03 -0.18529929043E+03 -0.10140880641E+04  0.14203367757E+04  0.25500000920E-02 0. -1.
       -2    1    3    3    0  502 -0.97705994063E+03  0.18529929043E+03  0.99592364047E+03  0.14074252564E+04  0.25500000920E-02 0.  1.
</event>
<event>
 5   0  0.7681342E-06  0.2732843E+04  0.7818609E-02  0.8324427E-01
       -1   -1    0    0    0  501  0.00000000000E+00  0.00000000000E+00  0.12439734654E+04  0.12439734654E+04  0.50400001928E-02 0. -1.
        1   -1    0    0  501    0  0.00000000000E+00  0.00000000000E+00 -0.15009224868E+04  0.15009224868E+04  0.50400001928E-02 0.  1.
    10030    2    1    2    0    0  0.00000000000E+00  0.00000000000E+00 -0.25694902140E+03  0.27448959522E+04  0.27328430230E+04 0.  0.
        2    1    3    3  502    0 -0.12319104276E+04 -0.52434432224E+03 -0.40274932257E+03  0.13981227724E+04  0.25500000920E-02 0.  1.
       -2    1    3    3    0  502  0.12319104276E+04  0.52434432224E+03  0.14580030117E+03  0.13467731798E+04  0.25500000920E-02 0. -1.
</event>
<event>
 5   0  0.7509685E-06  0.2775479E+04  0.7818609E-02  0.8310922E-01
       -1   -1    0    0    0  501  0.00000000000E+00  0.00000000000E+00  0.15050936359E+04  0.15050936359E+04  0.50400001928E-02 0. -1.
        1   -1    0    0  501    0  0.00000000000E+00  0.00000000000E+00 -0.12795360769E+04  0.12795360769E+04  0.50400001928E-02 0.  1.
    10030    2    1    2    0    0  0.00000000000E+00  0.00000000000E+00  0.22555755902E+03  0.27846297127E+04  0.27754794945E+04 0.  0.
        4    1    3    3  502    0 -0.96908852556E+03  0.10389705500E+03  0.11039084839E+04  0.14725972709E+04  0.12699999809E+01 0. -1.
       -4    1    3    3    0  502  0.96908852556E+03 -0.10389705500E+03 -0.87835092488E+03  0.13120324419E+04  0.12699999809E+01 0.  1.
</event>
<event>
 5   0  0.7509685E-06  0.2837425E+04  0.7818609E-02  0.8291743E-01
        1   -1    0    0  501    0  0.00000000000E+00  0.00000000000E+00  0.17728381956E+04  0.17728381956E+04  0.50400001928E-02 0. -1.
       -1   -1    0    0    0  501  0.00000000000E+00  0.00000000000E+00 -0.11353232807E+04  0.11353232807E+04  0.50400001928E-02 0.  1.
    10030    2    1    2    0    0  0.00000000000E+00  0.00000000000E+00  0.63751491491E+03  0.29081614764E+04  0.28374245198E+04 0.  0.
        4    1    3    3  502    0 -0.10831086209E+04 -0.77196080359E+01 -0.62035976913E+03  0.12482114136E+04  0.12699999809E+01 0.  1.
       -4    1    3    3    0  502  0.10831086209E+04  0.77196080359E+01  0.12578746840E+04  0.16599500627E+04  0.12699999809E+01 0. -1.
</event>
<event>
 5   0  0.1832502E-05  0.2828397E+04  0.7818609E-02  0.8294506E-01
        2   -1    0    0  501    0  0.00000000000E+00  0.00000000000E+00  0.19558748438E+04  0.19558748438E+04  0.25500000920E-02 0.  1.
       -2   -1    0    0    0  501  0.00000000000E+00  0.00000000000E+00 -0.10225382154E+04  0.10225382154E+04  0.25500000920E-02 0. -1.
    10030    2    1    2    0    0  0.00000000000E+00  0.00000000000E+00  0.93333662840E+03  0.29784130593E+04  0.28283965581E+04 0.  0.
        2    1    3    3  502    0 -0.82314447556E+02 -0.53866165625E+03 -0.90754801220E+03  0.10585723606E+04  0.25500000920E-02 0. -1.
       -2    1    3    3    0  502  0.82314447556E+02  0.53866165625E+03  0.18408846406E+04  0.19198406987E+04  0.25500000920E-02 0.  1.
</event>
<event>
 5   0  0.7388013E-06  0.2225341E+04  0.7818609E-02  0.8507954E-01
       -1   -1    0    0    0  501  0.00000000000E+00  0.00000000000E+00  0.10562973468E+04  0.10562973468E+04  0.50400001928E-02 0.  1.
        1   -1    0    0  501    0  0.00000000000E+00  0.00000000000E+00 -0.11720523904E+04  0.11720523904E+04  0.50400001928E-02 0. -1.
    10030    2    1    2    0    0  0.00000000000E+00  0.00000000000E+00 -0.11575504365E+03  0.22283497372E+04  0.22253411696E+04 0.  0.
        1    1    3    3  502    0  0.37278863150E+03  0.92515716566E+03  0.43589022047E+03  0.10885253462E+04  0.50400001928E-02 0.  1.
       -1    1    3    3    0  502 -0.37278863150E+03 -0.92515716566E+03 -0.55164526411E+03  0.11398243910E+04  0.50400001928E-02 0. -1.
</event>
<event>
 5   0  0.1832502E-05  0.2763837E+04  0.7818609E-02  0.8314584E-01
        2   -1    0    0  501    0  0.00000000000E+00  0.00000000000E+00  0.21771160430E+04  0.21771160430E+04  0.25500000920E-02 0.  1.
       -2   -1    0    0    0  501  0.00000000000E+00  0.00000000000E+00 -0.87716911279E+03  0.87716911279E+03  0.25500000920E-02 0. -1.
    10030    2    1    2    0    0  0.00000000000E+00  0.00000000000E+00  0.12999469302E+04  0.30542851558E+04  0.27638371500E+04 0.  0.
        2    1    3    3  502    0  0.69256869711E+03 -0.56400150407E+03  0.18152787924E+04  0.20231129951E+04  0.25500000920E-02 0.  1.
       -2    1    3    3    0  502 -0.69256869711E+03  0.56400150407E+03 -0.51533186219E+03  0.10311721607E+04  0.25500000920E-02 0. -1.
</event>
<event>
 5   0  0.1832502E-05  0.2699952E+04  0.7818609E-02  0.8335021E-01
        2   -1    0    0  501    0  0.00000000000E+00  0.00000000000E+00  0.91134359403E+03  0.91134359404E+03  0.25500000920E-02 0.  1.
       -2   -1    0    0    0  501  0.00000000000E+00  0.00000000000E+00 -0.19997233820E+04  0.19997233820E+04  0.25500000920E-02 0. -1.
    10030    2    1    2    0    0  0.00000000000E+00  0.00000000000E+00 -0.10883797880E+04  0.29110669761E+04  0.26999519211E+04 0.  0.
        2    1    3    3  502    0  0.99809124104E+03 -0.85762061945E+03 -0.86896714617E+03  0.15769600989E+04  0.25500000920E-02 0. -1.
       -2    1    3    3    0  502 -0.99809124104E+03  0.85762061945E+03 -0.21941264182E+03  0.13341068772E+04  0.25500000920E-02 0.  1.
</event>
<event>
 5   0  0.1832502E-05  0.2754969E+04  0.7818609E-02  0.8317387E-01
        2   -1    0    0  501    0  0.00000000000E+00  0.00000000000E+00  0.11391793215E+04  0.11391793215E+04  0.25500000920E-02 0. -1.
       -2   -1    0    0    0  501  0.00000000000E+00  0.00000000000E+00 -0.16656412037E+04  0.16656412037E+04  0.25500000920E-02 0.  1.
    10030    2    1    2    0    0  0.00000000000E+00  0.00000000000E+00 -0.52646188227E+03  0.28048205252E+04  0.27549693402E+04 0.  0.
        2    1    3    3  502    0 -0.11939006455E+04 -0.13921187369E+03  0.42176265605E+03  0.12738376801E+04  0.25500000920E-02 0. -1.
       -2    1    3    3    0  502  0.11939006455E+04  0.13921187369E+03 -0.94822453832E+03  0.15309828452E+04  0.25500000920E-02 0.  1.
</event>
<event>
 5   0  0.1904553E-05  0.2832410E+04  0.7818609E-02  0.8293276E-01
        2   -1    0    0  501    0  0.00000000000E+00  0.00000000000E+00  0.13444284137E+04  0.13444284137E+04  0.25500000920E-02 0.  1.
       -2   -1    0    0    0  501  0.00000000000E+00  0.00000000000E+00 -0.14918137392E+04  0.14918137392E+04  0.25500000920E-02 0. -1.
    10030    2    1    2    0    0  0.00000000000E+00  0.00000000000E+00 -0.14738532549E+03  0.28362421528E+04  0.28324101249E+04 0.  0.
        1    1    3    3  502    0  0.10893842386E+04  0.90459940164E+03 -0.97781018915E+02  0.14193728279E+04  0.50400001928E-02 0.  1.
       -1    1    3    3    0  502 -0.10893842386E+04 -0.90459940164E+03 -0.49604306572E+02  0.14168693250E+04  0.50400001928E-02 0. -1.
</event>
<event>
 5   0  0.7681342E-06  0.2724371E+04  0.7818609E-02  0.8327141E-01
       -1   -1    0    0    0  501  0.00000000000E+00  0.00000000000E+00  0.11806249907E+04  0.11806249907E+04  0.50400001928E-02 0.  1.
        1   -1    0    0  501    0  0.00000000000E+00  0.00000000000E+00 -0.15716669413E+04  0.15716669413E+04  0.50400001928E-02 0. -1.
    10030    2    1    2    0    0  0.00000000000E+00  0.00000000000E+00 -0.39104195055E+03  0.27522919320E+04  0.27243709498E+04 0.  0.
        2    1    3    3  502    0 -0.21047743909E+03 -0.96190745226E+03  0.75539215697E+03  0.12410415021E+04  0.25500000920E-02 0.  1.
       -2    1    3    3    0  502  0.21047743909E+03  0.96190745226E+03 -0.11464341075E+04  0.15112504299E+04  0.25500000920E-02 0. -1.
</event>
<event>
 5   0  0.1923559E-05  0.2806401E+04  0.7818609E-02  0.8301284E-01
       -2   -1    0    0    0  501  0.00000000000E+00  0.00000000000E+00  0.11965255318E+04  0.11965255318E+04  0.25500000920E-02 0.  1.
        2   -1    0    0  501    0  0.00000000000E+00  0.00000000000E+00 -0.16455748623E+04  0.16455748623E+04  0.25500000920E-02 0. -1.
    10030    2    1    2    0    0  0.00000000000E+00  0.00000000000E+00 -0.44904933048E+03  0.28421003941E+04  0.28064014946E+04 0.  0.
        4    1    3    3  502    0  0.42227594191E+03 -0.12666891668E+04  0.21241736723E+03  0.13520137452E+04  0.12699999809E+01 0. -1.
       -4    1    3    3    0  502 -0.42227594191E+03  0.12666891668E+04 -0.66146669771E+03  0.14900866490E+04  0.12699999809E+01 0.  1.
</event>
<event>
 5   0  0.1814230E-05  0.2616354E+04  0.7818609E-02  0.8362667E-01
       -2   -1    0    0    0  501  0.00000000000E+00  0.00000000000E+00  0.16901396022E+04  0.16901396022E+04  0.25500000920E-02 0.  1.
        2   -1    0    0  501    0  0.00000000000E+00  0.00000000000E+00 -0.10125361694E+04  0.10125361694E+04  0.25500000920E-02 0. -1.
    10030    2    1    2    0    0  0.00000000000E+00  0.00000000000E+00  0.67760343279E+03  0.27026757715E+04  0.26163543173E+04 0.  0.
        5    1    3    3  502    0  0.35871019534E+03 -0.62072925832E+03  0.14691281462E+04  0.16347285452E+04  0.46999998093E+01 0.  1.
       -5    1    3    3    0  502 -0.35871019534E+03  0.62072925832E+03 -0.79152471341E+03  0.10679472264E+04  0.46999998093E+01 0. -1.
</event>
<event>
 5   0  0.7613444E-06  0.2696607E+04  0.7818609E-02  0.8336107E-01
       -1   -1    0    0    0  501  0.00000000000E+00  0.00000000000E+00  0.10644807371E+04  0.10644807371E+04  0.50400001928E-02 0.  1.
        1   -1    0    0  501    0  0.00000000000E+00  0.00000000000E+00 -0.17078026189E+04  0.17078026190E+04  0.50400001928E-02 0. -1.
    10030    2    1    2    0    0  0.00000000000E+00  0.00000000000E+00 -0.64332188183E+03  0.27722833561E+04  0.26966074914E+04 0.  0.
        5    1    3    3  502    0  0.10110541697E+04 -0.74489013656E+03  0.18283338264E+03  0.12690713083E+04  0.46999998093E+01 0.  1.
       -5    1    3    3    0  502 -0.10110541697E+04  0.74489013656E+03 -0.82615526447E+03  0.15032120478E+04  0.46999998093E+01 0. -1.
</event>
<event>
 5   0  0.1814230E-05  0.2022230E+04  0.7818609E-02  0.8596298E-01
       -2   -1    0    0    0  501  0.00000000000E+00  0.00000000000E+00  0.11239493892E+04  0.11239493892E+04  0.25500000920E-02 0. -1.
        2   -1    0    0  501    0  0.00000000000E+00  0.00000000000E+00 -0.90960776786E+03  0.90960776787E+03  0.25500000920E-02 0.  1.
    10030    2    1    2    0    0  0.00000000000E+00  0.00000000000E+00  0.21434162131E+03  0.20335571570E+04  0.20222295568E+04 0.  0.
        5    1    3    3  502    0  0.48823603179E+03  0.23155432521E+03 -0.75221509885E+03  0.92619731872E+03  0.46999998093E+01 0.  1.
       -5    1    3    3    0  502 -0.48823603179E+03 -0.23155432521E+03  0.96655672016E+03  0.11073598383E+04  0.46999998093E+01 0. -1.
</event>
<event>
 5   0  0.7613444E-06  0.2924522E+04  0.7818609E-02  0.8265619E-01
       -1   -1    0    0    0  501  0.00000000000E+00  0.00000000000E+00  0.12439485381E+04  0.12439485381E+04  0.50400001928E-02 0.  1.
        1   -1    0    0  501    0  0.00000000000E+00  0.00000000000E+00 -0.17188868980E+04  0.17188868981E+04  0.50400001928E-02 0. -1.
    10030    2    1    2    0    0  0.00000000000E+00  0.00000000000E+00 -0.47493835996E+03  0.29628354361E+04  0.29245217346E+04 0.  0.
        5    1    3    3  502    0 -0.10609525299E+04 -0.10037135628E+04 -0.16495233580E+03  0.14697933698E+04  0.46999998093E+01 0. -1.
       -5    1    3    3    0  502  0.10609525299E+04  0.10037135628E+04 -0.30998602416E+03  0.14930420664E+04  0.46999998093E+01 0.  1.
</event>
<event>
 5   0  0.1814230E-05  0.2690917E+04  0.7818609E-02  0.8337958E-01
       -2   -1    0    0    0  501  0.00000000000E+00  0.00000000000E+00  0.90340074413E+03  0.90340074414E+03  0.25500000920E-02 0. -1.
        2   -1    0    0  501    0  0.00000000000E+00  0.00000000000E+00 -0.20038271863E+04  0.20038271863E+04  0.25500000920E-02 0.  1.
    10030    2    1    2    0    0  0.00000000000E+00  0.00000000000E+00 -0.11004264422E+04  0.29072279305E+04  0.26909172943E+04 0.  0.
        5    1    3    3  502    0 -0.77014949962E+03  0.19307876646E+03  0.62329986857E+03  0.10094228440E+04  0.46999998093E+01 0. -1.
       -5    1    3    3    0  502  0.77014949962E+03 -0.19307876646E+03 -0.17237263108E+04  0.18978050865E+04  0.46999998093E+01 0.  1.
</event>
<event>
 5   0  0.1832502E-05  0.2757870E+04  0.7818609E-02  0.8316469E-01
       -2   -1    0    0    0  501  0.00000000000E+00  0.00000000000E+00  0.18476564273E+04  0.18476564273E+04  0.25500000920E-02 0. -1.
        2   -1    0    0  501    0  0.00000000000E+00  0.00000000000E+00 -0.10291210007E+04  0.10291210007E+04  0.25500000920E-02 0.  1.
    10030    2    1    2    0    0  0.00000000000E+00  0.00000000000E+00  0.81853542662E+03  0.28767774280E+04  0.27578702155E+04 0.  0.
        2    1    3    3  502    0 -0.73798575864E+03  0.10327747493E+04 -0.15267577300E+03  0.12784977725E+04  0.25500000920E-02 0.  1.
       -2    1    3    3    0  502  0.73798575864E+03 -0.10327747493E+04  0.97121119962E+03  0.15982796554E+04  0.25500000920E-02 0. -1.
</event>
<event>
 5   0  0.7388013E-06  0.2805901E+04  0.7818609E-02  0.8301439E-01
        1   -1    0    0  501    0  0.00000000000E+00  0.00000000000E+00  0.99637941735E+03  0.99637941736E+03  0.50400001928E-02 0. -1.
       -1   -1    0    0    0  501  0.00000000000E+00  0.00000000000E+00 -0.19754220887E+04  0.19754220887E+04  0.50400001928E-02 0.  1.
    10030    2    1    2    0    0  0.00000000000E+00  0.00000000000E+00 -0.97904267135E+03  0.29718015061E+04  0.28059008605E+04 0.  0.
        1    1    3    3  502    0 -0.22113184835E+03  0.10287089194E+04 -0.14723582878E+04  0.18096906539E+04  0.50400001928E-02 0.  1.
       -1    1    3    3    0  502  0.22113184835E+03 -0.10287089194E+04  0.49331561641E+03  0.11621108522E+04  0.50400001928E-02 0. -1.
</event>
<event>
 5   0  0.7555871E-06  0.2743014E+04  0.7818609E-02  0.8321182E-01
        1   -1    0    0  501    0  0.00000000000E+00  0.00000000000E+00  0.17294275346E+04  0.17294275346E+04  0.50400001928E-02 0.  1.
       -1   -1    0    0    0  501  0.00000000000E+00  0.00000000000E+00 -0.10876609723E+04  0.10876609723E+04  0.50400001928E-02 0. -1.
    10030    2    1    2    0    0  0.00000000000E+00  0.00000000000E+00  0.64176656234E+03  0.28170885069E+04  0.27430135499E+04 0.  0.
        3    1    3    3  502    0  0.12499915203E+04 -0.56369525567E+03  0.29184097522E+03  0.14019280677E+04  0.10100000352E+00 0.  1.
       -3    1    3    3    0  502 -0.12499915203E+04  0.56369525567E+03  0.34992558712E+03  0.14151604392E+04  0.10100000352E+00 0. -1.
</event>
<event>
 5   0  0.1923559E-05  0.2788707E+04  0.7818609E-02  0.8306783E-01
        2   -1    0    0  501    0  0.00000000000E+00  0.00000000000E+00  0.17609233198E+04  0.17609233198E+04  0.25500000920E-02 0.  1.
       -2   -1    0    0    0  501  0.00000000000E+00  0.00000000000E+00 -0.11040920430E+04  0.11040920430E+04  0.25500000920E-02 0. -1.
    10030    2    1    2    0    0  0.00000000000E+00  0.00000000000E+00  0.65683127684E+03  0.28650153628E+04  0.27887068155E+04 0.  0.
        4    1    3    3  502    0  0.63084496659E+03 -0.10304566113E+04  0.10434588150E+04  0.15964379446E+04  0.12699999809E+01 0.  1.
       -4    1    3    3    0  502 -0.63084496659E+03  0.10304566113E+04 -0.38662753818E+03  0.12685774181E+04  0.12699999809E+01 0. -1.
</event>
<event>
 5   0  0.1923559E-05  0.2081919E+04  0.7818609E-02  0.8569250E-01
       -2   -1    0    0    0  501  0.00000000000E+00  0.00000000000E+00  0.12238459245E+04  0.12238459245E+04  0.25500000920E-02 0. -1.
        2   -1    0    0  501    0  0.00000000000E+00  0.00000000000E+00 -0.88540319011E+03  0.88540319011E+03  0.25500000920E-02 0.  1.
    10030    2    1    2    0    0  0.00000000000E+00  0.00000000000E+00  0.33844273438E+03  0.21092491146E+04  0.20819193892E+04 0.  0.
        4    1    3    3  502    0 -0.31427376583E+03  0.16731799967E+03 -0.82179732849E+03  0.89560916416E+03  0.12699999809E+01 0.  1.
       -4    1    3    3    0  502  0.31427376583E+03 -0.16731799967E+03  0.11602400629E+04  0.12136399504E+04  0.12699999809E+01 0. -1.
</event>
<event>
 5   0  0.1904553E-05  0.2333459E+04  0.7818609E-02  0.8464844E-01
       -2   -1    0    0    0  501  0.00000000000E+00  0.00000000000E+00  0.88835636523E+03  0.88835636523E+03  0.25500000920E-02 0. -1.
        2   -1    0    0  501    0  0.00000000000E+00  0.00000000000E+00 -0.15323334005E+04  0.15323334005E+04  0.25500000920E-02 0.  1.
    10030    2    1    2    0    0  0.00000000000E+00  0.00000000000E+00 -0.64397703528E+03  0.24206897657E+04  0.23334593461E+04 0.  0.
        1    1    3    3  502    0  0.81005735834E+03  0.65840019553E+03  0.21862051837E+03  0.10665264518E+04  0.50400001928E-02 0. -1.
       -1    1    3    3    0  502 -0.81005735834E+03 -0.65840019553E+03 -0.86259755365E+03  0.13541633140E+04  0.50400001928E-02 0.  1.
</event>
<event>
 5   0  0.1814230E-05  0.2785748E+04  0.7818609E-02  0.8307707E-01
       -2   -1    0    0    0  501  0.00000000000E+00  0.00000000000E+00  0.21416052157E+04  0.21416052157E+04  0.25500000920E-02 0.  1.
        2   -1    0    0  501    0  0.00000000000E+00  0.00000000000E+00 -0.90590807321E+03  0.90590807321E+03  0.25500000920E-02 0. -1.
    10030    2    1    2    0    0  0.00000000000E+00  0.00000000000E+00  0.12356971425E+04  0.30475132889E+04  0.27857476228E+04 0.  0.
        5    1    3    3  502    0 -0.69241430293E+02 -0.25196263578E+03 -0.87884562955E+03  0.91688127698E+03  0.46999998093E+01 0. -1.
       -5    1    3    3    0  502  0.69241430293E+02  0.25196263578E+03  0.21145427720E+04  0.21306320119E+04  0.46999998093E+01 0.  1.
</event>
<event>
 5   0  0.7555871E-06  0.2663447E+04  0.7818609E-02  0.8346964E-01
       -1   -1    0    0    0  501  0.00000000000E+00  0.00000000000E+00  0.79601746813E+03  0.79601746815E+03  0.50400001928E-02 0.  1.
        1   -1    0    0  501    0  0.00000000000E+00  0.00000000000E+00 -0.22279501692E+04  0.22279501692E+04  0.50400001928E-02 0. -1.
    10030    2    1    2    0    0  0.00000000000E+00  0.00000000000E+00 -0.14319327011E+04  0.30239676374E+04  0.26634468291E+04 0.  0.
        3    1    3    3  502    0  0.19919545175E+03  0.56127093797E+03  0.63639001360E+03  0.87160550332E+03  0.10100000352E+00 0.  1.
       -3    1    3    3    0  502 -0.19919545175E+03 -0.56127093797E+03 -0.20683227147E+04  0.21523621341E+04  0.10100000352E+00 0. -1.
</event>
<event>
 5   0  0.7388013E-06  0.2827864E+04  0.7818609E-02  0.8294669E-01
       -1   -1    0    0    0  501  0.00000000000E+00  0.00000000000E+00  0.72405333837E+03  0.72405333839E+03  0.50400001928E-02 0. -1.
        1   -1    0    0  501    0  0.00000000000E+00  0.00000000000E+00 -0.27611283840E+04  0.27611283840E+04  0.50400001928E-02 0.  1.
    10030    2    1    2    0    0  0.00000000000E+00  0.00000000000E+00 -0.20370750457E+04  0.34851817224E+04  0.28278643703E+04 0.  0.
        1    1    3    3  502    0 -0.10480125118E+04  0.54733894235E+03 -0.62862322402E+02  0.11840024553E+04  0.50400001928E-02 0. -1.
       -1    1    3    3    0  502  0.10480125118E+04 -0.54733894235E+03 -0.19742127233E+04  0.23011792671E+04  0.50400001928E-02 0.  1.
</event>
<event>
 5   0  0.1832502E-05  0.2857795E+04  0.7818609E-02  0.8285547E-01
        2   -1    0    0  501    0  0.00000000000E+00  0.00000000000E+00  0.16416794731E+04  0.16416794731E+04  0.25500000920E-02 0. -1.
       -2   -1    0    0    0  501  0.00000000000E+00  0.00000000000E+00 -0.12436947241E+04  0.12436947241E+04  0.25500000920E-02 0.  1.
    10030    2    1    2    0    0  0.00000000000E+00  0.00000000000E+00  0.39798474903E+03  0.28853741971E+04  0.28577950236E+04 0.  0.
        2    1    3    3  502    0  0.65879122725E+03 -0.11335034308E+04  0.77272994293E+03  0.15218237327E+04  0.25500000920E-02 0. -1.
       -2    1    3    3    0  502 -0.65879122725E+03  0.11335034308E+04 -0.37474519391E+03  0.13635504644E+04  0.25500000920E-02 0.  1.
</event>
<event>
 5   0  0.7613444E-06  0.2765130E+04  0.7818609E-02  0.8314176E-01
       -1   -1    0    0    0  501  0.00000000000E+00  0.00000000000E+00  0.87599535117E+03  0.87599535119E+03  0.50400001928E-02 0.  1.
        1   -1    0    0  501    0  0.00000000000E+00  0.00000000000E+00 -0.21820738677E+04  0.21820738677E+04  0.50400001928E-02 0. -1.
    10030    2    1    2    0    0  0.00000000000E+00  0.00000000000E+00 -0.13060785166E+04  0.30580692189E+04  0.27651304230E+04 0.  0.
        5    1    3    3  502    0 -0.67940288141E+03 -0.68073861560E+03 -0.17514730429E+04  0.19981674725E+04  0.46999998093E+01 0. -1.
       -5    1    3    3    0  502  0.67940288141E+03  0.68073861560E+03  0.44539452635E+03  0.10599017465E+04  0.46999998093E+01 0.  1.
</event>
<event>
 5   0  0.7555871E-06  0.1790663E+04  0.7818609E-02  0.8711281E-01
       -1   -1    0    0    0  501  0.00000000000E+00  0.00000000000E+00  0.32353344571E+03  0.32353344575E+03  0.50400001928E-02 0. -1.
        1   -1    0    0  501    0  0.00000000000E+00  0.00000000000E+00 -0.24776989908E+04  0.24776989908E+04  0.50400001928E-02 0.  1.
    10030    2    1    2    0    0  0.00000000000E+00  0.00000000000E+00 -0.21541655451E+04  0.28012324366E+04  0.17906629968E+04 0.  0.
        3    1    3    3  502    0  0.70283485953E+03  0.41927395747E+03 -0.16451202445E+04  0.18374406440E+04  0.10100000352E+00 0.  1.
       -3    1    3    3    0  502 -0.70283485953E+03 -0.41927395747E+03 -0.50904530063E+03  0.96379179260E+03  0.10100000352E+00 0. -1.
</event>
<event>
 5   0  0.7681342E-06  0.2800479E+04  0.7818609E-02  0.8303120E-01
       -1   -1    0    0    0  501  0.00000000000E+00  0.00000000000E+00  0.12426530466E+04  0.12426530466E+04  0.50400001928E-02 0. -1.
        1   -1    0    0  501    0  0.00000000000E+00  0.00000000000E+00 -0.15778100626E+04  0.15778100627E+04  0.50400001928E-02 0.  1.
    10030    2    1    2    0    0  0.00000000000E+00  0.00000000000E+00 -0.33515701605E+03  0.28204631093E+04  0.28004788743E+04 0.  0.
        2    1    3    3  502    0  0.54470774794E+03 -0.11585488500E+04  0.40368028570E+03  0.13423485917E+04  0.25500000920E-02 0. -1.
       -2    1    3    3    0  502 -0.54470774794E+03  0.11585488500E+04 -0.73883730175E+03  0.14781145176E+04  0.25500000920E-02 0.  1.
</event>
<event>
 5   0  0.1832502E-05  0.2847152E+04  0.7818609E-02  0.8288777E-01
        2   -1    0    0  501    0  0.00000000000E+00  0.00000000000E+00  0.18403253283E+04  0.18403253283E+04  0.25500000920E-02 0.  1.
       -2   -1    0    0    0  501  0.00000000000E+00  0.00000000000E+00 -0.11012012377E+04  0.11012012377E+04  0.25500000920E-02 0. -1.
    10030    2    1    2    0    0  0.00000000000E+00  0.00000000000E+00  0.73912409056E+03  0.29415265660E+04  0.28471519309E+04 0.  0.
        2    1    3    3  502    0  0.81872127880E+03 -0.10882455620E+04  0.79801995765E+03  0.15784228801E+04  0.25500000920E-02 0.  1.
       -2    1    3    3    0  502 -0.81872127880E+03  0.10882455620E+04 -0.58895867087E+02  0.13631036860E+04  0.25500000920E-02 0. -1.
</event>
<event>
 5   0  0.1874272E-05  0.2781228E+04  0.7818609E-02  0.8309120E-01
        2   -1    0    0  501    0  0.00000000000E+00  0.00000000000E+00  0.11400044147E+04  0.11400044148E+04  0.25500000920E-02 0.  1.
       -2   -1    0    0    0  501  0.00000000000E+00  0.00000000000E+00 -0.16963160338E+04  0.16963160338E+04  0.25500000920E-02 0. -1.
    10030    2    1    2    0    0  0.00000000000E+00  0.00000000000E+00 -0.55631161907E+03  0.28363204486E+04  0.27812283382E+04 0.  0.
        3    1    3    3  502    0 -0.11541128528E+04  0.77561643690E+03 -0.26201758786E+03  0.14149948978E+04  0.10100000352E+00 0.  1.
       -3    1    3    3    0  502  0.11541128528E+04 -0.77561643690E+03 -0.29429403121E+03  0.14213255508E+04  0.10100000352E+00 0. -1.
</event>
<event>
 5   0  0.7613444E-06  0.2864118E+04  0.7818609E-02  0.8283634E-01
        1   -1    0    0  501    0  0.00000000000E+00  0.00000000000E+00  0.24897144579E+04  0.24897144579E+04  0.50400001928E-02 0.  1.
       -1   -1    0    0    0  501  0.00000000000E+00  0.00000000000E+00 -0.82370628932E+03  0.82370628934E+03  0.50400001928E-02 0. -1.
    10030    2    1    2    0    0  0.00000000000E+00  0.00000000000E+00  0.16660081685E+04  0.33134207472E+04  0.28641183339E+04 0.  0.
        5    1    3    3  502    0 -0.86176014920E+03  0.74315599649E+03  0.18387917493E+04  0.21624265484E+04  0.46999998093E+01 0.  1.
       -5    1    3    3    0  502  0.86176014920E+03 -0.74315599649E+03 -0.17278358079E+03  0.11509941988E+04  0.46999998093E+01 0. -1.
</event>
<event>
 5   0  0.7388013E-06  0.2710829E+04  0.7818609E-02  0.8331500E-01
        1   -1    0    0  501    0  0.00000000000E+00  0.00000000000E+00  0.94168553297E+03  0.94168553299E+03  0.50400001928E-02 0. -1.
       -1   -1    0    0    0  501  0.00000000000E+00  0.00000000000E+00 -0.19509143318E+04  0.19509143318E+04  0.50400001928E-02 0.  1.
    10030    2    1    2    0    0  0.00000000000E+00  0.00000000000E+00 -0.10092287988E+04  0.28925998648E+04  0.27108285098E+04 0.  0.
        1    1    3    3  502    0 -0.36548164575E+03  0.12482669760E+04 -0.97731624027E+02  0.13043384328E+04  0.50400001928E-02 0. -1.
       -1    1    3    3    0  502  0.36548164575E+03 -0.12482669760E+04 -0.91149717480E+03  0.15882614320E+04  0.50400001928E-02 0.  1.
</event>
<event>
 5   0  0.7613444E-06  0.1739170E+04  0.7818609E-02  0.8739334E-01
       -1   -1    0    0    0  501  0.00000000000E+00  0.00000000000E+00  0.62036087099E+03  0.62036087101E+03  0.50400001928E-02 0. -1.
        1   -1    0    0  501    0  0.00000000000E+00  0.00000000000E+00 -0.12189326472E+04  0.12189326472E+04  0.50400001928E-02 0.  1.
    10030    2    1    2    0    0  0.00000000000E+00  0.00000000000E+00 -0.59857177619E+03  0.18392935182E+04  0.17391700535E+04 0.  0.
        5    1    3    3  502    0  0.75374421621E+03  0.42640406390E+03 -0.38259432127E+03  0.94675829748E+03  0.46999998093E+01 0. -1.
       -5    1    3    3    0  502 -0.75374421621E+03 -0.42640406390E+03 -0.21597745492E+03  0.89253522071E+03  0.46999998093E+01 0.  1.
</event>
<event>
 5   0  0.1814230E-05  0.2720507E+04  0.7818609E-02  0.8328382E-01
        2   -1    0    0  501    0  0.00000000000E+00  0.00000000000E+00  0.73470682971E+03  0.73470682972E+03  0.25500000920E-02 0. -1.
       -2   -1    0    0    0  501  0.00000000000E+00  0.00000000000E+00 -0.25184047584E+04  0.25184047584E+04  0.25500000920E-02 0.  1.
    10030    2    1    2    0    0  0.00000000000E+00  0.00000000000E+00 -0.17836979287E+04  0.32531115881E+04  0.27205066998E+04 0.  0.
        5    1    3    3  502    0  0.88942460493E+02 -0.13573313180E+04 -0.88846302369E+03  0.16246992653E+04  0.46999998093E+01 0. -1.
       -5    1    3    3    0  502 -0.88942460493E+02  0.13573313180E+04 -0.89523490499E+03  0.16284123228E+04  0.46999998093E+01 0.  1.
</event>
<event>
 5   0  0.1832502E-05  0.2810102E+04  0.7818609E-02  0.8300139E-01
       -2   -1    0    0    0  501  0.00000000000E+00  0.00000000000E+00  0.62629070445E+03  0.62629070445E+03  0.25500000920E-02 0. -1.
        2   -1    0    0  501    0  0.00000000000E+00  0.00000000000E+00 -0.31521595924E+04  0.31521595924E+04  0.25500000920E-02 0.  1.
    10030    2    1    2    0    0  0.00000000000E+00  0.00000000000E+00 -0.25258688880E+04  0.37784502969E+04  0.28101019566E+04 0.  0.
        2    1    3    3  502    0  0.20320271883E+03  0.98071400661E+03 -0.25879423141E+04  0.27749840952E+04  0.25500000920E-02 0.  1.
       -2    1    3    3    0  502 -0.20320271883E+03 -0.98071400661E+03  0.62073426074E+02  0.10034662017E+04  0.25500000920E-02 0. -1.
</event>
<event>
 5   0  0.1832502E-05  0.1792512E+04  0.7818609E-02  0.8710292E-01
        2   -1    0    0  501    0  0.00000000000E+00  0.00000000000E+00  0.12525262583E+04  0.12525262583E+04  0.25500000920E-02 0. -1.
       -2   -1    0    0    0  501  0.00000000000E+00  0.00000000000E+00 -0.64132340475E+03  0.64132340475E+03  0.25500000920E-02 0.  1.
    10030    2    1    2    0    0  0.00000000000E+00  0.00000000000E+00  0.61120285358E+03  0.18938496631E+04  0.17925115392E+04 0.  0.
        2    1    3    3  502    0 -0.81776976733E+03  0.88937243229E+02  0.68155122623E+03  0.10682552596E+04  0.25500000920E-02 0.  1.
       -2    1    3    3    0  502  0.81776976733E+03 -0.88937243229E+02 -0.70348372649E+02  0.82559440353E+03  0.25500000920E-02 0. -1.
</event>
<event>
 5   0  0.1814230E-05  0.2431202E+04  0.7818609E-02  0.8427914E-01
        2   -1    0    0  501    0  0.00000000000E+00  0.00000000000E+00  0.10144815684E+04  0.10144815684E+04  0.25500000920E-02 0. -1.
       -2   -1    0    0    0  501  0.00000000000E+00  0.00000000000E+00 -0.14565918560E+04  0.14565918560E+04  0.25500000920E-02 0.  1.
    10030    2    1    2    0    0  0.00000000000E+00  0.00000000000E+00 -0.44211028766E+03  0.24710734244E+04  0.24312018350E+04 0.  0.
        5    1    3    3  502    0 -0.95448309722E+03  0.74636851680E+03 -0.12167869570E+03  0.12177568480E+04  0.46999998093E+01 0.  1.
       -5    1    3    3    0  502  0.95448309722E+03 -0.74636851680E+03 -0.32043159195E+03  0.12533165765E+04  0.46999998093E+01 0. -1.
</event>
<event>
 5   0  0.1904553E-05  0.2736555E+04  0.7818609E-02  0.8323241E-01
       -2   -1    0    0    0  501  0.00000000000E+00  0.00000000000E+00  0.95791119364E+03  0.95791119364E+03  0.25500000920E-02 0. -1.
        2   -1    0    0  501    0  0.00000000000E+00  0.00000000000E+00 -0.19544440884E+04  0.19544440884E+04  0.25500000920E-02 0.  1.
    10030    2    1    2    0    0  0.00000000000E+00  0.00000000000E+00 -0.99653289472E+03  0.29123552820E+04  0.27365554038E+04 0.  0.
        1    1    3    3  502    0  0.92400472184E+03 -0.62751482000E+03 -0.13393701498E+04  0.17439816437E+04  0.50400001928E-02 0.  1.
       -1    1    3    3    0  502 -0.92400472184E+03  0.62751482000E+03  0.34283725505E+03  0.11683736383E+04  0.50400001928E-02 0. -1.
</event>
<event>
 5   0  0.1832502E-05  0.2749022E+04  0.7818609E-02  0.8319272E-01
       -2   -1    0    0    0  501  0.00000000000E+00  0.00000000000E+00  0.83120909480E+03  0.83120909480E+03  0.25500000920E-02 0. -1.
        2   -1    0    0  501    0  0.00000000000E+00  0.00000000000E+00 -0.22729298924E+04  0.22729298924E+04  0.25500000920E-02 0.  1.
    10030    2    1    2    0    0  0.00000000000E+00  0.00000000000E+00 -0.14417207976E+04  0.31041389872E+04  0.27490216430E+04 0.  0.
        2    1    3    3  502    0  0.40452418971E+02 -0.64740323880E+03 -0.20892250447E+04  0.21876079720E+04  0.25500000920E-02 0.  1.
       -2    1    3    3    0  502 -0.40452418971E+02  0.64740323880E+03  0.64750424709E+03  0.91653101520E+03  0.25500000920E-02 0. -1.
</event>
<event>
 5   0  0.1904553E-05  0.2812541E+04  0.7818609E-02  0.8299385E-01
       -2   -1    0    0    0  501  0.00000000000E+00  0.00000000000E+00  0.13360734182E+04  0.13360734182E+04  0.25500000920E-02 0. -1.
        2   -1    0    0  501    0  0.00000000000E+00  0.00000000000E+00 -0.14801561165E+04  0.14801561165E+04  0.25500000920E-02 0.  1.
    10030    2    1    2    0    0  0.00000000000E+00  0.00000000000E+00 -0.14408269832E+03  0.28162295347E+04  0.28125413719E+04 0.  0.
        1    1    3    3  502    0 -0.35681423068E+03  0.10556745232E+04  0.78689010740E+03  0.13641704935E+04  0.50400001928E-02 0. -1.
       -1    1    3    3    0  502  0.35681423068E+03 -0.10556745232E+04 -0.93097280571E+03  0.14520590412E+04  0.50400001928E-02 0.  1.
</event>
<event>
 5   0  0.7509685E-06  0.1951042E+04  0.7818609E-02  0.8629858E-01
       -1   -1    0    0    0  501  0.00000000000E+00  0.00000000000E+00  0.84582361392E+03  0.84582361394E+03  0.50400001928E-02 0. -1.
        1   -1    0    0  501    0  0.00000000000E+00  0.00000000000E+00 -0.11251065138E+04  0.11251065138E+04  0.50400001928E-02 0.  1.
    10030    2    1    2    0    0  0.00000000000E+00  0.00000000000E+00 -0.27928289988E+03  0.19709301278E+04  0.19510424471E+04 0.  0.
        4    1    3    3  502    0 -0.30362249248E+03  0.88158211775E+03 -0.42938631439E+03  0.10265222200E+04  0.12699999809E+01 0.  1.
       -4    1    3    3    0  502  0.30362249248E+03 -0.88158211775E+03  0.15010341451E+03  0.94440790775E+03  0.12699999809E+01 0. -1.
</event>
<event>
 5   0  0.7388013E-06  0.2326317E+04  0.7818609E-02  0.8467617E-01
       -1   -1    0    0    0  501  0.00000000000E+00  0.00000000000E+00  0.79756166096E+03  0.79756166098E+03  0.50400001928E-02 0. -1.
        1   -1    0    0  501    0  0.00000000000E+00  0.00000000000E+00 -0.16963418146E+04  0.16963418147E+04  0.50400001928E-02 0.  1.
    10030    2    1    2    0    0  0.00000000000E+00  0.00000000000E+00 -0.89878015369E+03  0.24939034756E+04  0.23263165694E+04 0.  0.
        1    1    3    3  502    0  0.27137341210E+03  0.55315891649E+03  0.60824578736E+03  0.86578938175E+03  0.50400001928E-02 0. -1.
       -1    1    3    3    0  502 -0.27137341210E+03 -0.55315891649E+03 -0.15070259410E+04  0.16281140939E+04  0.50400001928E-02 0.  1.
</event>
<event>
 5   0  0.7509685E-06  0.2437987E+04  0.7818609E-02  0.8425417E-01
       -1   -1    0    0    0  501  0.00000000000E+00  0.00000000000E+00  0.13921066466E+04  0.13921066467E+04  0.50400001928E-02 0.  1.
        1   -1    0    0  501    0  0.00000000000E+00  0.00000000000E+00 -0.10674075882E+04  0.10674075882E+04  0.50400001928E-02 0. -1.
    10030    2    1    2    0    0  0.00000000000E+00  0.00000000000E+00  0.32469905844E+03  0.24595142349E+04  0.24379870371E+04 0.  0.
        4    1    3    3  502    0 -0.79729309823E+02  0.12134362202E+04  0.76989391562E+02  0.12184880807E+04  0.12699999809E+01 0. -1.
       -4    1    3    3    0  502  0.79729309823E+02 -0.12134362202E+04  0.24770966687E+03  0.12410261542E+04  0.12699999809E+01 0.  1.
</event>
<event>
 5   0  0.1923559E-05  0.2815570E+04  0.7818609E-02  0.8298451E-01
        2   -1    0    0  501    0  0.00000000000E+00  0.00000000000E+00  0.22925682852E+04  0.22925682852E+04  0.25500000920E-02 0.  1.
       -2   -1    0    0    0  501  0.00000000000E+00  0.00000000000E+00 -0.86447080743E+03  0.86447080743E+03  0.25500000920E-02 0. -1.
    10030    2    1    2    0    0  0.00000000000E+00  0.00000000000E+00  0.14280974778E+04  0.31570390926E+04  0.28155698227E+04 0.  0.
        4    1    3    3  502    0 -0.71263577677E+03  0.10344385089E+04  0.14266953427E+04  0.19008876854E+04  0.12699999809E+01 0.  1.
       -4    1    3    3    0  502  0.71263577677E+03 -0.10344385089E+04  0.14021351192E+01  0.12561514072E+04  0.12699999809E+01 0. -1.
</event>
<event>
 5   0  0.7613444E-06  0.2838015E+04  0.7818609E-02  0.8291562E-01
        1   -1    0    0  501    0  0.00000000000E+00  0.00000000000E+00  0.20760663876E+04  0.20760663876E+04  0.50400001928E-02 0. -1.
       -1   -1    0    0    0  501  0.00000000000E+00  0.00000000000E+00 -0.96990279827E+03  0.96990279828E+03  0.50400001928E-02 0.  1.
    10030    2    1    2    0    0  0.00000000000E+00  0.00000000000E+00  0.11061635893E+04  0.30459691859E+04  0.28380152211E+04 0.  0.
        5    1    3    3  502    0 -0.44658449258E+03 -0.13416151317E+04  0.42522404712E+03  0.14765522175E+04  0.46999998093E+01 0.  1.
       -5    1    3    3    0  502  0.44658449258E+03  0.13416151317E+04  0.68093954222E+03  0.15694169684E+04  0.46999998093E+01 0. -1.
</event>
<event>
 5   0  0.7681342E-06  0.2731441E+04  0.7818609E-02  0.8324875E-01
       -1   -1    0    0    0  501  0.00000000000E+00  0.00000000000E+00  0.10276766000E+04  0.10276766000E+04  0.50400001928E-02 0.  1.
        1   -1    0    0  501    0  0.00000000000E+00  0.00000000000E+00 -0.18149604951E+04  0.18149604951E+04  0.50400001928E-02 0. -1.
    10030    2    1    2    0    0  0.00000000000E+00  0.00000000000E+00 -0.78728389506E+03  0.28426370951E+04  0.27314409610E+04 0.  0.
        2    1    3    3  502    0 -0.56099266277E+03  0.85524341146E+03 -0.13354919110E+04  0.16821690476E+04  0.25500000920E-02 0. -1.
       -2    1    3    3    0  502  0.56099266277E+03 -0.85524341146E+03  0.54820801591E+03  0.11604680475E+04  0.25500000920E-02 0.  1.
</event>
<event>
 5   0  0.7509685E-06  0.2753864E+04  0.7818609E-02  0.8317737E-01
       -1   -1    0    0    0  501  0.00000000000E+00  0.00000000000E+00  0.10584521612E+04  0.10584521613E+04  0.50400001928E-02 0.  1.
        1   -1    0    0  501    0  0.00000000000E+00  0.00000000000E+00 -0.17912399371E+04  0.17912399371E+04  0.50400001928E-02 0. -1.
    10030    2    1    2    0    0  0.00000000000E+00  0.00000000000E+00 -0.73278777590E+03  0.28496920984E+04  0.27538640364E+04 0.  0.
        4    1    3    3  502    0  0.86936365577E+03  0.48052072221E+03 -0.13531193696E+04  0.16785788548E+04  0.12699999809E+01 0. -1.
       -4    1    3    3    0  502 -0.86936365577E+03 -0.48052072221E+03  0.62033159366E+03  0.11711132436E+04  0.12699999809E+01 0.  1.
</event>
<event>
 5   0  0.7509685E-06  0.2839500E+04  0.7818609E-02  0.8291109E-01
        1   -1    0    0  501    0  0.00000000000E+00  0.00000000000E+00  0.11479549735E+04  0.11479549735E+04  0.50400001928E-02 0.  1.
       -1   -1    0    0    0  501  0.00000000000E+00  0.00000000000E+00 -0.17558964035E+04  0.17558964035E+04  0.50400001928E-02 0. -1.
    10030    2    1    2    0    0  0.00000000000E+00  0.00000000000E+00 -0.60794142997E+03  0.29038513770E+04  0.28394999625E+04 0.  0.
        4    1    3    3  502    0 -0.13091970403E+04  0.54676726219E+03 -0.35747335909E+03  0.14631268382E+04  0.12699999809E+01 0. -1.
       -4    1    3    3    0  502  0.13091970403E+04 -0.54676726219E+03 -0.25046807088E+03  0.14407245388E+04  0.12699999809E+01 0.  1.
</event>
<event>
 5   0  0.1874272E-05  0.2899243E+04  0.7818609E-02  0.8273103E-01
       -2   -1    0    0    0  501  0.00000000000E+00  0.00000000000E+00  0.97091283150E+03  0.97091283150E+03  0.25500000920E-02 0. -1.
        2   -1    0    0  501    0  0.00000000000E+00  0.00000000000E+00 -0.21643582295E+04  0.21643582295E+04  0.25500000920E-02 0.  1.
    10030    2    1    2    0    0  0.00000000000E+00  0.00000000000E+00 -0.11934453980E+04  0.31352710610E+04  0.28992434717E+04 0.  0.
        3    1    3    3  502    0  0.12587178239E+04 -0.71518408989E+03 -0.51620066860E+03  0.15369847049E+04  0.10100000352E+00 0. -1.
       -3    1    3    3    0  502 -0.12587178239E+04  0.71518408989E+03 -0.67724472941E+03  0.15982863561E+04  0.10100000352E+00 0.  1.
</event>
<event>
 5   0  0.7681342E-06  0.2662927E+04  0.7818609E-02  0.8347135E-01
       -1   -1    0    0    0  501  0.00000000000E+00  0.00000000000E+00  0.14342340308E+04  0.14342340308E+04  0.50400001928E-02 0.  1.
        1   -1    0    0  501    0  0.00000000000E+00  0.00000000000E+00 -0.12360570380E+04  0.12360570380E+04  0.50400001928E-02 0. -1.
    10030    2    1    2    0    0  0.00000000000E+00  0.00000000000E+00  0.19817699278E+03  0.26702910688E+04  0.26629270121E+04 0.  0.
        2    1    3    3  502    0 -0.38894156434E+03  0.73690352332E+03 -0.94228842802E+03  0.12578592229E+04  0.25500000920E-02 0. -1.
       -2    1    3    3    0  502  0.38894156434E+03 -0.73690352332E+03  0.11404654208E+04  0.14124318459E+04  0.25500000920E-02 0.  1.
</event>
<event>
 5   0  0.1874272E-05  0.2815221E+04  0.7818609E-02  0.8298559E-01
       -2   -1    0    0    0  501  0.00000000000E+00  0.00000000000E+00  0.14789976945E+04  0.14789976945E+04  0.25500000920E-02 0.  1.
        2   -1    0    0  501    0  0.00000000000E+00  0.00000000000E+00 -0.13396685257E+04  0.13396685257E+04  0.25500000920E-02 0. -1.
    10030    2    1    2    0    0  0.00000000000E+00  0.00000000000E+00  0.13932916879E+03  0.28186662203E+04  0.28152205320E+04 0.  0.
        3    1    3    3  502    0  0.41612323199E+03 -0.75892537708E+03  0.11810864777E+04  0.14642716791E+04  0.10100000352E+00 0.  1.
       -3    1    3    3    0  502 -0.41612323199E+03  0.75892537708E+03 -0.10417573089E+04  0.13543945412E+04  0.10100000352E+00 0. -1.
</event>
<event>
 5   0  0.6288000E-06  0.2819534E+04  0.7818609E-02  0.8297229E-01
       -3   -1    0    0    0  501  0.00000000000E+00  0.00000000000E+00  0.16199186337E+04  0.16199186369E+04  0.10100000352E+00 0. -1.
        3   -1    0    0  501    0  0.00000000000E+00  0.00000000000E+00 -0.12268785103E+04  0.12268785144E+04  0.10100000352E+00 0.  1.
    10030    2    1    2    0    0  0.00000000000E+00  0.00000000000E+00  0.39304012344E+03  0.28467971513E+04  0.28195342669E+04 0.  0.
        2    1    3    3  502    0 -0.96058912615E+03 -0.45795678772E+03  0.11301161503E+04  0.15522945603E+04  0.25500000920E-02 0.  1.
       -2    1    3    3    0  502  0.96058912615E+03  0.45795678772E+03 -0.73707602689E+03  0.12945025910E+04  0.25500000920E-02 0. -1.
</event>
<event>
 5   0  0.1874272E-05  0.2743751E+04  0.7818609E-02  0.8320947E-01
       -2   -1    0    0    0  501  0.00000000000E+00  0.00000000000E+00  0.29381227838E+04  0.29381227838E+04  0.25500000920E-02 0. -1.
        2   -1    0    0  501    0  0.00000000000E+00  0.00000000000E+00 -0.64055948799E+03  0.64055948799E+03  0.25500000920E-02 0.  1.
    10030    2    1    2    0    0  0.00000000000E+00  0.00000000000E+00  0.22975632958E+04  0.35786822718E+04  0.27437510281E+04 0.  0.
        3    1    3    3  502    0  0.10684481161E+04 -0.85467931805E+03  0.12791095190E+04  0.18730134237E+04  0.10100000352E+00 0. -1.
       -3    1    3    3    0  502 -0.10684481161E+04  0.85467931805E+03  0.10184537768E+04  0.17056688481E+04  0.10100000352E+00 0.  1.
</event>
<event>
 5   0  0.7555871E-06  0.2788990E+04  0.7818609E-02  0.8306695E-01
       -1   -1    0    0    0  501  0.00000000000E+00  0.00000000000E+00  0.11370160048E+04  0.11370160048E+04  0.50400001928E-02 0. -1.
        1   -1    0    0  501    0  0.00000000000E+00  0.00000000000E+00 -0.17102805740E+04  0.17102805740E+04  0.50400001928E-02 0.  1.
    10030    2    1    2    0    0  0.00000000000E+00  0.00000000000E+00 -0.57326456917E+03  0.28472965789E+04  0.27889900577E+04 0.  0.
        3    1    3    3  502    0  0.92562681667E+03  0.10101427626E+04 -0.21505206435E+02  0.13702685462E+04  0.10100000352E+00 0.  1.
       -3    1    3    3    0  502 -0.92562681667E+03 -0.10101427626E+04 -0.55175936274E+03  0.14770280326E+04  0.10100000352E+00 0. -1.
</event>
<event>
 5   0  0.7613444E-06  0.2810885E+04  0.7818609E-02  0.8299897E-01
       -1   -1    0    0    0  501  0.00000000000E+00  0.00000000000E+00  0.20984624542E+04  0.20984624542E+04  0.50400001928E-02 0. -1.
        1   -1    0    0  501    0  0.00000000000E+00  0.00000000000E+00 -0.94129339013E+03  0.94129339014E+03  0.50400001928E-02 0.  1.
    10030    2    1    2    0    0  0.00000000000E+00  0.00000000000E+00  0.11571690640E+04  0.30397558443E+04  0.28108851542E+04 0.  0.
        5    1    3    3  502    0  0.78694508436E+03  0.31768367499E+03  0.17900878362E+04  0.19810709312E+04  0.46999998093E+01 0. -1.
       -5    1    3    3    0  502 -0.78694508436E+03 -0.31768367499E+03 -0.63291877214E+03  0.10586849131E+04  0.46999998093E+01 0.  1.
</event>
<event>
 5   0  0.1814230E-05  0.2765449E+04  0.7818609E-02  0.8314076E-01
       -2   -1    0    0    0  501  0.00000000000E+00  0.00000000000E+00  0.11555948530E+04  0.11555948531E+04  0.25500000920E-02 0. -1.
        2   -1    0    0  501    0  0.00000000000E+00  0.00000000000E+00 -0.16544960137E+04  0.16544960137E+04  0.25500000920E-02 0.  1.
    10030    2    1    2    0    0  0.00000000000E+00  0.00000000000E+00 -0.49890116062E+03  0.28100908667E+04  0.27654490252E+04 0.  0.
        5    1    3    3  502    0  0.76532863011E+03  0.30734753132E+03  0.87829139449E+03  0.12048270750E+04  0.46999998093E+01 0. -1.
       -5    1    3    3    0  502 -0.76532863011E+03 -0.30734753132E+03 -0.13771925551E+04  0.16052637917E+04  0.46999998093E+01 0.  1.
</event>
<event>
 5   0  0.7555871E-06  0.2814569E+04  0.7818609E-02  0.8298759E-01
        1   -1    0    0  501    0  0.00000000000E+00  0.00000000000E+00  0.23612549907E+04  0.23612549907E+04  0.50400001928E-02 0. -1.
       -1   -1    0    0    0  501  0.00000000000E+00  0.00000000000E+00 -0.83872772126E+03  0.83872772128E+03  0.50400001928E-02 0.  1.
    10030    2    1    2    0    0  0.00000000000E+00  0.00000000000E+00  0.15225272694E+04  0.31999827119E+04  0.28145692514E+04 0.  0.
        3    1    3    3  502    0  0.21976991852E+03 -0.81049304057E+03 -0.52264387071E+03  0.98911799685E+03  0.10100000352E+00 0.  1.
       -3    1    3    3    0  502 -0.21976991852E+03  0.81049304057E+03  0.20451711401E+04  0.22108647151E+04  0.10100000352E+00 0. -1.
</event>
<event>
 5   0  0.7681342E-06  0.2834297E+04  0.7818609E-02  0.8292699E-01
        1   -1    0    0  501    0  0.00000000000E+00  0.00000000000E+00  0.27004518617E+04  0.27004518617E+04  0.50400001928E-02 0.  1.
       -1   -1    0    0    0  501  0.00000000000E+00  0.00000000000E+00 -0.74369424066E+03  0.74369424067E+03  0.50400001928E-02 0. -1.
    10030    2    1    2    0    0  0.00000000000E+00  0.00000000000E+00  0.19567576211E+04  0.34441461024E+04  0.28342974415E+04 0.  0.
        2    1    3    3  502    0  0.23715160691E+03 -0.97083544742E+03  0.21993338148E+04  0.24157465884E+04  0.25500000920E-02 0.  1.
       -2    1    3    3    0  502 -0.23715160691E+03  0.97083544742E+03 -0.24257619370E+03  0.10283995140E+04  0.25500000920E-02 0. -1.
</event>
<event>
 5   0  0.1832502E-05  0.2637569E+04  0.7818609E-02  0.8355551E-01
       -2   -1    0    0    0  501  0.00000000000E+00  0.00000000000E+00  0.14623246545E+04  0.14623246545E+04  0.25500000920E-02 0.  1.
        2   -1    0    0  501    0  0.00000000000E+00  0.00000000000E+00 -0.11893337187E+04  0.11893337187E+04  0.25500000920E-02 0. -1.
    10030    2    1    2    0    0  0.00000000000E+00  0.00000000000E+00  0.27299093581E+03  0.26516583731E+04  0.26375685919E+04 0.  0.
        2    1    3    3  502    0  0.28871338655E+03  0.11364779521E+04  0.74325449978E+03  0.13882956482E+04  0.25500000920E-02 0.  1.
       -2    1    3    3    0  502 -0.28871338655E+03 -0.11364779521E+04 -0.47026356397E+03  0.12633627250E+04  0.25500000920E-02 0. -1.
</event>
<event>
 5   0  0.1832502E-05  0.2671067E+04  0.7818609E-02  0.8344454E-01
        2   -1    0    0  501    0  0.00000000000E+00  0.00000000000E+00  0.10329318397E+04  0.10329318397E+04  0.25500000920E-02 0.  1.
       -2   -1    0    0    0  501  0.00000000000E+00  0.00000000000E+00 -0.17267841971E+04  0.17267841971E+04  0.25500000920E-02 0. -1.
    10030    2    1    2    0    0  0.00000000000E+00  0.00000000000E+00 -0.69385235746E+03  0.27597160368E+04  0.26710674851E+04 0.  0.
        2    1    3    3  502    0 -0.12076450203E+04 -0.57029312649E+03 -0.34371959731E+03  0.13790518144E+04  0.25500000920E-02 0.  1.
       -2    1    3    3    0  502  0.12076450203E+04  0.57029312649E+03 -0.35013276015E+03  0.13806642224E+04  0.25500000920E-02 0. -1.
</event>
<event>
 5   0  0.1923559E-05  0.1765105E+04  0.7818609E-02  0.8725080E-01
        2   -1    0    0  501    0  0.00000000000E+00  0.00000000000E+00  0.27820243327E+04  0.27820243327E+04  0.25500000920E-02 0.  1.
       -2   -1    0    0    0  501  0.00000000000E+00  0.00000000000E+00 -0.27997554814E+03  0.27997554816E+03  0.25500000920E-02 0. -1.
    10030    2    1    2    0    0  0.00000000000E+00  0.00000000000E+00  0.25020487846E+04  0.30619998809E+04  0.17651048553E+04 0.  0.
        4    1    3    3  502    0  0.12627250244E+03 -0.82267884816E+03  0.74184924574E+03  0.11149381814E+04  0.12699999809E+01 0.  1.
       -4    1    3    3    0  502 -0.12627250244E+03  0.82267884816E+03  0.17601995389E+04  0.19470616995E+04  0.12699999809E+01 0. -1.
</event>
<event>
 5   0  0.1904553E-05  0.2265864E+04  0.7818609E-02  0.8491503E-01
        2   -1    0    0  501    0  0.00000000000E+00  0.00000000000E+00  0.92105710144E+03  0.92105710144E+03  0.25500000920E-02 0. -1.
       -2   -1    0    0    0  501  0.00000000000E+00  0.00000000000E+00 -0.13935455767E+04  0.13935455767E+04  0.25500000920E-02 0.  1.
    10030    2    1    2    0    0  0.00000000000E+00  0.00000000000E+00 -0.47248847530E+03  0.23146026782E+04  0.22658641174E+04 0.  0.
        1    1    3    3  502    0 -0.55916223925E+03  0.92278092389E+03 -0.58914303125E+03  0.12293398857E+04  0.50400001928E-02 0.  1.
       -1    1    3    3    0  502  0.55916223925E+03 -0.92278092389E+03  0.11665455595E+03  0.10852627925E+04  0.50400001928E-02 0. -1.
</event>
<event>
 5   0  0.6288000E-06  0.2813791E+04  0.7818609E-02  0.8299000E-01
       -4   -1    0    0    0  501  0.00000000000E+00  0.00000000000E+00  0.14772932616E+04  0.14772938074E+04  0.12699999809E+01 0.  1.
        4   -1    0    0  501    0  0.00000000000E+00  0.00000000000E+00 -0.13398508927E+04  0.13398514946E+04  0.12699999809E+01 0. -1.
    10030    2    1    2    0    0  0.00000000000E+00  0.00000000000E+00  0.13744236882E+03  0.28171453021E+04  0.28137905480E+04 0.  0.
        1    1    3    3  502    0  0.10253118899E+04  0.27983757588E+03  0.99165579164E+03  0.14536006155E+04  0.50400001928E-02 0.  1.
       -1    1    3    3    0  502 -0.10253118899E+04 -0.27983757588E+03 -0.85421342282E+03  0.13635446865E+04  0.50400001928E-02 0. -1.
</event>
<event>
 5   0  0.1832502E-05  0.2768124E+04  0.7818609E-02  0.8313233E-01
       -2   -1    0    0    0  501  0.00000000000E+00  0.00000000000E+00  0.78791813327E+03  0.78791813328E+03  0.25500000920E-02 0. -1.
        2   -1    0    0  501    0  0.00000000000E+00  0.00000000000E+00 -0.24312529740E+04  0.24312529740E+04  0.25500000920E-02 0.  1.
    10030    2    1    2    0    0  0.00000000000E+00  0.00000000000E+00 -0.16433348407E+04  0.32191711073E+04  0.27681244949E+04 0.  0.
        2    1    3    3  502    0 -0.13219990836E+04 -0.38721709772E+03 -0.66560043449E+03  0.15299158788E+04  0.25500000920E-02 0. -1.
       -2    1    3    3    0  502  0.13219990836E+04  0.38721709772E+03 -0.97773440624E+03  0.16892552285E+04  0.25500000920E-02 0.  1.
</event>
<event>
 5   0  0.1874272E-05  0.2803617E+04  0.7818609E-02  0.8302146E-01
       -2   -1    0    0    0  501  0.00000000000E+00  0.00000000000E+00  0.17779440070E+04  0.17779440070E+04  0.25500000920E-02 0. -1.
        2   -1    0    0  501    0  0.00000000000E+00  0.00000000000E+00 -0.11052469319E+04  0.11052469319E+04  0.25500000920E-02 0.  1.
    10030    2    1    2    0    0  0.00000000000E+00  0.00000000000E+00  0.67269707506E+03  0.28831909389E+04  0.28036170629E+04 0.  0.
        3    1    3    3  502    0  0.12529322623E+04  0.96001326601E+02 -0.30258386069E+03  0.12925217645E+04  0.10100000352E+00 0.  1.
       -3    1    3    3    0  502 -0.12529322623E+04 -0.96001326601E+02  0.97528093575E+03  0.15906691745E+04  0.10100000352E+00 0. -1.
</event>
<event>
 5   0  0.7555871E-06  0.2777773E+04  0.7818609E-02  0.8310202E-01
        1   -1    0    0  501    0  0.00000000000E+00  0.00000000000E+00  0.13199249588E+04  0.13199249589E+04  0.50400001928E-02 0. -1.
       -1   -1    0    0    0  501  0.00000000000E+00  0.00000000000E+00 -0.14614510843E+04  0.14614510843E+04  0.50400001928E-02 0.  1.
    10030    2    1    2    0    0  0.00000000000E+00  0.00000000000E+00 -0.14152612547E+03  0.27813760432E+04  0.27777730378E+04 0.  0.
        3    1    3    3  502    0  0.39487371543E+03  0.48363677393E+02  0.12616550534E+04  0.13228899351E+04  0.10100000352E+00 0. -1.
       -3    1    3    3    0  502 -0.39487371543E+03 -0.48363677393E+02 -0.14031811789E+04  0.14584861081E+04  0.10100000352E+00 0.  1.
</event>
<event>
 5   0  0.1814230E-05  0.2590264E+04  0.7818609E-02  0.8371516E-01
        2   -1    0    0  501    0  0.00000000000E+00  0.00000000000E+00  0.10715616651E+04  0.10715616651E+04  0.25500000920E-02 0. -1.
       -2   -1    0    0    0  501  0.00000000000E+00  0.00000000000E+00 -0.15653481748E+04  0.15653481748E+04  0.25500000920E-02 0.  1.
    10030    2    1    2    0    0  0.00000000000E+00  0.00000000000E+00 -0.49378650971E+03  0.26369098399E+04  0.25902641538E+04 0.  0.
        5    1    3    3  502    0 -0.12305166670E+04 -0.38920605829E+03 -0.13681469372E+03  0.12978416598E+04  0.46999998093E+01 0. -1.
       -5    1    3    3    0  502  0.12305166670E+04  0.38920605829E+03 -0.35697181599E+03  0.13390681801E+04  0.46999998093E+01 0.  1.
</event>
<event>
 5   0  0.7509685E-06  0.2845806E+04  0.7818609E-02  0.8289187E-01
       -1   -1    0    0    0  501  0.00000000000E+00  0.00000000000E+00  0.14102002677E+04  0.14102002677E+04  0.50400001928E-02 0. -1.
        1   -1    0    0  501    0  0.00000000000E+00  0.00000000000E+00 -0.14357206155E+04  0.14357206155E+04  0.50400001928E-02 0.  1.
    10030    2    1    2    0    0  0.00000000000E+00  0.00000000000E+00 -0.25520347804E+02  0.28459208833E+04  0.28458064561E+04 0.  0.
        4    1    3    3  502    0  0.12203661908E+04  0.25697282040E+03 -0.69785947797E+03  0.14291039619E+04  0.12699999809E+01 0.  1.
       -4    1    3    3    0  502 -0.12203661908E+04 -0.25697282040E+03  0.67233913017E+03  0.14168169214E+04  0.12699999809E+01 0. -1.
</event>
<event>
 5   0  0.1904553E-05  0.2712511E+04  0.7818609E-02  0.8330957E-01
       -2   -1    0    0    0  501  0.00000000000E+00  0.00000000000E+00  0.86939589279E+03  0.86939589279E+03  0.25500000920E-02 0. -1.
        2   -1    0    0  501    0  0.00000000000E+00  0.00000000000E+00 -0.21157548147E+04  0.21157548147E+04  0.25500000920E-02 0.  1.
    10030    2    1    2    0    0  0.00000000000E+00  0.00000000000E+00 -0.12463589219E+04  0.29851507075E+04  0.27125106791E+04 0.  0.
        1    1    3    3  502    0  0.27054862435E+03  0.10273141667E+04 -0.15510472697E+04  0.18799783478E+04  0.50400001928E-02 0. -1.
       -1    1    3    3    0  502 -0.27054862435E+03 -0.10273141667E+04  0.30468834786E+03  0.11051723597E+04  0.50400001928E-02 0.  1.
</event>
<event>
 5   0  0.1832502E-05  0.2747472E+04  0.7818609E-02  0.8319764E-01
        2   -1    0    0  501    0  0.00000000000E+00  0.00000000000E+00  0.17762150767E+04  0.17762150767E+04  0.25500000920E-02 0. -1.
       -2   -1    0    0    0  501  0.00000000000E+00  0.00000000000E+00 -0.10624557946E+04  0.10624557946E+04  0.25500000920E-02 0.  1.
    10030    2    1    2    0    0  0.00000000000E+00  0.00000000000E+00  0.71375928213E+03  0.28386708713E+04  0.27474715655E+04 0.  0.
        2    1    3    3  502    0 -0.67524742076E+03  0.10645832133E+04  0.92075509697E+03  0.15611170507E+04  0.25500000920E-02 0. -1.
       -2    1    3    3    0  502  0.67524742076E+03 -0.10645832133E+04 -0.20699581485E+03  0.12775538207E+04  0.25500000920E-02 0.  1.
</event>
<event>
 5   0  0.7613444E-06  0.2759991E+04  0.7818609E-02  0.8315798E-01
       -1   -1    0    0    0  501  0.00000000000E+00  0.00000000000E+00  0.16628162742E+04  0.16628162742E+04  0.50400001928E-02 0.  1.
        1   -1    0    0  501    0  0.00000000000E+00  0.00000000000E+00 -0.11452785237E+04  0.11452785237E+04  0.50400001928E-02 0. -1.
    10030    2    1    2    0    0  0.00000000000E+00  0.00000000000E+00  0.51753775050E+03  0.28080947979E+04  0.27599911360E+04 0.  0.
        5    1    3    3  502    0  0.30728381098E+03 -0.99461059535E+03  0.11804786736E+04  0.15739204445E+04  0.46999998093E+01 0.  1.
       -5    1    3    3    0  502 -0.30728381098E+03  0.99461059535E+03 -0.66294092312E+03  0.12341743533E+04  0.46999998093E+01 0. -1.
</event>
<event>
 5   0  0.1923559E-05  0.2864324E+04  0.7818609E-02  0.8283572E-01
       -2   -1    0    0    0  501  0.00000000000E+00  0.00000000000E+00  0.12127039864E+04  0.12127039864E+04  0.25500000920E-02 0. -1.
        2   -1    0    0  501    0  0.00000000000E+00  0.00000000000E+00 -0.16913348991E+04  0.16913348991E+04  0.25500000920E-02 0.  1.
    10030    2    1    2    0    0  0.00000000000E+00  0.00000000000E+00 -0.47863091270E+03  0.29040388855E+04  0.28643244051E+04 0.  0.
        4    1    3    3  502    0  0.40918752572E+03 -0.37558672431E+03 -0.15776894116E+04  0.16726043498E+04  0.12699999809E+01 0.  1.
       -4    1    3    3    0  502 -0.40918752572E+03  0.37558672431E+03  0.10990584989E+04  0.12314345356E+04  0.12699999809E+01 0. -1.
</event>
<event>
 5   0  0.1814230E-05  0.2031330E+04  0.7818609E-02  0.8592111E-01
        2   -1    0    0  501    0  0.00000000000E+00  0.00000000000E+00  0.11542986385E+04  0.11542986385E+04  0.25500000920E-02 0. -1.
       -2   -1    0    0    0  501  0.00000000000E+00  0.00000000000E+00 -0.89368134533E+03  0.89368134533E+03  0.25500000920E-02 0.  1.
    10030    2    1    2    0    0  0.00000000000E+00  0.00000000000E+00  0.26061729319E+03  0.20479799839E+04  0.20313297715E+04 0.  0.
        5    1    3    3  502    0  0.16285848560E+03 -0.38473824696E+03  0.10636432634E+04  0.11427622179E+04  0.46999998093E+01 0. -1.
       -5    1    3    3    0  502 -0.16285848560E+03  0.38473824696E+03 -0.80302597017E+03  0.90521776594E+03  0.46999998093E+01 0.  1.
</event>
<event>
 5   0  0.7509685E-06  0.2751127E+04  0.7818609E-02  0.8318604E-01
       -1   -1    0    0    0  501  0.00000000000E+00  0.00000000000E+00  0.15470851384E+04  0.15470851384E+04  0.50400001928E-02 0. -1.
        1   -1    0    0  501    0  0.00000000000E+00  0.00000000000E+00 -0.12230578624E+04  0.12230578625E+04  0.50400001928E-02 0.  1.
    10030    2    1    2    0    0  0.00000000000E+00  0.00000000000E+00  0.32402727598E+03  0.27701430009E+04  0.27511267818E+04 0.  0.
        4    1    3    3  502    0 -0.58471016235E+03 -0.12063806827E+03  0.14098266637E+04  0.15310298338E+04  0.12699999809E+01 0. -1.
       -4    1    3    3    0  502  0.58471016235E+03  0.12063806827E+03 -0.10857993877E+04  0.12391131671E+04  0.12699999809E+01 0.  1.
</event>
<event>
 5   0  0.1874272E-05  0.2821851E+04  0.7818609E-02  0.8296516E-01
       -2   -1    0    0    0  501  0.00000000000E+00  0.00000000000E+00  0.10743794898E+04  0.10743794898E+04  0.25500000920E-02 0. -1.
        2   -1    0    0  501    0  0.00000000000E+00  0.00000000000E+00 -0.18528933203E+04  0.18528933203E+04  0.25500000920E-02 0.  1.
    10030    2    1    2    0    0  0.00000000000E+00  0.00000000000E+00 -0.77851383052E+03  0.29272728101E+04  0.28218508678E+04 0.  0.
        3    1    3    3  502    0  0.11122212917E+04  0.29993324491E+03 -0.12343796142E+04  0.16883984113E+04  0.10100000352E+00 0.  1.
       -3    1    3    3    0  502 -0.11122212917E+04 -0.29993324491E+03  0.45586578366E+03  0.12388743988E+04  0.10100000352E+00 0. -1.
</event>
<event>
 5   0  0.6288000E-06  0.2853325E+04  0.7818609E-02  0.8286902E-01
        3   -1    0    0  501    0  0.00000000000E+00  0.00000000000E+00  0.17948559978E+04  0.17948560007E+04  0.10100000352E+00 0. -1.
       -3   -1    0    0    0  501  0.00000000000E+00  0.00000000000E+00 -0.11339998142E+04  0.11339998187E+04  0.10100000352E+00 0.  1.
    10030    2    1    2    0    0  0.00000000000E+00  0.00000000000E+00  0.66085618361E+03  0.29288558194E+04  0.28533253434E+04 0.  0.
        1    1    3    3  502    0 -0.45752332413E+03  0.12585453659E+04 -0.17463565979E+03  0.13504671947E+04  0.50400001928E-02 0.  1.
       -1    1    3    3    0  502  0.45752332413E+03 -0.12585453659E+04  0.83549184340E+03  0.15783886247E+04  0.50400001928E-02 0. -1.
</event>
<event>
 5   0  0.7555871E-06  0.2828509E+04  0.7818609E-02  0.8294472E-01
        1   -1    0    0  501    0  0.00000000000E+00  0.00000000000E+00  0.10715930997E+04  0.10715930998E+04  0.50400001928E-02 0. -1.
       -1   -1    0    0    0  501  0.00000000000E+00  0.00000000000E+00 -0.18664878515E+04  0.18664878515E+04  0.50400001928E-02 0.  1.
    10030    2    1    2    0    0  0.00000000000E+00  0.00000000000E+00 -0.79489475173E+03  0.29380809512E+04  0.28285087961E+04 0.  0.
        3    1    3    3  502    0 -0.11145955801E+04 -0.37439151373E+03 -0.12137816243E+04  0.16898988592E+04  0.10100000352E+00 0.  1.
       -3    1    3    3    0  502  0.11145955801E+04  0.37439151373E+03  0.41888687259E+03  0.12481820920E+04  0.10100000352E+00 0. -1.
</event>
<event>
 5   0  0.7555871E-06  0.2809962E+04  0.7818609E-02  0.8300182E-01
        1   -1    0    0  501    0  0.00000000000E+00  0.00000000000E+00  0.12430469468E+04  0.12430469468E+04  0.50400001928E-02 0.  1.
       -1   -1    0    0    0  501  0.00000000000E+00  0.00000000000E+00 -0.15880108987E+04  0.15880108987E+04  0.50400001928E-02 0. -1.
    10030    2    1    2    0    0  0.00000000000E+00  0.00000000000E+00 -0.34496395188E+03  0.28310578455E+04  0.28099623479E+04 0.  0.
        3    1    3    3  502    0 -0.12203829818E+04 -0.67541466623E+03 -0.34242698773E+03  0.14362366956E+04  0.10100000352E+00 0. -1.
       -3    1    3    3    0  502  0.12203829818E+04  0.67541466623E+03 -0.25369641494E+01  0.13948211499E+04  0.10100000352E+00 0.  1.
</event>
<event>
 5   0  0.7388013E-06  0.2793946E+04  0.7818609E-02  0.8305150E-01
        1   -1    0    0  501    0  0.00000000000E+00  0.00000000000E+00  0.10258755993E+04  0.10258755994E+04  0.50400001928E-02 0. -1.
       -1   -1    0    0    0  501  0.00000000000E+00  0.00000000000E+00 -0.19023103694E+04  0.19023103694E+04  0.50400001928E-02 0.  1.
    10030    2    1    2    0    0  0.00000000000E+00  0.00000000000E+00 -0.87643477009E+03  0.29281859688E+04  0.27939461630E+04 0.  0.
        1    1    3    3  502    0 -0.96754831082E+03  0.35479250585E+03  0.55023361349E+03  0.11682399092E+04  0.50400001928E-02 0. -1.
       -1    1    3    3    0  502  0.96754831082E+03 -0.35479250585E+03 -0.14266683836E+04  0.17599460596E+04  0.50400001928E-02 0.  1.
</event>
<event>
 5   0  0.1874272E-05  0.2810545E+04  0.7818609E-02  0.8300002E-01
        2   -1    0    0  501    0  0.00000000000E+00  0.00000000000E+00  0.18114192242E+04  0.18114192242E+04  0.25500000920E-02 0.  1.
       -2   -1    0    0    0  501  0.00000000000E+00  0.00000000000E+00 -0.10901894624E+04  0.10901894624E+04  0.25500000920E-02 0. -1.
    10030    2    1    2    0    0  0.00000000000E+00  0.00000000000E+00  0.72122976185E+03  0.29016086866E+04  0.28105445381E+04 0.  0.
        3    1    3    3  502    0  0.66738493303E+03  0.17942493332E+03  0.16238594408E+04  0.17647989826E+04  0.10100000352E+00 0.  1.
       -3    1    3    3    0  502 -0.66738493303E+03 -0.17942493332E+03 -0.90262967892E+03  0.11368097039E+04  0.10100000352E+00 0. -1.
</event>
<event>
 5   0  0.1874272E-05  0.2800874E+04  0.7818609E-02  0.8302997E-01
       -2   -1    0    0    0  501  0.00000000000E+00  0.00000000000E+00  0.10828782218E+04  0.10828782218E+04  0.25500000920E-02 0. -1.
        2   -1    0    0  501    0  0.00000000000E+00  0.00000000000E+00 -0.18111210936E+04  0.18111210936E+04  0.25500000920E-02 0.  1.
    10030    2    1    2    0    0  0.00000000000E+00  0.00000000000E+00 -0.72824287176E+03  0.28939993154E+04  0.28008738560E+04 0.  0.
        3    1    3    3  502    0 -0.96640799843E+03 -0.29389535715E+03  0.63813231057E+03  0.11947936041E+04  0.10100000352E+00 0. -1.
       -3    1    3    3    0  502  0.96640799843E+03  0.29389535715E+03 -0.13663751823E+04  0.16992057113E+04  0.10100000352E+00 0.  1.
</event>
<event>
 5   0  0.1814230E-05  0.2807932E+04  0.7818609E-02  0.8300810E-01
        2   -1    0    0  501    0  0.00000000000E+00  0.00000000000E+00  0.16907879034E+04  0.16907879034E+04  0.25500000920E-02 0. -1.
       -2   -1    0    0    0  501  0.00000000000E+00  0.00000000000E+00 -0.11658003424E+04  0.11658003424E+04  0.25500000920E-02 0.  1.
    10030    2    1    2    0    0  0.00000000000E+00  0.00000000000E+00  0.52498756098E+03  0.28565882458E+04  0.28079324185E+04 0.  0.
        5    1    3    3  502    0  0.10643150150E+03  0.11131435555E+04 -0.60114685552E+03  0.12695731061E+04  0.46999998093E+01 0.  1.
       -5    1    3    3    0  502 -0.10643150150E+03 -0.11131435555E+04  0.11261344165E+04  0.15870151397E+04  0.46999998093E+01 0. -1.
</event>
<event>
 5   0  0.7681342E-06  0.2789072E+04  0.7818609E-02  0.8306669E-01
       -1   -1    0    0    0  501  0.00000000000E+00  0.00000000000E+00  0.14271246505E+04  0.14271246505E+04  0.50400001928E-02 0.  1.
        1   -1    0    0  501    0  0.00000000000E+00  0.00000000000E+00 -0.13626910518E+04  0.13626910518E+04  0.50400001928E-02 0. -1.
    10030    2    1    2    0    0  0.00000000000E+00  0.00000000000E+00  0.64433598638E+02  0.27898157023E+04  0.27890715237E+04 0.  0.
        2    1    3    3  502    0  0.22397296420E+03 -0.83276427539E+03 -0.10640089015E+04  0.13695894164E+04  0.25500000920E-02 0. -1.
       -2    1    3    3    0  502 -0.22397296420E+03  0.83276427539E+03  0.11284425001E+04  0.14202262859E+04  0.25500000920E-02 0.  1.
</event>
<event>
 5   0  0.7509685E-06  0.3028569E+04  0.7818609E-02  0.8235620E-01
       -1   -1    0    0    0  501  0.00000000000E+00  0.00000000000E+00  0.22910413235E+04  0.22910413235E+04  0.50400001928E-02 0.  1.
        1   -1    0    0  501    0  0.00000000000E+00  0.00000000000E+00 -0.10008798913E+04  0.10008798914E+04  0.50400001928E-02 0. -1.
    10030    2    1    2    0    0  0.00000000000E+00  0.00000000000E+00  0.12901614322E+04  0.32919212149E+04  0.30285687649E+04 0.  0.
        4    1    3    3  502    0  0.73531645261E+03 -0.91830133973E+03 -0.39128954549E+03  0.12397889971E+04  0.12699999809E+01 0.  1.
       -4    1    3    3    0  502 -0.73531645261E+03  0.91830133973E+03  0.16814509777E+04  0.20521322178E+04  0.12699999809E+01 0. -1.
</event>
<event>
 5   0  0.1832502E-05  0.2523684E+04  0.7818609E-02  0.8394596E-01
        2   -1    0    0  501    0  0.00000000000E+00  0.00000000000E+00  0.20418949192E+04  0.20418949192E+04  0.25500000920E-02 0.  1.
       -2   -1    0    0    0  501  0.00000000000E+00  0.00000000000E+00 -0.77978798771E+03  0.77978798771E+03  0.25500000920E-02 0. -1.
    10030    2    1    2    0    0  0.00000000000E+00  0.00000000000E+00  0.12621069315E+04  0.28216829069E+04  0.25236839185E+04 0.  0.
        2    1    3    3  502    0 -0.10249072849E+04  0.62965409096E+03  0.20479338827E+03  0.12201801297E+04  0.25500000920E-02 0. -1.
       -2    1    3    3    0  502  0.10249072849E+04 -0.62965409096E+03  0.10573135432E+04  0.16015027773E+04  0.25500000920E-02 0.  1.
</event>
<event>
 5   0  0.1874272E-05  0.2850418E+04  0.7818609E-02  0.8287784E-01
       -2   -1    0    0    0  501  0.00000000000E+00  0.00000000000E+00  0.12880171328E+04  0.12880171328E+04  0.25500000920E-02 0. -1.
        2   -1    0    0  501    0  0.00000000000E+00  0.00000000000E+00 -0.15770137322E+04  0.15770137322E+04  0.25500000920E-02 0.  1.
    10030    2    1    2    0    0  0.00000000000E+00  0.00000000000E+00 -0.28899659943E+03  0.28650308650E+04  0.28504180085E+04 0.  0.
        3    1    3    3  502    0 -0.39561877642E+03 -0.17425922585E+03 -0.15095253830E+04  0.15702061604E+04  0.10100000352E+00 0.  1.
       -3    1    3    3    0  502  0.39561877642E+03  0.17425922585E+03  0.12205287835E+04  0.12948247046E+04  0.10100000352E+00 0. -1.
</event>
<event>
 5   0  0.7388013E-06  0.2821108E+04  0.7818609E-02  0.8296745E-01
        1   -1    0    0  501    0  0.00000000000E+00  0.00000000000E+00  0.14603290192E+04  0.14603290192E+04  0.50400001928E-02 0.  1.
       -1   -1    0    0    0  501  0.00000000000E+00  0.00000000000E+00 -0.13624756337E+04  0.13624756337E+04  0.50400001928E-02 0. -1.
    10030    2    1    2    0    0  0.00000000000E+00  0.00000000000E+00  0.97853385484E+02  0.28228046528E+04  0.28211080843E+04 0.  0.
        1    1    3    3  502    0 -0.52592307214E+03  0.33969463488E+03  0.13136786022E+04  0.14552453377E+04  0.50400001928E-02 0.  1.
       -1    1    3    3    0  502  0.52592307214E+03 -0.33969463488E+03 -0.12158252168E+04  0.13675593152E+04  0.50400001928E-02 0. -1.
</event>
<event>
 5   0  0.1814230E-05  0.2691184E+04  0.7818609E-02  0.8337871E-01
        2   -1    0    0  501    0  0.00000000000E+00  0.00000000000E+00  0.18617525025E+04  0.18617525025E+04  0.25500000920E-02 0.  1.
       -2   -1    0    0    0  501  0.00000000000E+00  0.00000000000E+00 -0.97253441303E+03  0.97253441304E+03  0.25500000920E-02 0. -1.
    10030    2    1    2    0    0  0.00000000000E+00  0.00000000000E+00  0.88921808948E+03  0.28342869156E+04  0.26911844064E+04 0.  0.
        5    1    3    3  502    0 -0.75971812254E+03  0.63934859769E+03  0.14010040533E+04  0.17171990865E+04  0.46999998093E+01 0. -1.
       -5    1    3    3    0  502  0.75971812254E+03 -0.63934859769E+03 -0.51178596386E+03  0.11170878291E+04  0.46999998093E+01 0.  1.
</event>
<event>
 5   0  0.7509685E-06  0.2691030E+04  0.7818609E-02  0.8337921E-01
        1   -1    0    0  501    0  0.00000000000E+00  0.00000000000E+00  0.33569095177E+04  0.33569095177E+04  0.50400001928E-02 0.  1.
       -1   -1    0    0    0  501  0.00000000000E+00  0.00000000000E+00 -0.53930882302E+03  0.53930882304E+03  0.50400001928E-02 0. -1.
    10030    2    1    2    0    0  0.00000000000E+00  0.00000000000E+00  0.28176006947E+04  0.38962183408E+04  0.26910302273E+04 0.  0.
        4    1    3    3  502    0 -0.20353259179E+03 -0.42430717693E+03 -0.41626931067E+03  0.62828643804E+03  0.12699999809E+01 0. -1.
       -4    1    3    3    0  502  0.20353259179E+03  0.42430717693E+03  0.32338700054E+04  0.32679319027E+04  0.12699999809E+01 0.  1.
</event>
<event>
 5   0  0.7613444E-06  0.2742070E+04  0.7818609E-02  0.8321482E-01
       -1   -1    0    0    0  501  0.00000000000E+00  0.00000000000E+00  0.11648713797E+04  0.11648713797E+04  0.50400001928E-02 0.  1.
        1   -1    0    0  501    0  0.00000000000E+00  0.00000000000E+00 -0.16136863804E+04  0.16136863804E+04  0.50400001928E-02 0. -1.
    10030    2    1    2    0    0  0.00000000000E+00  0.00000000000E+00 -0.44881500070E+03  0.27785577602E+04  0.27420700796E+04 0.  0.
        5    1    3    3  502    0 -0.11156798239E+04  0.80103994164E+02 -0.10277729840E+04  0.15190449354E+04  0.46999998093E+01 0. -1.
       -5    1    3    3    0  502  0.11156798239E+04 -0.80103994164E+02  0.57895798326E+03  0.12595128247E+04  0.46999998093E+01 0.  1.
</event>
<event>
 5   0  0.1832502E-05  0.2761292E+04  0.7818609E-02  0.8315387E-01
        2   -1    0    0  501    0  0.00000000000E+00  0.00000000000E+00  0.21492597568E+04  0.21492597568E+04  0.25500000920E-02 0.  1.
       -2   -1    0    0    0  501  0.00000000000E+00  0.00000000000E+00 -0.88690223595E+03  0.88690223596E+03  0.25500000920E-02 0. -1.
    10030    2    1    2    0    0  0.00000000000E+00  0.00000000000E+00  0.12623575209E+04  0.30361619928E+04  0.27612919324E+04 0.  0.
        2    1    3    3  502    0 -0.54205699416E+03  0.12578829752E+04  0.82190423192E+03  0.15973797077E+04  0.25500000920E-02 0. -1.
       -2    1    3    3    0  502  0.54205699416E+03 -0.12578829752E+04  0.44045328895E+03  0.14387822851E+04  0.25500000920E-02 0.  1.
</event>
<event>
 5   0  0.7388013E-06  0.2822660E+04  0.7818609E-02  0.8296268E-01
        1   -1    0    0  501    0  0.00000000000E+00  0.00000000000E+00  0.18704105193E+04  0.18704105193E+04  0.50400001928E-02 0. -1.
       -1   -1    0    0    0  501  0.00000000000E+00  0.00000000000E+00 -0.10649277824E+04  0.10649277824E+04  0.50400001928E-02 0.  1.
    10030    2    1    2    0    0  0.00000000000E+00  0.00000000000E+00  0.80548273694E+03  0.29353383017E+04  0.28226598282E+04 0.  0.
        1    1    3    3  502    0  0.69530778122E+03  0.84635795234E+03  0.13282563195E+04  0.17216386219E+04  0.50400001928E-02 0. -1.
       -1    1    3    3    0  502 -0.69530778122E+03 -0.84635795234E+03 -0.52277358255E+03  0.12136996798E+04  0.50400001928E-02 0.  1.
</event>
<event>
 5   0  0.7681342E-06  0.2737501E+04  0.7818609E-02  0.8322939E-01
       -1   -1    0    0    0  501  0.00000000000E+00  0.00000000000E+00  0.11800808359E+04  0.11800808359E+04  0.50400001928E-02 0. -1.
        1   -1    0    0  501    0  0.00000000000E+00  0.00000000000E+00 -0.15875845354E+04  0.15875845355E+04  0.50400001928E-02 0.  1.
    10030    2    1    2    0    0  0.00000000000E+00  0.00000000000E+00 -0.40750369953E+03  0.27676653714E+04  0.27375011128E+04 0.  0.
        2    1    3    3  502    0 -0.91030532230E+03  0.15092284632E+03  0.81835005966E+03  0.12333411148E+04  0.25500000920E-02 0. -1.
       -2    1    3    3    0  502  0.91030532230E+03 -0.15092284632E+03 -0.12258537592E+04  0.15343242566E+04  0.25500000920E-02 0.  1.
</event>
<event>
 5   0  0.1814230E-05  0.2858917E+04  0.7818609E-02  0.8285207E-01
       -2   -1    0    0    0  501  0.00000000000E+00  0.00000000000E+00  0.15669831918E+04  0.15669831918E+04  0.25500000920E-02 0.  1.
        2   -1    0    0  501    0  0.00000000000E+00  0.00000000000E+00 -0.13040033905E+04  0.13040033905E+04  0.25500000920E-02 0. -1.
    10030    2    1    2    0    0  0.00000000000E+00  0.00000000000E+00  0.26297980132E+03  0.28709865822E+04  0.28589168542E+04 0.  0.
        5    1    3    3  502    0 -0.28497489287E+03 -0.13776654930E+04 -0.12287058564E+03  0.14121940982E+04  0.46999998093E+01 0. -1.
       -5    1    3    3    0  502  0.28497489287E+03  0.13776654930E+04  0.38585038696E+03  0.14587924840E+04  0.46999998093E+01 0.  1.
</event>
<event>
 5   0  0.1923559E-05  0.2816817E+04  0.7818609E-02  0.8298066E-01
       -2   -1    0    0    0  501  0.00000000000E+00  0.00000000000E+00  0.11983551954E+04  0.11983551954E+04  0.25500000920E-02 0.  1.
        2   -1    0    0  501    0  0.00000000000E+00  0.00000000000E+00 -0.16552809728E+04  0.16552809728E+04  0.25500000920E-02 0. -1.
    10030    2    1    2    0    0  0.00000000000E+00  0.00000000000E+00 -0.45692577743E+03  0.28536361682E+04  0.28168170360E+04 0.  0.
        4    1    3    3  502    0 -0.26121228409E+02  0.41417267071E+03 -0.15919346237E+04  0.16451379209E+04  0.12699999809E+01 0. -1.
       -4    1    3    3    0  502  0.26121228409E+02 -0.41417267071E+03  0.11350088463E+04  0.12084982473E+04  0.12699999809E+01 0.  1.
</event>
<event>
 5   0  0.7681342E-06  0.2770526E+04  0.7818609E-02  0.8312478E-01
       -1   -1    0    0    0  501  0.00000000000E+00  0.00000000000E+00  0.13352213832E+04  0.13352213832E+04  0.50400001928E-02 0. -1.
        1   -1    0    0  501    0  0.00000000000E+00  0.00000000000E+00 -0.14371803965E+04  0.14371803965E+04  0.50400001928E-02 0.  1.
    10030    2    1    2    0    0  0.00000000000E+00  0.00000000000E+00 -0.10195901329E+03  0.27724017797E+04  0.27705263016E+04 0.  0.
        2    1    3    3  502    0  0.28282404374E+03  0.99601048892E+03  0.86993020038E+03  0.13523331273E+04  0.25500000920E-02 0. -1.
       -2    1    3    3    0  502 -0.28282404374E+03 -0.99601048892E+03 -0.97188921368E+03  0.14200686524E+04  0.25500000920E-02 0.  1.
</event>
<event>
 5   0  0.7555871E-06  0.3278415E+04  0.7818609E-02  0.8168410E-01
        1   -1    0    0  501    0  0.00000000000E+00  0.00000000000E+00  0.78649851243E+03  0.78649851245E+03  0.50400001928E-02 0. -1.
       -1   -1    0    0    0  501  0.00000000000E+00  0.00000000000E+00 -0.34164093295E+04  0.34164093295E+04  0.50400001928E-02 0.  1.
    10030    2    1    2    0    0  0.00000000000E+00  0.00000000000E+00 -0.26299108171E+04  0.42029078420E+04  0.32784147728E+04 0.  0.
        3    1    3    3  502    0  0.53324409983E+03  0.95423565446E+03 -0.28809234012E+04  0.30813364970E+04  0.10100000352E+00 0.  1.
       -3    1    3    3    0  502 -0.53324409983E+03 -0.95423565446E+03  0.25101258409E+03  0.11215713449E+04  0.10100000352E+00 0. -1.
</event>
<event>
 5   0  0.7681342E-06  0.2857178E+04  0.7818609E-02  0.8285733E-01
        1   -1    0    0  501    0  0.00000000000E+00  0.00000000000E+00  0.94631477783E+03  0.94631477785E+03  0.50400001928E-02 0.  1.
       -1   -1    0    0    0  501  0.00000000000E+00  0.00000000000E+00 -0.21566466201E+04  0.21566466202E+04  0.50400001928E-02 0. -1.
    10030    2    1    2    0    0  0.00000000000E+00  0.00000000000E+00 -0.12103318423E+04  0.31029613980E+04  0.28571780254E+04 0.  0.
        2    1    3    3  502    0 -0.83245263123E+03  0.91671489632E+03 -0.13788558228E+04  0.18532638680E+04  0.25500000920E-02 0. -1.
       -2    1    3    3    0  502  0.83245263123E+03 -0.91671489632E+03  0.16852398053E+03  0.12496975300E+04  0.25500000920E-02 0.  1.
</event>
<event>
 5   0  0.1874272E-05  0.2876778E+04  0.7818609E-02  0.8279820E-01
       -2   -1    0    0    0  501  0.00000000000E+00  0.00000000000E+00  0.10737123972E+04  0.10737123972E+04  0.25500000920E-02 0. -1.
        2   -1    0    0  501    0  0.00000000000E+00  0.00000000000E+00 -0.19269253056E+04  0.19269253056E+04  0.25500000920E-02 0.  1.
    10030    2    1    2    0    0  0.00000000000E+00  0.00000000000E+00 -0.85321290836E+03  0.30006377028E+04  0.28767784684E+04 0.  0.
        3    1    3    3  502    0  0.11361608640E+03  0.13097471005E+04 -0.10353587591E+04  0.16734138319E+04  0.10100000352E+00 0. -1.
       -3    1    3    3    0  502 -0.11361608640E+03 -0.13097471005E+04  0.18214585079E+03  0.13272238709E+04  0.10100000352E+00 0.  1.
</event>
<event>
 5   0  0.6288000E-06  0.2914621E+04  0.7818609E-02  0.8268541E-01
       -3   -1    0    0    0  501  0.00000000000E+00  0.00000000000E+00  0.16999949921E+04  0.16999949951E+04  0.10100000352E+00 0.  1.
        3   -1    0    0  501    0  0.00000000000E+00  0.00000000000E+00 -0.12492705199E+04  0.12492705240E+04  0.10100000352E+00 0. -1.
    10030    2    1    2    0    0  0.00000000000E+00  0.00000000000E+00  0.45072447221E+03  0.29492655191E+04  0.29146208248E+04 0.  0.
        3    1    3    3  502    0  0.76587320279E+03  0.10500571752E+04 -0.44169419751E+03  0.13726891885E+04  0.10100000352E+00 0. -1.
       -3    1    3    3    0  502 -0.76587320279E+03 -0.10500571752E+04  0.89241866972E+03  0.15765763306E+04  0.10100000352E+00 0.  1.
</event>
<event>
 5   0  0.7509685E-06  0.2830449E+04  0.7818609E-02  0.8293877E-01
        1   -1    0    0  501    0  0.00000000000E+00  0.00000000000E+00  0.13463572551E+04  0.13463572551E+04  0.50400001928E-02 0.  1.
       -1   -1    0    0    0  501  0.00000000000E+00  0.00000000000E+00 -0.14876145478E+04  0.14876145478E+04  0.50400001928E-02 0. -1.
    10030    2    1    2    0    0  0.00000000000E+00  0.00000000000E+00 -0.14125729270E+03  0.28339718029E+04  0.28304491794E+04 0.  0.
        4    1    3    3  502    0  0.92081724716E+03  0.93993529555E+03 -0.59231093818E+03  0.14429887813E+04  0.12699999809E+01 0. -1.
       -4    1    3    3    0  502 -0.92081724716E+03 -0.93993529555E+03  0.45105364548E+03  0.13909830216E+04  0.12699999809E+01 0.  1.
</event>
<event>
 5   0  0.7555871E-06  0.2771534E+04  0.7818609E-02  0.8312161E-01
       -1   -1    0    0    0  501  0.00000000000E+00  0.00000000000E+00  0.89501520913E+03  0.89501520914E+03  0.50400001928E-02 0.  1.
        1   -1    0    0  501    0  0.00000000000E+00  0.00000000000E+00 -0.21456067636E+04  0.21456067636E+04  0.50400001928E-02 0. -1.
    10030    2    1    2    0    0  0.00000000000E+00  0.00000000000E+00 -0.12505915544E+04  0.30406219727E+04  0.27715343665E+04 0.  0.
        3    1    3    3  502    0 -0.12711221731E+04  0.29654584156E+03 -0.11463654142E+03  0.13102795740E+04  0.10100000352E+00 0.  1.
       -3    1    3    3    0  502  0.12711221731E+04 -0.29654584156E+03 -0.11359550130E+04  0.17303423987E+04  0.10100000352E+00 0. -1.
</event>
<event>
 5   0  0.1904553E-05  0.2794402E+04  0.7818609E-02  0.8305008E-01
        2   -1    0    0  501    0  0.00000000000E+00  0.00000000000E+00  0.13256692716E+04  0.13256692716E+04  0.25500000920E-02 0. -1.
       -2   -1    0    0    0  501  0.00000000000E+00  0.00000000000E+00 -0.14725922802E+04  0.14725922803E+04  0.25500000920E-02 0.  1.
    10030    2    1    2    0    0  0.00000000000E+00  0.00000000000E+00 -0.14692300863E+03  0.27982615519E+04  0.27944017861E+04 0.  0.
        1    1    3    3  502    0  0.41036021802E+03  0.13083620399E+04  0.19516935035E+03  0.13850262855E+04  0.50400001928E-02 0. -1.
       -1    1    3    3    0  502 -0.41036021802E+03 -0.13083620399E+04 -0.34209235898E+03  0.14132352664E+04  0.50400001928E-02 0.  1.
</event>
<event>
 5   0  0.7388013E-06  0.2770937E+04  0.7818609E-02  0.8312349E-01
       -1   -1    0    0    0  501  0.00000000000E+00  0.00000000000E+00  0.10555333851E+04  0.10555333851E+04  0.50400001928E-02 0.  1.
        1   -1    0    0  501    0  0.00000000000E+00  0.00000000000E+00 -0.18185330155E+04  0.18185330155E+04  0.50400001928E-02 0. -1.
    10030    2    1    2    0    0  0.00000000000E+00  0.00000000000E+00 -0.76299963041E+03  0.28740664006E+04  0.27709365274E+04 0.  0.
        1    1    3    3  502    0  0.20489977398E+03 -0.11134513495E+04 -0.12098240831E+04  0.16569345603E+04  0.50400001928E-02 0. -1.
       -1    1    3    3    0  502 -0.20489977398E+03  0.11134513495E+04  0.44682445270E+03  0.12171318403E+04  0.50400001928E-02 0.  1.
</event>
<event>
 5   0  0.1874272E-05  0.2702876E+04  0.7818609E-02  0.8334072E-01
        2   -1    0    0  501    0  0.00000000000E+00  0.00000000000E+00  0.20367496684E+04  0.20367496684E+04  0.25500000920E-02 0.  1.
       -2   -1    0    0    0  501  0.00000000000E+00  0.00000000000E+00 -0.89671562056E+03  0.89671562057E+03  0.25500000920E-02 0. -1.
    10030    2    1    2    0    0  0.00000000000E+00  0.00000000000E+00  0.11400340478E+04  0.29334652890E+04  0.27028764255E+04 0.  0.
        3    1    3    3  502    0 -0.61538007116E+03 -0.65480393064E+03  0.16655507383E+04  0.18924904469E+04  0.10100000352E+00 0.  1.
       -3    1    3    3    0  502  0.61538007116E+03  0.65480393064E+03 -0.52551669049E+03  0.10409748420E+04  0.10100000352E+00 0. -1.
</event>
<event>
 5   0  0.1874272E-05  0.2694434E+04  0.7818609E-02  0.8336813E-01
       -2   -1    0    0    0  501  0.00000000000E+00  0.00000000000E+00  0.14450807970E+04  0.14450807970E+04  0.25500000920E-02 0. -1.
        2   -1    0    0  501    0  0.00000000000E+00  0.00000000000E+00 -0.12559807621E+04  0.12559807621E+04  0.25500000920E-02 0.  1.
    10030    2    1    2    0    0  0.00000000000E+00  0.00000000000E+00  0.18910003486E+03  0.27010615591E+04  0.26944340264E+04 0.  0.
        3    1    3    3  502    0  0.24613375930E+03  0.18846703652E+03  0.14088400838E+04  0.14425436019E+04  0.10100000352E+00 0. -1.
       -3    1    3    3    0  502 -0.24613375930E+03 -0.18846703652E+03 -0.12197400490E+04  0.12585179572E+04  0.10100000352E+00 0.  1.
</event>
<event>
 5   0  0.1923559E-05  0.2861557E+04  0.7818609E-02  0.8284408E-01
        2   -1    0    0  501    0  0.00000000000E+00  0.00000000000E+00  0.13967576457E+04  0.13967576457E+04  0.25500000920E-02 0.  1.
       -2   -1    0    0    0  501  0.00000000000E+00  0.00000000000E+00 -0.14656281221E+04  0.14656281221E+04  0.25500000920E-02 0. -1.
    10030    2    1    2    0    0  0.00000000000E+00  0.00000000000E+00 -0.68870476322E+02  0.28623857678E+04  0.28615571183E+04 0.  0.
        4    1    3    3  502    0  0.26047675313E+02 -0.14298225864E+04 -0.79775644012E+02  0.14322837974E+04  0.12699999809E+01 0.  1.
       -4    1    3    3    0  502 -0.26047675313E+02  0.14298225864E+04  0.10905167690E+02  0.14301019704E+04  0.12699999809E+01 0. -1.
</event>
<event>
 5   0  0.7613444E-06  0.2838371E+04  0.7818609E-02  0.8291454E-01
        1   -1    0    0  501    0  0.00000000000E+00  0.00000000000E+00  0.14384795692E+04  0.14384795692E+04  0.50400001928E-02 0.  1.
       -1   -1    0    0    0  501  0.00000000000E+00  0.00000000000E+00 -0.14001498226E+04  0.14001498226E+04  0.50400001928E-02 0. -1.
    10030    2    1    2    0    0  0.00000000000E+00  0.00000000000E+00  0.38329746558E+02  0.28386293918E+04  0.28383705985E+04 0.  0.
        5    1    3    3  502    0  0.67551552293E+03  0.17817814699E+03  0.12545896719E+04  0.14359965211E+04  0.46999998093E+01 0.  1.
       -5    1    3    3    0  502 -0.67551552293E+03 -0.17817814699E+03 -0.12162599254E+04  0.14026328706E+04  0.46999998093E+01 0. -1.
</event>
<event>
 5   0  0.1923559E-05  0.2805645E+04  0.7818609E-02  0.8301518E-01
        2   -1    0    0  501    0  0.00000000000E+00  0.00000000000E+00  0.15492622478E+04  0.15492622479E+04  0.25500000920E-02 0. -1.
       -2   -1    0    0    0  501  0.00000000000E+00  0.00000000000E+00 -0.12702242945E+04  0.12702242945E+04  0.25500000920E-02 0.  1.
    10030    2    1    2    0    0  0.00000000000E+00  0.00000000000E+00  0.27903795332E+03  0.28194865424E+04  0.28056447001E+04 0.  0.
        4    1    3    3  502    0  0.35800336437E+03 -0.78619219258E+03 -0.97121421781E+03  0.12998166187E+04  0.12699999809E+01 0.  1.
       -4    1    3    3    0  502 -0.35800336437E+03  0.78619219258E+03  0.12502521711E+04  0.15196699237E+04  0.12699999809E+01 0. -1.
</event>
<event>
 5   0  0.7613444E-06  0.2851606E+04  0.7818609E-02  0.8287423E-01
       -1   -1    0    0    0  501  0.00000000000E+00  0.00000000000E+00  0.87807103064E+03  0.87807103066E+03  0.50400001928E-02 0. -1.
        1   -1    0    0  501    0  0.00000000000E+00  0.00000000000E+00 -0.23152047179E+04  0.23152047179E+04  0.50400001928E-02 0.  1.
    10030    2    1    2    0    0  0.00000000000E+00  0.00000000000E+00 -0.14371336873E+04  0.31932757486E+04  0.28516059986E+04 0.  0.
        5    1    3    3  502    0  0.29821856599E+03 -0.61024924545E+03 -0.21223871127E+04  0.22284271585E+04  0.46999998093E+01 0.  1.
       -5    1    3    3    0  502 -0.29821856599E+03  0.61024924545E+03  0.68525342543E+03  0.96484859006E+03  0.46999998093E+01 0. -1.
</event>
<event>
 5   0  0.1904553E-05  0.2639714E+04  0.7818609E-02  0.8354835E-01
        2   -1    0    0  501    0  0.00000000000E+00  0.00000000000E+00  0.76108654877E+03  0.76108654878E+03  0.25500000920E-02 0.  1.
       -2   -1    0    0    0  501  0.00000000000E+00  0.00000000000E+00 -0.22888632010E+04  0.22888632010E+04  0.25500000920E-02 0. -1.
    10030    2    1    2    0    0  0.00000000000E+00  0.00000000000E+00 -0.15277766522E+04  0.30499497497E+04  0.26397143741E+04 0.  0.
        1    1    3    3  502    0 -0.88293542356E+03  0.94373056026E+03 -0.45424590988E+03  0.13698692197E+04  0.50400001928E-02 0.  1.
       -1    1    3    3    0  502  0.88293542356E+03 -0.94373056026E+03 -0.10735307423E+04  0.16800805300E+04  0.50400001928E-02 0. -1.
</event>
<event>
 5   0  0.7681342E-06  0.2712533E+04  0.7818609E-02  0.8330950E-01
       -1   -1    0    0    0  501  0.00000000000E+00  0.00000000000E+00  0.11024064136E+04  0.11024064136E+04  0.50400001928E-02 0. -1.
        1   -1    0    0  501    0  0.00000000000E+00  0.00000000000E+00 -0.16685848535E+04  0.16685848535E+04  0.50400001928E-02 0.  1.
    10030    2    1    2    0    0  0.00000000000E+00  0.00000000000E+00 -0.56617843994E+03  0.27709912671E+04  0.27125328711E+04 0.  0.
        2    1    3    3  502    0  0.20921064210E+03 -0.37787962816E+03  0.10302683522E+04  0.11171459097E+04  0.25500000920E-02 0. -1.
       -2    1    3    3    0  502 -0.20921064210E+03  0.37787962816E+03 -0.15964467921E+04  0.16538453574E+04  0.25500000920E-02 0.  1.
</event>
<event>
 5   0  0.1814230E-05  0.2800925E+04  0.7818609E-02  0.8302981E-01
       -2   -1    0    0    0  501  0.00000000000E+00  0.00000000000E+00  0.75501353192E+03  0.75501353192E+03  0.25500000920E-02 0.  1.
        2   -1    0    0  501    0  0.00000000000E+00  0.00000000000E+00 -0.25976955591E+04  0.25976955591E+04  0.25500000920E-02 0. -1.
    10030    2    1    2    0    0  0.00000000000E+00  0.00000000000E+00 -0.18426820272E+04  0.33527090910E+04  0.28009250607E+04 0.  0.
        5    1    3    3  502    0  0.75339243336E+03 -0.10997184997E+04 -0.14352047191E+04  0.19587791129E+04  0.46999998093E+01 0. -1.
       -5    1    3    3    0  502 -0.75339243336E+03  0.10997184997E+04 -0.40747730806E+03  0.13939299781E+04  0.46999998093E+01 0.  1.
</event>
<event>
 5   0  0.7555871E-06  0.2311153E+04  0.7818609E-02  0.8473536E-01
        1   -1    0    0  501    0  0.00000000000E+00  0.00000000000E+00  0.15171587787E+04  0.15171587787E+04  0.50400001928E-02 0.  1.
       -1   -1    0    0    0  501  0.00000000000E+00  0.00000000000E+00 -0.88016996718E+03  0.88016996719E+03  0.50400001928E-02 0. -1.
    10030    2    1    2    0    0  0.00000000000E+00  0.00000000000E+00  0.63698881150E+03  0.23973287459E+04  0.23111534717E+04 0.  0.
        3    1    3    3  502    0 -0.36081338778E+03 -0.42300830920E+02 -0.81939629596E+03  0.89631800224E+03  0.10100000352E+00 0. -1.
       -3    1    3    3    0  502  0.36081338778E+03  0.42300830920E+02  0.14563851075E+04  0.15010107436E+04  0.10100000352E+00 0.  1.
</event>
<event>
 5   0  0.7555871E-06  0.2859290E+04  0.7818609E-02  0.8285094E-01
       -1   -1    0    0    0  501  0.00000000000E+00  0.00000000000E+00  0.12463322360E+04  0.12463322360E+04  0.50400001928E-02 0.  1.
        1   -1    0    0  501    0  0.00000000000E+00  0.00000000000E+00 -0.16399202053E+04  0.16399202053E+04  0.50400001928E-02 0. -1.
    10030    2    1    2    0    0  0.00000000000E+00  0.00000000000E+00 -0.39358796934E+03  0.28862524413E+04  0.28592904129E+04 0.  0.
        3    1    3    3  502    0  0.88032914156E+03  0.23188949173E+03 -0.13095193841E+04  0.15948646217E+04  0.10100000352E+00 0. -1.
       -3    1    3    3    0  502 -0.88032914156E+03 -0.23188949173E+03  0.91593141481E+03  0.12913878196E+04  0.10100000352E+00 0.  1.
</event>
<event>
 5   0  0.7555871E-06  0.2802103E+04  0.7818609E-02  0.8302616E-01
        1   -1    0    0  501    0  0.00000000000E+00  0.00000000000E+00  0.16790197672E+04  0.16790197672E+04  0.50400001928E-02 0.  1.
       -1   -1    0    0    0  501  0.00000000000E+00  0.00000000000E+00 -0.11691022122E+04  0.11691022122E+04  0.50400001928E-02 0. -1.
    10030    2    1    2    0    0  0.00000000000E+00  0.00000000000E+00  0.50991755499E+03  0.28481219795E+04  0.28021032988E+04 0.  0.
        3    1    3    3  502    0 -0.11253243660E+04 -0.48905223279E+03 -0.43247584434E+03  0.13009851580E+04  0.10100000352E+00 0. -1.
       -3    1    3    3    0  502  0.11253243660E+04  0.48905223279E+03  0.94239339933E+03  0.15471368215E+04  0.10100000352E+00 0.  1.
</event>
<event>
 5   0  0.7681342E-06  0.2015191E+04  0.7818609E-02  0.8599551E-01
        1   -1    0    0  501    0  0.00000000000E+00  0.00000000000E+00  0.22115185126E+04  0.22115185126E+04  0.50400001928E-02 0.  1.
       -1   -1    0    0    0  501  0.00000000000E+00  0.00000000000E+00 -0.45907324296E+03  0.45907324299E+03  0.50400001928E-02 0. -1.
    10030    2    1    2    0    0  0.00000000000E+00  0.00000000000E+00  0.17524452696E+04  0.26705917556E+04  0.20151912817E+04 0.  0.
        2    1    3    3  502    0  0.24258885212E+03  0.32488458948E+03  0.20986347203E+04  0.21374440430E+04  0.25500000920E-02 0.  1.
       -2    1    3    3    0  502 -0.24258885212E+03 -0.32488458948E+03 -0.34618945069E+03  0.53314771258E+03  0.25500000920E-02 0. -1.
</event>
<event>
 5   0  0.7613444E-06  0.2817427E+04  0.7818609E-02  0.8297878E-01
       -1   -1    0    0    0  501  0.00000000000E+00  0.00000000000E+00  0.15293304012E+04  0.15293304012E+04  0.50400001928E-02 0. -1.
        1   -1    0    0  501    0  0.00000000000E+00  0.00000000000E+00 -0.12976094374E+04  0.12976094374E+04  0.50400001928E-02 0.  1.
    10030    2    1    2    0    0  0.00000000000E+00  0.00000000000E+00  0.23172096379E+03  0.28269398387E+04  0.28174268839E+04 0.  0.
        5    1    3    3  502    0 -0.82010908751E+01 -0.13940948007E+04 -0.87019908799E+02  0.13968400502E+04  0.46999998093E+01 0.  1.
       -5    1    3    3    0  502  0.82010908751E+01  0.13940948007E+04  0.31874087259E+03  0.14300997885E+04  0.46999998093E+01 0. -1.
</event>
<event>
 5   0  0.1814230E-05  0.3192135E+04  0.7818609E-02  0.8190897E-01
       -2   -1    0    0    0  501  0.00000000000E+00  0.00000000000E+00  0.11780539573E+04  0.11780539573E+04  0.25500000920E-02 0.  1.
        2   -1    0    0  501    0  0.00000000000E+00  0.00000000000E+00 -0.21624069620E+04  0.21624069620E+04  0.25500000920E-02 0. -1.
    10030    2    1    2    0    0  0.00000000000E+00  0.00000000000E+00 -0.98435300463E+03  0.33404609193E+04  0.31921353849E+04 0.  0.
        5    1    3    3  502    0 -0.39609517521E+03 -0.14497446989E+04 -0.10545084907E+04  0.18359360900E+04  0.46999998093E+01 0.  1.
       -5    1    3    3    0  502  0.39609517521E+03  0.14497446989E+04  0.70155486063E+02  0.15045248293E+04  0.46999998093E+01 0. -1.
</event>
<event>
 5   0  0.6288000E-06  0.1748642E+04  0.7818609E-02  0.8734098E-01
        3   -1    0    0  501    0  0.00000000000E+00  0.00000000000E+00  0.62621881711E+03  0.62621882525E+03  0.10100000352E+00 0. -1.
       -3   -1    0    0    0  501  0.00000000000E+00  0.00000000000E+00 -0.12207194184E+04  0.12207194226E+04  0.10100000352E+00 0.  1.
    10030    2    1    2    0    0  0.00000000000E+00  0.00000000000E+00 -0.59450060129E+03  0.18469382478E+04  0.17486423094E+04 0.  0.
        3    1    3    3  502    0  0.18645510067E+03  0.78965181384E+01  0.60493690999E+03  0.63306913906E+03  0.10100000352E+00 0. -1.
       -3    1    3    3    0  502 -0.18645510067E+03 -0.78965181384E+01 -0.11994375113E+04  0.12138691088E+04  0.10100000352E+00 0.  1.
</event>
<event>
 5   0  0.1904553E-05  0.2844751E+04  0.7818609E-02  0.8289508E-01
        2   -1    0    0  501    0  0.00000000000E+00  0.00000000000E+00  0.16900044299E+04  0.16900044299E+04  0.25500000920E-02 0.  1.
       -2   -1    0    0    0  501  0.00000000000E+00  0.00000000000E+00 -0.11971282847E+04  0.11971282847E+04  0.25500000920E-02 0. -1.
    10030    2    1    2    0    0  0.00000000000E+00  0.00000000000E+00  0.49287614522E+03  0.28871327146E+04  0.28447510290E+04 0.  0.
        1    1    3    3  502    0  0.76809299032E+03  0.65238756211E+02  0.14596253163E+04  0.16506753167E+04  0.50400001928E-02 0.  1.
       -1    1    3    3    0  502 -0.76809299032E+03 -0.65238756211E+02 -0.96674917108E+03  0.12364573979E+04  0.50400001928E-02 0. -1.
</event>
<event>
 5   0  0.7388013E-06  0.2787633E+04  0.7818609E-02  0.8307118E-01
        1   -1    0    0  501    0  0.00000000000E+00  0.00000000000E+00  0.19941740850E+04  0.19941740850E+04  0.50400001928E-02 0. -1.
       -1   -1    0    0    0  501  0.00000000000E+00  0.00000000000E+00 -0.97419989244E+03  0.97419989245E+03  0.50400001928E-02 0.  1.
    10030    2    1    2    0    0  0.00000000000E+00  0.00000000000E+00  0.10199741925E+04  0.29683739774E+04  0.27876328159E+04 0.  0.
        1    1    3    3  502    0 -0.89674477456E+03 -0.82193514958E+03  0.12345422974E+04  0.17331541377E+04  0.50400001928E-02 0. -1.
       -1    1    3    3    0  502  0.89674477456E+03  0.82193514958E+03 -0.21456810489E+03  0.12352198397E+04  0.50400001928E-02 0.  1.
</event>
<event>
 5   0  0.1923559E-05  0.2718582E+04  0.7818609E-02  0.8329001E-01
        2   -1    0    0  501    0  0.00000000000E+00  0.00000000000E+00  0.12932976282E+04  0.12932976282E+04  0.25500000920E-02 0.  1.
       -2   -1    0    0    0  501  0.00000000000E+00  0.00000000000E+00 -0.14286514566E+04  0.14286514566E+04  0.25500000920E-02 0. -1.
    10030    2    1    2    0    0  0.00000000000E+00  0.00000000000E+00 -0.13535382843E+03  0.27219490849E+04  0.27185816452E+04 0.  0.
        4    1    3    3  502    0 -0.58079774346E+03 -0.17327393113E+02 -0.12980373875E+04  0.14221564364E+04  0.12699999809E+01 0. -1.
       -4    1    3    3    0  502  0.58079774346E+03  0.17327393113E+02  0.11626835591E+04  0.12997926484E+04  0.12699999809E+01 0.  1.
</event>
<event>
 5   0  0.1874272E-05  0.2751797E+04  0.7818609E-02  0.8318392E-01
       -2   -1    0    0    0  501  0.00000000000E+00  0.00000000000E+00  0.91847900861E+03  0.91847900862E+03  0.25500000920E-02 0. -1.
        2   -1    0    0  501    0  0.00000000000E+00  0.00000000000E+00 -0.20611216322E+04  0.20611216322E+04  0.25500000920E-02 0.  1.
    10030    2    1    2    0    0  0.00000000000E+00  0.00000000000E+00 -0.11426426236E+04  0.29796006408E+04  0.27517971970E+04 0.  0.
        3    1    3    3  502    0  0.10177542977E+03 -0.52003951975E+03  0.80355693046E+03  0.96255030565E+03  0.10100000352E+00 0. -1.
       -3    1    3    3    0  502 -0.10177542977E+03  0.52003951975E+03 -0.19461995541E+04  0.20170503352E+04  0.10100000352E+00 0.  1.
</event>
<event>
 5   0  0.7555871E-06  0.2827233E+04  0.7818609E-02  0.8294863E-01
        1   -1    0    0  501    0  0.00000000000E+00  0.00000000000E+00  0.13953021251E+04  0.13953021251E+04  0.50400001928E-02 0. -1.
       -1   -1    0    0    0  501  0.00000000000E+00  0.00000000000E+00 -0.14321712022E+04  0.14321712022E+04  0.50400001928E-02 0.  1.
    10030    2    1    2    0    0  0.00000000000E+00  0.00000000000E+00 -0.36869077065E+02  0.28274733274E+04  0.28272329384E+04 0.  0.
        3    1    3    3  502    0  0.11857065361E+04 -0.60844698309E+03  0.45299051257E+03  0.14075894769E+04  0.10100000352E+00 0.  1.
       -3    1    3    3    0  502 -0.11857065361E+04  0.60844698309E+03 -0.48985958963E+03  0.14198838504E+04  0.10100000352E+00 0. -1.
</event>
<event>
 5   0  0.7613444E-06  0.2835602E+04  0.7818609E-02  0.8292300E-01
        1   -1    0    0  501    0  0.00000000000E+00  0.00000000000E+00  0.17082536774E+04  0.17082536774E+04  0.50400001928E-02 0. -1.
       -1   -1    0    0    0  501  0.00000000000E+00  0.00000000000E+00 -0.11767337469E+04  0.11767337469E+04  0.50400001928E-02 0.  1.
    10030    2    1    2    0    0  0.00000000000E+00  0.00000000000E+00  0.53151993046E+03  0.28849874243E+04  0.28356020528E+04 0.  0.
        5    1    3    3  502    0 -0.96822627921E+03  0.98561845291E+03 -0.57950781414E+02  0.13828543833E+04  0.46999998093E+01 0.  1.
       -5    1    3    3    0  502  0.96822627921E+03 -0.98561845291E+03  0.58947071188E+03  0.15021330409E+04  0.46999998093E+01 0. -1.
</event>
<event>
 5   0  0.7509685E-06  0.2781225E+04  0.7818609E-02  0.8309121E-01
       -1   -1    0    0    0  501  0.00000000000E+00  0.00000000000E+00  0.18372095419E+04  0.18372095419E+04  0.50400001928E-02 0.  1.
        1   -1    0    0  501    0  0.00000000000E+00  0.00000000000E+00 -0.10525763197E+04  0.10525763197E+04  0.50400001928E-02 0. -1.
    10030    2    1    2    0    0  0.00000000000E+00  0.00000000000E+00  0.78463322214E+03  0.28897858616E+04  0.27812250956E+04 0.  0.
        4    1    3    3  502    0 -0.11040934566E+04  0.34089995702E+03 -0.41155321494E+03  0.12266265948E+04  0.12699999809E+01 0. -1.
       -4    1    3    3    0  502  0.11040934566E+04 -0.34089995702E+03  0.11961864371E+04  0.16631592668E+04  0.12699999809E+01 0.  1.
</event>
<event>
 5   0  0.1814230E-05  0.2801104E+04  0.7818609E-02  0.8302926E-01
        2   -1    0    0  501    0  0.00000000000E+00  0.00000000000E+00  0.17170783496E+04  0.17170783496E+04  0.25500000920E-02 0.  1.
       -2   -1    0    0    0  501  0.00000000000E+00  0.00000000000E+00 -0.11423737390E+04  0.11423737390E+04  0.25500000920E-02 0. -1.
    10030    2    1    2    0    0  0.00000000000E+00  0.00000000000E+00  0.57470461056E+03  0.28594520886E+04  0.28011035071E+04 0.  0.
        5    1    3    3  502    0 -0.70073139179E+03  0.99358952056E+03  0.99701570383E+03  0.15723571549E+04  0.46999998093E+01 0.  1.
       -5    1    3    3    0  502  0.70073139179E+03 -0.99358952056E+03 -0.42231109328E+03  0.12870949337E+04  0.46999998093E+01 0. -1.
</event>
<event>
 5   0  0.1832502E-05  0.2564274E+04  0.7818609E-02  0.8380439E-01
        2   -1    0    0  501    0  0.00000000000E+00  0.00000000000E+00  0.16164879476E+04  0.16164879476E+04  0.25500000920E-02 0. -1.
       -2   -1    0    0    0  501  0.00000000000E+00  0.00000000000E+00 -0.10169423533E+04  0.10169423533E+04  0.25500000920E-02 0.  1.
    10030    2    1    2    0    0  0.00000000000E+00  0.00000000000E+00  0.59954559427E+03  0.26334303010E+04  0.25642738213E+04 0.  0.
        2    1    3    3  502    0  0.10451873890E+04 -0.70488408869E+03  0.59811595646E+02  0.12620838655E+04  0.25500000920E-02 0.  1.
       -2    1    3    3    0  502 -0.10451873890E+04  0.70488408869E+03  0.53973399863E+03  0.13713464354E+04  0.25500000920E-02 0. -1.
</event>
<event>
 5   0  0.1874272E-05  0.1728433E+04  0.7818609E-02  0.8745312E-01
        2   -1    0    0  501    0  0.00000000000E+00  0.00000000000E+00  0.14153527947E+04  0.14153527947E+04  0.25500000920E-02 0.  1.
       -2   -1    0    0    0  501  0.00000000000E+00  0.00000000000E+00 -0.52769212529E+03  0.52769212529E+03  0.25500000920E-02 0. -1.
    10030    2    1    2    0    0  0.00000000000E+00  0.00000000000E+00  0.88766066943E+03  0.19430449200E+04  0.17284334228E+04 0.  0.
        3    1    3    3  502    0 -0.37079783320E+03 -0.65487138348E+03  0.92146561543E+03  0.11897253686E+04  0.10100000352E+00 0.  1.
       -3    1    3    3    0  502  0.37079783320E+03  0.65487138348E+03 -0.33804946002E+02  0.75331955144E+03  0.10100000352E+00 0. -1.
</event>
<event>
 5   0  0.1832502E-05  0.1961841E+04  0.7818609E-02  0.8624672E-01
        2   -1    0    0  501    0  0.00000000000E+00  0.00000000000E+00  0.92124124439E+03  0.92124124440E+03  0.25500000920E-02 0. -1.
       -2   -1    0    0    0  501  0.00000000000E+00  0.00000000000E+00 -0.10444656971E+04  0.10444656971E+04  0.25500000920E-02 0.  1.
    10030    2    1    2    0    0  0.00000000000E+00  0.00000000000E+00 -0.12322445271E+03  0.19657069415E+04  0.19618408483E+04 0.  0.
        2    1    3    3  502    0  0.93134801922E+03  0.69088006344E+02 -0.36224114689E+03  0.10016990237E+04  0.25500000920E-02 0.  1.
       -2    1    3    3    0  502 -0.93134801922E+03 -0.69088006344E+02  0.23901669419E+03  0.96400791783E+03  0.25500000920E-02 0. -1.
</event>
<event>
 5   0  0.1874272E-05  0.2633444E+04  0.7818609E-02  0.8356929E-01
        2   -1    0    0  501    0  0.00000000000E+00  0.00000000000E+00  0.12928263601E+04  0.12928263601E+04  0.25500000920E-02 0.  1.
       -2   -1    0    0    0  501  0.00000000000E+00  0.00000000000E+00 -0.13410589225E+04  0.13410589225E+04  0.25500000920E-02 0. -1.
    10030    2    1    2    0    0  0.00000000000E+00  0.00000000000E+00 -0.48232562415E+02  0.26338852826E+04  0.26334436204E+04 0.  0.
        3    1    3    3  502    0  0.50430415397E+03 -0.12128722576E+04 -0.11564404528E+03  0.13186187274E+04  0.10100000352E+00 0.  1.
       -3    1    3    3    0  502 -0.50430415397E+03  0.12128722576E+04  0.67411482867E+02  0.13152665551E+04  0.10100000352E+00 0. -1.
</event>
<event>
 5   0  0.1814230E-05  0.2852341E+04  0.7818609E-02  0.8287200E-01
        2   -1    0    0  501    0  0.00000000000E+00  0.00000000000E+00  0.22839295913E+04  0.22839295913E+04  0.25500000920E-02 0. -1.
       -2   -1    0    0    0  501  0.00000000000E+00  0.00000000000E+00 -0.89055380187E+03  0.89055380188E+03  0.25500000920E-02 0.  1.
    10030    2    1    2    0    0  0.00000000000E+00  0.00000000000E+00  0.13933757895E+04  0.31744833932E+04  0.28523409199E+04 0.  0.
        5    1    3    3  502    0 -0.39656112761E+03  0.57007147381E+03 -0.68966952198E+03  0.97872792579E+03  0.46999998093E+01 0.  1.
       -5    1    3    3    0  502  0.39656112761E+03 -0.57007147381E+03  0.20830453114E+04  0.21957554674E+04  0.46999998093E+01 0. -1.
</event>
<event>
 5   0  0.1923559E-05  0.2810608E+04  0.7818609E-02  0.8299982E-01
       -2   -1    0    0    0  501  0.00000000000E+00  0.00000000000E+00  0.97154631715E+03  0.97154631715E+03  0.25500000920E-02 0. -1.
        2   -1    0    0  501    0  0.00000000000E+00  0.00000000000E+00 -0.20327180614E+04  0.20327180614E+04  0.25500000920E-02 0.  1.
    10030    2    1    2    0    0  0.00000000000E+00  0.00000000000E+00 -0.10611717443E+04  0.30042643786E+04  0.28106082946E+04 0.  0.
        4    1    3    3  502    0 -0.89930507482E+03  0.79014538814E+03  0.25620051424E+03  0.12242220666E+04  0.12699999809E+01 0. -1.
       -4    1    3    3    0  502  0.89930507482E+03 -0.79014538814E+03 -0.13173722585E+04  0.17800423120E+04  0.12699999809E+01 0.  1.
</event>
<event>
 5   0  0.1923559E-05  0.2691167E+04  0.7818609E-02  0.8337877E-01
        2   -1    0    0  501    0  0.00000000000E+00  0.00000000000E+00  0.15355811611E+04  0.15355811611E+04  0.25500000920E-02 0. -1.
       -2   -1    0    0    0  501  0.00000000000E+00  0.00000000000E+00 -0.11790938635E+04  0.11790938635E+04  0.25500000920E-02 0.  1.
    10030    2    1    2    0    0  0.00000000000E+00  0.00000000000E+00  0.35648729766E+03  0.27146750246E+04  0.26911665307E+04 0.  0.
        4    1    3    3  502    0 -0.58895802377E+02  0.95657942301E+03  0.11309940227E+04  0.14824513484E+04  0.12699999809E+01 0. -1.
       -4    1    3    3    0  502  0.58895802377E+02 -0.95657942301E+03 -0.77450672507E+03  0.12322236762E+04  0.12699999809E+01 0.  1.
</event>
<event>
 5   0  0.7388013E-06  0.2737784E+04  0.7818609E-02  0.8322848E-01
        1   -1    0    0  501    0  0.00000000000E+00  0.00000000000E+00  0.21742451586E+04  0.21742451586E+04  0.50400001928E-02 0. -1.
       -1   -1    0    0    0  501  0.00000000000E+00  0.00000000000E+00 -0.86184668403E+03  0.86184668405E+03  0.50400001928E-02 0.  1.
    10030    2    1    2    0    0  0.00000000000E+00  0.00000000000E+00  0.13123984745E+04  0.30360918426E+04  0.27377844913E+04 0.  0.
        1    1    3    3  502    0 -0.53235980833E+03 -0.65339195510E+03 -0.54000662280E+03  0.10009671149E+04  0.50400001928E-02 0.  1.
       -1    1    3    3    0  502  0.53235980833E+03  0.65339195510E+03  0.18524050974E+04  0.20351247277E+04  0.50400001928E-02 0. -1.
</event>
<event>
 5   0  0.1832502E-05  0.2702085E+04  0.7818609E-02  0.8334329E-01
       -2   -1    0    0    0  501  0.00000000000E+00  0.00000000000E+00  0.82593604390E+03  0.82593604390E+03  0.25500000920E-02 0.  1.
        2   -1    0    0  501    0  0.00000000000E+00  0.00000000000E+00 -0.22099961762E+04  0.22099961762E+04  0.25500000920E-02 0. -1.
    10030    2    1    2    0    0  0.00000000000E+00  0.00000000000E+00 -0.13840601323E+04  0.30359322201E+04  0.27020847499E+04 0.  0.
        2    1    3    3  502    0 -0.78575569368E+03 -0.10263933142E+04 -0.25051529768E+03  0.13166826345E+04  0.25500000920E-02 0. -1.
       -2    1    3    3    0  502  0.78575569368E+03  0.10263933142E+04 -0.11335448347E+04  0.17192495857E+04  0.25500000920E-02 0.  1.
</event>
<event>
 5   0  0.7613444E-06  0.2830437E+04  0.7818609E-02  0.8293881E-01
       -1   -1    0    0    0  501  0.00000000000E+00  0.00000000000E+00  0.92346287843E+03  0.92346287844E+03  0.50400001928E-02 0.  1.
        1   -1    0    0  501    0  0.00000000000E+00  0.00000000000E+00 -0.21688395174E+04  0.21688395174E+04  0.50400001928E-02 0. -1.
    10030    2    1    2    0    0  0.00000000000E+00  0.00000000000E+00 -0.12453766390E+04  0.30923023959E+04  0.28304365625E+04 0.  0.
        5    1    3    3  502    0 -0.96196013307E+03 -0.14625096007E+03 -0.17454140122E+04  0.19983114884E+04  0.46999998093E+01 0. -1.
       -5    1    3    3    0  502  0.96196013307E+03  0.14625096007E+03  0.50003737319E+03  0.10939909074E+04  0.46999998093E+01 0.  1.
</event>
<event>
 5   0  0.7388013E-06  0.2711463E+04  0.7818609E-02  0.8331295E-01
        1   -1    0    0  501    0  0.00000000000E+00  0.00000000000E+00  0.20799902165E+04  0.20799902165E+04  0.50400001928E-02 0.  1.
       -1   -1    0    0    0  501  0.00000000000E+00  0.00000000000E+00 -0.88366180214E+03  0.88366180215E+03  0.50400001928E-02 0. -1.
    10030    2    1    2    0    0  0.00000000000E+00  0.00000000000E+00  0.11963284143E+04  0.29636520186E+04  0.27114630023E+04 0.  0.
        1    1    3    3  502    0 -0.42683572533E+03  0.11827588352E+04  0.11521596263E+04  0.17054556585E+04  0.50400001928E-02 0. -1.
       -1    1    3    3    0  502  0.42683572533E+03 -0.11827588352E+04  0.44168788078E+02  0.12581963601E+04  0.50400001928E-02 0.  1.
</event>
<event>
 5   0  0.7613444E-06  0.2806926E+04  0.7818609E-02  0.8301121E-01
        1   -1    0    0  501    0  0.00000000000E+00  0.00000000000E+00  0.11077605889E+04  0.11077605889E+04  0.50400001928E-02 0. -1.
       -1   -1    0    0    0  501  0.00000000000E+00  0.00000000000E+00 -0.17780987334E+04  0.17780987334E+04  0.50400001928E-02 0.  1.
    10030    2    1    2    0    0  0.00000000000E+00  0.00000000000E+00 -0.67033814454E+03  0.28858593223E+04  0.28069255067E+04 0.  0.
        5    1    3    3  502    0 -0.75765032745E+03  0.93446421181E+03  0.40794859593E+03  0.12703155233E+04  0.46999998093E+01 0. -1.
       -5    1    3    3    0  502  0.75765032745E+03 -0.93446421181E+03 -0.10782867405E+04  0.16155437990E+04  0.46999998093E+01 0.  1.
</event>
<event>
 5   0  0.1904553E-05  0.2595906E+04  0.7818609E-02  0.8369593E-01
        2   -1    0    0  501    0  0.00000000000E+00  0.00000000000E+00  0.24176070683E+04  0.24176070683E+04  0.25500000920E-02 0.  1.
       -2   -1    0    0    0  501  0.00000000000E+00  0.00000000000E+00 -0.69683885177E+03  0.69683885178E+03  0.25500000920E-02 0. -1.
    10030    2    1    2    0    0  0.00000000000E+00  0.00000000000E+00  0.17207682165E+04  0.31144459201E+04  0.25959064186E+04 0.  0.
        1    1    3    3  502    0  0.48991829309E+03 -0.12009106004E+04  0.80068113248E+03  0.15242363596E+04  0.50400001928E-02 0. -1.
       -1    1    3    3    0  502 -0.48991829309E+03  0.12009106004E+04  0.92008708405E+03  0.15902095605E+04  0.50400001928E-02 0.  1.
</event>
<event>
 5   0  0.1874272E-05  0.2830909E+04  0.7818609E-02  0.8293736E-01
       -2   -1    0    0    0  501  0.00000000000E+00  0.00000000000E+00  0.12446422139E+04  0.12446422139E+04  0.25500000920E-02 0.  1.
        2   -1    0    0  501    0  0.00000000000E+00  0.00000000000E+00 -0.16097085079E+04  0.16097085079E+04  0.25500000920E-02 0. -1.
    10030    2    1    2    0    0  0.00000000000E+00  0.00000000000E+00 -0.36506629395E+03  0.28543507218E+04  0.28309088018E+04 0.  0.
        3    1    3    3  502    0 -0.81568717730E+03 -0.10777196683E+04 -0.60635407489E+03  0.14813812909E+04  0.10100000352E+00 0. -1.
       -3    1    3    3    0  502  0.81568717730E+03  0.10777196683E+04  0.24128778095E+03  0.13729694309E+04  0.10100000352E+00 0.  1.
</event>
<event>
 5   0  0.1814230E-05  0.2825037E+04  0.7818609E-02  0.8295537E-01
       -2   -1    0    0    0  501  0.00000000000E+00  0.00000000000E+00  0.28219799188E+04  0.28219799188E+04  0.25500000920E-02 0. -1.
        2   -1    0    0  501    0  0.00000000000E+00  0.00000000000E+00 -0.70702431824E+03  0.70702431824E+03  0.25500000920E-02 0.  1.
    10030    2    1    2    0    0  0.00000000000E+00  0.00000000000E+00  0.21149556005E+04  0.35290042370E+04  0.28250369401E+04 0.  0.
        5    1    3    3  502    0  0.47877900049E+03 -0.56625725308E+03  0.25592653930E+04  0.26645333644E+04  0.46999998093E+01 0. -1.
       -5    1    3    3    0  502 -0.47877900049E+03  0.56625725308E+03 -0.44430979247E+03  0.86447087265E+03  0.46999998093E+01 0.  1.
</event>
<event>
 5   0  0.7613444E-06  0.3149682E+04  0.7818609E-02  0.8202234E-01
        1   -1    0    0  501    0  0.00000000000E+00  0.00000000000E+00  0.23242943469E+04  0.23242943469E+04  0.50400001928E-02 0.  1.
       -1   -1    0    0    0  501  0.00000000000E+00  0.00000000000E+00 -0.10670439341E+04  0.10670439341E+04  0.50400001928E-02 0. -1.
    10030    2    1    2    0    0  0.00000000000E+00  0.00000000000E+00  0.12572504128E+04  0.33913382810E+04  0.31496820055E+04 0.  0.
        5    1    3    3  502    0  0.51446377369E+03  0.10372309601E+04 -0.52079019802E+03  0.12695532912E+04  0.46999998093E+01 0.  1.
       -5    1    3    3    0  502 -0.51446377369E+03 -0.10372309601E+04  0.17780406109E+04  0.21217849898E+04  0.46999998093E+01 0. -1.
</event>
<event>
 5   0  0.1874272E-05  0.2740833E+04  0.7818609E-02  0.8321876E-01
       -2   -1    0    0    0  501  0.00000000000E+00  0.00000000000E+00  0.13625010230E+04  0.13625010230E+04  0.25500000920E-02 0.  1.
        2   -1    0    0  501    0  0.00000000000E+00  0.00000000000E+00 -0.13783783463E+04  0.13783783463E+04  0.25500000920E-02 0. -1.
    10030    2    1    2    0    0  0.00000000000E+00  0.00000000000E+00 -0.15877323377E+02  0.27408793693E+04  0.27408333819E+04 0.  0.
        3    1    3    3  502    0 -0.59449855788E+03 -0.26322764746E+03  0.11984499175E+04  0.13634513356E+04  0.10100000352E+00 0.  1.
       -3    1    3    3    0  502  0.59449855788E+03  0.26322764746E+03 -0.12143272409E+04  0.13774280336E+04  0.10100000352E+00 0. -1.
</event>
<event>
 5   0  0.1923559E-05  0.2718009E+04  0.7818609E-02  0.8329185E-01
       -2   -1    0    0    0  501  0.00000000000E+00  0.00000000000E+00  0.14976906305E+04  0.14976906305E+04  0.25500000920E-02 0. -1.
        2   -1    0    0  501    0  0.00000000000E+00  0.00000000000E+00 -0.12331610220E+04  0.12331610220E+04  0.25500000920E-02 0.  1.
    10030    2    1    2    0    0  0.00000000000E+00  0.00000000000E+00  0.26452960854E+03  0.27308516525E+04  0.27180093514E+04 0.  0.
        4    1    3    3  502    0  0.23984315408E+03 -0.65064086146E+03  0.13065616354E+04  0.14791765240E+04  0.12699999809E+01 0. -1.
       -4    1    3    3    0  502 -0.23984315408E+03  0.65064086146E+03 -0.10420320269E+04  0.12516751284E+04  0.12699999809E+01 0.  1.
</event>
<event>
 5   0  0.1814230E-05  0.2714471E+04  0.7818609E-02  0.8330325E-01
        2   -1    0    0  501    0  0.00000000000E+00  0.00000000000E+00  0.16770276619E+04  0.16770276619E+04  0.25500000920E-02 0.  1.
       -2   -1    0    0    0  501  0.00000000000E+00  0.00000000000E+00 -0.10984241139E+04  0.10984241139E+04  0.25500000920E-02 0. -1.
    10030    2    1    2    0    0  0.00000000000E+00  0.00000000000E+00  0.57860354794E+03  0.27754517758E+04  0.27144705735E+04 0.  0.
        5    1    3    3  502    0  0.10520984746E+04 -0.51722729473E+03 -0.40989569954E+03  0.12419629017E+04  0.46999998093E+01 0. -1.
       -5    1    3    3    0  502 -0.10520984746E+04  0.51722729473E+03  0.98849924747E+03  0.15334888741E+04  0.46999998093E+01 0.  1.
</event>
<event>
 5   0  0.7613444E-06  0.2779196E+04  0.7818609E-02  0.8309757E-01
       -1   -1    0    0    0  501  0.00000000000E+00  0.00000000000E+00  0.91119079362E+03  0.91119079364E+03  0.50400001928E-02 0.  1.
        1   -1    0    0  501    0  0.00000000000E+00  0.00000000000E+00 -0.21191852845E+04  0.21191852845E+04  0.50400001928E-02 0. -1.
    10030    2    1    2    0    0  0.00000000000E+00  0.00000000000E+00 -0.12079944908E+04  0.30303760781E+04  0.27791956543E+04 0.  0.
        5    1    3    3  502    0 -0.78927689095E+03 -0.64429858078E+03 -0.16343223579E+04  0.19259050681E+04  0.46999998093E+01 0. -1.
       -5    1    3    3    0  502  0.78927689095E+03  0.64429858078E+03  0.42632786704E+03  0.11044710100E+04  0.46999998093E+01 0.  1.
</event>
<event>
 5   0  0.1874272E-05  0.2785872E+04  0.7818609E-02  0.8307668E-01
       -2   -1    0    0    0  501  0.00000000000E+00  0.00000000000E+00  0.16225864420E+04  0.16225864420E+04  0.25500000920E-02 0.  1.
        2   -1    0    0  501    0  0.00000000000E+00  0.00000000000E+00 -0.11957883880E+04  0.11957883880E+04  0.25500000920E-02 0. -1.
    10030    2    1    2    0    0  0.00000000000E+00  0.00000000000E+00  0.42679805408E+03  0.28183748300E+04  0.27858715159E+04 0.  0.
        3    1    3    3  502    0 -0.42944272068E+03 -0.12278518837E+04  0.71743749160E+03  0.14855160259E+04  0.10100000352E+00 0. -1.
       -3    1    3    3    0  502  0.42944272068E+03  0.12278518837E+04 -0.29063943752E+03  0.13328588041E+04  0.10100000352E+00 0.  1.
</event>
<event>
 5   0  0.1904553E-05  0.2827568E+04  0.7818609E-02  0.8294760E-01
        2   -1    0    0  501    0  0.00000000000E+00  0.00000000000E+00  0.21342782563E+04  0.21342782563E+04  0.25500000920E-02 0.  1.
       -2   -1    0    0    0  501  0.00000000000E+00  0.00000000000E+00 -0.93651607232E+03  0.93651607232E+03  0.25500000920E-02 0. -1.
    10030    2    1    2    0    0  0.00000000000E+00  0.00000000000E+00  0.11977621840E+04  0.30707943286E+04  0.28275684889E+04 0.  0.
        1    1    3    3  502    0 -0.95928549623E+03 -0.25270643227E+03 -0.49508967665E+03  0.11086942735E+04  0.50400001928E-02 0. -1.
       -1    1    3    3    0  502  0.95928549623E+03  0.25270643227E+03  0.16928518607E+04  0.19621000551E+04  0.50400001928E-02 0.  1.
</event>
<event>
 5   0  0.1923559E-05  0.2660208E+04  0.7818609E-02  0.8348033E-01
        2   -1    0    0  501    0  0.00000000000E+00  0.00000000000E+00  0.17140246649E+04  0.17140246649E+04  0.25500000920E-02 0. -1.
       -2   -1    0    0    0  501  0.00000000000E+00  0.00000000000E+00 -0.10321766468E+04  0.10321766468E+04  0.25500000920E-02 0.  1.
    10030    2    1    2    0    0  0.00000000000E+00  0.00000000000E+00  0.68184801815E+03  0.27462013117E+04  0.26602076845E+04 0.  0.
        4    1    3    3  502    0 -0.60635411140E+03 -0.64085520351E+03 -0.68664944378E+03  0.11179668027E+04  0.12699999809E+01 0.  1.
       -4    1    3    3    0  502  0.60635411140E+03  0.64085520351E+03  0.13684974619E+04  0.16282345091E+04  0.12699999809E+01 0. -1.
</event>
<event>
 5   0  0.1904553E-05  0.2795505E+04  0.7818609E-02  0.8304665E-01
        2   -1    0    0  501    0  0.00000000000E+00  0.00000000000E+00  0.12152542513E+04  0.12152542513E+04  0.25500000920E-02 0.  1.
       -2   -1    0    0    0  501  0.00000000000E+00  0.00000000000E+00 -0.16076567708E+04  0.16076567708E+04  0.25500000920E-02 0. -1.
    10030    2    1    2    0    0  0.00000000000E+00  0.00000000000E+00 -0.39240251958E+03  0.28229110221E+04  0.27955047668E+04 0.  0.
        1    1    3    3  502    0 -0.19293295220E+03  0.97464912431E+03 -0.11889711455E+04  0.15494568159E+04  0.50400001928E-02 0. -1.
       -1    1    3    3    0  502  0.19293295220E+03 -0.97464912431E+03  0.79656862589E+03  0.12734542062E+04  0.50400001928E-02 0.  1.
</event>
<event>
 5   0  0.1874272E-05  0.2519337E+04  0.7818609E-02  0.8396129E-01
        2   -1    0    0  501    0  0.00000000000E+00  0.00000000000E+00  0.16729225156E+04  0.16729225156E+04  0.25500000920E-02 0. -1.
       -2   -1    0    0    0  501  0.00000000000E+00  0.00000000000E+00 -0.94849889690E+03  0.94849889690E+03  0.25500000920E-02 0.  1.
    10030    2    1    2    0    0  0.00000000000E+00  0.00000000000E+00  0.72442361867E+03  0.26214214125E+04  0.25193373419E+04 0.  0.
        3    1    3    3  502    0  0.99494875619E+03 -0.75637841358E+03  0.52585430832E+03  0.13559329245E+04  0.10100000352E+00 0. -1.
       -3    1    3    3    0  502 -0.99494875619E+03  0.75637841358E+03  0.19856931035E+03  0.12654884880E+04  0.10100000352E+00 0.  1.
</event>
<event>
 5   0  0.1832502E-05  0.2957047E+04  0.7818609E-02  0.8256104E-01
       -2   -1    0    0    0  501  0.00000000000E+00  0.00000000000E+00  0.14170160537E+04  0.14170160537E+04  0.25500000920E-02 0.  1.
        2   -1    0    0  501    0  0.00000000000E+00  0.00000000000E+00 -0.15427008059E+04  0.15427008059E+04  0.25500000920E-02 0. -1.
    10030    2    1    2    0    0  0.00000000000E+00  0.00000000000E+00 -0.12568475223E+03  0.29597168597E+04  0.29570470460E+04 0.  0.
        2    1    3    3  502    0 -0.55549123222E+03  0.11407126155E+04 -0.82262986227E+03  0.15121229019E+04  0.25500000920E-02 0. -1.
       -2    1    3    3    0  502  0.55549123222E+03 -0.11407126155E+04  0.69694511004E+03  0.14475939578E+04  0.25500000920E-02 0.  1.
</event>
<event>
 5   0  0.1904553E-05  0.2689922E+04  0.7818609E-02  0.8338282E-01
        2   -1    0    0  501    0  0.00000000000E+00  0.00000000000E+00  0.16373756764E+04  0.16373756764E+04  0.25500000920E-02 0.  1.
       -2   -1    0    0    0  501  0.00000000000E+00  0.00000000000E+00 -0.11047676359E+04  0.11047676359E+04  0.25500000920E-02 0. -1.
    10030    2    1    2    0    0  0.00000000000E+00  0.00000000000E+00  0.53260804050E+03  0.27421433123E+04  0.26899216755E+04 0.  0.
        1    1    3    3  502    0 -0.10356893615E+04 -0.85024621063E+03  0.14852495739E+03  0.13481953624E+04  0.50400001928E-02 0.  1.
       -1    1    3    3    0  502  0.10356893615E+04  0.85024621063E+03  0.38408308311E+03  0.13939479499E+04  0.50400001928E-02 0. -1.
</event>
<event>
 5   0  0.1832502E-05  0.2885040E+04  0.7818609E-02  0.8277343E-01
       -2   -1    0    0    0  501  0.00000000000E+00  0.00000000000E+00  0.96545935062E+03  0.96545935062E+03  0.25500000920E-02 0.  1.
        2   -1    0    0  501    0  0.00000000000E+00  0.00000000000E+00 -0.21553092551E+04  0.21553092551E+04  0.25500000920E-02 0. -1.
    10030    2    1    2    0    0  0.00000000000E+00  0.00000000000E+00 -0.11898499045E+04  0.31207686057E+04  0.28850396696E+04 0.  0.
        2    1    3    3  502    0  0.26235332518E+03 -0.55760871358E+03 -0.20057577934E+04  0.20982900348E+04  0.25500000920E-02 0. -1.
       -2    1    3    3    0  502 -0.26235332518E+03  0.55760871358E+03  0.81590788890E+03  0.10224785709E+04  0.25500000920E-02 0.  1.
</event>
<event>
 5   0  0.7388013E-06  0.2899785E+04  0.7818609E-02  0.8272941E-01
       -1   -1    0    0    0  501  0.00000000000E+00  0.00000000000E+00  0.12246241833E+04  0.12246241833E+04  0.50400001928E-02 0.  1.
        1   -1    0    0  501    0  0.00000000000E+00  0.00000000000E+00 -0.17165987722E+04  0.17165987722E+04  0.50400001928E-02 0. -1.
    10030    2    1    2    0    0  0.00000000000E+00  0.00000000000E+00 -0.49197458891E+03  0.29412229556E+04  0.28997850745E+04 0.  0.
        1    1    3    3  502    0  0.84473546275E+03 -0.35257106537E+03 -0.13864678747E+04  0.16613782007E+04  0.50400001928E-02 0. -1.
       -1    1    3    3    0  502 -0.84473546275E+03  0.35257106537E+03  0.89449328580E+03  0.12798447549E+04  0.50400001928E-02 0.  1.
</event>
<event>
 5   0  0.7681342E-06  0.2774744E+04  0.7818609E-02  0.8311153E-01
       -1   -1    0    0    0  501  0.00000000000E+00  0.00000000000E+00  0.66891061424E+03  0.66891061426E+03  0.50400001928E-02 0.  1.
        1   -1    0    0  501    0  0.00000000000E+00  0.00000000000E+00 -0.28775154771E+04  0.28775154771E+04  0.50400001928E-02 0. -1.
    10030    2    1    2    0    0  0.00000000000E+00  0.00000000000E+00 -0.22086048628E+04  0.35464260913E+04  0.27747436965E+04 0.  0.
        2    1    3    3  502    0  0.57426231876E+03  0.86318925810E+03 -0.22826110161E+04  0.25070273147E+04  0.25500000920E-02 0.  1.
       -2    1    3    3    0  502 -0.57426231876E+03 -0.86318925810E+03  0.74006153276E+02  0.10393987766E+04  0.25500000920E-02 0. -1.
</event>
<event>
 5   0  0.7509685E-06  0.2806359E+04  0.7818609E-02  0.8301297E-01
        1   -1    0    0  501    0  0.00000000000E+00  0.00000000000E+00  0.19177987846E+04  0.19177987846E+04  0.50400001928E-02 0.  1.
       -1   -1    0    0    0  501  0.00000000000E+00  0.00000000000E+00 -0.10266521684E+04  0.10266521684E+04  0.50400001928E-02 0. -1.
    10030    2    1    2    0    0  0.00000000000E+00  0.00000000000E+00  0.89114661618E+03  0.29444509530E+04  0.28063586947E+04 0.  0.
        4    1    3    3  502    0 -0.10705546077E+04 -0.84445191079E+03  0.79311978569E+03  0.15774114254E+04  0.12699999809E+01 0.  1.
       -4    1    3    3    0  502  0.10705546077E+04  0.84445191079E+03  0.98026830493E+02  0.13670395276E+04  0.12699999809E+01 0. -1.
</event>
<event>
 5   0  0.6288000E-06  0.2514773E+04  0.7818609E-02  0.8397741E-01
        3   -1    0    0  501    0  0.00000000000E+00  0.00000000000E+00  0.10250555611E+04  0.10250555660E+04  0.10100000352E+00 0.  1.
       -3   -1    0    0    0  501  0.00000000000E+00  0.00000000000E+00 -0.15423760777E+04  0.15423760810E+04  0.10100000352E+00 0. -1.
    10030    2    1    2    0    0  0.00000000000E+00  0.00000000000E+00 -0.51732051666E+03  0.25674316471E+04  0.25147732990E+04 0.  0.
        4    1    3    3  502    0 -0.74198988536E+03  0.42970845056E+03 -0.11976035009E+04  0.14729066843E+04  0.12699999809E+01 0. -1.
       -4    1    3    3    0  502  0.74198988536E+03 -0.42970845056E+03  0.68028298425E+03  0.10945249627E+04  0.12699999809E+01 0.  1.
</event>
<event>
 5   0  0.1874272E-05  0.2804003E+04  0.7818609E-02  0.8302027E-01
        2   -1    0    0  501    0  0.00000000000E+00  0.00000000000E+00  0.13178874021E+04  0.13178874021E+04  0.25500000920E-02 0.  1.
       -2   -1    0    0    0  501  0.00000000000E+00  0.00000000000E+00 -0.14914836734E+04  0.14914836734E+04  0.25500000920E-02 0. -1.
    10030    2    1    2    0    0  0.00000000000E+00  0.00000000000E+00 -0.17359627131E+03  0.28093710755E+04  0.28040025275E+04 0.  0.
        3    1    3    3  502    0  0.35060454540E+03 -0.12203482869E+04 -0.68243956401E+03  0.14414913310E+04  0.10100000352E+00 0.  1.
       -3    1    3    3    0  502 -0.35060454540E+03  0.12203482869E+04  0.50884329270E+03  0.13678797445E+04  0.10100000352E+00 0. -1.
</event>
<event>
 5   0  0.1874272E-05  0.2727337E+04  0.7818609E-02  0.8326189E-01
       -2   -1    0    0    0  501  0.00000000000E+00  0.00000000000E+00  0.10258103833E+04  0.10258103833E+04  0.25500000920E-02 0. -1.
        2   -1    0    0  501    0  0.00000000000E+00  0.00000000000E+00 -0.18128028382E+04  0.18128028382E+04  0.25500000920E-02 0.  1.
    10030    2    1    2    0    0  0.00000000000E+00  0.00000000000E+00 -0.78699245490E+03  0.28386132214E+04  0.27273371440E+04 0.  0.
        3    1    3    3  502    0 -0.82168622412E+03 -0.10339747142E+04 -0.74693949825E+03  0.15172971313E+04  0.10100000352E+00 0.  1.
       -3    1    3    3    0  502  0.82168622412E+03  0.10339747142E+04 -0.40052956646E+02  0.13213160901E+04  0.10100000352E+00 0. -1.
</event>
<event>
 5   0  0.7555871E-06  0.2967262E+04  0.7818609E-02  0.8253142E-01
       -1   -1    0    0    0  501  0.00000000000E+00  0.00000000000E+00  0.85052860368E+03  0.85052860369E+03  0.50400001928E-02 0.  1.
        1   -1    0    0  501    0  0.00000000000E+00  0.00000000000E+00 -0.25879913333E+04  0.25879913333E+04  0.50400001928E-02 0. -1.
    10030    2    1    2    0    0  0.00000000000E+00  0.00000000000E+00 -0.17374627296E+04  0.34385199370E+04  0.29672618051E+04 0.  0.
        3    1    3    3  502    0  0.11141327477E+04 -0.52981080824E+02  0.26493611185E+03  0.11464248462E+04  0.10100000352E+00 0.  1.
       -3    1    3    3    0  502 -0.11141327477E+04  0.52981080824E+02 -0.20023988414E+04  0.22920950907E+04  0.10100000352E+00 0. -1.
</event>
<event>
 5   0  0.7509685E-06  0.2812194E+04  0.7818609E-02  0.8299493E-01
       -1   -1    0    0    0  501  0.00000000000E+00  0.00000000000E+00  0.12917010210E+04  0.12917010210E+04  0.50400001928E-02 0.  1.
        1   -1    0    0  501    0  0.00000000000E+00  0.00000000000E+00 -0.15306244431E+04  0.15306244431E+04  0.50400001928E-02 0. -1.
    10030    2    1    2    0    0  0.00000000000E+00  0.00000000000E+00 -0.23892342205E+03  0.28223254641E+04  0.28121942721E+04 0.  0.
        4    1    3    3  502    0 -0.79124048030E+03 -0.29142691661E+03  0.10098103709E+04  0.13155644201E+04  0.12699999809E+01 0.  1.
       -4    1    3    3    0  502  0.79124048030E+03  0.29142691661E+03 -0.12487337929E+04  0.15067610441E+04  0.12699999809E+01 0. -1.
</event>
<event>
 5   0  0.6288000E-06  0.2815612E+04  0.7818609E-02  0.8298438E-01
       -3   -1    0    0    0  501  0.00000000000E+00  0.00000000000E+00  0.14410021876E+04  0.14410021911E+04  0.10100000352E+00 0.  1.
        3   -1    0    0  501    0  0.00000000000E+00  0.00000000000E+00 -0.13753744866E+04  0.13753744903E+04  0.10100000352E+00 0. -1.
    10030    2    1    2    0    0  0.00000000000E+00  0.00000000000E+00  0.65627701012E+02  0.28163766814E+04  0.28156119435E+04 0.  0.
        2    1    3    3  502    0  0.67550826090E+03  0.96642956443E+03  0.80219123496E+03  0.14261165068E+04  0.25500000920E-02 0.  1.
       -2    1    3    3    0  502 -0.67550826090E+03 -0.96642956443E+03 -0.73656353394E+03  0.13902601746E+04  0.25500000920E-02 0. -1.
</event>
<event>
 5   0  0.1923559E-05  0.2829987E+04  0.7818609E-02  0.8294019E-01
       -2   -1    0    0    0  501  0.00000000000E+00  0.00000000000E+00  0.90347879982E+03  0.90347879982E+03  0.25500000920E-02 0. -1.
        2   -1    0    0  501    0  0.00000000000E+00  0.00000000000E+00 -0.22161085797E+04  0.22161085797E+04  0.25500000920E-02 0.  1.
    10030    2    1    2    0    0  0.00000000000E+00  0.00000000000E+00 -0.13126297799E+04  0.31195873795E+04  0.28299873638E+04 0.  0.
        4    1    3    3  502    0  0.63153631490E+03 -0.93193800713E+03 -0.16012775538E+04  0.19574059322E+04  0.12699999809E+01 0.  1.
       -4    1    3    3    0  502 -0.63153631490E+03  0.93193800713E+03  0.28864777395E+03  0.11621814473E+04  0.12699999809E+01 0. -1.
</event>
<event>
 5   0  0.1923559E-05  0.2818972E+04  0.7818609E-02  0.8297402E-01
       -2   -1    0    0    0  501  0.00000000000E+00  0.00000000000E+00  0.17522950748E+04  0.17522950748E+04  0.25500000920E-02 0.  1.
        2   -1    0    0  501    0  0.00000000000E+00  0.00000000000E+00 -0.11337421882E+04  0.11337421882E+04  0.25500000920E-02 0. -1.
    10030    2    1    2    0    0  0.00000000000E+00  0.00000000000E+00  0.61855288656E+03  0.28860372630E+04  0.28189720485E+04 0.  0.
        4    1    3    3  502    0 -0.61434375993E+03  0.37559789749E+03  0.15497783745E+04  0.17088904760E+04  0.12699999809E+01 0.  1.
       -4    1    3    3    0  502  0.61434375993E+03 -0.37559789749E+03 -0.93122548792E+03  0.11771467870E+04  0.12699999809E+01 0. -1.
</event>
<event>
 5   0  0.1874272E-05  0.2753205E+04  0.7818609E-02  0.8317945E-01
        2   -1    0    0  501    0  0.00000000000E+00  0.00000000000E+00  0.13880035964E+04  0.13880035964E+04  0.25500000920E-02 0. -1.
       -2   -1    0    0    0  501  0.00000000000E+00  0.00000000000E+00 -0.13652948723E+04  0.13652948723E+04  0.25500000920E-02 0.  1.
    10030    2    1    2    0    0  0.00000000000E+00  0.00000000000E+00  0.22708724109E+02  0.27532984687E+04  0.27532048183E+04 0.  0.
        3    1    3    3  502    0  0.65448793769E+03 -0.83686415331E+03 -0.86408281213E+03  0.13694287817E+04  0.10100000352E+00 0.  1.
       -3    1    3    3    0  502 -0.65448793769E+03  0.83686415331E+03  0.88679153624E+03  0.13838696870E+04  0.10100000352E+00 0. -1.
</event>
<event>
 5   0  0.7388013E-06  0.2708526E+04  0.7818609E-02  0.8332244E-01
        1   -1    0    0  501    0  0.00000000000E+00  0.00000000000E+00  0.19788679601E+04  0.19788679601E+04  0.50400001928E-02 0. -1.
       -1   -1    0    0    0  501  0.00000000000E+00  0.00000000000E+00 -0.92680691728E+03  0.92680691729E+03  0.50400001928E-02 0.  1.
    10030    2    1    2    0    0  0.00000000000E+00  0.00000000000E+00  0.10520610428E+04  0.29056748774E+04  0.27085261777E+04 0.  0.
        1    1    3    3  502    0  0.54622442893E+03  0.78459941553E+03  0.15550525840E+04  0.18254166397E+04  0.50400001928E-02 0. -1.
       -1    1    3    3    0  502 -0.54622442893E+03 -0.78459941553E+03 -0.50299154114E+03  0.10802582377E+04  0.50400001928E-02 0.  1.
</event>
<event>
 5   0  0.1923559E-05  0.2768265E+04  0.7818609E-02  0.8313189E-01
       -2   -1    0    0    0  501  0.00000000000E+00  0.00000000000E+00  0.97405238544E+03  0.97405238544E+03  0.25500000920E-02 0. -1.
        2   -1    0    0  501    0  0.00000000000E+00  0.00000000000E+00 -0.19668573833E+04  0.19668573833E+04  0.25500000920E-02 0.  1.
    10030    2    1    2    0    0  0.00000000000E+00  0.00000000000E+00 -0.99280499785E+03  0.29409097687E+04  0.27682645293E+04 0.  0.
        4    1    3    3  502    0 -0.13331960738E+04 -0.37189327131E+03 -0.50724366659E+03  0.14741146925E+04  0.12699999809E+01 0. -1.
       -4    1    3    3    0  502  0.13331960738E+04  0.37189327131E+03 -0.48556133126E+03  0.14667950763E+04  0.12699999809E+01 0.  1.
</event>
<event>
 5   0  0.7509685E-06  0.2831432E+04  0.7818609E-02  0.8293576E-01
       -1   -1    0    0    0  501  0.00000000000E+00  0.00000000000E+00  0.11509758997E+04  0.11509758997E+04  0.50400001928E-02 0. -1.
        1   -1    0    0  501    0  0.00000000000E+00  0.00000000000E+00 -0.17413493960E+04  0.17413493960E+04  0.50400001928E-02 0.  1.
    10030    2    1    2    0    0  0.00000000000E+00  0.00000000000E+00 -0.59037349630E+03  0.28923252957E+04  0.28314315727E+04 0.  0.
        4    1    3    3  502    0 -0.48460797456E+03 -0.11477825453E+04 -0.98195504982E+03  0.15863439076E+04  0.12699999809E+01 0.  1.
       -4    1    3    3    0  502  0.48460797456E+03  0.11477825453E+04  0.39158155353E+03  0.13059813882E+04  0.12699999809E+01 0. -1.
</event>
<event>
 5   0  0.1904553E-05  0.2551795E+04  0.7818609E-02  0.8384762E-01
        2   -1    0    0  501    0  0.00000000000E+00  0.00000000000E+00  0.14865302740E+04  0.14865302740E+04  0.25500000920E-02 0.  1.
       -2   -1    0    0    0  501  0.00000000000E+00  0.00000000000E+00 -0.10951097573E+04  0.10951097573E+04  0.25500000920E-02 0. -1.
    10030    2    1    2    0    0  0.00000000000E+00  0.00000000000E+00  0.39142051667E+03  0.25816400313E+04  0.25517945118E+04 0.  0.
        1    1    3    3  502    0 -0.34470335731E+03 -0.61067991618E+00 -0.10471090571E+04  0.11023874795E+04  0.50400001928E-02 0. -1.
       -1    1    3    3    0  502  0.34470335731E+03  0.61067991618E+00  0.14385295738E+04  0.14792525518E+04  0.50400001928E-02 0.  1.
</event>
<event>
 5   0  0.1814230E-05  0.2831941E+04  0.7818609E-02  0.8293420E-01
       -2   -1    0    0    0  501  0.00000000000E+00  0.00000000000E+00  0.98297597724E+03  0.98297597724E+03  0.25500000920E-02 0. -1.
        2   -1    0    0  501    0  0.00000000000E+00  0.00000000000E+00 -0.20396956191E+04  0.20396956191E+04  0.25500000920E-02 0.  1.
    10030    2    1    2    0    0  0.00000000000E+00  0.00000000000E+00 -0.10567196419E+04  0.30226715963E+04  0.28319405322E+04 0.  0.
        5    1    3    3  502    0  0.85123264290E+02  0.79491461965E+02  0.97784639015E+03  0.98476927012E+03  0.46999998093E+01 0. -1.
       -5    1    3    3    0  502 -0.85123264290E+02 -0.79491461965E+02 -0.20345660320E+04  0.20379023262E+04  0.46999998093E+01 0.  1.
</event>
<event>
 5   0  0.7388013E-06  0.2348693E+04  0.7818609E-02  0.8458966E-01
        1   -1    0    0  501    0  0.00000000000E+00  0.00000000000E+00  0.16497589408E+04  0.16497589408E+04  0.50400001928E-02 0.  1.
       -1   -1    0    0    0  501  0.00000000000E+00  0.00000000000E+00 -0.83593398806E+03  0.83593398808E+03  0.50400001928E-02 0. -1.
    10030    2    1    2    0    0  0.00000000000E+00  0.00000000000E+00  0.81382495270E+03  0.24856929289E+04  0.23486928882E+04 0.  0.
        1    1    3    3  502    0 -0.95603813901E+03  0.55882039003E+03  0.82061056739E+03  0.13782927319E+04  0.50400001928E-02 0. -1.
       -1    1    3    3    0  502  0.95603813901E+03 -0.55882039003E+03 -0.67856146828E+01  0.11074001969E+04  0.50400001928E-02 0.  1.
</event>
<event>
 5   0  0.7388013E-06  0.2807299E+04  0.7818609E-02  0.8301006E-01
       -1   -1    0    0    0  501  0.00000000000E+00  0.00000000000E+00  0.89948982545E+03  0.89948982546E+03  0.50400001928E-02 0. -1.
        1   -1    0    0  501    0  0.00000000000E+00  0.00000000000E+00 -0.21903876036E+04  0.21903876036E+04  0.50400001928E-02 0.  1.
    10030    2    1    2    0    0  0.00000000000E+00  0.00000000000E+00 -0.12908977781E+04  0.30898774291E+04  0.28072986042E+04 0.  0.
        1    1    3    3  502    0 -0.99525609161E+03  0.38739273242E+03 -0.16479691928E+04  0.19637744976E+04  0.50400001928E-02 0.  1.
       -1    1    3    3    0  502  0.99525609161E+03 -0.38739273242E+03  0.35707141467E+03  0.11261029314E+04  0.50400001928E-02 0. -1.
</event>
<event>
 5   0  0.7509685E-06  0.2785163E+04  0.7818609E-02  0.8307889E-01
       -1   -1    0    0    0  501  0.00000000000E+00  0.00000000000E+00  0.63242278373E+03  0.63242278375E+03  0.50400001928E-02 0.  1.
        1   -1    0    0  501    0  0.00000000000E+00  0.00000000000E+00 -0.30664353419E+04  0.30664353419E+04  0.50400001928E-02 0. -1.
    10030    2    1    2    0    0  0.00000000000E+00  0.00000000000E+00 -0.24340125582E+04  0.36988581257E+04  0.27851632448E+04 0.  0.
        4    1    3    3  502    0 -0.37291738356E+03 -0.32530802510E+03 -0.29457221355E+04  0.29870007028E+04  0.12699999809E+01 0. -1.
       -4    1    3    3    0  502  0.37291738356E+03  0.32530802510E+03  0.51170957727E+03  0.71185742289E+03  0.12699999809E+01 0.  1.
</event>
<event>
 5   0  0.1923559E-05  0.2782789E+04  0.7818609E-02  0.8308632E-01
        2   -1    0    0  501    0  0.00000000000E+00  0.00000000000E+00  0.11963055767E+04  0.11963055767E+04  0.25500000920E-02 0.  1.
       -2   -1    0    0    0  501  0.00000000000E+00  0.00000000000E+00 -0.16182977393E+04  0.16182977393E+04  0.25500000920E-02 0. -1.
    10030    2    1    2    0    0  0.00000000000E+00  0.00000000000E+00 -0.42199216257E+03  0.28146033160E+04  0.27827889682E+04 0.  0.
        4    1    3    3  502    0 -0.60554256046E+03  0.10704617245E+04  0.44714028373E+03  0.13086275797E+04  0.12699999809E+01 0.  1.
       -4    1    3    3    0  502  0.60554256046E+03 -0.10704617245E+04 -0.86913244630E+03  0.15059757363E+04  0.12699999809E+01 0. -1.
</event>
<event>
 5   0  0.7388013E-06  0.2742436E+04  0.7818609E-02  0.8321366E-01
       -1   -1    0    0    0  501  0.00000000000E+00  0.00000000000E+00  0.10742530812E+04  0.10742530812E+04  0.50400001928E-02 0. -1.
        1   -1    0    0  501    0  0.00000000000E+00  0.00000000000E+00 -0.17502757706E+04  0.17502757706E+04  0.50400001928E-02 0.  1.
    10030    2    1    2    0    0  0.00000000000E+00  0.00000000000E+00 -0.67602268939E+03  0.28245288517E+04  0.27424362450E+04 0.  0.
        1    1    3    3  502    0 -0.10619881394E+03  0.12856302389E+04 -0.81680983789E+03  0.15268600494E+04  0.50400001928E-02 0.  1.
       -1    1    3    3    0  502  0.10619881394E+03 -0.12856302389E+04  0.14078714850E+03  0.12976688023E+04  0.50400001928E-02 0. -1.
</event>
<event>
 5   0  0.1904553E-05  0.2793240E+04  0.7818609E-02  0.8305370E-01
        2   -1    0    0  501    0  0.00000000000E+00  0.00000000000E+00  0.22931603762E+04  0.22931603762E+04  0.25500000920E-02 0.  1.
       -2   -1    0    0    0  501  0.00000000000E+00  0.00000000000E+00 -0.85059365607E+03  0.85059365607E+03  0.25500000920E-02 0. -1.
    10030    2    1    2    0    0  0.00000000000E+00  0.00000000000E+00  0.14425667201E+04  0.31437540323E+04  0.27932401747E+04 0.  0.
        1    1    3    3  502    0  0.65228523456E+03  0.45984704576E+03 -0.56866964530E+03  0.97995943703E+03  0.50400001928E-02 0. -1.
       -1    1    3    3    0  502 -0.65228523456E+03 -0.45984704576E+03  0.20112363654E+04  0.21637945952E+04  0.50400001928E-02 0.  1.
</event>
<event>
 5   0  0.6288000E-06  0.2829917E+04  0.7818609E-02  0.8294040E-01
       -3   -1    0    0    0  501  0.00000000000E+00  0.00000000000E+00  0.14096198152E+04  0.14096198189E+04  0.10100000352E+00 0.  1.
        3   -1    0    0  501    0  0.00000000000E+00  0.00000000000E+00 -0.14203176907E+04  0.14203176943E+04  0.10100000352E+00 0. -1.
    10030    2    1    2    0    0  0.00000000000E+00  0.00000000000E+00 -0.10697875510E+02  0.28299375132E+04  0.28299172928E+04 0.  0.
        4    1    3    3  502    0  0.83946791950E+03 -0.18734266004E+02  0.11335397895E+04  0.14106634708E+04  0.12699999809E+01 0.  1.
       -4    1    3    3    0  502 -0.83946791950E+03  0.18734266004E+02 -0.11442376650E+04  0.14192740424E+04  0.12699999809E+01 0. -1.
</event>
<event>
 5   0  0.1874272E-05  0.2958840E+04  0.7818609E-02  0.8255583E-01
       -2   -1    0    0    0  501  0.00000000000E+00  0.00000000000E+00  0.16834431465E+04  0.16834431465E+04  0.25500000920E-02 0.  1.
        2   -1    0    0  501    0  0.00000000000E+00  0.00000000000E+00 -0.13001231443E+04  0.13001231443E+04  0.25500000920E-02 0. -1.
    10030    2    1    2    0    0  0.00000000000E+00  0.00000000000E+00  0.38332000228E+03  0.29835662908E+04  0.29588399057E+04 0.  0.
        3    1    3    3  502    0  0.10801443570E+04 -0.12415337468E+03  0.12033175295E+04  0.16217579904E+04  0.10100000352E+00 0.  1.
       -3    1    3    3    0  502 -0.10801443570E+04  0.12415337468E+03 -0.81999752723E+03  0.13618083004E+04  0.10100000352E+00 0. -1.
</event>
<event>
 5   0  0.7388013E-06  0.2815007E+04  0.7818609E-02  0.8298624E-01
       -1   -1    0    0    0  501  0.00000000000E+00  0.00000000000E+00  0.13098551023E+04  0.13098551023E+04  0.50400001928E-02 0.  1.
        1   -1    0    0  501    0  0.00000000000E+00  0.00000000000E+00 -0.15124320219E+04  0.15124320219E+04  0.50400001928E-02 0. -1.
    10030    2    1    2    0    0  0.00000000000E+00  0.00000000000E+00 -0.20257691959E+03  0.28222871243E+04  0.28150074962E+04 0.  0.
        1    1    3    3  502    0  0.16335166228E+02  0.47156015062E+02 -0.15115447230E+04  0.15123683338E+04  0.50400001928E-02 0. -1.
       -1    1    3    3    0  502 -0.16335166228E+02 -0.47156015062E+02  0.13089678034E+04  0.13099187905E+04  0.50400001928E-02 0.  1.
</event>
<event>
 5   0  0.6288000E-06  0.2725051E+04  0.7818609E-02  0.8326922E-01
        3   -1    0    0  501    0  0.00000000000E+00  0.00000000000E+00  0.15717710374E+04  0.15717710407E+04  0.10100000352E+00 0.  1.
       -3   -1    0    0    0  501  0.00000000000E+00  0.00000000000E+00 -0.11811362509E+04  0.11811362552E+04  0.10100000352E+00 0. -1.
    10030    2    1    2    0    0  0.00000000000E+00  0.00000000000E+00  0.39063478653E+03  0.27529072958E+04  0.27250510166E+04 0.  0.
        1    1    3    3  502    0 -0.48942461551E+03  0.12673866564E+04  0.29967081166E+03  0.13912612934E+04  0.50400001928E-02 0.  1.
       -1    1    3    3    0  502  0.48942461551E+03 -0.12673866564E+04  0.90963974876E+02  0.13616460024E+04  0.50400001928E-02 0. -1.
</event>
<event>
 5   0  0.1814230E-05  0.2666314E+04  0.7818609E-02  0.8346018E-01
       -2   -1    0    0    0  501  0.00000000000E+00  0.00000000000E+00  0.94990446617E+03  0.94990446617E+03  0.25500000920E-02 0. -1.
        2   -1    0    0  501    0  0.00000000000E+00  0.00000000000E+00 -0.18710384802E+04  0.18710384802E+04  0.25500000920E-02 0.  1.
    10030    2    1    2    0    0  0.00000000000E+00  0.00000000000E+00 -0.92113401402E+03  0.28209429464E+04  0.26663141666E+04 0.  0.
        5    1    3    3  502    0 -0.85414944019E+03 -0.82568721138E+03 -0.11005919115E+04  0.16194614175E+04  0.46999998093E+01 0. -1.
       -5    1    3    3    0  502  0.85414944019E+03  0.82568721138E+03  0.17945789744E+03  0.12014815289E+04  0.46999998093E+01 0.  1.
</event>
<event>
 5   0  0.7388013E-06  0.2799137E+04  0.7818609E-02  0.8303536E-01
        1   -1    0    0  501    0  0.00000000000E+00  0.00000000000E+00  0.27655253611E+04  0.27655253611E+04  0.50400001928E-02 0. -1.
       -1   -1    0    0    0  501  0.00000000000E+00  0.00000000000E+00 -0.70828938917E+03  0.70828938919E+03  0.50400001928E-02 0.  1.
    10030    2    1    2    0    0  0.00000000000E+00  0.00000000000E+00  0.20572359719E+04  0.34738147503E+04  0.27991372019E+04 0.  0.
        1    1    3    3  502    0  0.52000131623E+03 -0.68585513439E+03 -0.34101743152E+03  0.92579237569E+03  0.50400001928E-02 0.  1.
       -1    1    3    3    0  502 -0.52000131623E+03  0.68585513439E+03  0.23982534035E+04  0.25480223746E+04  0.50400001928E-02 0. -1.
</event>
<event>
 5   0  0.7613444E-06  0.2820262E+04  0.7818609E-02  0.8297005E-01
        1   -1    0    0  501    0  0.00000000000E+00  0.00000000000E+00  0.17171746127E+04  0.17171746127E+04  0.50400001928E-02 0. -1.
       -1   -1    0    0    0  501  0.00000000000E+00  0.00000000000E+00 -0.11579892937E+04  0.11579892938E+04  0.50400001928E-02 0.  1.
    10030    2    1    2    0    0  0.00000000000E+00  0.00000000000E+00  0.55918531899E+03  0.28751639065E+04  0.28202622694E+04 0.  0.
        5    1    3    3  502    0 -0.94963920687E+03 -0.38652333446E+03  0.12665465282E+04  0.16295327887E+04  0.46999998093E+01 0. -1.
       -5    1    3    3    0  502  0.94963920687E+03  0.38652333446E+03 -0.70736120923E+03  0.12456311178E+04  0.46999998093E+01 0.  1.
</event>
<event>
 5   0  0.7555871E-06  0.2726439E+04  0.7818609E-02  0.8326477E-01
        1   -1    0    0  501    0  0.00000000000E+00  0.00000000000E+00  0.12908712371E+04  0.12908712372E+04  0.50400001928E-02 0.  1.
       -1   -1    0    0    0  501  0.00000000000E+00  0.00000000000E+00 -0.14396225460E+04  0.14396225460E+04  0.50400001928E-02 0. -1.
    10030    2    1    2    0    0  0.00000000000E+00  0.00000000000E+00 -0.14875130884E+03  0.27304937831E+04  0.27264389500E+04 0.  0.
        3    1    3    3  502    0 -0.65915147471E+03 -0.90677370327E+03 -0.85118902738E+03  0.14075659793E+04  0.10100000352E+00 0.  1.
       -3    1    3    3    0  502  0.65915147471E+03  0.90677370327E+03  0.70243771854E+03  0.13229278038E+04  0.10100000352E+00 0. -1.
</event>
<event>
 5   0  0.1923559E-05  0.2872850E+04  0.7818609E-02  0.8281001E-01
        2   -1    0    0  501    0  0.00000000000E+00  0.00000000000E+00  0.88036132045E+03  0.88036132046E+03  0.25500000920E-02 0. -1.
       -2   -1    0    0    0  501  0.00000000000E+00  0.00000000000E+00 -0.23437166073E+04  0.23437166073E+04  0.25500000920E-02 0.  1.
    10030    2    1    2    0    0  0.00000000000E+00  0.00000000000E+00 -0.14633552868E+04  0.32240779278E+04  0.28728504640E+04 0.  0.
        4    1    3    3  502    0  0.63671638536E+03 -0.95722496886E+03  0.23478639041E+03  0.11733770317E+04  0.12699999809E+01 0. -1.
       -4    1    3    3    0  502 -0.63671638536E+03  0.95722496886E+03 -0.16981416773E+04  0.20507008961E+04  0.12699999809E+01 0.  1.
</event>
<event>
 5   0  0.7681342E-06  0.2733220E+04  0.7818609E-02  0.8324306E-01
        1   -1    0    0  501    0  0.00000000000E+00  0.00000000000E+00  0.19483193579E+04  0.19483193579E+04  0.50400001928E-02 0.  1.
       -1   -1    0    0    0  501  0.00000000000E+00  0.00000000000E+00 -0.95858166251E+03  0.95858166252E+03  0.50400001928E-02 0. -1.
    10030    2    1    2    0    0  0.00000000000E+00  0.00000000000E+00  0.98973769541E+03  0.29069010205E+04  0.27332202321E+04 0.  0.
        2    1    3    3  502    0 -0.82080682112E+03  0.99935812190E+03  0.25000385630E+02  0.12934703370E+04  0.25500000920E-02 0.  1.
       -2    1    3    3    0  502  0.82080682112E+03 -0.99935812190E+03  0.96473730978E+03  0.16134306835E+04  0.25500000920E-02 0. -1.
</event>
<event>
 5   0  0.1904553E-05  0.2502661E+04  0.7818609E-02  0.8402038E-01
       -2   -1    0    0    0  501  0.00000000000E+00  0.00000000000E+00  0.83199343031E+03  0.83199343031E+03  0.25500000920E-02 0.  1.
        2   -1    0    0  501    0  0.00000000000E+00  0.00000000000E+00 -0.18820201652E+04  0.18820201652E+04  0.25500000920E-02 0. -1.
    10030    2    1    2    0    0  0.00000000000E+00  0.00000000000E+00 -0.10500267349E+04  0.27140135955E+04  0.25026613140E+04 0.  0.
        1    1    3    3  502    0 -0.44177142419E+03  0.11688520607E+04 -0.45266104083E+03  0.13290143524E+04  0.50400001928E-02 0.  1.
       -1    1    3    3    0  502  0.44177142419E+03 -0.11688520607E+04 -0.59736569402E+03  0.13849992431E+04  0.50400001928E-02 0. -1.
</event>
<event>
 5   0  0.1923559E-05  0.2829771E+04  0.7818609E-02  0.8294085E-01
        2   -1    0    0  501    0  0.00000000000E+00  0.00000000000E+00  0.10459773546E+04  0.10459773546E+04  0.25500000920E-02 0.  1.
       -2   -1    0    0    0  501  0.00000000000E+00  0.00000000000E+00 -0.19139044473E+04  0.19139044473E+04  0.25500000920E-02 0. -1.
    10030    2    1    2    0    0  0.00000000000E+00  0.00000000000E+00 -0.86792709272E+03  0.29598818019E+04  0.28297708110E+04 0.  0.
        4    1    3    3  502    0  0.58611529401E+02 -0.10495521659E+04 -0.14245584642E+04  0.17704133673E+04  0.12699999809E+01 0. -1.
       -4    1    3    3    0  502 -0.58611529401E+02  0.10495521659E+04  0.55663137147E+03  0.11894684346E+04  0.12699999809E+01 0.  1.
</event>
<event>
 5   0  0.1923559E-05  0.2790285E+04  0.7818609E-02  0.8306291E-01
        2   -1    0    0  501    0  0.00000000000E+00  0.00000000000E+00  0.19373654231E+04  0.19373654231E+04  0.25500000920E-02 0. -1.
       -2   -1    0    0    0  501  0.00000000000E+00  0.00000000000E+00 -0.10046747981E+04  0.10046747981E+04  0.25500000920E-02 0.  1.
    10030    2    1    2    0    0  0.00000000000E+00  0.00000000000E+00  0.93269062508E+03  0.29420402212E+04  0.27902847276E+04 0.  0.
        4    1    3    3  502    0  0.74308249701E+03  0.98870719522E+03 -0.21429164530E+03  0.12552434176E+04  0.12699999809E+01 0.  1.
       -4    1    3    3    0  502 -0.74308249701E+03 -0.98870719522E+03  0.11469822704E+04  0.16867968036E+04  0.12699999809E+01 0. -1.
</event>
<event>
 5   0  0.1832502E-05  0.2809309E+04  0.7818609E-02  0.8300384E-01
        2   -1    0    0  501    0  0.00000000000E+00  0.00000000000E+00  0.87766623453E+03  0.87766623454E+03  0.25500000920E-02 0. -1.
       -2   -1    0    0    0  501  0.00000000000E+00  0.00000000000E+00 -0.22480690461E+04  0.22480690461E+04  0.25500000920E-02 0.  1.
    10030    2    1    2    0    0  0.00000000000E+00  0.00000000000E+00 -0.13704028115E+04  0.31257352806E+04  0.28093090215E+04 0.  0.
        2    1    3    3  502    0 -0.60869739899E+03  0.42208984643E+03  0.64270023959E+03  0.98068137535E+03  0.25500000920E-02 0. -1.
       -2    1    3    3    0  502  0.60869739899E+03 -0.42208984643E+03 -0.20131030511E+04  0.21450539053E+04  0.25500000920E-02 0.  1.
</event>
<event>
 5   0  0.1874272E-05  0.2766585E+04  0.7818609E-02  0.8313718E-01
       -2   -1    0    0    0  501  0.00000000000E+00  0.00000000000E+00  0.84268401881E+03  0.84268401882E+03  0.25500000920E-02 0. -1.
        2   -1    0    0  501    0  0.00000000000E+00  0.00000000000E+00 -0.22707185164E+04  0.22707185164E+04  0.25500000920E-02 0.  1.
    10030    2    1    2    0    0  0.00000000000E+00  0.00000000000E+00 -0.14280344976E+04  0.31134025352E+04  0.27665850466E+04 0.  0.
        3    1    3    3  502    0 -0.20633567091E+03  0.43827844003E+02 -0.22525127753E+04  0.22623680297E+04  0.10100000352E+00 0.  1.
       -3    1    3    3    0  502  0.20633567091E+03 -0.43827844003E+02  0.82447827767E+03  0.85103450550E+03  0.10100000352E+00 0. -1.
</event>
<event>
 5   0  0.7555871E-06  0.2824199E+04  0.7818609E-02  0.8295795E-01
        1   -1    0    0  501    0  0.00000000000E+00  0.00000000000E+00  0.16940991001E+04  0.16940991001E+04  0.50400001928E-02 0.  1.
       -1   -1    0    0    0  501  0.00000000000E+00  0.00000000000E+00 -0.11770418677E+04  0.11770418677E+04  0.50400001928E-02 0. -1.
    10030    2    1    2    0    0  0.00000000000E+00  0.00000000000E+00  0.51705723235E+03  0.28711409678E+04  0.28241994043E+04 0.  0.
        3    1    3    3  502    0 -0.10926784792E+04 -0.76951616975E+03 -0.20503745406E+03  0.13520879270E+04  0.10100000352E+00 0. -1.
       -3    1    3    3    0  502  0.10926784792E+04  0.76951616975E+03  0.72209468641E+03  0.15190530408E+04  0.10100000352E+00 0.  1.
</event>
<event>
 5   0  0.7509685E-06  0.2814144E+04  0.7818609E-02  0.8298891E-01
       -1   -1    0    0    0  501  0.00000000000E+00  0.00000000000E+00  0.97159125520E+03  0.97159125521E+03  0.50400001928E-02 0.  1.
        1   -1    0    0  501    0  0.00000000000E+00  0.00000000000E+00 -0.20377417983E+04  0.20377417983E+04  0.50400001928E-02 0. -1.
    10030    2    1    2    0    0  0.00000000000E+00  0.00000000000E+00 -0.10661505431E+04  0.30093330535E+04  0.28141443542E+04 0.  0.
        4    1    3    3  502    0 -0.54369970878E+03  0.12135355692E+04 -0.41201639429E+02  0.13304048778E+04  0.12699999809E+01 0.  1.
       -4    1    3    3    0  502  0.54369970878E+03 -0.12135355692E+04 -0.10249489036E+04  0.16789281756E+04  0.12699999809E+01 0. -1.
</event>
<event>
 5   0  0.1874272E-05  0.2851592E+04  0.7818609E-02  0.8287428E-01
        2   -1    0    0  501    0  0.00000000000E+00  0.00000000000E+00  0.13130626852E+04  0.13130626852E+04  0.25500000920E-02 0. -1.
       -2   -1    0    0    0  501  0.00000000000E+00  0.00000000000E+00 -0.15482076177E+04  0.15482076177E+04  0.25500000920E-02 0.  1.
    10030    2    1    2    0    0  0.00000000000E+00  0.00000000000E+00 -0.23514493258E+03  0.28612703029E+04  0.28515915919E+04 0.  0.
        3    1    3    3  502    0 -0.36340980915E+03 -0.38635469762E+03  0.12103835758E+04  0.13215010603E+04  0.10100000352E+00 0. -1.
       -3    1    3    3    0  502  0.36340980915E+03  0.38635469762E+03 -0.14455285083E+04  0.15397692426E+04  0.10100000352E+00 0.  1.
</event>
<event>
 5   0  0.1832502E-05  0.2792237E+04  0.7818609E-02  0.8305683E-01
        2   -1    0    0  501    0  0.00000000000E+00  0.00000000000E+00  0.19516877273E+04  0.19516877273E+04  0.25500000920E-02 0.  1.
       -2   -1    0    0    0  501  0.00000000000E+00  0.00000000000E+00 -0.99869802406E+03  0.99869802407E+03  0.25500000920E-02 0. -1.
    10030    2    1    2    0    0  0.00000000000E+00  0.00000000000E+00  0.95298970323E+03  0.29503857514E+04  0.27922368645E+04 0.  0.
        2    1    3    3  502    0  0.21169724178E+03 -0.70139976647E+02 -0.97975555120E+03  0.10048165398E+04  0.25500000920E-02 0. -1.
       -2    1    3    3    0  502 -0.21169724178E+03  0.70139976647E+02  0.19327452544E+04  0.19455692116E+04  0.25500000920E-02 0.  1.
</event>
<event>
 5   0  0.7388013E-06  0.2911071E+04  0.7818609E-02  0.8269591E-01
        1   -1    0    0  501    0  0.00000000000E+00  0.00000000000E+00  0.13470942445E+04  0.13470942446E+04  0.50400001928E-02 0.  1.
       -1   -1    0    0    0  501  0.00000000000E+00  0.00000000000E+00 -0.15727067372E+04  0.15727067372E+04  0.50400001928E-02 0. -1.
    10030    2    1    2    0    0  0.00000000000E+00  0.00000000000E+00 -0.22561249268E+03  0.29198009818E+04  0.29110714138E+04 0.  0.
        1    1    3    3  502    0  0.53823576932E+03 -0.97418383491E+03  0.82801101980E+03  0.13872037113E+04  0.50400001928E-02 0.  1.
       -1    1    3    3    0  502 -0.53823576932E+03  0.97418383491E+03 -0.10536235125E+04  0.15325972705E+04  0.50400001928E-02 0. -1.
</event>
<event>
 5   0  0.1904553E-05  0.2815465E+04  0.7818609E-02  0.8298483E-01
        2   -1    0    0  501    0  0.00000000000E+00  0.00000000000E+00  0.11159614490E+04  0.11159614490E+04  0.25500000920E-02 0.  1.
       -2   -1    0    0    0  501  0.00000000000E+00  0.00000000000E+00 -0.17757880839E+04  0.17757880839E+04  0.25500000920E-02 0. -1.
    10030    2    1    2    0    0  0.00000000000E+00  0.00000000000E+00 -0.65982663497E+03  0.28917495329E+04  0.28154651787E+04 0.  0.
        1    1    3    3  502    0 -0.13235285330E+04 -0.46016323658E+03 -0.19122486293E+03  0.14142294475E+04  0.50400001928E-02 0. -1.
       -1    1    3    3    0  502  0.13235285330E+04  0.46016323658E+03 -0.46860177205E+03  0.14775200854E+04  0.50400001928E-02 0.  1.
</event>
<event>
 5   0  0.7681342E-06  0.2685445E+04  0.7818609E-02  0.8339743E-01
        1   -1    0    0  501    0  0.00000000000E+00  0.00000000000E+00  0.17672935968E+04  0.17672935968E+04  0.50400001928E-02 0. -1.
       -1   -1    0    0    0  501  0.00000000000E+00  0.00000000000E+00 -0.10201492554E+04  0.10201492554E+04  0.50400001928E-02 0.  1.
    10030    2    1    2    0    0  0.00000000000E+00  0.00000000000E+00  0.74714434143E+03  0.27874428522E+04  0.26854446535E+04 0.  0.
        2    1    3    3  502    0 -0.10223173569E+03  0.19426444412E+03 -0.10013966286E+04  0.10251756971E+04  0.25500000920E-02 0.  1.
       -2    1    3    3    0  502  0.10223173569E+03 -0.19426444412E+03  0.17485409701E+04  0.17622671551E+04  0.25500000920E-02 0. -1.
</event>
<event>
 5   0  0.1814230E-05  0.2808833E+04  0.7818609E-02  0.8300531E-01
       -2   -1    0    0    0  501  0.00000000000E+00  0.00000000000E+00  0.21730218097E+04  0.21730218097E+04  0.25500000920E-02 0. -1.
        2   -1    0    0  501    0  0.00000000000E+00  0.00000000000E+00 -0.90766971898E+03  0.90766971899E+03  0.25500000920E-02 0.  1.
    10030    2    1    2    0    0  0.00000000000E+00  0.00000000000E+00  0.12653520907E+04  0.30806915287E+04  0.28088332776E+04 0.  0.
        5    1    3    3  502    0 -0.81006145860E+03  0.62256898517E+03  0.16895668370E+04  0.19744492637E+04  0.46999998093E+01 0. -1.
       -5    1    3    3    0  502  0.81006145860E+03 -0.62256898517E+03 -0.42421474629E+03  0.11062422650E+04  0.46999998093E+01 0.  1.
</event>
<event>
 5   0  0.7681342E-06  0.2738368E+04  0.7818609E-02  0.8322662E-01
        1   -1    0    0  501    0  0.00000000000E+00  0.00000000000E+00  0.14969325048E+04  0.14969325049E+04  0.50400001928E-02 0. -1.
       -1   -1    0    0    0  501  0.00000000000E+00  0.00000000000E+00 -0.12523376675E+04  0.12523376675E+04  0.50400001928E-02 0.  1.
    10030    2    1    2    0    0  0.00000000000E+00  0.00000000000E+00  0.24459483739E+03  0.27492701723E+04  0.27383680991E+04 0.  0.
        2    1    3    3  502    0 -0.82705916896E+03 -0.56921247570E+03  0.10569361376E+04  0.14577872652E+04  0.25500000920E-02 0. -1.
       -2    1    3    3    0  502  0.82705916896E+03  0.56921247570E+03 -0.81234130022E+03  0.12914829072E+04  0.25500000920E-02 0.  1.
</event>
<event>
 5   0  0.7555871E-06  0.2826647E+04  0.7818609E-02  0.8295043E-01
        1   -1    0    0  501    0  0.00000000000E+00  0.00000000000E+00  0.13761998085E+04  0.13761998085E+04  0.50400001928E-02 0. -1.
       -1   -1    0    0    0  501  0.00000000000E+00  0.00000000000E+00 -0.14514487411E+04  0.14514487411E+04  0.50400001928E-02 0.  1.
    10030    2    1    2    0    0  0.00000000000E+00  0.00000000000E+00 -0.75248932583E+02  0.28276485496E+04  0.28266471159E+04 0.  0.
        3    1    3    3  502    0 -0.69991237827E+03  0.90156450198E+03  0.79621003237E+03  0.13916344040E+04  0.10100000352E+00 0. -1.
       -3    1    3    3    0  502  0.69991237827E+03 -0.90156450198E+03 -0.87145896495E+03  0.14360141456E+04  0.10100000352E+00 0.  1.
</event>
<event>
 5   0  0.6288000E-06  0.2889679E+04  0.7818609E-02  0.8275955E-01
       -3   -1    0    0    0  501  0.00000000000E+00  0.00000000000E+00  0.28941863942E+04  0.28941863960E+04  0.10100000352E+00 0.  1.
        3   -1    0    0  501    0  0.00000000000E+00  0.00000000000E+00 -0.72129441105E+03  0.72129441812E+03  0.10100000352E+00 0. -1.
    10030    2    1    2    0    0  0.00000000000E+00  0.00000000000E+00  0.21728919832E+04  0.36154808141E+04  0.28896785196E+04 0.  0.
        2    1    3    3  502    0  0.26313497082E+03 -0.45304264295E+03  0.27711521266E+04  0.28202432090E+04  0.25500000920E-02 0.  1.
       -2    1    3    3    0  502 -0.26313497082E+03  0.45304264295E+03 -0.59826014347E+03  0.79523760504E+03  0.25500000920E-02 0. -1.
</event>
<event>
 5   0  0.1904553E-05  0.2820792E+04  0.7818609E-02  0.8296842E-01
       -2   -1    0    0    0  501  0.00000000000E+00  0.00000000000E+00  0.15273754669E+04  0.15273754669E+04  0.25500000920E-02 0. -1.
        2   -1    0    0  501    0  0.00000000000E+00  0.00000000000E+00 -0.13023758562E+04  0.13023758562E+04  0.25500000920E-02 0.  1.
    10030    2    1    2    0    0  0.00000000000E+00  0.00000000000E+00  0.22499961064E+03  0.28297513231E+04  0.28207920387E+04 0.  0.
        1    1    3    3  502    0  0.68475284073E+03  0.11889112316E+04  0.44037203316E+03  0.14409454872E+04  0.50400001928E-02 0. -1.
       -1    1    3    3    0  502 -0.68475284073E+03 -0.11889112316E+04 -0.21537242252E+03  0.13888058359E+04  0.50400001928E-02 0.  1.
</event>
<event>
 5   0  0.7555871E-06  0.2401545E+04  0.7818609E-02  0.8438925E-01
        1   -1    0    0  501    0  0.00000000000E+00  0.00000000000E+00  0.13044209378E+04  0.13044209378E+04  0.50400001928E-02 0. -1.
       -1   -1    0    0    0  501  0.00000000000E+00  0.00000000000E+00 -0.11053600334E+04  0.11053600334E+04  0.50400001928E-02 0.  1.
    10030    2    1    2    0    0  0.00000000000E+00  0.00000000000E+00  0.19906090436E+03  0.24097809712E+04  0.24015451454E+04 0.  0.
        3    1    3    3  502    0  0.89458137999E+03 -0.46876419460E+03  0.75124918346E+03  0.12587259676E+04  0.10100000352E+00 0. -1.
       -3    1    3    3    0  502 -0.89458137999E+03  0.46876419460E+03 -0.55218827910E+03  0.11510550036E+04  0.10100000352E+00 0.  1.
</event>
<event>
 5   0  0.1832502E-05  0.2735608E+04  0.7818609E-02  0.8323543E-01
       -2   -1    0    0    0  501  0.00000000000E+00  0.00000000000E+00  0.78774405650E+03  0.78774405650E+03  0.25500000920E-02 0.  1.
        2   -1    0    0  501    0  0.00000000000E+00  0.00000000000E+00 -0.23749936690E+04  0.23749936690E+04  0.25500000920E-02 0. -1.
    10030    2    1    2    0    0  0.00000000000E+00  0.00000000000E+00 -0.15872496125E+04  0.31627377255E+04  0.27356075354E+04 0.  0.
        2    1    3    3  502    0 -0.12442925455E+04  0.13989258652E+03 -0.14300815264E+04  0.19007806414E+04  0.25500000920E-02 0. -1.
       -2    1    3    3    0  502  0.12442925455E+04 -0.13989258652E+03 -0.15716808606E+03  0.12619570840E+04  0.25500000920E-02 0.  1.
</event>
<event>
 5   0  0.7509685E-06  0.2822145E+04  0.7818609E-02  0.8296426E-01
        1   -1    0    0  501    0  0.00000000000E+00  0.00000000000E+00  0.17701273305E+04  0.17701273305E+04  0.50400001928E-02 0. -1.
       -1   -1    0    0    0  501  0.00000000000E+00  0.00000000000E+00 -0.11248486111E+04  0.11248486111E+04  0.50400001928E-02 0.  1.
    10030    2    1    2    0    0  0.00000000000E+00  0.00000000000E+00  0.64527871939E+03  0.28949759415E+04  0.28221447653E+04 0.  0.
        4    1    3    3  502    0 -0.69126231899E+03 -0.10640539540E+04  0.95587831139E+03  0.15886344356E+04  0.12699999809E+01 0. -1.
       -4    1    3    3    0  502  0.69126231899E+03  0.10640539540E+04 -0.31059959199E+03  0.13063415060E+04  0.12699999809E+01 0.  1.
</event>
<event>
 5   0  0.7613444E-06  0.2765595E+04  0.7818609E-02  0.8314030E-01
       -1   -1    0    0    0  501  0.00000000000E+00  0.00000000000E+00  0.10057432558E+04  0.10057432558E+04  0.50400001928E-02 0. -1.
        1   -1    0    0  501    0  0.00000000000E+00  0.00000000000E+00 -0.19012091700E+04  0.19012091700E+04  0.50400001928E-02 0.  1.
    10030    2    1    2    0    0  0.00000000000E+00  0.00000000000E+00 -0.89546591416E+03  0.29069524258E+04  0.27655945477E+04 0.  0.
        5    1    3    3  502    0 -0.97694730387E+03 -0.37859764970E+03 -0.13962679630E+04  0.17456656408E+04  0.46999998093E+01 0.  1.
       -5    1    3    3    0  502  0.97694730387E+03  0.37859764970E+03  0.50080204885E+03  0.11612867850E+04  0.46999998093E+01 0. -1.
</event>
<event>
 5   0  0.1814230E-05  0.2275006E+04  0.7818609E-02  0.8487841E-01
        2   -1    0    0  501    0  0.00000000000E+00  0.00000000000E+00  0.21051590596E+04  0.21051590596E+04  0.25500000920E-02 0. -1.
       -2   -1    0    0    0  501  0.00000000000E+00  0.00000000000E+00 -0.61463930657E+03  0.61463930657E+03  0.25500000920E-02 0.  1.
    10030    2    1    2    0    0  0.00000000000E+00  0.00000000000E+00  0.14905197530E+04  0.27197983661E+04  0.22750063777E+04 0.  0.
        5    1    3    3  502    0 -0.58971544956E+03 -0.18009325347E+03  0.18880181211E+04  0.19861602169E+04  0.46999998093E+01 0. -1.
       -5    1    3    3    0  502  0.58971544956E+03  0.18009325347E+03 -0.39749836813E+03  0.73363814926E+03  0.46999998093E+01 0.  1.
</event>
<event>
 5   0  0.7613444E-06  0.2726676E+04  0.7818609E-02  0.8326401E-01
       -1   -1    0    0    0  501  0.00000000000E+00  0.00000000000E+00  0.12520249982E+04  0.12520249982E+04  0.50400001928E-02 0. -1.
        1   -1    0    0  501    0  0.00000000000E+00  0.00000000000E+00 -0.14845478659E+04  0.14845478659E+04  0.50400001928E-02 0.  1.
    10030    2    1    2    0    0  0.00000000000E+00  0.00000000000E+00 -0.23252286775E+03  0.27365728641E+04  0.27266763938E+04 0.  0.
        5    1    3    3  502    0 -0.76559266980E+03  0.82927873148E+03  0.65125834379E+03  0.13030713223E+04  0.46999998093E+01 0. -1.
       -5    1    3    3    0  502  0.76559266980E+03 -0.82927873148E+03 -0.88378121153E+03  0.14335015418E+04  0.46999998093E+01 0.  1.
</event>
<event>
 5   0  0.7681342E-06  0.2780298E+04  0.7818609E-02  0.8309411E-01
       -1   -1    0    0    0  501  0.00000000000E+00  0.00000000000E+00  0.13375310692E+04  0.13375310692E+04  0.50400001928E-02 0. -1.
        1   -1    0    0  501    0  0.00000000000E+00  0.00000000000E+00 -0.14448369681E+04  0.14448369681E+04  0.50400001928E-02 0.  1.
    10030    2    1    2    0    0  0.00000000000E+00  0.00000000000E+00 -0.10730589890E+03  0.27823680373E+04  0.27802980665E+04 0.  0.
        2    1    3    3  502    0  0.92123827039E+03 -0.83702760757E+03 -0.67316082227E+03  0.14150762027E+04  0.25500000920E-02 0. -1.
       -2    1    3    3    0  502 -0.92123827039E+03  0.83702760757E+03  0.56585492336E+03  0.13672918346E+04  0.25500000920E-02 0.  1.
</event>
<event>
 5   0  0.1904553E-05  0.2655686E+04  0.7818609E-02  0.8349528E-01
        2   -1    0    0  501    0  0.00000000000E+00  0.00000000000E+00  0.14230016701E+04  0.14230016701E+04  0.25500000920E-02 0. -1.
       -2   -1    0    0    0  501  0.00000000000E+00  0.00000000000E+00 -0.12390474626E+04  0.12390474626E+04  0.25500000920E-02 0.  1.
    10030    2    1    2    0    0  0.00000000000E+00  0.00000000000E+00  0.18395420741E+03  0.26620491327E+04  0.26556856807E+04 0.  0.
        1    1    3    3  502    0 -0.11405280416E+04 -0.66737118566E+03  0.22258934424E+03  0.13400501966E+04  0.50400001928E-02 0. -1.
       -1    1    3    3    0  502  0.11405280416E+04  0.66737118566E+03 -0.38635136829E+02  0.13219989361E+04  0.50400001928E-02 0.  1.
</event>
<event>
 5   0  0.7509685E-06  0.2797235E+04  0.7818609E-02  0.8304127E-01
        1   -1    0    0  501    0  0.00000000000E+00  0.00000000000E+00  0.22392808902E+04  0.22392808902E+04  0.50400001928E-02 0. -1.
       -1   -1    0    0    0  501  0.00000000000E+00  0.00000000000E+00 -0.87355327262E+03  0.87355327264E+03  0.50400001928E-02 0.  1.
    10030    2    1    2    0    0  0.00000000000E+00  0.00000000000E+00  0.13657276176E+04  0.31128341628E+04  0.27972351706E+04 0.  0.
        4    1    3    3  502    0 -0.69258432836E+03  0.57813424908E+03  0.18721910493E+04  0.20782235683E+04  0.12699999809E+01 0. -1.
       -4    1    3    3    0  502  0.69258432836E+03 -0.57813424908E+03 -0.50646343169E+03  0.10346105946E+04  0.12699999809E+01 0.  1.
</event>
<event>
 5   0  0.1904553E-05  0.2815128E+04  0.7818609E-02  0.8298587E-01
        2   -1    0    0  501    0  0.00000000000E+00  0.00000000000E+00  0.20124253077E+04  0.20124253077E+04  0.25500000920E-02 0.  1.
       -2   -1    0    0    0  501  0.00000000000E+00  0.00000000000E+00 -0.98450162273E+03  0.98450162273E+03  0.25500000920E-02 0. -1.
    10030    2    1    2    0    0  0.00000000000E+00  0.00000000000E+00  0.10279236850E+04  0.29969269305E+04  0.28151276924E+04 0.  0.
        1    1    3    3  502    0 -0.24806286951E+01  0.13139614869E+03  0.20058797061E+04  0.20101802150E+04  0.50400001928E-02 0.  1.
       -1    1    3    3    0  502  0.24806286951E+01 -0.13139614869E+03 -0.97795602106E+03  0.98674671551E+03  0.50400001928E-02 0. -1.
</event>
<event>
 5   0  0.1904553E-05  0.2766100E+04  0.7818609E-02  0.8313871E-01
        2   -1    0    0  501    0  0.00000000000E+00  0.00000000000E+00  0.15823456657E+04  0.15823456657E+04  0.25500000920E-02 0.  1.
       -2   -1    0    0    0  501  0.00000000000E+00  0.00000000000E+00 -0.12088555309E+04  0.12088555309E+04  0.25500000920E-02 0. -1.
    10030    2    1    2    0    0  0.00000000000E+00  0.00000000000E+00  0.37349013475E+03  0.27912011966E+04  0.27661000053E+04 0.  0.
        1    1    3    3  502    0  0.90070709791E+03  0.58209183731E+03  0.10680104739E+04  0.15135225653E+04  0.50400001928E-02 0.  1.
       -1    1    3    3    0  502 -0.90070709791E+03 -0.58209183731E+03 -0.69452033917E+03  0.12776786313E+04  0.50400001928E-02 0. -1.
</event>
<event>
 5   0  0.7509685E-06  0.2798424E+04  0.7818609E-02  0.8303758E-01
       -1   -1    0    0    0  501  0.00000000000E+00  0.00000000000E+00  0.10002871933E+04  0.10002871933E+04  0.50400001928E-02 0.  1.
        1   -1    0    0  501    0  0.00000000000E+00  0.00000000000E+00 -0.19572320497E+04  0.19572320497E+04  0.50400001928E-02 0. -1.
    10030    2    1    2    0    0  0.00000000000E+00  0.00000000000E+00 -0.95694485644E+03  0.29575192430E+04  0.27984239519E+04 0.  0.
        4    1    3    3  502    0  0.24072535078E+02 -0.11947839626E+04  0.29071262058E+03  0.12298795245E+04  0.12699999809E+01 0.  1.
       -4    1    3    3    0  502 -0.24072535078E+02  0.11947839626E+04 -0.12476574770E+04  0.17276397185E+04  0.12699999809E+01 0. -1.
</event>
<event>
 5   0  0.7613444E-06  0.2766521E+04  0.7818609E-02  0.8313738E-01
        1   -1    0    0  501    0  0.00000000000E+00  0.00000000000E+00  0.20554871705E+04  0.20554871706E+04  0.50400001928E-02 0. -1.
       -1   -1    0    0    0  501  0.00000000000E+00  0.00000000000E+00 -0.93087883543E+03  0.93087883544E+03  0.50400001928E-02 0.  1.
    10030    2    1    2    0    0  0.00000000000E+00  0.00000000000E+00  0.11246083351E+04  0.29863660060E+04  0.27665209224E+04 0.  0.
        5    1    3    3  502    0  0.29189209610E+03 -0.99597897009E+03  0.15494182605E+04  0.18649112957E+04  0.46999998093E+01 0. -1.
       -5    1    3    3    0  502 -0.29189209610E+03  0.99597897009E+03 -0.42480992540E+03  0.11214547103E+04  0.46999998093E+01 0.  1.
</event>
<event>
 5   0  0.1923559E-05  0.2809604E+04  0.7818609E-02  0.8300293E-01
        2   -1    0    0  501    0  0.00000000000E+00  0.00000000000E+00  0.19355483937E+04  0.19355483937E+04  0.25500000920E-02 0. -1.
       -2   -1    0    0    0  501  0.00000000000E+00  0.00000000000E+00 -0.10195914672E+04  0.10195914672E+04  0.25500000920E-02 0.  1.
    10030    2    1    2    0    0  0.00000000000E+00  0.00000000000E+00  0.91595692651E+03  0.29551398609E+04  0.28096039768E+04 0.  0.
        4    1    3    3  502    0 -0.79423382743E+03 -0.10548796770E+04 -0.46324548556E+02  0.13212592790E+04  0.12699999809E+01 0. -1.
       -4    1    3    3    0  502  0.79423382743E+03  0.10548796770E+04  0.96228147506E+03  0.16338805819E+04  0.12699999809E+01 0.  1.
</event>
<event>
 5   0  0.7509685E-06  0.2801895E+04  0.7818609E-02  0.8302680E-01
       -1   -1    0    0    0  501  0.00000000000E+00  0.00000000000E+00  0.22050211992E+04  0.22050211993E+04  0.50400001928E-02 0. -1.
        1   -1    0    0  501    0  0.00000000000E+00  0.00000000000E+00 -0.89008403273E+03  0.89008403275E+03  0.50400001928E-02 0.  1.
    10030    2    1    2    0    0  0.00000000000E+00  0.00000000000E+00  0.13149371665E+04  0.30951052320E+04  0.28018951881E+04 0.  0.
        4    1    3    3  502    0 -0.76206632947E+03 -0.42182291135E+03  0.18695502653E+04  0.20624983555E+04  0.12699999809E+01 0. -1.
       -4    1    3    3    0  502  0.76206632947E+03  0.42182291135E+03 -0.55461309882E+03  0.10326068765E+04  0.12699999809E+01 0.  1.
</event>
<event>
 5   0  0.7388013E-06  0.2842880E+04  0.7818609E-02  0.8290078E-01
        1   -1    0    0  501    0  0.00000000000E+00  0.00000000000E+00  0.22756944363E+04  0.22756944363E+04  0.50400001928E-02 0.  1.
       -1   -1    0    0    0  501  0.00000000000E+00  0.00000000000E+00 -0.88785704874E+03  0.88785704875E+03  0.50400001928E-02 0. -1.
    10030    2    1    2    0    0  0.00000000000E+00  0.00000000000E+00  0.13878373875E+04  0.31635514850E+04  0.28428797696E+04 0.  0.
        1    1    3    3  502    0 -0.49968522642E+03  0.12302342924E+04  0.12584152433E+04  0.18294181217E+04  0.50400001928E-02 0. -1.
       -1    1    3    3    0  502  0.49968522642E+03 -0.12302342924E+04  0.12942214423E+03  0.13341333633E+04  0.50400001928E-02 0.  1.
</event>
<event>
 5   0  0.7613444E-06  0.2830835E+04  0.7818609E-02  0.8293759E-01
        1   -1    0    0  501    0  0.00000000000E+00  0.00000000000E+00  0.12268538231E+04  0.12268538231E+04  0.50400001928E-02 0.  1.
       -1   -1    0    0    0  501  0.00000000000E+00  0.00000000000E+00 -0.16329628858E+04  0.16329628858E+04  0.50400001928E-02 0. -1.
    10030    2    1    2    0    0  0.00000000000E+00  0.00000000000E+00 -0.40610906267E+03  0.28598167089E+04  0.28308350425E+04 0.  0.
        5    1    3    3  502    0 -0.34709960555E+03 -0.79320311536E+03 -0.13342211283E+04  0.15905399799E+04  0.46999998093E+01 0. -1.
       -5    1    3    3    0  502  0.34709960555E+03  0.79320311536E+03  0.92811206566E+03  0.12692767290E+04  0.46999998093E+01 0.  1.
</event>
<event>
 5   0  0.1923559E-05  0.2780034E+04  0.7818609E-02  0.8309494E-01
       -2   -1    0    0    0  501  0.00000000000E+00  0.00000000000E+00  0.88052699772E+03  0.88052699772E+03  0.25500000920E-02 0.  1.
        2   -1    0    0  501    0  0.00000000000E+00  0.00000000000E+00 -0.21943076793E+04  0.21943076793E+04  0.25500000920E-02 0. -1.
    10030    2    1    2    0    0  0.00000000000E+00  0.00000000000E+00 -0.13137806816E+04  0.30748346770E+04  0.27800339227E+04 0.  0.
        4    1    3    3  502    0 -0.86373274265E+03  0.12117669474E+03  0.54020676860E+03  0.10259351869E+04  0.12699999809E+01 0.  1.
       -4    1    3    3    0  502  0.86373274265E+03 -0.12117669474E+03 -0.18539874502E+04  0.20488994901E+04  0.12699999809E+01 0. -1.
</event>
<event>
 5   0  0.1832502E-05  0.2777911E+04  0.7818609E-02  0.8310159E-01
       -2   -1    0    0    0  501  0.00000000000E+00  0.00000000000E+00  0.10663230108E+04  0.10663230108E+04  0.25500000920E-02 0. -1.
        2   -1    0    0  501    0  0.00000000000E+00  0.00000000000E+00 -0.18092059265E+04  0.18092059265E+04  0.25500000920E-02 0.  1.
    10030    2    1    2    0    0  0.00000000000E+00  0.00000000000E+00 -0.74288291568E+03  0.28755289374E+04  0.27779113815E+04 0.  0.
        2    1    3    3  502    0  0.15428163035E+03  0.10290360240E+03  0.10534498061E+04  0.10696487586E+04  0.25500000920E-02 0. -1.
       -2    1    3    3    0  502 -0.15428163035E+03 -0.10290360240E+03 -0.17963327218E+04  0.18058801788E+04  0.25500000920E-02 0.  1.
</event>
<event>
 5   0  0.7613444E-06  0.2693333E+04  0.7818609E-02  0.8337171E-01
        1   -1    0    0  501    0  0.00000000000E+00  0.00000000000E+00  0.10969512997E+04  0.10969512997E+04  0.50400001928E-02 0.  1.
       -1   -1    0    0    0  501  0.00000000000E+00  0.00000000000E+00 -0.16532280569E+04  0.16532280570E+04  0.50400001928E-02 0. -1.
    10030    2    1    2    0    0  0.00000000000E+00  0.00000000000E+00 -0.55627675726E+03  0.27501793567E+04  0.26933330026E+04 0.  0.
        5    1    3    3  502    0  0.51210670302E+03  0.91900797466E+03 -0.11365115001E+04  0.15487121788E+04  0.46999998093E+01 0. -1.
       -5    1    3    3    0  502 -0.51210670302E+03 -0.91900797466E+03  0.58023474285E+03  0.12014671779E+04  0.46999998093E+01 0.  1.
</event>
<event>
 5   0  0.7388013E-06  0.2209611E+04  0.7818609E-02  0.8514438E-01
        1   -1    0    0  501    0  0.00000000000E+00  0.00000000000E+00  0.11477150454E+04  0.11477150454E+04  0.50400001928E-02 0. -1.
       -1   -1    0    0    0  501  0.00000000000E+00  0.00000000000E+00 -0.10635004990E+04  0.10635004990E+04  0.50400001928E-02 0.  1.
    10030    2    1    2    0    0  0.00000000000E+00  0.00000000000E+00  0.84214546375E+02  0.22112155444E+04  0.22096112993E+04 0.  0.
        1    1    3    3  502    0  0.20857739913E+03  0.26344230995E+03 -0.10111249697E+04  0.10654952306E+04  0.50400001928E-02 0.  1.
       -1    1    3    3    0  502 -0.20857739913E+03 -0.26344230995E+03  0.10953395160E+04  0.11457203138E+04  0.50400001928E-02 0. -1.
</event>
<event>
 5   0  0.1874272E-05  0.1920710E+04  0.7818609E-02  0.8644616E-01
       -2   -1    0    0    0  501  0.00000000000E+00  0.00000000000E+00  0.78357259902E+03  0.78357259903E+03  0.25500000920E-02 0.  1.
        2   -1    0    0  501    0  0.00000000000E+00  0.00000000000E+00 -0.11770217487E+04  0.11770217487E+04  0.25500000920E-02 0. -1.
    10030    2    1    2    0    0  0.00000000000E+00  0.00000000000E+00 -0.39344914969E+03  0.19605943477E+04  0.19207102757E+04 0.  0.
        3    1    3    3  502    0  0.94308872716E+03 -0.16615750550E+03 -0.12271158428E+03  0.96544435731E+03  0.10100000352E+00 0.  1.
       -3    1    3    3    0  502 -0.94308872716E+03  0.16615750550E+03 -0.27073756540E+03  0.99514999043E+03  0.10100000352E+00 0. -1.
</event>
<event>
 5   0  0.1923559E-05  0.2912882E+04  0.7818609E-02  0.8269055E-01
        2   -1    0    0  501    0  0.00000000000E+00  0.00000000000E+00  0.16347648099E+04  0.16347648099E+04  0.25500000920E-02 0. -1.
       -2   -1    0    0    0  501  0.00000000000E+00  0.00000000000E+00 -0.12975688138E+04  0.12975688138E+04  0.25500000920E-02 0.  1.
    10030    2    1    2    0    0  0.00000000000E+00  0.00000000000E+00  0.33719599602E+03  0.29323336237E+04  0.29128816215E+04 0.  0.
        4    1    3    3  502    0 -0.18434938361E+03 -0.14322186539E+04  0.35955727653E+03  0.14881256721E+04  0.12699999809E+01 0. -1.
       -4    1    3    3    0  502  0.18434938361E+03  0.14322186539E+04 -0.22361280512E+02  0.14442079516E+04  0.12699999809E+01 0.  1.
</event>
<event>
 5   0  0.1923559E-05  0.2782606E+04  0.7818609E-02  0.8308689E-01
       -2   -1    0    0    0  501  0.00000000000E+00  0.00000000000E+00  0.10623486151E+04  0.10623486151E+04  0.25500000920E-02 0.  1.
        2   -1    0    0  501    0  0.00000000000E+00  0.00000000000E+00 -0.18221172898E+04  0.18221172898E+04  0.25500000920E-02 0. -1.
    10030    2    1    2    0    0  0.00000000000E+00  0.00000000000E+00 -0.75976867476E+03  0.28844659049E+04  0.27826058142E+04 0.  0.
        4    1    3    3  502    0 -0.11328069706E+04  0.65931709351E+03 -0.86362683987E+03  0.15696507872E+04  0.12699999809E+01 0. -1.
       -4    1    3    3    0  502  0.11328069706E+04 -0.65931709351E+03  0.10385816511E+03  0.13148151177E+04  0.12699999809E+01 0.  1.
</event>
<event>
 5   0  0.7555871E-06  0.2800747E+04  0.7818609E-02  0.8303036E-01
       -1   -1    0    0    0  501  0.00000000000E+00  0.00000000000E+00  0.11230183715E+04  0.11230183716E+04  0.50400001928E-02 0.  1.
        1   -1    0    0  501    0  0.00000000000E+00  0.00000000000E+00 -0.17462278179E+04  0.17462278179E+04  0.50400001928E-02 0. -1.
    10030    2    1    2    0    0  0.00000000000E+00  0.00000000000E+00 -0.62320944633E+03  0.28692461894E+04  0.28007469863E+04 0.  0.
        3    1    3    3  502    0 -0.48257591138E+03 -0.10086968123E+04  0.55204218046E+03  0.12470362259E+04  0.10100000352E+00 0.  1.
       -3    1    3    3    0  502  0.48257591138E+03  0.10086968123E+04 -0.11752516268E+04  0.16222099636E+04  0.10100000352E+00 0. -1.
</event>
<event>
 5   0  0.7613444E-06  0.2813097E+04  0.7818609E-02  0.8299214E-01
        1   -1    0    0  501    0  0.00000000000E+00  0.00000000000E+00  0.13194504490E+04  0.13194504490E+04  0.50400001928E-02 0.  1.
       -1   -1    0    0    0  501  0.00000000000E+00  0.00000000000E+00 -0.14993961366E+04  0.14993961366E+04  0.50400001928E-02 0. -1.
    10030    2    1    2    0    0  0.00000000000E+00  0.00000000000E+00 -0.17994568768E+03  0.28188465856E+04  0.28130971584E+04 0.  0.
        5    1    3    3  502    0 -0.37389127720E+03 -0.46850656271E+03  0.11850520968E+04  0.13280299878E+04  0.46999998093E+01 0.  1.
       -5    1    3    3    0  502  0.37389127720E+03  0.46850656271E+03 -0.13649977845E+04  0.14908165977E+04  0.46999998093E+01 0. -1.
</event>
<event>
 5   0  0.7555871E-06  0.2821619E+04  0.7818609E-02  0.8296588E-01
        1   -1    0    0  501    0  0.00000000000E+00  0.00000000000E+00  0.21728311321E+04  0.21728311321E+04  0.50400001928E-02 0. -1.
       -1   -1    0    0    0  501  0.00000000000E+00  0.00000000000E+00 -0.91603255368E+03  0.91603255370E+03  0.50400001928E-02 0.  1.
    10030    2    1    2    0    0  0.00000000000E+00  0.00000000000E+00  0.12567985784E+04  0.30888636858E+04  0.28216194291E+04 0.  0.
        3    1    3    3  502    0  0.31558656568E+03 -0.12653642394E+04  0.39241734775E+02  0.13047150887E+04  0.10100000352E+00 0. -1.
       -3    1    3    3    0  502 -0.31558656568E+03  0.12653642394E+04  0.12175568437E+04  0.17841485971E+04  0.10100000352E+00 0.  1.
</event>
<event>
 5   0  0.7681342E-06  0.2802304E+04  0.7818609E-02  0.8302553E-01
        1   -1    0    0  501    0  0.00000000000E+00  0.00000000000E+00  0.97621118021E+03  0.97621118023E+03  0.50400001928E-02 0.  1.
       -1   -1    0    0    0  501  0.00000000000E+00  0.00000000000E+00 -0.20110680893E+04  0.20110680893E+04  0.50400001928E-02 0. -1.
    10030    2    1    2    0    0  0.00000000000E+00  0.00000000000E+00 -0.10348569090E+04  0.29872792695E+04  0.28023041612E+04 0.  0.
        2    1    3    3  502    0 -0.71624959196E+01 -0.69982023857E+03 -0.18114006273E+04  0.19418990449E+04  0.25500000920E-02 0. -1.
       -2    1    3    3    0  502  0.71624959196E+01  0.69982023857E+03  0.77654371829E+03  0.10453802246E+04  0.25500000920E-02 0.  1.
</event>
<event>
 5   0  0.1874272E-05  0.2787289E+04  0.7818609E-02  0.8307226E-01
       -2   -1    0    0    0  501  0.00000000000E+00  0.00000000000E+00  0.12228903208E+04  0.12228903208E+04  0.25500000920E-02 0. -1.
        2   -1    0    0  501    0  0.00000000000E+00  0.00000000000E+00 -0.15882409420E+04  0.15882409420E+04  0.25500000920E-02 0.  1.
    10030    2    1    2    0    0  0.00000000000E+00  0.00000000000E+00 -0.36535062120E+03  0.28111312628E+04  0.27872886288E+04 0.  0.
        3    1    3    3  502    0 -0.11415522150E+04  0.75764106026E+03  0.74620705054E+02  0.13721259766E+04  0.10100000352E+00 0.  1.
       -3    1    3    3    0  502  0.11415522150E+04 -0.75764106026E+03 -0.43997132625E+03  0.14390052862E+04  0.10100000352E+00 0. -1.
</event>
<event>
 5   0  0.1874272E-05  0.2678033E+04  0.7818609E-02  0.8342168E-01
       -2   -1    0    0    0  501  0.00000000000E+00  0.00000000000E+00  0.67466513309E+03  0.67466513309E+03  0.25500000920E-02 0.  1.
        2   -1    0    0  501    0  0.00000000000E+00  0.00000000000E+00 -0.26575630989E+04  0.26575630989E+04  0.25500000920E-02 0. -1.
    10030    2    1    2    0    0  0.00000000000E+00  0.00000000000E+00 -0.19828979658E+04  0.33322282320E+04  0.26780329810E+04 0.  0.
        3    1    3    3  502    0  0.40438595526E+03 -0.56618565903E+03 -0.24149809783E+04  0.25132105636E+04  0.10100000352E+00 0. -1.
       -3    1    3    3    0  502 -0.40438595526E+03  0.56618565903E+03  0.43208301247E+03  0.81901766841E+03  0.10100000352E+00 0.  1.
</event>
<event>
 5   0  0.7555871E-06  0.2831003E+04  0.7818609E-02  0.8293707E-01
        1   -1    0    0  501    0  0.00000000000E+00  0.00000000000E+00  0.11330693312E+04  0.11330693312E+04  0.50400001928E-02 0. -1.
       -1   -1    0    0    0  501  0.00000000000E+00  0.00000000000E+00 -0.17683338606E+04  0.17683338606E+04  0.50400001928E-02 0.  1.
    10030    2    1    2    0    0  0.00000000000E+00  0.00000000000E+00 -0.63526452939E+03  0.29014031918E+04  0.28310032602E+04 0.  0.
        3    1    3    3  502    0  0.39147357189E+03  0.13578695713E+04 -0.23447562396E+03  0.14324943835E+04  0.10100000352E+00 0. -1.
       -3    1    3    3    0  502 -0.39147357189E+03 -0.13578695713E+04 -0.40078890544E+03  0.14689088083E+04  0.10100000352E+00 0.  1.
</event>
<event>
 5   0  0.1832502E-05  0.1763761E+04  0.7818609E-02  0.8725812E-01
       -2   -1    0    0    0  501  0.00000000000E+00  0.00000000000E+00  0.40031351543E+03  0.40031351544E+03  0.25500000920E-02 0.  1.
        2   -1    0    0  501    0  0.00000000000E+00  0.00000000000E+00 -0.19427603574E+04  0.19427603574E+04  0.25500000920E-02 0. -1.
    10030    2    1    2    0    0  0.00000000000E+00  0.00000000000E+00 -0.15424468420E+04  0.23430738728E+04  0.17637610136E+04 0.  0.
        2    1    3    3  502    0 -0.40656193842E+02  0.88029990968E+03 -0.81592683118E+03  0.12009652164E+04  0.25500000920E-02 0. -1.
       -2    1    3    3    0  502  0.40656193842E+02 -0.88029990968E+03 -0.72652001077E+03  0.11421086565E+04  0.25500000920E-02 0.  1.
</event>
<event>
 5   0  0.1904553E-05  0.2819973E+04  0.7818609E-02  0.8297094E-01
        2   -1    0    0  501    0  0.00000000000E+00  0.00000000000E+00  0.12033755459E+04  0.12033755459E+04  0.25500000920E-02 0.  1.
       -2   -1    0    0    0  501  0.00000000000E+00  0.00000000000E+00 -0.16520714645E+04  0.16520714645E+04  0.25500000920E-02 0. -1.
    10030    2    1    2    0    0  0.00000000000E+00  0.00000000000E+00 -0.44869591867E+03  0.28554470104E+04  0.28199733335E+04 0.  0.
        1    1    3    3  502    0  0.40798949285E+03 -0.51346129258E+03 -0.14882338889E+04  0.16263265457E+04  0.50400001928E-02 0. -1.
       -1    1    3    3    0  502 -0.40798949285E+03  0.51346129258E+03  0.10395379702E+04  0.12291204647E+04  0.50400001928E-02 0.  1.
</event>
<event>
 5   0  0.1923559E-05  0.2849358E+04  0.7818609E-02  0.8288107E-01
       -2   -1    0    0    0  501  0.00000000000E+00  0.00000000000E+00  0.99099296848E+03  0.99099296848E+03  0.25500000920E-02 0.  1.
        2   -1    0    0  501    0  0.00000000000E+00  0.00000000000E+00 -0.20481575335E+04  0.20481575335E+04  0.25500000920E-02 0. -1.
    10030    2    1    2    0    0  0.00000000000E+00  0.00000000000E+00 -0.10571645651E+04  0.30391505020E+04  0.28493576217E+04 0.  0.
        4    1    3    3  502    0  0.32554848588E+03 -0.36109736322E+03 -0.19569366145E+04  0.20164264550E+04  0.12699999809E+01 0. -1.
       -4    1    3    3    0  502 -0.32554848588E+03  0.36109736322E+03  0.89977204947E+03  0.10227240470E+04  0.12699999809E+01 0.  1.
</event>
<event>
 5   0  0.7613444E-06  0.2840867E+04  0.7818609E-02  0.8290692E-01
       -1   -1    0    0    0  501  0.00000000000E+00  0.00000000000E+00  0.10822271546E+04  0.10822271546E+04  0.50400001928E-02 0. -1.
        1   -1    0    0  501    0  0.00000000000E+00  0.00000000000E+00 -0.18643327148E+04  0.18643327148E+04  0.50400001928E-02 0.  1.
    10030    2    1    2    0    0  0.00000000000E+00  0.00000000000E+00 -0.78210556024E+03  0.29465598694E+04  0.28408671135E+04 0.  0.
        5    1    3    3  502    0 -0.85650132715E+03 -0.69922652812E+03  0.53380391649E+03  0.12277951671E+04  0.46999998093E+01 0. -1.
       -5    1    3    3    0  502  0.85650132715E+03  0.69922652812E+03 -0.13159094767E+04  0.17187647023E+04  0.46999998093E+01 0.  1.
</event>
<event>
 5   0  0.1904553E-05  0.2796123E+04  0.7818609E-02  0.8304473E-01
        2   -1    0    0  501    0  0.00000000000E+00  0.00000000000E+00  0.26164411982E+04  0.26164411982E+04  0.25500000920E-02 0.  1.
       -2   -1    0    0    0  501  0.00000000000E+00  0.00000000000E+00 -0.74703589914E+03  0.74703589915E+03  0.25500000920E-02 0. -1.
    10030    2    1    2    0    0  0.00000000000E+00  0.00000000000E+00  0.18694052991E+04  0.33634770974E+04  0.27961226747E+04 0.  0.
        1    1    3    3  502    0  0.68566455602E+03  0.10021611377E+04  0.17681992612E+04  0.21449921810E+04  0.50400001928E-02 0.  1.
       -1    1    3    3    0  502 -0.68566455602E+03 -0.10021611377E+04  0.10120603787E+03  0.12184849163E+04  0.50400001928E-02 0. -1.
</event>
<event>
 5   0  0.1874272E-05  0.2797999E+04  0.7818609E-02  0.8303890E-01
        2   -1    0    0  501    0  0.00000000000E+00  0.00000000000E+00  0.22664131942E+04  0.22664131942E+04  0.25500000920E-02 0. -1.
       -2   -1    0    0    0  501  0.00000000000E+00  0.00000000000E+00 -0.86356697451E+03  0.86356697451E+03  0.25500000920E-02 0.  1.
    10030    2    1    2    0    0  0.00000000000E+00  0.00000000000E+00  0.14028462197E+04  0.31299801687E+04  0.27979989886E+04 0.  0.
        3    1    3    3  502    0  0.66910949545E+03 -0.25021504502E+02 -0.67268013896E+03  0.94912178994E+03  0.10100000352E+00 0.  1.
       -3    1    3    3    0  502 -0.66910949545E+03  0.25021504502E+02  0.20755263587E+04  0.21808583788E+04  0.10100000352E+00 0. -1.
</event>
<event>
 5   0  0.7509685E-06  0.1746091E+04  0.7818609E-02  0.8735505E-01
        1   -1    0    0  501    0  0.00000000000E+00  0.00000000000E+00  0.16921054099E+04  0.16921054099E+04  0.50400001928E-02 0. -1.
       -1   -1    0    0    0  501  0.00000000000E+00  0.00000000000E+00 -0.45044974891E+03  0.45044974894E+03  0.50400001928E-02 0.  1.
    10030    2    1    2    0    0  0.00000000000E+00  0.00000000000E+00  0.12416556610E+04  0.21425551588E+04  0.17460910137E+04 0.  0.
        4    1    3    3  502    0  0.47072883716E+03 -0.26898844927E+03  0.14605036403E+04  0.15578873259E+04  0.12699999809E+01 0. -1.
       -4    1    3    3    0  502 -0.47072883716E+03  0.26898844927E+03 -0.21884797928E+03  0.58466783297E+03  0.12699999809E+01 0.  1.
</event>
<event>
 5   0  0.1814230E-05  0.2772599E+04  0.7818609E-02  0.8311826E-01
       -2   -1    0    0    0  501  0.00000000000E+00  0.00000000000E+00  0.14107134840E+04  0.14107134840E+04  0.25500000920E-02 0.  1.
        2   -1    0    0  501    0  0.00000000000E+00  0.00000000000E+00 -0.13623076401E+04  0.13623076401E+04  0.25500000920E-02 0. -1.
    10030    2    1    2    0    0  0.00000000000E+00  0.00000000000E+00  0.48405843875E+02  0.27730211241E+04  0.27725986059E+04 0.  0.
        5    1    3    3  502    0 -0.30222462697E+03 -0.13483094334E+04  0.13613786615E+03  0.13884644979E+04  0.46999998093E+01 0.  1.
       -5    1    3    3    0  502  0.30222462697E+03  0.13483094334E+04 -0.87732022278E+02  0.13845566262E+04  0.46999998093E+01 0. -1.
</event>
<event>
 5   0  0.1832502E-05  0.2738148E+04  0.7818609E-02  0.8322732E-01
       -2   -1    0    0    0  501  0.00000000000E+00  0.00000000000E+00  0.19723927535E+04  0.19723927535E+04  0.25500000920E-02 0.  1.
        2   -1    0    0  501    0  0.00000000000E+00  0.00000000000E+00 -0.95029919202E+03  0.95029919203E+03  0.25500000920E-02 0. -1.
    10030    2    1    2    0    0  0.00000000000E+00  0.00000000000E+00  0.10220935615E+04  0.29226919455E+04  0.27381477243E+04 0.  0.
        2    1    3    3  502    0  0.80507384398E+03  0.91470039573E+03  0.11772452174E+04  0.16943219912E+04  0.25500000920E-02 0.  1.
       -2    1    3    3    0  502 -0.80507384398E+03 -0.91470039573E+03 -0.15515165590E+03  0.12283699543E+04  0.25500000920E-02 0. -1.
</event>
<event>
 5   0  0.1832502E-05  0.2793048E+04  0.7818609E-02  0.8305430E-01
        2   -1    0    0  501    0  0.00000000000E+00  0.00000000000E+00  0.60473020923E+03  0.60473020923E+03  0.25500000920E-02 0. -1.
       -2   -1    0    0    0  501  0.00000000000E+00  0.00000000000E+00 -0.32250394811E+04  0.32250394811E+04  0.25500000920E-02 0.  1.
    10030    2    1    2    0    0  0.00000000000E+00  0.00000000000E+00 -0.26203092719E+04  0.38297696903E+04  0.27930476546E+04 0.  0.
        2    1    3    3  502    0  0.74380059797E+03  0.55644405880E+03 -0.27400059193E+04  0.28931819435E+04  0.25500000920E-02 0.  1.
       -2    1    3    3    0  502 -0.74380059797E+03 -0.55644405880E+03  0.11969664747E+03  0.93658774684E+03  0.25500000920E-02 0. -1.
</event>
<event>
 5   0  0.7555871E-06  0.2898915E+04  0.7818609E-02  0.8273200E-01
        1   -1    0    0  501    0  0.00000000000E+00  0.00000000000E+00  0.23186984621E+04  0.23186984621E+04  0.50400001928E-02 0. -1.
       -1   -1    0    0    0  501  0.00000000000E+00  0.00000000000E+00 -0.90608030500E+03  0.90608030501E+03  0.50400001928E-02 0.  1.
    10030    2    1    2    0    0  0.00000000000E+00  0.00000000000E+00  0.14126181571E+04  0.32247787671E+04  0.28989149762E+04 0.  0.
        3    1    3    3  502    0 -0.51767435928E+03 -0.10741863188E+04  0.16229934023E+04  0.20139440369E+04  0.10100000352E+00 0. -1.
       -3    1    3    3    0  502  0.51767435928E+03  0.10741863188E+04 -0.21037524518E+03  0.12108347302E+04  0.10100000352E+00 0.  1.
</event>
<event>
 5   0  0.7681342E-06  0.2852750E+04  0.7818609E-02  0.8287076E-01
        1   -1    0    0  501    0  0.00000000000E+00  0.00000000000E+00  0.19860777763E+04  0.19860777763E+04  0.50400001928E-02 0. -1.
       -1   -1    0    0    0  501  0.00000000000E+00  0.00000000000E+00 -0.10244035201E+04  0.10244035201E+04  0.50400001928E-02 0.  1.
    10030    2    1    2    0    0  0.00000000000E+00  0.00000000000E+00  0.96167425621E+03  0.30104812964E+04  0.28527495966E+04 0.  0.
        2    1    3    3  502    0  0.12798362239E+04 -0.55399870837E+03  0.16486644519E+03  0.14043063318E+04  0.25500000920E-02 0.  1.
       -2    1    3    3    0  502 -0.12798362239E+04  0.55399870837E+03  0.79680781102E+03  0.16061749645E+04  0.25500000920E-02 0. -1.
</event>
<event>
 5   0  0.1904553E-05  0.2587332E+04  0.7818609E-02  0.8372517E-01
       -2   -1    0    0    0  501  0.00000000000E+00  0.00000000000E+00  0.13577659696E+04  0.13577659696E+04  0.25500000920E-02 0. -1.
        2   -1    0    0  501    0  0.00000000000E+00  0.00000000000E+00 -0.12325922386E+04  0.12325922386E+04  0.25500000920E-02 0.  1.
    10030    2    1    2    0    0  0.00000000000E+00  0.00000000000E+00  0.12517373097E+03  0.25903582082E+04  0.25873320590E+04 0.  0.
        1    1    3    3  502    0  0.28242816542E+03  0.10067561441E+04  0.82521803880E+03  0.13320316865E+04  0.50400001928E-02 0. -1.
       -1    1    3    3    0  502 -0.28242816542E+03 -0.10067561441E+04 -0.70004430782E+03  0.12583265217E+04  0.50400001928E-02 0.  1.
</event>
<event>
 5   0  0.7681342E-06  0.2771485E+04  0.7818609E-02  0.8312176E-01
        1   -1    0    0  501    0  0.00000000000E+00  0.00000000000E+00  0.17082749122E+04  0.17082749122E+04  0.50400001928E-02 0. -1.
       -1   -1    0    0    0  501  0.00000000000E+00  0.00000000000E+00 -0.11241059056E+04  0.11241059056E+04  0.50400001928E-02 0.  1.
    10030    2    1    2    0    0  0.00000000000E+00  0.00000000000E+00  0.58416900659E+03  0.28323808178E+04  0.27714847409E+04 0.  0.
        2    1    3    3  502    0  0.59499401841E+03 -0.12020255936E+04  0.64816306483E+03  0.14896304133E+04  0.25500000920E-02 0.  1.
       -2    1    3    3    0  502 -0.59499401841E+03  0.12020255936E+04 -0.63994058244E+02  0.13427504046E+04  0.25500000920E-02 0. -1.
</event>
<event>
 5   0  0.7613444E-06  0.2857253E+04  0.7818609E-02  0.8285711E-01
        1   -1    0    0  501    0  0.00000000000E+00  0.00000000000E+00  0.15100053494E+04  0.15100053495E+04  0.50400001928E-02 0.  1.
       -1   -1    0    0    0  501  0.00000000000E+00  0.00000000000E+00 -0.13516338568E+04  0.13516338568E+04  0.50400001928E-02 0. -1.
    10030    2    1    2    0    0  0.00000000000E+00  0.00000000000E+00  0.15837149266E+03  0.28616392062E+04  0.28572534744E+04 0.  0.
        5    1    3    3  502    0  0.46884975917E+03 -0.60082443583E+03 -0.11310324513E+04  0.13638425845E+04  0.46999998093E+01 0. -1.
       -5    1    3    3    0  502 -0.46884975917E+03  0.60082443583E+03  0.12894039440E+04  0.14977966217E+04  0.46999998093E+01 0.  1.
</event>
<event>
 5   0  0.1814230E-05  0.2730077E+04  0.7818609E-02  0.8325311E-01
        2   -1    0    0  501    0  0.00000000000E+00  0.00000000000E+00  0.21776854239E+04  0.21776854239E+04  0.25500000920E-02 0.  1.
       -2   -1    0    0    0  501  0.00000000000E+00  0.00000000000E+00 -0.85564716064E+03  0.85564716064E+03  0.25500000920E-02 0. -1.
    10030    2    1    2    0    0  0.00000000000E+00  0.00000000000E+00  0.13220382632E+04  0.30333325845E+04  0.27300771782E+04 0.  0.
        5    1    3    3  502    0 -0.95612356776E+03  0.51445340157E+03  0.15802476350E+04  0.19172999914E+04  0.46999998093E+01 0.  1.
       -5    1    3    3    0  502  0.95612356776E+03 -0.51445340157E+03 -0.25820937174E+03  0.11160325931E+04  0.46999998093E+01 0. -1.
</event>
<event>
 5   0  0.7681342E-06  0.2384452E+04  0.7818609E-02  0.8445348E-01
       -1   -1    0    0    0  501  0.00000000000E+00  0.00000000000E+00  0.10113643375E+04  0.10113643376E+04  0.50400001928E-02 0.  1.
        1   -1    0    0  501    0  0.00000000000E+00  0.00000000000E+00 -0.14054309120E+04  0.14054309120E+04  0.50400001928E-02 0. -1.
    10030    2    1    2    0    0  0.00000000000E+00  0.00000000000E+00 -0.39406657447E+03  0.24167952496E+04  0.23844518895E+04 0.  0.
        2    1    3    3  502    0  0.27665688472E+02  0.11890608377E+04 -0.11362712539E+03  0.11947979702E+04  0.25500000920E-02 0. -1.
       -2    1    3    3    0  502 -0.27665688472E+02 -0.11890608377E+04 -0.28043944908E+03  0.12219972793E+04  0.25500000920E-02 0.  1.
</event>
<event>
 5   0  0.7555871E-06  0.2628133E+04  0.7818609E-02  0.8358707E-01
        1   -1    0    0  501    0  0.00000000000E+00  0.00000000000E+00  0.18618187157E+04  0.18618187158E+04  0.50400001928E-02 0.  1.
       -1   -1    0    0    0  501  0.00000000000E+00  0.00000000000E+00 -0.92746482870E+03  0.92746482872E+03  0.50400001928E-02 0. -1.
    10030    2    1    2    0    0  0.00000000000E+00  0.00000000000E+00  0.93435388704E+03  0.27892835445E+04  0.26281334641E+04 0.  0.
        3    1    3    3  502    0  0.46272729136E+03  0.38421616625E+02 -0.83750047566E+03  0.95760107755E+03  0.10100000352E+00 0. -1.
       -3    1    3    3    0  502 -0.46272729136E+03 -0.38421616625E+02  0.17718543627E+04  0.18316824669E+04  0.10100000352E+00 0.  1.
</event>
<event>
 5   0  0.7613444E-06  0.2839637E+04  0.7818609E-02  0.8291067E-01
        1   -1    0    0  501    0  0.00000000000E+00  0.00000000000E+00  0.21248717988E+04  0.21248717988E+04  0.50400001928E-02 0. -1.
       -1   -1    0    0    0  501  0.00000000000E+00  0.00000000000E+00 -0.94870859831E+03  0.94870859832E+03  0.50400001928E-02 0.  1.
    10030    2    1    2    0    0  0.00000000000E+00  0.00000000000E+00  0.11761632005E+04  0.30735803971E+04  0.28396366992E+04 0.  0.
        5    1    3    3  502    0  0.13214686648E+02  0.97133033424E+03  0.17088623754E+04  0.19656779885E+04  0.46999998093E+01 0. -1.
       -5    1    3    3    0  502 -0.13214686648E+02 -0.97133033424E+03 -0.53269917494E+03  0.11079024087E+04  0.46999998093E+01 0.  1.
</event>
<event>
 5   0  0.1832502E-05  0.2746615E+04  0.7818609E-02  0.8320037E-01
       -2   -1    0    0    0  501  0.00000000000E+00  0.00000000000E+00  0.14855850811E+04  0.14855850811E+04  0.25500000920E-02 0. -1.
        2   -1    0    0  501    0  0.00000000000E+00  0.00000000000E+00 -0.12695152164E+04  0.12695152164E+04  0.25500000920E-02 0.  1.
    10030    2    1    2    0    0  0.00000000000E+00  0.00000000000E+00  0.21606986479E+03  0.27551002975E+04  0.27466145457E+04 0.  0.
        2    1    3    3  502    0 -0.11558991529E+04 -0.21715234454E+03 -0.60317950682E+03  0.13217728662E+04  0.25500000920E-02 0.  1.
       -2    1    3    3    0  502  0.11558991529E+04  0.21715234454E+03  0.81924937161E+03  0.14333274313E+04  0.25500000920E-02 0. -1.
</event>
<event>
 5   0  0.1904553E-05  0.2856815E+04  0.7818609E-02  0.8285844E-01
        2   -1    0    0  501    0  0.00000000000E+00  0.00000000000E+00  0.14493702506E+04  0.14493702506E+04  0.25500000920E-02 0. -1.
       -2   -1    0    0    0  501  0.00000000000E+00  0.00000000000E+00 -0.14077477208E+04  0.14077477208E+04  0.25500000920E-02 0.  1.
    10030    2    1    2    0    0  0.00000000000E+00  0.00000000000E+00  0.41622529886E+02  0.28571179714E+04  0.28568147765E+04 0.  0.
        1    1    3    3  502    0  0.15201050921E+03 -0.25759597144E+03 -0.13760777449E+04  0.14082090894E+04  0.50400001928E-02 0.  1.
       -1    1    3    3    0  502 -0.15201050921E+03  0.25759597144E+03  0.14177002747E+04  0.14489088820E+04  0.50400001928E-02 0. -1.
</event>
<event>
 5   0  0.7555871E-06  0.2815367E+04  0.7818609E-02  0.8298513E-01
       -1   -1    0    0    0  501  0.00000000000E+00  0.00000000000E+00  0.13857362029E+04  0.13857362029E+04  0.50400001928E-02 0.  1.
        1   -1    0    0  501    0  0.00000000000E+00  0.00000000000E+00 -0.14299784147E+04  0.14299784147E+04  0.50400001928E-02 0. -1.
    10030    2    1    2    0    0  0.00000000000E+00  0.00000000000E+00 -0.44242211843E+02  0.28157146176E+04  0.28153670160E+04 0.  0.
        3    1    3    3  502    0  0.11431463723E+03 -0.76784473350E+03 -0.11965401101E+04  0.14263104908E+04  0.10100000352E+00 0. -1.
       -3    1    3    3    0  502 -0.11431463723E+03  0.76784473350E+03  0.11522978982E+04  0.13894041268E+04  0.10100000352E+00 0.  1.
</event>
<event>
 5   0  0.1904553E-05  0.2844063E+04  0.7818609E-02  0.8289718E-01
        2   -1    0    0  501    0  0.00000000000E+00  0.00000000000E+00  0.13614826360E+04  0.13614826360E+04  0.25500000920E-02 0.  1.
       -2   -1    0    0    0  501  0.00000000000E+00  0.00000000000E+00 -0.14852733606E+04  0.14852733606E+04  0.25500000920E-02 0. -1.
    10030    2    1    2    0    0  0.00000000000E+00  0.00000000000E+00 -0.12379072465E+03  0.28467559966E+04  0.28440632132E+04 0.  0.
        1    1    3    3  502    0 -0.65438362006E+03 -0.98443154920E+03 -0.85311864349E+03  0.14577842149E+04  0.50400001928E-02 0. -1.
       -1    1    3    3    0  502  0.65438362006E+03  0.98443154920E+03  0.72932791884E+03  0.13889717817E+04  0.50400001928E-02 0.  1.
</event>
<event>
 5   0  0.1904553E-05  0.2781195E+04  0.7818609E-02  0.8309130E-01
       -2   -1    0    0    0  501  0.00000000000E+00  0.00000000000E+00  0.17793639510E+04  0.17793639510E+04  0.25500000920E-02 0. -1.
        2   -1    0    0  501    0  0.00000000000E+00  0.00000000000E+00 -0.10867712603E+04  0.10867712603E+04  0.25500000920E-02 0.  1.
    10030    2    1    2    0    0  0.00000000000E+00  0.00000000000E+00  0.69259269070E+03  0.28661352113E+04  0.27811951413E+04 0.  0.
        1    1    3    3  502    0 -0.73911604636E+03 -0.10156002091E+04 -0.26860527332E+03  0.12844785353E+04  0.50400001928E-02 0.  1.
       -1    1    3    3    0  502  0.73911604636E+03  0.10156002091E+04  0.96119796402E+03  0.15816566760E+04  0.50400001928E-02 0. -1.
</event>
<event>
 5   0  0.1814230E-05  0.2841044E+04  0.7818609E-02  0.8290638E-01
        2   -1    0    0  501    0  0.00000000000E+00  0.00000000000E+00  0.13467787635E+04  0.13467787635E+04  0.25500000920E-02 0. -1.
       -2   -1    0    0    0  501  0.00000000000E+00  0.00000000000E+00 -0.14983030203E+04  0.14983030203E+04  0.25500000920E-02 0.  1.
    10030    2    1    2    0    0  0.00000000000E+00  0.00000000000E+00 -0.15152425674E+03  0.28450817838E+04  0.28410439553E+04 0.  0.
        5    1    3    3  502    0  0.79078909738E+03  0.14464371407E+02 -0.12573984581E+04  0.14854728496E+04  0.46999998093E+01 0.  1.
       -5    1    3    3    0  502 -0.79078909738E+03 -0.14464371407E+02  0.11058742014E+04  0.13596089341E+04  0.46999998093E+01 0. -1.
</event>
<event>
 5   0  0.1874272E-05  0.2818062E+04  0.7818609E-02  0.8297683E-01
       -2   -1    0    0    0  501  0.00000000000E+00  0.00000000000E+00  0.99163529349E+03  0.99163529349E+03  0.25500000920E-02 0.  1.
        2   -1    0    0  501    0  0.00000000000E+00  0.00000000000E+00 -0.20021158501E+04  0.20021158501E+04  0.25500000920E-02 0. -1.
    10030    2    1    2    0    0  0.00000000000E+00  0.00000000000E+00 -0.10104805566E+04  0.29937511436E+04  0.28180622695E+04 0.  0.
        3    1    3    3  502    0  0.13234008514E+04 -0.26649372165E+03 -0.93409049568E+03  0.16416253475E+04  0.10100000352E+00 0.  1.
       -3    1    3    3    0  502 -0.13234008514E+04  0.26649372165E+03 -0.76390060966E+02  0.13521257962E+04  0.10100000352E+00 0. -1.
</event>
<event>
 5   0  0.7388013E-06  0.2732452E+04  0.7818609E-02  0.8324552E-01
        1   -1    0    0  501    0  0.00000000000E+00  0.00000000000E+00  0.11412826440E+04  0.11412826440E+04  0.50400001928E-02 0. -1.
       -1   -1    0    0    0  501  0.00000000000E+00  0.00000000000E+00 -0.16355047901E+04  0.16355047901E+04  0.50400001928E-02 0.  1.
    10030    2    1    2    0    0  0.00000000000E+00  0.00000000000E+00 -0.49422214611E+03  0.27767874341E+04  0.27324518156E+04 0.  0.
        1    1    3    3  502    0 -0.84907671698E+03 -0.59143090426E+03 -0.11536910602E+04  0.15497499308E+04  0.50400001928E-02 0.  1.
       -1    1    3    3    0  502  0.84907671698E+03  0.59143090426E+03  0.65946891404E+03  0.12270375033E+04  0.50400001928E-02 0. -1.
</event>
<event>
 5   0  0.7388013E-06  0.2411895E+04  0.7818609E-02  0.8435064E-01
        1   -1    0    0  501    0  0.00000000000E+00  0.00000000000E+00  0.23384582945E+04  0.23384582945E+04  0.50400001928E-02 0. -1.
       -1   -1    0    0    0  501  0.00000000000E+00  0.00000000000E+00 -0.62190932581E+03  0.62190932583E+03  0.50400001928E-02 0.  1.
    10030    2    1    2    0    0  0.00000000000E+00  0.00000000000E+00  0.17165489687E+04  0.29603676204E+04  0.24118947087E+04 0.  0.
        1    1    3    3  502    0 -0.69713946424E+03  0.97990552682E+03  0.96867767351E+03  0.15442003462E+04  0.50400001928E-02 0. -1.
       -1    1    3    3    0  502  0.69713946424E+03 -0.97990552682E+03  0.74787129522E+03  0.14161672741E+04  0.50400001928E-02 0.  1.
</event>
<event>
 5   0  0.7555871E-06  0.2802093E+04  0.7818609E-02  0.8302619E-01
        1   -1    0    0  501    0  0.00000000000E+00  0.00000000000E+00  0.16499331973E+04  0.16499331973E+04  0.50400001928E-02 0. -1.
       -1   -1    0    0    0  501  0.00000000000E+00  0.00000000000E+00 -0.11897035491E+04  0.11897035491E+04  0.50400001928E-02 0.  1.
    10030    2    1    2    0    0  0.00000000000E+00  0.00000000000E+00  0.46022964825E+03  0.28396367464E+04  0.28020930610E+04 0.  0.
        3    1    3    3  502    0 -0.13240147230E+04 -0.44103476402E+03  0.10433611165E+03  0.13994329867E+04  0.10100000352E+00 0.  1.
       -3    1    3    3    0  502  0.13240147230E+04  0.44103476402E+03  0.35589353659E+03  0.14402037597E+04  0.10100000352E+00 0. -1.
</event>
<event>
 5   0  0.1814230E-05  0.2813404E+04  0.7818609E-02  0.8299119E-01
        2   -1    0    0  501    0  0.00000000000E+00  0.00000000000E+00  0.16895073290E+04  0.16895073290E+04  0.25500000920E-02 0.  1.
       -2   -1    0    0    0  501  0.00000000000E+00  0.00000000000E+00 -0.11712355755E+04  0.11712355755E+04  0.25500000920E-02 0. -1.
    10030    2    1    2    0    0  0.00000000000E+00  0.00000000000E+00  0.51827175352E+03  0.28607429045E+04  0.28134044066E+04 0.  0.
        5    1    3    3  502    0 -0.42216774538E+03 -0.80306898864E+03  0.13522326795E+04  0.16284043464E+04  0.46999998093E+01 0.  1.
       -5    1    3    3    0  502  0.42216774538E+03  0.80306898864E+03 -0.83396092599E+03  0.12323385581E+04  0.46999998093E+01 0. -1.
</event>
<event>
 5   0  0.1904553E-05  0.2706516E+04  0.7818609E-02  0.8332894E-01
        2   -1    0    0  501    0  0.00000000000E+00  0.00000000000E+00  0.26896971839E+04  0.26896971839E+04  0.25500000920E-02 0. -1.
       -2   -1    0    0    0  501  0.00000000000E+00  0.00000000000E+00 -0.68086024733E+03  0.68086024733E+03  0.25500000920E-02 0.  1.
    10030    2    1    2    0    0  0.00000000000E+00  0.00000000000E+00  0.20088369365E+04  0.33705574312E+04  0.27065164990E+04 0.  0.
        1    1    3    3  502    0 -0.13393724925E+02 -0.86740543337E+03  0.22978656582E+04  0.24561673723E+04  0.50400001928E-02 0. -1.
       -1    1    3    3    0  502  0.13393724925E+02  0.86740543337E+03 -0.28902872170E+03  0.91439005884E+03  0.50400001928E-02 0.  1.
</event>
<event>
 5   0  0.7613444E-06  0.2777024E+04  0.7818609E-02  0.8310437E-01
        1   -1    0    0  501    0  0.00000000000E+00  0.00000000000E+00  0.23324130379E+04  0.23324130379E+04  0.50400001928E-02 0. -1.
       -1   -1    0    0    0  501  0.00000000000E+00  0.00000000000E+00 -0.82659693662E+03  0.82659693663E+03  0.50400001928E-02 0.  1.
    10030    2    1    2    0    0  0.00000000000E+00  0.00000000000E+00  0.15058161012E+04  0.31590099745E+04  0.27770239265E+04 0.  0.
        5    1    3    3  502    0 -0.45913064062E+03  0.50127062636E+03 -0.62436209318E+03  0.92299691192E+03  0.46999998093E+01 0.  1.
       -5    1    3    3    0  502  0.45913064062E+03 -0.50127062636E+03  0.21301781944E+04  0.22360130626E+04  0.46999998093E+01 0. -1.
</event>
<event>
 5   0  0.7613444E-06  0.2958571E+04  0.7818609E-02  0.8255661E-01
        1   -1    0    0  501    0  0.00000000000E+00  0.00000000000E+00  0.10854554999E+04  0.10854554999E+04  0.50400001928E-02 0. -1.
       -1   -1    0    0    0  501  0.00000000000E+00  0.00000000000E+00 -0.20160061880E+04  0.20160061881E+04  0.50400001928E-02 0.  1.
    10030    2    1    2    0    0  0.00000000000E+00  0.00000000000E+00 -0.93055068815E+03  0.31014616880E+04  0.29585706040E+04 0.  0.
        5    1    3    3  502    0 -0.45769498977E+03  0.39938022462E+02  0.10087601285E+04  0.11084668854E+04  0.46999998093E+01 0. -1.
       -5    1    3    3    0  502  0.45769498977E+03 -0.39938022462E+02 -0.19393108166E+04  0.19929948025E+04  0.46999998093E+01 0.  1.
</event>
<event>
 5   0  0.1904553E-05  0.2265387E+04  0.7818609E-02  0.8491695E-01
       -2   -1    0    0    0  501  0.00000000000E+00  0.00000000000E+00  0.10898555605E+04  0.10898555605E+04  0.25500000920E-02 0.  1.
        2   -1    0    0  501    0  0.00000000000E+00  0.00000000000E+00 -0.11772151161E+04  0.11772151161E+04  0.25500000920E-02 0. -1.
    10030    2    1    2    0    0  0.00000000000E+00  0.00000000000E+00 -0.87359555674E+02  0.22670706766E+04  0.22653868899E+04 0.  0.
        1    1    3    3  502    0 -0.78276202806E+03 -0.59738930428E+03  0.51656135371E+03  0.11119469437E+04  0.50400001928E-02 0.  1.
       -1    1    3    3    0  502  0.78276202806E+03  0.59738930428E+03 -0.60392090939E+03  0.11551237329E+04  0.50400001928E-02 0. -1.
</event>
<event>
 5   0  0.7555871E-06  0.2474667E+04  0.7818609E-02  0.8412066E-01
        1   -1    0    0  501    0  0.00000000000E+00  0.00000000000E+00  0.20817090519E+04  0.20817090519E+04  0.50400001928E-02 0.  1.
       -1   -1    0    0    0  501  0.00000000000E+00  0.00000000000E+00 -0.73545071133E+03  0.73545071135E+03  0.50400001928E-02 0. -1.
    10030    2    1    2    0    0  0.00000000000E+00  0.00000000000E+00  0.13462583405E+04  0.28171597632E+04  0.24746671720E+04 0.  0.
        3    1    3    3  502    0 -0.10200967808E+04  0.64495416542E+03  0.36255035747E+03  0.12601611364E+04  0.10100000352E+00 0. -1.
       -3    1    3    3    0  502  0.10200967808E+04 -0.64495416542E+03  0.98370798305E+03  0.15569986268E+04  0.10100000352E+00 0.  1.
</event>
<event>
 5   0  0.7681342E-06  0.2792515E+04  0.7818609E-02  0.8305596E-01
       -1   -1    0    0    0  501  0.00000000000E+00  0.00000000000E+00  0.14278964757E+04  0.14278964758E+04  0.50400001928E-02 0.  1.
        1   -1    0    0  501    0  0.00000000000E+00  0.00000000000E+00 -0.13653196603E+04  0.13653196604E+04  0.50400001928E-02 0. -1.
    10030    2    1    2    0    0  0.00000000000E+00  0.00000000000E+00  0.62576815399E+02  0.27932161361E+04  0.27925150895E+04 0.  0.
        2    1    3    3  502    0  0.52781170515E+03 -0.12883228845E+04  0.13702246801E+03  0.13989768431E+04  0.25500000920E-02 0. -1.
       -2    1    3    3    0  502 -0.52781170515E+03  0.12883228845E+04 -0.74445652611E+02  0.13942392930E+04  0.25500000920E-02 0.  1.
</event>
<event>
 5   0  0.7509685E-06  0.2786013E+04  0.7818609E-02  0.8307624E-01
        1   -1    0    0  501    0  0.00000000000E+00  0.00000000000E+00  0.13621692392E+04  0.13621692392E+04  0.50400001928E-02 0. -1.
       -1   -1    0    0    0  501  0.00000000000E+00  0.00000000000E+00 -0.14245414000E+04  0.14245414000E+04  0.50400001928E-02 0.  1.
    10030    2    1    2    0    0  0.00000000000E+00  0.00000000000E+00 -0.62372160828E+02  0.27867106392E+04  0.27860125449E+04 0.  0.
        4    1    3    3  502    0  0.29227857724E+02  0.21772550389E+02 -0.14240638409E+04  0.14245307113E+04  0.12699999809E+01 0.  1.
       -4    1    3    3    0  502 -0.29227857724E+02 -0.21772550389E+02  0.13616916801E+04  0.13621799279E+04  0.12699999809E+01 0. -1.
</event>
<event>
 5   0  0.7509685E-06  0.2818271E+04  0.7818609E-02  0.8297618E-01
       -1   -1    0    0    0  501  0.00000000000E+00  0.00000000000E+00  0.13726788862E+04  0.13726788862E+04  0.50400001928E-02 0. -1.
        1   -1    0    0  501    0  0.00000000000E+00  0.00000000000E+00 -0.14465606128E+04  0.14465606128E+04  0.50400001928E-02 0.  1.
    10030    2    1    2    0    0  0.00000000000E+00  0.00000000000E+00 -0.73881726576E+02  0.28192394990E+04  0.28182712508E+04 0.  0.
        4    1    3    3  502    0 -0.10414262482E+04  0.88659322720E+03 -0.37624084960E+03  0.14185115335E+04  0.12699999809E+01 0.  1.
       -4    1    3    3    0  502  0.10414262482E+04 -0.88659322720E+03  0.30235912303E+03  0.14007279654E+04  0.12699999809E+01 0. -1.
</event>
<event>
 5   0  0.7388013E-06  0.1799472E+04  0.7818609E-02  0.8706580E-01
       -1   -1    0    0    0  501  0.00000000000E+00  0.00000000000E+00  0.10165119606E+04  0.10165119606E+04  0.50400001928E-02 0. -1.
        1   -1    0    0  501    0  0.00000000000E+00  0.00000000000E+00 -0.79637554830E+03  0.79637554831E+03  0.50400001928E-02 0.  1.
    10030    2    1    2    0    0  0.00000000000E+00  0.00000000000E+00  0.22013641233E+03  0.18128875089E+04  0.17994724449E+04 0.  0.
        1    1    3    3  502    0  0.38331684437E+03  0.34416130329E+03  0.85323032044E+03  0.99668489785E+03  0.50400001928E-02 0. -1.
       -1    1    3    3    0  502 -0.38331684437E+03 -0.34416130329E+03 -0.63309390811E+03  0.81620261110E+03  0.50400001928E-02 0.  1.
</event>
<event>
 5   0  0.7555871E-06  0.2910368E+04  0.7818609E-02  0.8269799E-01
       -1   -1    0    0    0  501  0.00000000000E+00  0.00000000000E+00  0.22711804757E+04  0.22711804757E+04  0.50400001928E-02 0.  1.
        1   -1    0    0  501    0  0.00000000000E+00  0.00000000000E+00 -0.93236132073E+03  0.93236132075E+03  0.50400001928E-02 0. -1.
    10030    2    1    2    0    0  0.00000000000E+00  0.00000000000E+00  0.13388191550E+04  0.32035417965E+04  0.29103682434E+04 0.  0.
        3    1    3    3  502    0 -0.10812924531E+04  0.62645286710E+03  0.14901205933E+04  0.19447611566E+04  0.10100000352E+00 0.  1.
       -3    1    3    3    0  502  0.10812924531E+04 -0.62645286710E+03 -0.15130143828E+03  0.12587806398E+04  0.10100000352E+00 0. -1.
</event>
<event>
 5   0  0.7509685E-06  0.2815900E+04  0.7818609E-02  0.8298349E-01
        1   -1    0    0  501    0  0.00000000000E+00  0.00000000000E+00  0.82982461349E+03  0.82982461351E+03  0.50400001928E-02 0.  1.
       -1   -1    0    0    0  501  0.00000000000E+00  0.00000000000E+00 -0.23888453627E+04  0.23888453627E+04  0.50400001928E-02 0. -1.
    10030    2    1    2    0    0  0.00000000000E+00  0.00000000000E+00 -0.15590207492E+04  0.32186699763E+04  0.28158996288E+04 0.  0.
        4    1    3    3  502    0  0.76238928995E+03  0.41810231071E+03  0.48625454571E+03  0.99623896119E+03  0.12699999809E+01 0.  1.
       -4    1    3    3    0  502 -0.76238928995E+03 -0.41810231071E+03 -0.20452752950E+04  0.22224310151E+04  0.12699999809E+01 0. -1.
</event>
<event>
 5   0  0.1874272E-05  0.2807893E+04  0.7818609E-02  0.8300822E-01
       -2   -1    0    0    0  501  0.00000000000E+00  0.00000000000E+00  0.14654768008E+04  0.14654768008E+04  0.25500000920E-02 0. -1.
        2   -1    0    0  501    0  0.00000000000E+00  0.00000000000E+00 -0.13449999549E+04  0.13449999549E+04  0.25500000920E-02 0.  1.
    10030    2    1    2    0    0  0.00000000000E+00  0.00000000000E+00  0.12047684595E+03  0.28104767557E+04  0.28078933249E+04 0.  0.
        3    1    3    3  502    0 -0.36497976101E+03  0.20428740675E+03 -0.12811896416E+04  0.13477353147E+04  0.10100000352E+00 0.  1.
       -3    1    3    3    0  502  0.36497976101E+03 -0.20428740675E+03  0.14016664876E+04  0.14627414410E+04  0.10100000352E+00 0. -1.
</event>
<event>
 5   0  0.7681342E-06  0.2861534E+04  0.7818609E-02  0.8284415E-01
        1   -1    0    0  501    0  0.00000000000E+00  0.00000000000E+00  0.12494353870E+04  0.12494353871E+04  0.50400001928E-02 0. -1.
       -1   -1    0    0    0  501  0.00000000000E+00  0.00000000000E+00 -0.16384156003E+04  0.16384156004E+04  0.50400001928E-02 0.  1.
    10030    2    1    2    0    0  0.00000000000E+00  0.00000000000E+00 -0.38898021330E+03  0.28878509874E+04  0.28615341548E+04 0.  0.
        2    1    3    3  502    0 -0.60260482627E+03 -0.88186128217E+03 -0.11552340399E+04  0.15733332719E+04  0.25500000920E-02 0.  1.
       -2    1    3    3    0  502  0.60260482627E+03  0.88186128217E+03  0.76625382656E+03  0.13145177155E+04  0.25500000920E-02 0. -1.
</event>
<event>
 5   0  0.7555871E-06  0.2146949E+04  0.7818609E-02  0.8540839E-01
        1   -1    0    0  501    0  0.00000000000E+00  0.00000000000E+00  0.22431057325E+04  0.22431057325E+04  0.50400001928E-02 0. -1.
       -1   -1    0    0    0  501  0.00000000000E+00  0.00000000000E+00 -0.51372841428E+03  0.51372841430E+03  0.50400001928E-02 0.  1.
    10030    2    1    2    0    0  0.00000000000E+00  0.00000000000E+00  0.17293773182E+04  0.27568341468E+04  0.21469486729E+04 0.  0.
        3    1    3    3  502    0 -0.49991805395E+03 -0.15803570809E+03 -0.33813262909E+03  0.62388062219E+03  0.10100000352E+00 0.  1.
       -3    1    3    3    0  502  0.49991805395E+03  0.15803570809E+03  0.20675099473E+04  0.21329535246E+04  0.10100000352E+00 0. -1.
</event>
<event>
 5   0  0.7681342E-06  0.2766639E+04  0.7818609E-02  0.8313701E-01
       -1   -1    0    0    0  501  0.00000000000E+00  0.00000000000E+00  0.23324718682E+04  0.23324718682E+04  0.50400001928E-02 0. -1.
        1   -1    0    0  501    0  0.00000000000E+00  0.00000000000E+00 -0.82040526158E+03  0.82040526159E+03  0.50400001928E-02 0.  1.
    10030    2    1    2    0    0  0.00000000000E+00  0.00000000000E+00  0.15120666066E+04  0.31528771298E+04  0.27666385331E+04 0.  0.
        2    1    3    3  502    0  0.11787627143E+04 -0.71935803692E+03  0.66334845205E+03  0.15319884761E+04  0.25500000920E-02 0. -1.
       -2    1    3    3    0  502 -0.11787627143E+04  0.71935803692E+03  0.84871815459E+03  0.16208886538E+04  0.25500000920E-02 0.  1.
</event>
<event>
 5   0  0.1904553E-05  0.2790052E+04  0.7818609E-02  0.8306363E-01
       -2   -1    0    0    0  501  0.00000000000E+00  0.00000000000E+00  0.74243244025E+03  0.74243244025E+03  0.25500000920E-02 0.  1.
        2   -1    0    0  501    0  0.00000000000E+00  0.00000000000E+00 -0.26212453895E+04  0.26212453895E+04  0.25500000920E-02 0. -1.
    10030    2    1    2    0    0  0.00000000000E+00  0.00000000000E+00 -0.18788129493E+04  0.33636778298E+04  0.27900520504E+04 0.  0.
        1    1    3    3  502    0  0.85056701016E+03 -0.16330108294E+03  0.37903703710E+03  0.94541025909E+03  0.50400001928E-02 0.  1.
       -1    1    3    3    0  502 -0.85056701016E+03  0.16330108294E+03 -0.22578499864E+04  0.24182675707E+04  0.50400001928E-02 0. -1.
</event>
<event>
 5   0  0.7388013E-06  0.2838117E+04  0.7818609E-02  0.8291531E-01
        1   -1    0    0  501    0  0.00000000000E+00  0.00000000000E+00  0.17197761851E+04  0.17197761851E+04  0.50400001928E-02 0.  1.
       -1   -1    0    0    0  501  0.00000000000E+00  0.00000000000E+00 -0.11709238659E+04  0.11709238659E+04  0.50400001928E-02 0. -1.
    10030    2    1    2    0    0  0.00000000000E+00  0.00000000000E+00  0.54885231924E+03  0.28907000510E+04  0.28381169667E+04 0.  0.
        1    1    3    3  502    0 -0.11021025058E+04 -0.12840779157E+03  0.11754681204E+04  0.16164293354E+04  0.50400001928E-02 0.  1.
       -1    1    3    3    0  502  0.11021025058E+04  0.12840779157E+03 -0.62661580116E+03  0.12742707156E+04  0.50400001928E-02 0. -1.
</event>
<event>
 5   0  0.1832502E-05  0.2804484E+04  0.7818609E-02  0.8301878E-01
        2   -1    0    0  501    0  0.00000000000E+00  0.00000000000E+00  0.78209837176E+03  0.78209837176E+03  0.25500000920E-02 0. -1.
       -2   -1    0    0    0  501  0.00000000000E+00  0.00000000000E+00 -0.25141116520E+04  0.25141116520E+04  0.25500000920E-02 0.  1.
    10030    2    1    2    0    0  0.00000000000E+00  0.00000000000E+00 -0.17320132802E+04  0.32962100238E+04  0.28044840021E+04 0.  0.
        2    1    3    3  502    0 -0.41544704651E+03 -0.75862644317E+03  0.43122122461E+03  0.96646886825E+03  0.25500000920E-02 0. -1.
       -2    1    3    3    0  502  0.41544704651E+03  0.75862644317E+03 -0.21632345048E+04  0.23297411555E+04  0.25500000920E-02 0.  1.
</event>
<event>
 5   0  0.6288000E-06  0.2846938E+04  0.7818609E-02  0.8288842E-01
       -3   -1    0    0    0  501  0.00000000000E+00  0.00000000000E+00  0.11502181107E+04  0.11502181151E+04  0.10100000352E+00 0. -1.
        3   -1    0    0  501    0  0.00000000000E+00  0.00000000000E+00 -0.17616341351E+04  0.17616341380E+04  0.10100000352E+00 0.  1.
    10030    2    1    2    0    0  0.00000000000E+00  0.00000000000E+00 -0.61141602437E+03  0.29118522531E+04  0.28469376511E+04 0.  0.
        3    1    3    3  502    0  0.88509549843E+03 -0.88776308028E+02 -0.14423476196E+04  0.16945919686E+04  0.10100000352E+00 0.  1.
       -3    1    3    3    0  502 -0.88509549843E+03  0.88776308028E+02  0.83093159518E+03  0.12172602845E+04  0.10100000352E+00 0. -1.
</event>
<event>
 5   0  0.7388013E-06  0.2730684E+04  0.7818609E-02  0.8325117E-01
       -1   -1    0    0    0  501  0.00000000000E+00  0.00000000000E+00  0.11768384634E+04  0.11768384634E+04  0.50400001928E-02 0.  1.
        1   -1    0    0  501    0  0.00000000000E+00  0.00000000000E+00 -0.15840392803E+04  0.15840392803E+04  0.50400001928E-02 0. -1.
    10030    2    1    2    0    0  0.00000000000E+00  0.00000000000E+00 -0.40720081690E+03  0.27608777437E+04  0.27306836892E+04 0.  0.
        1    1    3    3  502    0 -0.31907963087E+03  0.10755405108E+04  0.58318095714E+03  0.12643967851E+04  0.50400001928E-02 0.  1.
       -1    1    3    3    0  502  0.31907963087E+03 -0.10755405108E+04 -0.99038177403E+03  0.14964809587E+04  0.50400001928E-02 0. -1.
</event>
<event>
 5   0  0.7555871E-06  0.2776475E+04  0.7818609E-02  0.8310609E-01
        1   -1    0    0  501    0  0.00000000000E+00  0.00000000000E+00  0.18271175141E+04  0.18271175141E+04  0.50400001928E-02 0.  1.
       -1   -1    0    0    0  501  0.00000000000E+00  0.00000000000E+00 -0.10547777024E+04  0.10547777024E+04  0.50400001928E-02 0. -1.
    10030    2    1    2    0    0  0.00000000000E+00  0.00000000000E+00  0.77233981173E+03  0.28818952165E+04  0.27764746089E+04 0.  0.
        3    1    3    3  502    0  0.57876862419E+03 -0.11087817756E+04 -0.23905700800E+03  0.12733885540E+04  0.10100000352E+00 0. -1.
       -3    1    3    3    0  502 -0.57876862419E+03  0.11087817756E+04  0.10113968197E+04  0.16085066625E+04  0.10100000352E+00 0.  1.
</event>
<event>
 5   0  0.1874272E-05  0.2837597E+04  0.7818609E-02  0.8291690E-01
       -2   -1    0    0    0  501  0.00000000000E+00  0.00000000000E+00  0.73550620566E+03  0.73550620567E+03  0.25500000920E-02 0. -1.
        2   -1    0    0  501    0  0.00000000000E+00  0.00000000000E+00 -0.27368764154E+04  0.27368764154E+04  0.25500000920E-02 0.  1.
    10030    2    1    2    0    0  0.00000000000E+00  0.00000000000E+00 -0.20013702097E+04  0.34723826210E+04  0.28375972848E+04 0.  0.
        3    1    3    3  502    0 -0.19134952020E+02 -0.43079949550E+03 -0.26547413540E+04  0.26895363947E+04  0.10100000352E+00 0.  1.
       -3    1    3    3    0  502  0.19134952020E+02  0.43079949550E+03  0.65337114427E+03  0.78284622633E+03  0.10100000352E+00 0. -1.
</event>
<event>
 5   0  0.1923559E-05  0.2801546E+04  0.7818609E-02  0.8302789E-01
       -2   -1    0    0    0  501  0.00000000000E+00  0.00000000000E+00  0.10534213159E+04  0.10534213159E+04  0.25500000920E-02 0.  1.
        2   -1    0    0  501    0  0.00000000000E+00  0.00000000000E+00 -0.18626587134E+04  0.18626587134E+04  0.25500000920E-02 0. -1.
    10030    2    1    2    0    0  0.00000000000E+00  0.00000000000E+00 -0.80923739756E+03  0.29160800293E+04  0.28015455684E+04 0.  0.
        4    1    3    3  502    0 -0.30519819426E+02  0.69422287786E+03  0.86136411232E+03  0.11067188489E+04  0.12699999809E+01 0.  1.
       -4    1    3    3    0  502  0.30519819426E+02 -0.69422287786E+03 -0.16706015099E+04  0.18093611804E+04  0.12699999809E+01 0. -1.
</event>
<event>
 5   0  0.7388013E-06  0.1785166E+04  0.7818609E-02  0.8714228E-01
        1   -1    0    0  501    0  0.00000000000E+00  0.00000000000E+00  0.76194566313E+03  0.76194566314E+03  0.50400001928E-02 0.  1.
       -1   -1    0    0    0  501  0.00000000000E+00  0.00000000000E+00 -0.10456187251E+04  0.10456187252E+04  0.50400001928E-02 0. -1.
    10030    2    1    2    0    0  0.00000000000E+00  0.00000000000E+00 -0.28367306202E+03  0.18075643883E+04  0.17851662701E+04 0.  0.
        1    1    3    3  502    0  0.82533017128E+03  0.23534828689E+03  0.10648723211E+03  0.86481109984E+03  0.50400001928E-02 0. -1.
       -1    1    3    3    0  502 -0.82533017128E+03 -0.23534828689E+03 -0.39016029413E+03  0.94275328847E+03  0.50400001928E-02 0.  1.
</event>
<event>
 5   0  0.7613444E-06  0.2803810E+04  0.7818609E-02  0.8302087E-01
        1   -1    0    0  501    0  0.00000000000E+00  0.00000000000E+00  0.14802401462E+04  0.14802401462E+04  0.50400001928E-02 0.  1.
       -1   -1    0    0    0  501  0.00000000000E+00  0.00000000000E+00 -0.13277151442E+04  0.13277151443E+04  0.50400001928E-02 0. -1.
    10030    2    1    2    0    0  0.00000000000E+00  0.00000000000E+00  0.15252500199E+03  0.28079552905E+04  0.28038097363E+04 0.  0.
        5    1    3    3  502    0  0.53766769535E+03 -0.42423014138E+03 -0.11487620864E+04  0.13374356749E+04  0.46999998093E+01 0. -1.
       -5    1    3    3    0  502 -0.53766769535E+03  0.42423014138E+03  0.13012870884E+04  0.14705196156E+04  0.46999998093E+01 0.  1.
</event>
<event>
 5   0  0.1874272E-05  0.2814511E+04  0.7818609E-02  0.8298778E-01
       -2   -1    0    0    0  501  0.00000000000E+00  0.00000000000E+00  0.11579754776E+04  0.11579754776E+04  0.25500000920E-02 0.  1.
        2   -1    0    0  501    0  0.00000000000E+00  0.00000000000E+00 -0.17101980026E+04  0.17101980026E+04  0.25500000920E-02 0. -1.
    10030    2    1    2    0    0  0.00000000000E+00  0.00000000000E+00 -0.55222252495E+03  0.28681734802E+04  0.28145105072E+04 0.  0.
        3    1    3    3  502    0 -0.74526626710E+03 -0.85325777496E+03 -0.11268314630E+04  0.15978797813E+04  0.10100000352E+00 0. -1.
       -3    1    3    3    0  502  0.74526626710E+03  0.85325777496E+03  0.57460893807E+03  0.12702936988E+04  0.10100000352E+00 0.  1.
</event>
<event>
 5   0  0.7509685E-06  0.2033529E+04  0.7818609E-02  0.8591103E-01
        1   -1    0    0  501    0  0.00000000000E+00  0.00000000000E+00  0.13752062513E+04  0.13752062513E+04  0.50400001928E-02 0.  1.
       -1   -1    0    0    0  501  0.00000000000E+00  0.00000000000E+00 -0.75174922819E+03  0.75174922821E+03  0.50400001928E-02 0. -1.
    10030    2    1    2    0    0  0.00000000000E+00  0.00000000000E+00  0.62345702313E+03  0.21269554795E+04  0.20335291865E+04 0.  0.
        4    1    3    3  502    0  0.40753382955E+03  0.51912679755E+03 -0.49726096377E+03  0.82634528688E+03  0.12699999809E+01 0. -1.
       -4    1    3    3    0  502 -0.40753382955E+03 -0.51912679755E+03  0.11207179869E+04  0.13006101927E+04  0.12699999809E+01 0.  1.
</event>
<event>
 5   0  0.1874272E-05  0.2860412E+04  0.7818609E-02  0.8284754E-01
        2   -1    0    0  501    0  0.00000000000E+00  0.00000000000E+00  0.29427815005E+04  0.29427815005E+04  0.25500000920E-02 0. -1.
       -2   -1    0    0    0  501  0.00000000000E+00  0.00000000000E+00 -0.69508692418E+03  0.69508692419E+03  0.25500000920E-02 0.  1.
    10030    2    1    2    0    0  0.00000000000E+00  0.00000000000E+00  0.22476945763E+04  0.36378684246E+04  0.28604118177E+04 0.  0.
        3    1    3    3  502    0  0.11719203941E+04 -0.16749515340E+03  0.10320443832E+03  0.11883194869E+04  0.10100000352E+00 0.  1.
       -3    1    3    3    0  502 -0.11719203941E+04  0.16749515340E+03  0.21444901380E+04  0.24495489378E+04  0.10100000352E+00 0. -1.
</event>
<event>
 5   0  0.6288000E-06  0.2721353E+04  0.7818609E-02  0.8328110E-01
       -3   -1    0    0    0  501  0.00000000000E+00  0.00000000000E+00  0.10263233343E+04  0.10263233392E+04  0.10100000352E+00 0. -1.
        3   -1    0    0  501    0  0.00000000000E+00  0.00000000000E+00 -0.18039545143E+04  0.18039545171E+04  0.10100000352E+00 0.  1.
    10030    2    1    2    0    0  0.00000000000E+00  0.00000000000E+00 -0.77763118001E+03  0.28302778564E+04  0.27213530627E+04 0.  0.
        1    1    3    3  502    0  0.40890698818E+03 -0.75075445529E+03  0.71214091143E+03  0.11126463296E+04  0.50400001928E-02 0. -1.
       -1    1    3    3    0  502 -0.40890698818E+03  0.75075445529E+03 -0.14897720914E+04  0.17176315267E+04  0.50400001928E-02 0.  1.
</event>
<event>
 5   0  0.7681342E-06  0.2805027E+04  0.7818609E-02  0.8301709E-01
        1   -1    0    0  501    0  0.00000000000E+00  0.00000000000E+00  0.10366258557E+04  0.10366258557E+04  0.50400001928E-02 0. -1.
       -1   -1    0    0    0  501  0.00000000000E+00  0.00000000000E+00 -0.18975449983E+04  0.18975449983E+04  0.50400001928E-02 0.  1.
    10030    2    1    2    0    0  0.00000000000E+00  0.00000000000E+00 -0.86091914252E+03  0.29341708540E+04  0.28050270641E+04 0.  0.
        2    1    3    3  502    0  0.18299959073E+03  0.61006001038E+03  0.87662276820E+03  0.10835725837E+04  0.25500000920E-02 0. -1.
       -2    1    3    3    0  502 -0.18299959073E+03 -0.61006001038E+03 -0.17375419107E+04  0.18505982703E+04  0.25500000920E-02 0.  1.
</event>
<event>
 5   0  0.1814230E-05  0.2666248E+04  0.7818609E-02  0.8346040E-01
       -2   -1    0    0    0  501  0.00000000000E+00  0.00000000000E+00  0.11528804747E+04  0.11528804747E+04  0.25500000920E-02 0.  1.
        2   -1    0    0  501    0  0.00000000000E+00  0.00000000000E+00 -0.15415473086E+04  0.15415473086E+04  0.25500000920E-02 0. -1.
    10030    2    1    2    0    0  0.00000000000E+00  0.00000000000E+00 -0.38866683391E+03  0.26944277833E+04  0.26662481452E+04 0.  0.
        5    1    3    3  502    0 -0.55408245251E+02 -0.10892548223E+04 -0.96901981180E+03  0.14589611466E+04  0.46999998093E+01 0. -1.
       -5    1    3    3    0  502  0.55408245251E+02  0.10892548223E+04  0.58035297789E+03  0.12354666367E+04  0.46999998093E+01 0.  1.
</event>
<event>
 5   0  0.7388013E-06  0.2819508E+04  0.7818609E-02  0.8297237E-01
       -1   -1    0    0    0  501  0.00000000000E+00  0.00000000000E+00  0.17092487601E+04  0.17092487601E+04  0.50400001928E-02 0. -1.
        1   -1    0    0  501    0  0.00000000000E+00  0.00000000000E+00 -0.11627365394E+04  0.11627365394E+04  0.50400001928E-02 0.  1.
    10030    2    1    2    0    0  0.00000000000E+00  0.00000000000E+00  0.54651222070E+03  0.28719852996E+04  0.28195077502E+04 0.  0.
        1    1    3    3  502    0  0.50531504144E+03  0.12521382157E+04  0.68602992612E+03  0.15145396865E+04  0.50400001928E-02 0.  1.
       -1    1    3    3    0  502 -0.50531504144E+03 -0.12521382157E+04 -0.13951770542E+03  0.13574456131E+04  0.50400001928E-02 0. -1.
</event>
<event>
 5   0  0.7388013E-06  0.2740963E+04  0.7818609E-02  0.8321835E-01
        1   -1    0    0  501    0  0.00000000000E+00  0.00000000000E+00  0.17736356850E+04  0.17736356850E+04  0.50400001928E-02 0. -1.
       -1   -1    0    0    0  501  0.00000000000E+00  0.00000000000E+00 -0.10589659196E+04  0.10589659197E+04  0.50400001928E-02 0.  1.
    10030    2    1    2    0    0  0.00000000000E+00  0.00000000000E+00  0.71466976536E+03  0.28326016047E+04  0.27409631477E+04 0.  0.
        1    1    3    3  502    0  0.92592852762E+03  0.67396198200E+03 -0.42059466133E+03  0.12200279753E+04  0.50400001928E-02 0.  1.
       -1    1    3    3    0  502 -0.92592852762E+03 -0.67396198200E+03  0.11352644267E+04  0.16125736293E+04  0.50400001928E-02 0. -1.
</event>
<event>
 5   0  0.1874272E-05  0.2704054E+04  0.7818609E-02  0.8333691E-01
       -2   -1    0    0    0  501  0.00000000000E+00  0.00000000000E+00  0.73151284711E+03  0.73151284711E+03  0.25500000920E-02 0.  1.
        2   -1    0    0  501    0  0.00000000000E+00  0.00000000000E+00 -0.24988997948E+04  0.24988997948E+04  0.25500000920E-02 0. -1.
    10030    2    1    2    0    0  0.00000000000E+00  0.00000000000E+00 -0.17673869477E+04  0.32304126419E+04  0.27040542180E+04 0.  0.
        3    1    3    3  502    0  0.88078691823E+03 -0.52653818221E+03 -0.19353628662E+04  0.21905838233E+04  0.10100000352E+00 0. -1.
       -3    1    3    3    0  502 -0.88078691823E+03  0.52653818221E+03  0.16797591853E+03  0.10398288186E+04  0.10100000352E+00 0.  1.
</event>
<event>
 5   0  0.7509685E-06  0.2847687E+04  0.7818609E-02  0.8288614E-01
       -1   -1    0    0    0  501  0.00000000000E+00  0.00000000000E+00  0.95416696586E+03  0.95416696587E+03  0.50400001928E-02 0. -1.
        1   -1    0    0  501    0  0.00000000000E+00  0.00000000000E+00 -0.21247129541E+04  0.21247129541E+04  0.50400001928E-02 0.  1.
    10030    2    1    2    0    0  0.00000000000E+00  0.00000000000E+00 -0.11705459882E+04  0.30788799200E+04  0.28476874216E+04 0.  0.
        4    1    3    3  502    0 -0.97967431733E+03  0.25859812684E+03  0.49628845628E+03  0.11282458083E+04  0.12699999809E+01 0. -1.
       -4    1    3    3    0  502  0.97967431733E+03 -0.25859812684E+03 -0.16668344445E+04  0.19506341116E+04  0.12699999809E+01 0.  1.
</event>
<event>
 5   0  0.7388013E-06  0.2263168E+04  0.7818609E-02  0.8492587E-01
        1   -1    0    0  501    0  0.00000000000E+00  0.00000000000E+00  0.11080849901E+04  0.11080849901E+04  0.50400001928E-02 0. -1.
       -1   -1    0    0    0  501  0.00000000000E+00  0.00000000000E+00 -0.11555812262E+04  0.11555812262E+04  0.50400001928E-02 0.  1.
    10030    2    1    2    0    0  0.00000000000E+00  0.00000000000E+00 -0.47496236083E+02  0.22636662164E+04  0.22631678786E+04 0.  0.
        1    1    3    3  502    0  0.90746589102E+03  0.22283222573E+03  0.61461938796E+03  0.11184388836E+04  0.50400001928E-02 0. -1.
       -1    1    3    3    0  502 -0.90746589102E+03 -0.22283222573E+03 -0.66211562404E+03  0.11452273328E+04  0.50400001928E-02 0.  1.
</event>
<event>
 5   0  0.1814230E-05  0.2802600E+04  0.7818609E-02  0.8302461E-01
        2   -1    0    0  501    0  0.00000000000E+00  0.00000000000E+00  0.18708766265E+04  0.18708766265E+04  0.25500000920E-02 0.  1.
       -2   -1    0    0    0  501  0.00000000000E+00  0.00000000000E+00 -0.10495841108E+04  0.10495841108E+04  0.25500000920E-02 0. -1.
    10030    2    1    2    0    0  0.00000000000E+00  0.00000000000E+00  0.82129251569E+03  0.29204607373E+04  0.28026004927E+04 0.  0.
        5    1    3    3  502    0 -0.24861970997E+03  0.13229212240E+04  0.47960796816E+01  0.13460971055E+04  0.46999998093E+01 0.  1.
       -5    1    3    3    0  502  0.24861970997E+03 -0.13229212240E+04  0.81649643601E+03  0.15743636318E+04  0.46999998093E+01 0. -1.
</event>
<event>
 5   0  0.7613444E-06  0.2850383E+04  0.7818609E-02  0.8287795E-01
       -1   -1    0    0    0  501  0.00000000000E+00  0.00000000000E+00  0.14523443652E+04  0.14523443652E+04  0.50400001928E-02 0.  1.
        1   -1    0    0  501    0  0.00000000000E+00  0.00000000000E+00 -0.13985466991E+04  0.13985466991E+04  0.50400001928E-02 0. -1.
    10030    2    1    2    0    0  0.00000000000E+00  0.00000000000E+00  0.53797666126E+02  0.28508910643E+04  0.28503834254E+04 0.  0.
        5    1    3    3  502    0  0.13239151348E+04  0.48851789236E+03  0.22630412829E+03  0.14292084046E+04  0.46999998093E+01 0.  1.
       -5    1    3    3    0  502 -0.13239151348E+04 -0.48851789236E+03 -0.17250646216E+03  0.14216826597E+04  0.46999998093E+01 0. -1.
</event>
<event>
 5   0  0.1874272E-05  0.2231051E+04  0.7818609E-02  0.8505614E-01
       -2   -1    0    0    0  501  0.00000000000E+00  0.00000000000E+00  0.17228361934E+04  0.17228361934E+04  0.25500000920E-02 0. -1.
        2   -1    0    0  501    0  0.00000000000E+00  0.00000000000E+00 -0.72229582018E+03  0.72229582019E+03  0.25500000920E-02 0.  1.
    10030    2    1    2    0    0  0.00000000000E+00  0.00000000000E+00  0.10005403733E+04  0.24451320136E+04  0.22310512154E+04 0.  0.
        3    1    3    3  502    0 -0.57891545190E+03  0.36616435056E+03  0.14651949991E+04  0.16174102224E+04  0.10100000352E+00 0. -1.
       -3    1    3    3    0  502  0.57891545190E+03 -0.36616435056E+03 -0.46465462585E+03  0.82772179118E+03  0.10100000352E+00 0.  1.
</event>
<event>
 5   0  0.7681342E-06  0.2830485E+04  0.7818609E-02  0.8293866E-01
       -1   -1    0    0    0  501  0.00000000000E+00  0.00000000000E+00  0.11672746341E+04  0.11672746341E+04  0.50400001928E-02 0. -1.
        1   -1    0    0  501    0  0.00000000000E+00  0.00000000000E+00 -0.17158874573E+04  0.17158874573E+04  0.50400001928E-02 0.  1.
    10030    2    1    2    0    0  0.00000000000E+00  0.00000000000E+00 -0.54861282314E+03  0.28831620914E+04  0.28304854028E+04 0.  0.
        2    1    3    3  502    0 -0.97100084546E+03  0.13693236065E+03  0.76513494506E+03  0.12437944354E+04  0.25500000920E-02 0. -1.
       -2    1    3    3    0  502  0.97100084546E+03 -0.13693236065E+03 -0.13137477682E+04  0.16393676561E+04  0.25500000920E-02 0.  1.
</event>
<event>
 5   0  0.7509685E-06  0.2813843E+04  0.7818609E-02  0.8298983E-01
       -1   -1    0    0    0  501  0.00000000000E+00  0.00000000000E+00  0.14341675644E+04  0.14341675644E+04  0.50400001928E-02 0. -1.
        1   -1    0    0  501    0  0.00000000000E+00  0.00000000000E+00 -0.13801933111E+04  0.13801933111E+04  0.50400001928E-02 0.  1.
    10030    2    1    2    0    0  0.00000000000E+00  0.00000000000E+00  0.53974253340E+02  0.28143608755E+04  0.28138432646E+04 0.  0.
        4    1    3    3  502    0  0.79783882847E+03  0.55102755129E+03  0.10466101384E+04  0.14267349275E+04  0.12699999809E+01 0. -1.
       -4    1    3    3    0  502 -0.79783882847E+03 -0.55102755129E+03 -0.99263588507E+03  0.13876259481E+04  0.12699999809E+01 0.  1.
</event>
<event>
 5   0  0.7388013E-06  0.2817000E+04  0.7818609E-02  0.8298010E-01
       -1   -1    0    0    0  501  0.00000000000E+00  0.00000000000E+00  0.21971153279E+04  0.21971153279E+04  0.50400001928E-02 0.  1.
        1   -1    0    0  501    0  0.00000000000E+00  0.00000000000E+00 -0.90294398907E+03  0.90294398908E+03  0.50400001928E-02 0. -1.
    10030    2    1    2    0    0  0.00000000000E+00  0.00000000000E+00  0.12941713389E+04  0.31000593170E+04  0.28169998784E+04 0.  0.
        1    1    3    3  502    0  0.11956952889E+04 -0.72730835805E+03  0.47236380189E+03  0.14770891080E+04  0.50400001928E-02 0.  1.
       -1    1    3    3    0  502 -0.11956952889E+04  0.72730835805E+03  0.82180753698E+03  0.16229702090E+04  0.50400001928E-02 0. -1.
</event>
<event>
 5   0  0.7509685E-06  0.2810792E+04  0.7818609E-02  0.8299926E-01
       -1   -1    0    0    0  501  0.00000000000E+00  0.00000000000E+00  0.96007655622E+03  0.96007655623E+03  0.50400001928E-02 0.  1.
        1   -1    0    0  501    0  0.00000000000E+00  0.00000000000E+00 -0.20572707455E+04  0.20572707455E+04  0.50400001928E-02 0. -1.
    10030    2    1    2    0    0  0.00000000000E+00  0.00000000000E+00 -0.10971941893E+04  0.30173473018E+04  0.28107916412E+04 0.  0.
        4    1    3    3  502    0  0.38626255612E+03  0.36277312894E+03 -0.19459174747E+04  0.20167794963E+04  0.12699999809E+01 0. -1.
       -4    1    3    3    0  502 -0.38626255612E+03 -0.36277312894E+03  0.84872328539E+03  0.10005678055E+04  0.12699999809E+01 0.  1.
</event>
<event>
 5   0  0.1832502E-05  0.2852653E+04  0.7818609E-02  0.8287106E-01
       -2   -1    0    0    0  501  0.00000000000E+00  0.00000000000E+00  0.10775099937E+04  0.10775099937E+04  0.25500000920E-02 0. -1.
        2   -1    0    0  501    0  0.00000000000E+00  0.00000000000E+00 -0.18880637974E+04  0.18880637974E+04  0.25500000920E-02 0.  1.
    10030    2    1    2    0    0  0.00000000000E+00  0.00000000000E+00 -0.81055380369E+03  0.29655737912E+04  0.28526532285E+04 0.  0.
        2    1    3    3  502    0  0.35202953089E+03 -0.12352739806E+04 -0.10499709677E+04  0.16589953679E+04  0.25500000920E-02 0.  1.
       -2    1    3    3    0  502 -0.35202953089E+03  0.12352739806E+04  0.23941716406E+03  0.13065784233E+04  0.25500000920E-02 0. -1.
</event>
<event>
 5   0  0.1904553E-05  0.2813257E+04  0.7818609E-02  0.8299164E-01
       -2   -1    0    0    0  501  0.00000000000E+00  0.00000000000E+00  0.96897882316E+03  0.96897882316E+03  0.25500000920E-02 0. -1.
        2   -1    0    0  501    0  0.00000000000E+00  0.00000000000E+00 -0.20419468606E+04  0.20419468606E+04  0.25500000920E-02 0.  1.
    10030    2    1    2    0    0  0.00000000000E+00  0.00000000000E+00 -0.10729680374E+04  0.30109256838E+04  0.28132566651E+04 0.  0.
        1    1    3    3  502    0  0.13569309228E+04  0.37008185221E+03 -0.55737909618E+03  0.15129089739E+04  0.50400001928E-02 0. -1.
       -1    1    3    3    0  502 -0.13569309228E+04 -0.37008185221E+03 -0.51558894124E+03  0.14980167098E+04  0.50400001928E-02 0.  1.
</event>
<event>
 5   0  0.1874272E-05  0.2769046E+04  0.7818609E-02  0.8312943E-01
       -2   -1    0    0    0  501  0.00000000000E+00  0.00000000000E+00  0.18308176767E+04  0.18308176767E+04  0.25500000920E-02 0.  1.
        2   -1    0    0  501    0  0.00000000000E+00  0.00000000000E+00 -0.10470209366E+04  0.10470209366E+04  0.25500000920E-02 0. -1.
    10030    2    1    2    0    0  0.00000000000E+00  0.00000000000E+00  0.78379674006E+03  0.28778386133E+04  0.27690463619E+04 0.  0.
        3    1    3    3  502    0  0.85450677894E+03  0.96976567118E+03 -0.12386234071E+03  0.12984487598E+04  0.10100000352E+00 0. -1.
       -3    1    3    3    0  502 -0.85450677894E+03 -0.96976567118E+03  0.90765908077E+03  0.15793898535E+04  0.10100000352E+00 0.  1.
</event>
<event>
 5   0  0.1904553E-05  0.2828684E+04  0.7818609E-02  0.8294418E-01
        2   -1    0    0  501    0  0.00000000000E+00  0.00000000000E+00  0.13995195205E+04  0.13995195205E+04  0.25500000920E-02 0. -1.
       -2   -1    0    0    0  501  0.00000000000E+00  0.00000000000E+00 -0.14293210826E+04  0.14293210826E+04  0.25500000920E-02 0.  1.
    10030    2    1    2    0    0  0.00000000000E+00  0.00000000000E+00 -0.29801562143E+02  0.28288406031E+04  0.28286836204E+04 0.  0.
        1    1    3    3  502    0  0.92092807710E+03 -0.37312131299E+02  0.10579411362E+04  0.14031180157E+04  0.50400001928E-02 0. -1.
       -1    1    3    3    0  502 -0.92092807710E+03  0.37312131299E+02 -0.10877426983E+04  0.14257225874E+04  0.50400001928E-02 0.  1.
</event>
<event>
 5   0  0.1923559E-05  0.2796259E+04  0.7818609E-02  0.8304431E-01
        2   -1    0    0  501    0  0.00000000000E+00  0.00000000000E+00  0.11843780119E+04  0.11843780119E+04  0.25500000920E-02 0.  1.
       -2   -1    0    0    0  501  0.00000000000E+00  0.00000000000E+00 -0.16504581602E+04  0.16504581602E+04  0.25500000920E-02 0. -1.
    10030    2    1    2    0    0  0.00000000000E+00  0.00000000000E+00 -0.46608014831E+03  0.28348361722E+04  0.27962591830E+04 0.  0.
        4    1    3    3  502    0 -0.38634855827E+03 -0.72626584278E+03  0.91305945431E+03  0.12289859490E+04  0.12699999809E+01 0.  1.
       -4    1    3    3    0  502  0.38634855827E+03  0.72626584278E+03 -0.13791396026E+04  0.16058502232E+04  0.12699999809E+01 0. -1.
</event>
<event>
 5   0  0.7555871E-06  0.2790207E+04  0.7818609E-02  0.8306315E-01
       -1   -1    0    0    0  501  0.00000000000E+00  0.00000000000E+00  0.10318640506E+04  0.10318640507E+04  0.50400001928E-02 0. -1.
        1   -1    0    0  501    0  0.00000000000E+00  0.00000000000E+00 -0.18862121054E+04  0.18862121054E+04  0.50400001928E-02 0.  1.
    10030    2    1    2    0    0  0.00000000000E+00  0.00000000000E+00 -0.85434805471E+03  0.29180761560E+04  0.27902074930E+04 0.  0.
        3    1    3    3  502    0  0.18740336776E+03 -0.75859279158E+03  0.78152922358E+03  0.11051565424E+04  0.10100000352E+00 0. -1.
       -3    1    3    3    0  502 -0.18740336776E+03  0.75859279158E+03 -0.16358772783E+04  0.18129196136E+04  0.10100000352E+00 0.  1.
</event>
<event>
 5   0  0.7388013E-06  0.2817039E+04  0.7818609E-02  0.8297998E-01
       -1   -1    0    0    0  501  0.00000000000E+00  0.00000000000E+00  0.16824072371E+04  0.16824072371E+04  0.50400001928E-02 0. -1.
        1   -1    0    0  501    0  0.00000000000E+00  0.00000000000E+00 -0.11792196079E+04  0.11792196079E+04  0.50400001928E-02 0.  1.
    10030    2    1    2    0    0  0.00000000000E+00  0.00000000000E+00  0.50318762920E+03  0.28616268449E+04  0.28170392985E+04 0.  0.
        1    1    3    3  502    0 -0.12453285609E+04 -0.53115138682E+03 -0.14309494074E+03  0.13614114669E+04  0.50400001928E-02 0.  1.
       -1    1    3    3    0  502  0.12453285609E+04  0.53115138682E+03  0.64628256993E+03  0.15002153780E+04  0.50400001928E-02 0. -1.
</event>
<event>
 5   0  0.6288000E-06  0.2731698E+04  0.7818609E-02  0.8324793E-01
       -3   -1    0    0    0  501  0.00000000000E+00  0.00000000000E+00  0.15098725715E+04  0.15098725749E+04  0.10100000352E+00 0.  1.
        3   -1    0    0  501    0  0.00000000000E+00  0.00000000000E+00 -0.12355633635E+04  0.12355633677E+04  0.10100000352E+00 0. -1.
    10030    2    1    2    0    0  0.00000000000E+00  0.00000000000E+00  0.27430920797E+03  0.27454359426E+04  0.27316978188E+04 0.  0.
        5    1    3    3  502    0 -0.86453294014E+03  0.96264124160E+03 -0.30256809168E+03  0.13287832422E+04  0.46999998093E+01 0. -1.
       -5    1    3    3    0  502  0.86453294014E+03 -0.96264124160E+03  0.57687729965E+03  0.14166527004E+04  0.46999998093E+01 0.  1.
</event>
<event>
 5   0  0.7388013E-06  0.2776166E+04  0.7818609E-02  0.8310706E-01
       -1   -1    0    0    0  501  0.00000000000E+00  0.00000000000E+00  0.60556105661E+03  0.60556105663E+03  0.50400001928E-02 0. -1.
        1   -1    0    0  501    0  0.00000000000E+00  0.00000000000E+00 -0.31817997688E+04  0.31817997688E+04  0.50400001928E-02 0.  1.
    10030    2    1    2    0    0  0.00000000000E+00  0.00000000000E+00 -0.25762387122E+04  0.37873608254E+04  0.27761657227E+04 0.  0.
        1    1    3    3  502    0 -0.12850402076E+03 -0.19315751652E+03 -0.31551631009E+04  0.31636809737E+04  0.50400001928E-02 0.  1.
       -1    1    3    3    0  502  0.12850402076E+03  0.19315751652E+03  0.57892438878E+03  0.62367985175E+03  0.50400001928E-02 0. -1.
</event>
<event>
 5   0  0.7509685E-06  0.2779003E+04  0.7818609E-02  0.8309817E-01
        1   -1    0    0  501    0  0.00000000000E+00  0.00000000000E+00  0.26700869530E+04  0.26700869530E+04  0.50400001928E-02 0. -1.
       -1   -1    0    0    0  501  0.00000000000E+00  0.00000000000E+00 -0.72309066589E+03  0.72309066591E+03  0.50400001928E-02 0.  1.
    10030    2    1    2    0    0  0.00000000000E+00  0.00000000000E+00  0.19469962871E+04  0.33931776189E+04  0.27790033846E+04 0.  0.
        4    1    3    3  502    0  0.69151544243E+02 -0.13370980966E+04  0.14272458988E+04  0.19569480638E+04  0.12699999809E+01 0. -1.
       -4    1    3    3    0  502 -0.69151544243E+02  0.13370980966E+04  0.51975038834E+03  0.14362295551E+04  0.12699999809E+01 0.  1.
</event>
<event>
 5   0  0.7555871E-06  0.2834252E+04  0.7818609E-02  0.8292713E-01
       -1   -1    0    0    0  501  0.00000000000E+00  0.00000000000E+00  0.11411074057E+04  0.11411074057E+04  0.50400001928E-02 0. -1.
        1   -1    0    0  501    0  0.00000000000E+00  0.00000000000E+00 -0.17599103061E+04  0.17599103061E+04  0.50400001928E-02 0.  1.
    10030    2    1    2    0    0  0.00000000000E+00  0.00000000000E+00 -0.61880290039E+03  0.29010177117E+04  0.28342524119E+04 0.  0.
        3    1    3    3  502    0  0.32852953890E+02 -0.12136521843E+04  0.43871670146E+03  0.12909311738E+04  0.10100000352E+00 0.  1.
       -3    1    3    3    0  502 -0.32852953890E+02  0.12136521843E+04 -0.10575196019E+04  0.16100865379E+04  0.10100000352E+00 0. -1.
</event>
<event>
 5   0  0.1923559E-05  0.2817741E+04  0.7818609E-02  0.8297782E-01
        2   -1    0    0  501    0  0.00000000000E+00  0.00000000000E+00  0.15363538766E+04  0.15363538766E+04  0.25500000920E-02 0.  1.
       -2   -1    0    0    0  501  0.00000000000E+00  0.00000000000E+00 -0.12919650569E+04  0.12919650569E+04  0.25500000920E-02 0. -1.
    10030    2    1    2    0    0  0.00000000000E+00  0.00000000000E+00  0.24438881977E+03  0.28283189335E+04  0.28177406010E+04 0.  0.
        4    1    3    3  502    0  0.58400262126E+03  0.12193190382E+04  0.52006101114E+03  0.14485382449E+04  0.12699999809E+01 0.  1.
       -4    1    3    3    0  502 -0.58400262126E+03 -0.12193190382E+04 -0.27567219137E+03  0.13797806886E+04  0.12699999809E+01 0. -1.
</event>
<event>
 5   0  0.7681342E-06  0.2744791E+04  0.7818609E-02  0.8320616E-01
        1   -1    0    0  501    0  0.00000000000E+00  0.00000000000E+00  0.19111680847E+04  0.19111680847E+04  0.50400001928E-02 0.  1.
       -1   -1    0    0    0  501  0.00000000000E+00  0.00000000000E+00 -0.98550694265E+03  0.98550694266E+03  0.50400001928E-02 0. -1.
    10030    2    1    2    0    0  0.00000000000E+00  0.00000000000E+00  0.92566114206E+03  0.28966750274E+04  0.27447910056E+04 0.  0.
        2    1    3    3  502    0  0.79993521553E+03  0.98399165783E+03 -0.90927423015E+02  0.12713786721E+04  0.25500000920E-02 0. -1.
       -2    1    3    3    0  502 -0.79993521553E+03 -0.98399165783E+03  0.10165885651E+04  0.16252963552E+04  0.25500000920E-02 0.  1.
</event>
<event>
 5   0  0.7555871E-06  0.2740803E+04  0.7818609E-02  0.8321886E-01
       -1   -1    0    0    0  501  0.00000000000E+00  0.00000000000E+00  0.11494909551E+04  0.11494909552E+04  0.50400001928E-02 0. -1.
        1   -1    0    0  501    0  0.00000000000E+00  0.00000000000E+00 -0.16337663194E+04  0.16337663194E+04  0.50400001928E-02 0.  1.
    10030    2    1    2    0    0  0.00000000000E+00  0.00000000000E+00 -0.48427536426E+03  0.27832572746E+04  0.27408025153E+04 0.  0.
        3    1    3    3  502    0 -0.28770414711E+03 -0.46118137000E+03 -0.15196133480E+04  0.16139041700E+04  0.10100000352E+00 0.  1.
       -3    1    3    3    0  502  0.28770414711E+03  0.46118137000E+03  0.10353379838E+04  0.11693531045E+04  0.10100000352E+00 0. -1.
</event>
<event>
 5   0  0.1814230E-05  0.2766020E+04  0.7818609E-02  0.8313896E-01
       -2   -1    0    0    0  501  0.00000000000E+00  0.00000000000E+00  0.89479741266E+03  0.89479741267E+03  0.25500000920E-02 0. -1.
        2   -1    0    0  501    0  0.00000000000E+00  0.00000000000E+00 -0.21375978808E+04  0.21375978808E+04  0.25500000920E-02 0.  1.
    10030    2    1    2    0    0  0.00000000000E+00  0.00000000000E+00 -0.12428004682E+04  0.30323952935E+04  0.27660202841E+04 0.  0.
        5    1    3    3  502    0 -0.60053041758E+03 -0.10358707859E+04 -0.13801730482E+04  0.18271739930E+04  0.46999998093E+01 0. -1.
       -5    1    3    3    0  502  0.60053041758E+03  0.10358707859E+04  0.13737258008E+03  0.12052213005E+04  0.46999998093E+01 0.  1.
</event>
<event>
 5   0  0.7681342E-06  0.2842752E+04  0.7818609E-02  0.8290117E-01
       -1   -1    0    0    0  501  0.00000000000E+00  0.00000000000E+00  0.13279194753E+04  0.13279194753E+04  0.50400001928E-02 0.  1.
        1   -1    0    0  501    0  0.00000000000E+00  0.00000000000E+00 -0.15214100041E+04  0.15214100041E+04  0.50400001928E-02 0. -1.
    10030    2    1    2    0    0  0.00000000000E+00  0.00000000000E+00 -0.19349052875E+03  0.28493294794E+04  0.28427521695E+04 0.  0.
        2    1    3    3  502    0 -0.61171755038E+03 -0.15164233613E+03  0.11802182240E+04  0.13379494818E+04  0.25500000920E-02 0.  1.
       -2    1    3    3    0  502  0.61171755038E+03  0.15164233613E+03 -0.13737087528E+04  0.15113799976E+04  0.25500000920E-02 0. -1.
</event>
<event>
 5   0  0.7613444E-06  0.2895555E+04  0.7818609E-02  0.8274201E-01
       -1   -1    0    0    0  501  0.00000000000E+00  0.00000000000E+00  0.83418981627E+03  0.83418981629E+03  0.50400001928E-02 0.  1.
        1   -1    0    0  501    0  0.00000000000E+00  0.00000000000E+00 -0.25126898731E+04  0.25126898731E+04  0.50400001928E-02 0. -1.
    10030    2    1    2    0    0  0.00000000000E+00  0.00000000000E+00 -0.16785000568E+04  0.33468796894E+04  0.28955554242E+04 0.  0.
        5    1    3    3  502    0 -0.10570117878E+04  0.39162295957E+03 -0.18893710040E+04  0.22000880307E+04  0.46999998093E+01 0. -1.
       -5    1    3    3    0  502  0.10570117878E+04 -0.39162295957E+03  0.21087094717E+03  0.11467916587E+04  0.46999998093E+01 0.  1.
</event>
<event>
 5   0  0.7613444E-06  0.1939714E+04  0.7818609E-02  0.8635337E-01
        1   -1    0    0  501    0  0.00000000000E+00  0.00000000000E+00  0.15127066452E+04  0.15127066452E+04  0.50400001928E-02 0. -1.
       -1   -1    0    0    0  501  0.00000000000E+00  0.00000000000E+00 -0.62181430852E+03  0.62181430854E+03  0.50400001928E-02 0.  1.
    10030    2    1    2    0    0  0.00000000000E+00  0.00000000000E+00  0.89089233665E+03  0.21345209537E+04  0.19397140373E+04 0.  0.
        5    1    3    3  502    0  0.36316434040E+03  0.88355895850E+03  0.26119128826E+03  0.99035738516E+03  0.46999998093E+01 0.  1.
       -5    1    3    3    0  502 -0.36316434040E+03 -0.88355895850E+03  0.62970104839E+03  0.11441635686E+04  0.46999998093E+01 0. -1.
</event>
<event>
 5   0  0.1832502E-05  0.2638219E+04  0.7818609E-02  0.8355334E-01
        2   -1    0    0  501    0  0.00000000000E+00  0.00000000000E+00  0.19027119005E+04  0.19027119005E+04  0.25500000920E-02 0. -1.
       -2   -1    0    0    0  501  0.00000000000E+00  0.00000000000E+00 -0.91451035332E+03  0.91451035333E+03  0.25500000920E-02 0.  1.
    10030    2    1    2    0    0  0.00000000000E+00  0.00000000000E+00  0.98820154713E+03  0.28172222538E+04  0.26382188934E+04 0.  0.
        2    1    3    3  502    0 -0.95750965385E+03  0.86234841847E+03  0.19286066316E+03  0.13029446525E+04  0.25500000920E-02 0.  1.
       -2    1    3    3    0  502  0.95750965385E+03 -0.86234841847E+03  0.79534088397E+03  0.15142776013E+04  0.25500000920E-02 0. -1.
</event>
<event>
 5   0  0.1832502E-05  0.2790350E+04  0.7818609E-02  0.8306270E-01
        2   -1    0    0  501    0  0.00000000000E+00  0.00000000000E+00  0.17266303226E+04  0.17266303226E+04  0.25500000920E-02 0. -1.
       -2   -1    0    0    0  501  0.00000000000E+00  0.00000000000E+00 -0.11273483841E+04  0.11273483841E+04  0.25500000920E-02 0.  1.
    10030    2    1    2    0    0  0.00000000000E+00  0.00000000000E+00  0.59928193846E+03  0.28539787066E+04  0.27903504469E+04 0.  0.
        2    1    3    3  502    0  0.23939315497E+03  0.12764131909E+04 -0.22186236862E+03  0.13174834448E+04  0.25500000920E-02 0.  1.
       -2    1    3    3    0  502 -0.23939315497E+03 -0.12764131909E+04  0.82114430708E+03  0.15364952619E+04  0.25500000920E-02 0. -1.
</event>
<event>
 5   0  0.1814230E-05  0.2695408E+04  0.7818609E-02  0.8336497E-01
       -2   -1    0    0    0  501  0.00000000000E+00  0.00000000000E+00  0.13992756580E+04  0.13992756580E+04  0.25500000920E-02 0.  1.
        2   -1    0    0  501    0  0.00000000000E+00  0.00000000000E+00 -0.12980327857E+04  0.12980327857E+04  0.25500000920E-02 0. -1.
    10030    2    1    2    0    0  0.00000000000E+00  0.00000000000E+00  0.10124287227E+03  0.26973084437E+04  0.26954077096E+04 0.  0.
        5    1    3    3  502    0 -0.58912835714E+03  0.35586397745E+03  0.12101326965E+04  0.13921762190E+04  0.46999998093E+01 0.  1.
       -5    1    3    3    0  502  0.58912835714E+03 -0.35586397745E+03 -0.11088898242E+04  0.13051322247E+04  0.46999998093E+01 0. -1.
</event>
<event>
 5   0  0.1923559E-05  0.2802408E+04  0.7818609E-02  0.8302521E-01
        2   -1    0    0  501    0  0.00000000000E+00  0.00000000000E+00  0.15705434697E+04  0.15705434697E+04  0.25500000920E-02 0.  1.
       -2   -1    0    0    0  501  0.00000000000E+00  0.00000000000E+00 -0.12501234604E+04  0.12501234604E+04  0.25500000920E-02 0. -1.
    10030    2    1    2    0    0  0.00000000000E+00  0.00000000000E+00  0.32042000924E+03  0.28206669301E+04  0.28024084192E+04 0.  0.
        4    1    3    3  502    0  0.74315336144E+03 -0.53845239626E+01  0.13558322789E+04  0.15461528686E+04  0.12699999809E+01 0.  1.
       -4    1    3    3    0  502 -0.74315336144E+03  0.53845239626E+01 -0.10354122697E+04  0.12745140614E+04  0.12699999809E+01 0. -1.
</event>
<event>
 5   0  0.7388013E-06  0.2774951E+04  0.7818609E-02  0.8311088E-01
       -1   -1    0    0    0  501  0.00000000000E+00  0.00000000000E+00  0.16511440184E+04  0.16511440184E+04  0.50400001928E-02 0.  1.
        1   -1    0    0  501    0  0.00000000000E+00  0.00000000000E+00 -0.11659114230E+04  0.11659114230E+04  0.50400001928E-02 0. -1.
    10030    2    1    2    0    0  0.00000000000E+00  0.00000000000E+00  0.48523259536E+03  0.28170554414E+04  0.27749505740E+04 0.  0.
        1    1    3    3  502    0  0.12484111490E+04 -0.35387820343E+03 -0.25608849534E+03  0.13226267414E+04  0.50400001928E-02 0. -1.
       -1    1    3    3    0  502 -0.12484111490E+04  0.35387820343E+03  0.74132109070E+03  0.14944287000E+04  0.50400001928E-02 0.  1.
</event>
<event>
 5   0  0.1923559E-05  0.2826367E+04  0.7818609E-02  0.8295129E-01
        2   -1    0    0  501    0  0.00000000000E+00  0.00000000000E+00  0.20198321683E+04  0.20198321683E+04  0.25500000920E-02 0. -1.
       -2   -1    0    0    0  501  0.00000000000E+00  0.00000000000E+00 -0.98873944851E+03  0.98873944851E+03  0.25500000920E-02 0.  1.
    10030    2    1    2    0    0  0.00000000000E+00  0.00000000000E+00  0.10310927198E+04  0.30085716168E+04  0.28263670987E+04 0.  0.
        4    1    3    3  502    0 -0.35255395689E+03 -0.27933789865E+03  0.19415979572E+04  0.19930198680E+04  0.12699999809E+01 0. -1.
       -4    1    3    3    0  502  0.35255395689E+03  0.27933789865E+03 -0.91050523742E+03  0.10155517488E+04  0.12699999809E+01 0.  1.
</event>
<event>
 5   0  0.7509685E-06  0.2653529E+04  0.7818609E-02  0.8350243E-01
        1   -1    0    0  501    0  0.00000000000E+00  0.00000000000E+00  0.21429107344E+04  0.21429107344E+04  0.50400001928E-02 0.  1.
       -1   -1    0    0    0  501  0.00000000000E+00  0.00000000000E+00 -0.82145480580E+03  0.82145480582E+03  0.50400001928E-02 0. -1.
    10030    2    1    2    0    0  0.00000000000E+00  0.00000000000E+00  0.13214559286E+04  0.29643655402E+04  0.26535292131E+04 0.  0.
        4    1    3    3  502    0 -0.84730634622E+02  0.12179682395E+04  0.80592156537E+02  0.12235696227E+04  0.12699999809E+01 0. -1.
       -4    1    3    3    0  502  0.84730634622E+02 -0.12179682395E+04  0.12408637720E+04  0.17407959175E+04  0.12699999809E+01 0.  1.
</event>
<event>
 5   0  0.1904553E-05  0.2773985E+04  0.7818609E-02  0.8311391E-01
       -2   -1    0    0    0  501  0.00000000000E+00  0.00000000000E+00  0.10146092481E+04  0.10146092481E+04  0.25500000920E-02 0.  1.
        2   -1    0    0  501    0  0.00000000000E+00  0.00000000000E+00 -0.18960487798E+04  0.18960487798E+04  0.25500000920E-02 0. -1.
    10030    2    1    2    0    0  0.00000000000E+00  0.00000000000E+00 -0.88143953166E+03  0.29106580279E+04  0.27739853113E+04 0.  0.
        1    1    3    3  502    0 -0.75396764881E+03  0.74884541255E+03  0.49455075459E+03  0.11720994481E+04  0.50400001928E-02 0.  1.
       -1    1    3    3    0  502  0.75396764881E+03 -0.74884541255E+03 -0.13759902863E+04  0.17385585798E+04  0.50400001928E-02 0. -1.
</event>
<event>
 5   0  0.7555871E-06  0.2776849E+04  0.7818609E-02  0.8310492E-01
       -1   -1    0    0    0  501  0.00000000000E+00  0.00000000000E+00  0.59254003735E+03  0.59254003737E+03  0.50400001928E-02 0. -1.
        1   -1    0    0  501    0  0.00000000000E+00  0.00000000000E+00 -0.32533196886E+04  0.32533196887E+04  0.50400001928E-02 0.  1.
    10030    2    1    2    0    0  0.00000000000E+00  0.00000000000E+00 -0.26607796513E+04  0.38458597260E+04  0.27768486958E+04 0.  0.
        3    1    3    3  502    0 -0.13313574871E+04 -0.31119032655E+03 -0.16649975809E+04  0.21544301178E+04  0.10100000352E+00 0.  1.
       -3    1    3    3    0  502  0.13313574871E+04  0.31119032655E+03 -0.99578207038E+03  0.16914296082E+04  0.10100000352E+00 0. -1.
</event>
<event>
 5   0  0.1874272E-05  0.2832652E+04  0.7818609E-02  0.8293202E-01
        2   -1    0    0  501    0  0.00000000000E+00  0.00000000000E+00  0.18252553261E+04  0.18252553261E+04  0.25500000920E-02 0. -1.
       -2   -1    0    0    0  501  0.00000000000E+00  0.00000000000E+00 -0.10990128212E+04  0.10990128212E+04  0.25500000920E-02 0.  1.
    10030    2    1    2    0    0  0.00000000000E+00  0.00000000000E+00  0.72624250494E+03  0.29242681474E+04  0.28326517650E+04 0.  0.
        3    1    3    3  502    0  0.10217567744E+04  0.65261717928E+03  0.11189788559E+04  0.16498514415E+04  0.10100000352E+00 0. -1.
       -3    1    3    3    0  502 -0.10217567744E+04 -0.65261717928E+03 -0.39273635099E+03  0.12744167059E+04  0.10100000352E+00 0.  1.
</event>
<event>
 5   0  0.7613444E-06  0.2816527E+04  0.7818609E-02  0.8298156E-01
       -1   -1    0    0    0  501  0.00000000000E+00  0.00000000000E+00  0.10021167524E+04  0.10021167524E+04  0.50400001928E-02 0. -1.
        1   -1    0    0  501    0  0.00000000000E+00  0.00000000000E+00 -0.19790175919E+04  0.19790175919E+04  0.50400001928E-02 0.  1.
    10030    2    1    2    0    0  0.00000000000E+00  0.00000000000E+00 -0.97690083954E+03  0.29811343444E+04  0.28165274238E+04 0.  0.
        5    1    3    3  502    0  0.83783616795E+03 -0.10633568263E+04 -0.89904919009E+03  0.16251180636E+04  0.46999998093E+01 0.  1.
       -5    1    3    3    0  502 -0.83783616795E+03  0.10633568263E+04 -0.77851649452E+02  0.13560162808E+04  0.46999998093E+01 0. -1.
</event>
<event>
 5   0  0.1904553E-05  0.2820605E+04  0.7818609E-02  0.8296900E-01
        2   -1    0    0  501    0  0.00000000000E+00  0.00000000000E+00  0.15834029330E+04  0.15834029330E+04  0.25500000920E-02 0. -1.
       -2   -1    0    0    0  501  0.00000000000E+00  0.00000000000E+00 -0.12561259139E+04  0.12561259139E+04  0.25500000920E-02 0.  1.
    10030    2    1    2    0    0  0.00000000000E+00  0.00000000000E+00  0.32727701911E+03  0.28395288469E+04  0.28206052232E+04 0.  0.
        1    1    3    3  502    0 -0.99406344922E+03 -0.35233402512E+03  0.11062171749E+04  0.15284036916E+04  0.50400001928E-02 0. -1.
       -1    1    3    3    0  502  0.99406344922E+03  0.35233402512E+03 -0.77894015583E+03  0.13111251553E+04  0.50400001928E-02 0.  1.
</event>
<event>
 5   0  0.1874272E-05  0.2834974E+04  0.7818609E-02  0.8292492E-01
        2   -1    0    0  501    0  0.00000000000E+00  0.00000000000E+00  0.12198660043E+04  0.12198660044E+04  0.25500000920E-02 0.  1.
       -2   -1    0    0    0  501  0.00000000000E+00  0.00000000000E+00 -0.16471226531E+04  0.16471226531E+04  0.25500000920E-02 0. -1.
    10030    2    1    2    0    0  0.00000000000E+00  0.00000000000E+00 -0.42725664875E+03  0.28669886574E+04  0.28349736715E+04 0.  0.
        3    1    3    3  502    0 -0.88890546787E+03 -0.10756676795E+04 -0.46554994762E+03  0.14710372706E+04  0.10100000352E+00 0. -1.
       -3    1    3    3    0  502  0.88890546787E+03  0.10756676795E+04  0.38293298875E+02  0.13959513869E+04  0.10100000352E+00 0.  1.
</event>
<event>
 5   0  0.6288000E-06  0.2820546E+04  0.7818609E-02  0.8296918E-01
        3   -1    0    0  501    0  0.00000000000E+00  0.00000000000E+00  0.12241195038E+04  0.12241195079E+04  0.10100000352E+00 0. -1.
       -3   -1    0    0    0  501  0.00000000000E+00  0.00000000000E+00 -0.16247354175E+04  0.16247354206E+04  0.10100000352E+00 0.  1.
    10030    2    1    2    0    0  0.00000000000E+00  0.00000000000E+00 -0.40061591373E+03  0.28488549286E+04  0.28205462758E+04 0.  0.
        5    1    3    3  502    0  0.12829747158E+03  0.11161521117E+03  0.12137180245E+04  0.12255822002E+04  0.46999998093E+01 0. -1.
       -5    1    3    3    0  502 -0.12829747158E+03 -0.11161521117E+03 -0.16143339382E+04  0.16232727284E+04  0.46999998093E+01 0.  1.
</event>
<event>
 5   0  0.7509685E-06  0.2312808E+04  0.7818609E-02  0.8472888E-01
       -1   -1    0    0    0  501  0.00000000000E+00  0.00000000000E+00  0.17363319403E+04  0.17363319403E+04  0.50400001928E-02 0.  1.
        1   -1    0    0  501    0  0.00000000000E+00  0.00000000000E+00 -0.77016937020E+03  0.77016937021E+03  0.50400001928E-02 0. -1.
    10030    2    1    2    0    0  0.00000000000E+00  0.00000000000E+00  0.96616257011E+03  0.25065013105E+04  0.23128075380E+04 0.  0.
        4    1    3    3  502    0 -0.84817859780E+03  0.72787680890E+03  0.80467615003E+03  0.13772134555E+04  0.12699999809E+01 0.  1.
       -4    1    3    3    0  502  0.84817859780E+03 -0.72787680890E+03  0.16148642008E+03  0.11292878550E+04  0.12699999809E+01 0. -1.
</event>
<event>
 5   0  0.7681342E-06  0.2842751E+04  0.7818609E-02  0.8290118E-01
        1   -1    0    0  501    0  0.00000000000E+00  0.00000000000E+00  0.27282669427E+04  0.27282669427E+04  0.50400001928E-02 0.  1.
       -1   -1    0    0    0  501  0.00000000000E+00  0.00000000000E+00 -0.74050963400E+03  0.74050963402E+03  0.50400001928E-02 0. -1.
    10030    2    1    2    0    0  0.00000000000E+00  0.00000000000E+00  0.19877573087E+04  0.34687765767E+04  0.28427507490E+04 0.  0.
        2    1    3    3  502    0  0.83398241424E+03  0.89229983950E+03  0.10673521120E+03  0.12260171598E+04  0.25500000920E-02 0. -1.
       -2    1    3    3    0  502 -0.83398241424E+03 -0.89229983950E+03  0.18810220975E+04  0.22427594169E+04  0.25500000920E-02 0.  1.
</event>
<event>
 5   0  0.1923559E-05  0.2815623E+04  0.7818609E-02  0.8298435E-01
        2   -1    0    0  501    0  0.00000000000E+00  0.00000000000E+00  0.15474085181E+04  0.15474085181E+04  0.25500000920E-02 0. -1.
       -2   -1    0    0    0  501  0.00000000000E+00  0.00000000000E+00 -0.12808077065E+04  0.12808077065E+04  0.25500000920E-02 0.  1.
    10030    2    1    2    0    0  0.00000000000E+00  0.00000000000E+00  0.26660081163E+03  0.28282162247E+04  0.28156226702E+04 0.  0.
        4    1    3    3  502    0 -0.63625375912E+03  0.33033104625E+03  0.13503275127E+04  0.15288307462E+04  0.12699999809E+01 0. -1.
       -4    1    3    3    0  502  0.63625375912E+03 -0.33033104625E+03 -0.10837267011E+04  0.12993854785E+04  0.12699999809E+01 0.  1.
</event>
<event>
 5   0  0.1904553E-05  0.2797943E+04  0.7818609E-02  0.8303907E-01
       -2   -1    0    0    0  501  0.00000000000E+00  0.00000000000E+00  0.12283457322E+04  0.12283457322E+04  0.25500000920E-02 0. -1.
        2   -1    0    0  501    0  0.00000000000E+00  0.00000000000E+00 -0.15932987420E+04  0.15932987420E+04  0.25500000920E-02 0.  1.
    10030    2    1    2    0    0  0.00000000000E+00  0.00000000000E+00 -0.36495300976E+03  0.28216444743E+04  0.27979433232E+04 0.  0.
        1    1    3    3  502    0  0.60286615418E+03 -0.11043567517E+04  0.43431726527E+03  0.13310458001E+04  0.50400001928E-02 0. -1.
       -1    1    3    3    0  502 -0.60286615418E+03  0.11043567517E+04 -0.79927027503E+03  0.14905986742E+04  0.50400001928E-02 0.  1.
</event>
<event>
 5   0  0.7388013E-06  0.2214429E+04  0.7818609E-02  0.8512446E-01
        1   -1    0    0  501    0  0.00000000000E+00  0.00000000000E+00  0.82006495224E+03  0.82006495225E+03  0.50400001928E-02 0.  1.
       -1   -1    0    0    0  501  0.00000000000E+00  0.00000000000E+00 -0.14949107680E+04  0.14949107680E+04  0.50400001928E-02 0. -1.
    10030    2    1    2    0    0  0.00000000000E+00  0.00000000000E+00 -0.67484581579E+03  0.23149757203E+04  0.22144289807E+04 0.  0.
        1    1    3    3  502    0 -0.58091010002E+03  0.70642633807E+03  0.31495455127E+03  0.96731126573E+03  0.50400001928E-02 0.  1.
       -1    1    3    3    0  502  0.58091010002E+03 -0.70642633807E+03 -0.98980036706E+03  0.13476644546E+04  0.50400001928E-02 0. -1.
</event>
<event>
 5   0  0.1814230E-05  0.2328425E+04  0.7818609E-02  0.8466797E-01
        2   -1    0    0  501    0  0.00000000000E+00  0.00000000000E+00  0.16861698083E+04  0.16861698083E+04  0.25500000920E-02 0.  1.
       -2   -1    0    0    0  501  0.00000000000E+00  0.00000000000E+00 -0.80382818263E+03  0.80382818263E+03  0.25500000920E-02 0. -1.
    10030    2    1    2    0    0  0.00000000000E+00  0.00000000000E+00  0.88234162564E+03  0.24899979909E+04  0.23284250579E+04 0.  0.
        5    1    3    3  502    0 -0.17214401671E+03  0.63671481415E+03 -0.58473710462E+03  0.88146405971E+03  0.46999998093E+01 0. -1.
       -5    1    3    3    0  502  0.17214401671E+03 -0.63671481415E+03  0.14670787303E+04  0.16085339312E+04  0.46999998093E+01 0.  1.
</event>
<event>
 5   0  0.7509685E-06  0.2767297E+04  0.7818609E-02  0.8313494E-01
        1   -1    0    0  501    0  0.00000000000E+00  0.00000000000E+00  0.17517150726E+04  0.17517150726E+04  0.50400001928E-02 0.  1.
       -1   -1    0    0    0  501  0.00000000000E+00  0.00000000000E+00 -0.10929194985E+04  0.10929194985E+04  0.50400001928E-02 0. -1.
    10030    2    1    2    0    0  0.00000000000E+00  0.00000000000E+00  0.65879557407E+03  0.28446345711E+04  0.27672972797E+04 0.  0.
        4    1    3    3  502    0 -0.38237393831E+03  0.10339960414E+04 -0.53010614407E+03  0.12232627597E+04  0.12699999809E+01 0. -1.
       -4    1    3    3    0  502  0.38237393831E+03 -0.10339960414E+04  0.11889017181E+04  0.16213718114E+04  0.12699999809E+01 0.  1.
</event>
<event>
 5   0  0.7613444E-06  0.1885422E+04  0.7818609E-02  0.8662147E-01
        1   -1    0    0  501    0  0.00000000000E+00  0.00000000000E+00  0.21190269364E+04  0.21190269364E+04  0.50400001928E-02 0. -1.
       -1   -1    0    0    0  501  0.00000000000E+00  0.00000000000E+00 -0.41939252067E+03  0.41939252070E+03  0.50400001928E-02 0.  1.
    10030    2    1    2    0    0  0.00000000000E+00  0.00000000000E+00  0.16996344157E+04  0.25384194571E+04  0.18854220199E+04 0.  0.
        5    1    3    3  502    0 -0.74683817332E+03  0.57517202874E+03  0.83691490660E+03  0.12605708114E+04  0.46999998093E+01 0.  1.
       -5    1    3    3    0  502  0.74683817332E+03 -0.57517202874E+03  0.86271950910E+03  0.12778486456E+04  0.46999998093E+01 0. -1.
</event>
<event>
 5   0  0.7681342E-06  0.2529792E+04  0.7818609E-02  0.8392448E-01
       -1   -1    0    0    0  501  0.00000000000E+00  0.00000000000E+00  0.88575594878E+03  0.88575594880E+03  0.50400001928E-02 0. -1.
        1   -1    0    0  501    0  0.00000000000E+00  0.00000000000E+00 -0.18063230009E+04  0.18063230010E+04  0.50400001928E-02 0.  1.
    10030    2    1    2    0    0  0.00000000000E+00  0.00000000000E+00 -0.92056705216E+03  0.26920789497E+04  0.25297915673E+04 0.  0.
        2    1    3    3  502    0  0.27910418747E+03  0.81309817259E+03  0.52710453047E+03  0.10083982208E+04  0.25500000920E-02 0. -1.
       -2    1    3    3    0  502 -0.27910418747E+03 -0.81309817259E+03 -0.14476715826E+04  0.16836807289E+04  0.25500000920E-02 0.  1.
</event>
<event>
 5   0  0.1923559E-05  0.2823803E+04  0.7818609E-02  0.8295917E-01
       -2   -1    0    0    0  501  0.00000000000E+00  0.00000000000E+00  0.11277717841E+04  0.11277717841E+04  0.25500000920E-02 0.  1.
        2   -1    0    0  501    0  0.00000000000E+00  0.00000000000E+00 -0.17676140205E+04  0.17676140205E+04  0.25500000920E-02 0. -1.
    10030    2    1    2    0    0  0.00000000000E+00  0.00000000000E+00 -0.63984223644E+03  0.28953858046E+04  0.28238025550E+04 0.  0.
        4    1    3    3  502    0  0.11740532869E+04 -0.18213004335E+03 -0.11020764013E+04  0.16205389474E+04  0.12699999809E+01 0. -1.
       -4    1    3    3    0  502 -0.11740532869E+04  0.18213004335E+03  0.46223416482E+03  0.12748468571E+04  0.12699999809E+01 0.  1.
</event>
<event>
 5   0  0.7388013E-06  0.2778309E+04  0.7818609E-02  0.8310034E-01
       -1   -1    0    0    0  501  0.00000000000E+00  0.00000000000E+00  0.13650196691E+04  0.13650196691E+04  0.50400001928E-02 0.  1.
        1   -1    0    0  501    0  0.00000000000E+00  0.00000000000E+00 -0.14137163203E+04  0.14137163203E+04  0.50400001928E-02 0. -1.
    10030    2    1    2    0    0  0.00000000000E+00  0.00000000000E+00 -0.48696651154E+02  0.27787359894E+04  0.27783092584E+04 0.  0.
        1    1    3    3  502    0 -0.17252409373E+03 -0.61436938620E+03 -0.12584488151E+04  0.14109952962E+04  0.50400001928E-02 0. -1.
       -1    1    3    3    0  502  0.17252409373E+03  0.61436938620E+03  0.12097521640E+04  0.13677406932E+04  0.50400001928E-02 0.  1.
</event>
<event>
 5   0  0.7555871E-06  0.2777670E+04  0.7818609E-02  0.8310235E-01
       -1   -1    0    0    0  501  0.00000000000E+00  0.00000000000E+00  0.23870501008E+04  0.23870501008E+04  0.50400001928E-02 0.  1.
        1   -1    0    0  501    0  0.00000000000E+00  0.00000000000E+00 -0.80805290111E+03  0.80805290113E+03  0.50400001928E-02 0. -1.
    10030    2    1    2    0    0  0.00000000000E+00  0.00000000000E+00  0.15789971997E+04  0.31951030019E+04  0.27776700734E+04 0.  0.
        3    1    3    3  502    0  0.82032539303E+03 -0.10357232824E+04  0.29714810054E+03  0.13542353828E+04  0.10100000352E+00 0. -1.
       -3    1    3    3    0  502 -0.82032539303E+03  0.10357232824E+04  0.12818490992E+04  0.18408676192E+04  0.10100000352E+00 0.  1.
</event>
<event>
 5   0  0.1832502E-05  0.2788515E+04  0.7818609E-02  0.8306843E-01
        2   -1    0    0  501    0  0.00000000000E+00  0.00000000000E+00  0.15231572344E+04  0.15231572344E+04  0.25500000920E-02 0. -1.
       -2   -1    0    0    0  501  0.00000000000E+00  0.00000000000E+00 -0.12762660122E+04  0.12762660122E+04  0.25500000920E-02 0.  1.
    10030    2    1    2    0    0  0.00000000000E+00  0.00000000000E+00  0.24689122212E+03  0.27994232466E+04  0.27885148804E+04 0.  0.
        2    1    3    3  502    0 -0.47675686361E+03 -0.13075918680E+04  0.40295223352E+02  0.13923782910E+04  0.25500000920E-02 0. -1.
       -2    1    3    3    0  502  0.47675686361E+03  0.13075918680E+04  0.20659599877E+03  0.14070449556E+04  0.25500000920E-02 0.  1.
</event>
<event>
 5   0  0.1923559E-05  0.2388323E+04  0.7818609E-02  0.8443888E-01
        2   -1    0    0  501    0  0.00000000000E+00  0.00000000000E+00  0.13879424423E+04  0.13879424423E+04  0.25500000920E-02 0. -1.
       -2   -1    0    0    0  501  0.00000000000E+00  0.00000000000E+00 -0.10274360519E+04  0.10274360519E+04  0.25500000920E-02 0.  1.
    10030    2    1    2    0    0  0.00000000000E+00  0.00000000000E+00  0.36050639034E+03  0.24153784942E+04  0.23883233476E+04 0.  0.
        4    1    3    3  502    0 -0.21063388571E+03  0.66250656242E+03  0.11621996067E+04  0.13542492820E+04  0.12699999809E+01 0. -1.
       -4    1    3    3    0  502  0.21063388571E+03 -0.66250656242E+03 -0.80169321632E+03  0.10611292122E+04  0.12699999809E+01 0.  1.
</event>
<event>
 5   0  0.7613444E-06  0.2651278E+04  0.7818609E-02  0.8350989E-01
       -1   -1    0    0    0  501  0.00000000000E+00  0.00000000000E+00  0.15757532174E+04  0.15757532174E+04  0.50400001928E-02 0. -1.
        1   -1    0    0  501    0  0.00000000000E+00  0.00000000000E+00 -0.11152249112E+04  0.11152249112E+04  0.50400001928E-02 0.  1.
    10030    2    1    2    0    0  0.00000000000E+00  0.00000000000E+00  0.46052830618E+03  0.26909781286E+04  0.26512783648E+04 0.  0.
        5    1    3    3  502    0 -0.54139789217E+03 -0.11820674771E+03  0.14525440898E+04  0.15546674678E+04  0.46999998093E+01 0. -1.
       -5    1    3    3    0  502  0.54139789217E+03  0.11820674771E+03 -0.99201578358E+03  0.11363106607E+04  0.46999998093E+01 0.  1.
</event>
<event>
 5   0  0.1923559E-05  0.2757763E+04  0.7818609E-02  0.8316503E-01
       -2   -1    0    0    0  501  0.00000000000E+00  0.00000000000E+00  0.72280785279E+03  0.72280785280E+03  0.25500000920E-02 0. -1.
        2   -1    0    0  501    0  0.00000000000E+00  0.00000000000E+00 -0.26304554044E+04  0.26304554044E+04  0.25500000920E-02 0.  1.
    10030    2    1    2    0    0  0.00000000000E+00  0.00000000000E+00 -0.19076475516E+04  0.33532632572E+04  0.27577627329E+04 0.  0.
        4    1    3    3  502    0  0.25793199224E+03 -0.12686280341E+04 -0.15310620915E+04  0.20050183895E+04  0.12699999809E+01 0. -1.
       -4    1    3    3    0  502 -0.25793199224E+03  0.12686280341E+04 -0.37658546014E+03  0.13482448677E+04  0.12699999809E+01 0.  1.
</event>
<event>
 5   0  0.7681342E-06  0.2451107E+04  0.7818609E-02  0.8420614E-01
       -1   -1    0    0    0  501  0.00000000000E+00  0.00000000000E+00  0.16122430274E+04  0.16122430274E+04  0.50400001928E-02 0. -1.
        1   -1    0    0  501    0  0.00000000000E+00  0.00000000000E+00 -0.93161000493E+03  0.93161000495E+03  0.50400001928E-02 0.  1.
    10030    2    1    2    0    0  0.00000000000E+00  0.00000000000E+00  0.68063302244E+03  0.25438530323E+04  0.24511072883E+04 0.  0.
        2    1    3    3  502    0 -0.38801425187E+02  0.11299264823E+04  0.83122865182E+03  0.14032749116E+04  0.25500000920E-02 0.  1.
       -2    1    3    3    0  502  0.38801425187E+02 -0.11299264823E+04 -0.15059562938E+03  0.11405781207E+04  0.25500000920E-02 0. -1.
</event>
<event>
 5   0  0.1814230E-05  0.2920168E+04  0.7818609E-02  0.8266902E-01
       -2   -1    0    0    0  501  0.00000000000E+00  0.00000000000E+00  0.13144774063E+04  0.13144774064E+04  0.25500000920E-02 0.  1.
        2   -1    0    0  501    0  0.00000000000E+00  0.00000000000E+00 -0.16218196617E+04  0.16218196617E+04  0.25500000920E-02 0. -1.
    10030    2    1    2    0    0  0.00000000000E+00  0.00000000000E+00 -0.30734225530E+03  0.29362970680E+04  0.29201680105E+04 0.  0.
        5    1    3    3  502    0 -0.65127690137E+03 -0.10103554593E+04  0.67966658214E+03  0.13809230642E+04  0.46999998093E+01 0.  1.
       -5    1    3    3    0  502  0.65127690137E+03  0.10103554593E+04 -0.98700883744E+03  0.15553740038E+04  0.46999998093E+01 0. -1.
</event>
<event>
 5   0  0.7509685E-06  0.2900317E+04  0.7818609E-02  0.8272783E-01
        1   -1    0    0  501    0  0.00000000000E+00  0.00000000000E+00  0.15759844835E+04  0.15759844835E+04  0.50400001928E-02 0.  1.
       -1   -1    0    0    0  501  0.00000000000E+00  0.00000000000E+00 -0.13343781497E+04  0.13343781497E+04  0.50400001928E-02 0. -1.
    10030    2    1    2    0    0  0.00000000000E+00  0.00000000000E+00  0.24160633378E+03  0.29103626332E+04  0.29003167131E+04 0.  0.
        4    1    3    3  502    0 -0.13849202828E+04  0.24027225651E+03 -0.23711519844E+03  0.14254684062E+04  0.12699999809E+01 0. -1.
       -4    1    3    3    0  502  0.13849202828E+04 -0.24027225651E+03  0.47872153222E+03  0.14848942270E+04  0.12699999809E+01 0.  1.
</event>
<event>
 5   0  0.1874272E-05  0.2801028E+04  0.7818609E-02  0.8302949E-01
       -2   -1    0    0    0  501  0.00000000000E+00  0.00000000000E+00  0.79933689811E+03  0.79933689811E+03  0.25500000920E-02 0.  1.
        2   -1    0    0  501    0  0.00000000000E+00  0.00000000000E+00 -0.24538336059E+04  0.24538336059E+04  0.25500000920E-02 0. -1.
    10030    2    1    2    0    0  0.00000000000E+00  0.00000000000E+00 -0.16544967078E+04  0.32531705040E+04  0.28010281991E+04 0.  0.
        3    1    3    3  502    0 -0.61424707661E+03  0.97558020546E+03 -0.17508391965E+04  0.20963048706E+04  0.10100000352E+00 0. -1.
       -3    1    3    3    0  502  0.61424707661E+03 -0.97558020546E+03  0.96342488698E+02  0.11568656334E+04  0.10100000352E+00 0.  1.
</event>
<event>
 5   0  0.6288000E-06  0.2833862E+04  0.7818609E-02  0.8292832E-01
        4   -1    0    0  501    0  0.00000000000E+00  0.00000000000E+00  0.14380117729E+04  0.14380123337E+04  0.12699999809E+01 0. -1.
       -4   -1    0    0    0  501  0.00000000000E+00  0.00000000000E+00 -0.13961582353E+04  0.13961588129E+04  0.12699999809E+01 0.  1.
    10030    2    1    2    0    0  0.00000000000E+00  0.00000000000E+00  0.41853537563E+02  0.28341711466E+04  0.28338620943E+04 0.  0.
        5    1    3    3  502    0  0.10716762961E+04 -0.17037029472E+03  0.93215476428E+03  0.14305421055E+04  0.46999998093E+01 0. -1.
       -5    1    3    3    0  502 -0.10716762961E+04  0.17037029472E+03 -0.89030122672E+03  0.14036290412E+04  0.46999998093E+01 0.  1.
</event>
<event>
 5   0  0.1832502E-05  0.2786898E+04  0.7818609E-02  0.8307348E-01
        2   -1    0    0  501    0  0.00000000000E+00  0.00000000000E+00  0.10980088886E+04  0.10980088886E+04  0.25500000920E-02 0. -1.
       -2   -1    0    0    0  501  0.00000000000E+00  0.00000000000E+00 -0.17683830677E+04  0.17683830677E+04  0.25500000920E-02 0.  1.
    10030    2    1    2    0    0  0.00000000000E+00  0.00000000000E+00 -0.67037417907E+03  0.28663919563E+04  0.27868981516E+04 0.  0.
        2    1    3    3  502    0  0.13081989831E+04 -0.29682945917E+03  0.52674276943E+02  0.13424853395E+04  0.25500000920E-02 0. -1.
       -2    1    3    3    0  502 -0.13081989831E+04  0.29682945917E+03 -0.72304845601E+03  0.15239066169E+04  0.25500000920E-02 0.  1.
</event>
<event>
 5   0  0.1923559E-05  0.2843059E+04  0.7818609E-02  0.8290024E-01
        2   -1    0    0  501    0  0.00000000000E+00  0.00000000000E+00  0.19510892934E+04  0.19510892934E+04  0.25500000920E-02 0. -1.
       -2   -1    0    0    0  501  0.00000000000E+00  0.00000000000E+00 -0.10357016498E+04  0.10357016498E+04  0.25500000920E-02 0.  1.
    10030    2    1    2    0    0  0.00000000000E+00  0.00000000000E+00  0.91538764354E+03  0.29867909432E+04  0.28430591975E+04 0.  0.
        4    1    3    3  502    0  0.31838982542E+03 -0.43697689696E+03  0.18388540196E+04  0.19166915787E+04  0.12699999809E+01 0. -1.
       -4    1    3    3    0  502 -0.31838982542E+03  0.43697689696E+03 -0.92346637606E+03  0.10700993646E+04  0.12699999809E+01 0.  1.
</event>
<event>
 5   0  0.1814230E-05  0.2805548E+04  0.7818609E-02  0.8301548E-01
        2   -1    0    0  501    0  0.00000000000E+00  0.00000000000E+00  0.21437425403E+04  0.21437425403E+04  0.25500000920E-02 0.  1.
       -2   -1    0    0    0  501  0.00000000000E+00  0.00000000000E+00 -0.91791583166E+03  0.91791583167E+03  0.25500000920E-02 0. -1.
    10030    2    1    2    0    0  0.00000000000E+00  0.00000000000E+00  0.12258267086E+04  0.30616583719E+04  0.28055482293E+04 0.  0.
        5    1    3    3  502    0  0.11567887316E+03 -0.99037905582E+03 -0.46382856019E+03  0.10997232830E+04  0.46999998093E+01 0. -1.
       -5    1    3    3    0  502 -0.11567887316E+03  0.99037905582E+03  0.16896552688E+04  0.19619350889E+04  0.46999998093E+01 0.  1.
</event>
<event>
 5   0  0.7388013E-06  0.2777704E+04  0.7818609E-02  0.8310224E-01
       -1   -1    0    0    0  501  0.00000000000E+00  0.00000000000E+00  0.11223077395E+04  0.11223077395E+04  0.50400001928E-02 0. -1.
        1   -1    0    0  501    0  0.00000000000E+00  0.00000000000E+00 -0.17186995559E+04  0.17186995559E+04  0.50400001928E-02 0.  1.
    10030    2    1    2    0    0  0.00000000000E+00  0.00000000000E+00 -0.59639181645E+03  0.28410072954E+04  0.27777039536E+04 0.  0.
        1    1    3    3  502    0  0.36307994657E+03 -0.10035838930E+04  0.61082324908E+03  0.12296799257E+04  0.50400001928E-02 0. -1.
       -1    1    3    3    0  502 -0.36307994657E+03  0.10035838930E+04 -0.12072150655E+04  0.16113273697E+04  0.50400001928E-02 0.  1.
</event>
<event>
 5   0  0.7681342E-06  0.2701839E+04  0.7818609E-02  0.8334408E-01
        1   -1    0    0  501    0  0.00000000000E+00  0.00000000000E+00  0.10586078040E+04  0.10586078041E+04  0.50400001928E-02 0. -1.
       -1   -1    0    0    0  501  0.00000000000E+00  0.00000000000E+00 -0.17239469532E+04  0.17239469532E+04  0.50400001928E-02 0.  1.
    10030    2    1    2    0    0  0.00000000000E+00  0.00000000000E+00 -0.66533914912E+03  0.27825547572E+04  0.27018391502E+04 0.  0.
        2    1    3    3  502    0  0.58090847857E+02 -0.73092595502E+03 -0.15011827868E+04  0.16706816147E+04  0.25500000920E-02 0.  1.
       -2    1    3    3    0  502 -0.58090847857E+02  0.73092595502E+03  0.83584363770E+03  0.11118731425E+04  0.25500000920E-02 0. -1.
</event>
<event>
 5   0  0.1814230E-05  0.2711337E+04  0.7818609E-02  0.8331336E-01
        2   -1    0    0  501    0  0.00000000000E+00  0.00000000000E+00  0.93136271290E+03  0.93136271291E+03  0.25500000920E-02 0.  1.
       -2   -1    0    0    0  501  0.00000000000E+00  0.00000000000E+00 -0.19732779747E+04  0.19732779747E+04  0.25500000920E-02 0. -1.
    10030    2    1    2    0    0  0.00000000000E+00  0.00000000000E+00 -0.10419152618E+04  0.29046406876E+04  0.27113373290E+04 0.  0.
        5    1    3    3  502    0  0.27380116152E+03  0.48313238625E+03  0.80391421953E+03  0.97707939342E+03  0.46999998093E+01 0.  1.
       -5    1    3    3    0  502 -0.27380116152E+03 -0.48313238625E+03 -0.18458294814E+04  0.19275612942E+04  0.46999998093E+01 0. -1.
</event>
<event>
 5   0  0.7555871E-06  0.2745743E+04  0.7818609E-02  0.8320314E-01
        1   -1    0    0  501    0  0.00000000000E+00  0.00000000000E+00  0.93987446076E+03  0.93987446077E+03  0.50400001928E-02 0.  1.
       -1   -1    0    0    0  501  0.00000000000E+00  0.00000000000E+00 -0.20053494456E+04  0.20053494456E+04  0.50400001928E-02 0. -1.
    10030    2    1    2    0    0  0.00000000000E+00  0.00000000000E+00 -0.10654749848E+04  0.29452239063E+04  0.27457434176E+04 0.  0.
        3    1    3    3  502    0 -0.11481200325E+04 -0.16381604348E+03 -0.13207974900E+04  0.17577034235E+04  0.10100000352E+00 0. -1.
       -3    1    3    3    0  502  0.11481200325E+04  0.16381604348E+03  0.25532250522E+03  0.11875204828E+04  0.10100000352E+00 0.  1.
</event>
<event>
 5   0  0.1904553E-05  0.2861514E+04  0.7818609E-02  0.8284421E-01
       -2   -1    0    0    0  501  0.00000000000E+00  0.00000000000E+00  0.12861546551E+04  0.12861546551E+04  0.25500000920E-02 0. -1.
        2   -1    0    0  501    0  0.00000000000E+00  0.00000000000E+00 -0.15916165701E+04  0.15916165701E+04  0.25500000920E-02 0.  1.
    10030    2    1    2    0    0  0.00000000000E+00  0.00000000000E+00 -0.30546191500E+03  0.28777712253E+04  0.28615136281E+04 0.  0.
        1    1    3    3  502    0 -0.36471531006E+03  0.35699976585E+03  0.11915002909E+04  0.12962017719E+04  0.50400001928E-02 0. -1.
       -1    1    3    3    0  502  0.36471531006E+03 -0.35699976585E+03 -0.14969622059E+04  0.15815694534E+04  0.50400001928E-02 0.  1.
</event>
<event>
 5   0  0.7388013E-06  0.2790696E+04  0.7818609E-02  0.8306163E-01
        1   -1    0    0  501    0  0.00000000000E+00  0.00000000000E+00  0.74843830847E+03  0.74843830849E+03  0.50400001928E-02 0. -1.
       -1   -1    0    0    0  501  0.00000000000E+00  0.00000000000E+00 -0.26014111833E+04  0.26014111833E+04  0.50400001928E-02 0.  1.
    10030    2    1    2    0    0  0.00000000000E+00  0.00000000000E+00 -0.18529728749E+04  0.33498494918E+04  0.27906958170E+04 0.  0.
        1    1    3    3  502    0  0.45073238927E+03 -0.82415755358E+03  0.31204236602E+03  0.98983119675E+03  0.50400001928E-02 0. -1.
       -1    1    3    3    0  502 -0.45073238927E+03  0.82415755358E+03 -0.21650152409E+04  0.23600182951E+04  0.50400001928E-02 0.  1.
</event>
<event>
 5   0  0.1904553E-05  0.2767202E+04  0.7818609E-02  0.8313524E-01
        2   -1    0    0  501    0  0.00000000000E+00  0.00000000000E+00  0.18538744752E+04  0.18538744752E+04  0.25500000920E-02 0.  1.
       -2   -1    0    0    0  501  0.00000000000E+00  0.00000000000E+00 -0.10326219260E+04  0.10326219260E+04  0.25500000920E-02 0. -1.
    10030    2    1    2    0    0  0.00000000000E+00  0.00000000000E+00  0.82125254920E+03  0.28864964012E+04  0.27672017860E+04 0.  0.
        1    1    3    3  502    0  0.19429223091E+03 -0.83952948087E+03 -0.71853374988E+03  0.11219848350E+04  0.50400001928E-02 0. -1.
       -1    1    3    3    0  502 -0.19429223091E+03  0.83952948087E+03  0.15397862991E+04  0.17645115662E+04  0.50400001928E-02 0.  1.
</event>
<event>
 5   0  0.1904553E-05  0.2789547E+04  0.7818609E-02  0.8306521E-01
       -2   -1    0    0    0  501  0.00000000000E+00  0.00000000000E+00  0.12823786113E+04  0.12823786113E+04  0.25500000920E-02 0. -1.
        2   -1    0    0  501    0  0.00000000000E+00  0.00000000000E+00 -0.15170192941E+04  0.15170192941E+04  0.25500000920E-02 0.  1.
    10030    2    1    2    0    0  0.00000000000E+00  0.00000000000E+00 -0.23464068272E+03  0.27993979054E+04  0.27895469852E+04 0.  0.
        1    1    3    3  502    0 -0.33320773905E+02  0.13726078038E+04  0.12896563683E+03  0.13790556887E+04  0.50400001928E-02 0.  1.
       -1    1    3    3    0  502  0.33320773905E+02 -0.13726078038E+04 -0.36360631955E+03  0.14203422167E+04  0.50400001928E-02 0. -1.
</event>
<event>
 5   0  0.1814230E-05  0.2785763E+04  0.7818609E-02  0.8307702E-01
        2   -1    0    0  501    0  0.00000000000E+00  0.00000000000E+00  0.23870940257E+04  0.23870940257E+04  0.25500000920E-02 0.  1.
       -2   -1    0    0    0  501  0.00000000000E+00  0.00000000000E+00 -0.81275361868E+03  0.81275361869E+03  0.25500000920E-02 0. -1.
    10030    2    1    2    0    0  0.00000000000E+00  0.00000000000E+00  0.15743404070E+04  0.31998476443E+04  0.27857633119E+04 0.  0.
        5    1    3    3  502    0  0.33948019740E+03  0.61006694994E+03 -0.59725143935E+03  0.91878172578E+03  0.46999998093E+01 0. -1.
       -5    1    3    3    0  502 -0.33948019740E+03 -0.61006694994E+03  0.21715918463E+04  0.22810659186E+04  0.46999998093E+01 0.  1.
</event>
<event>
 5   0  0.1874272E-05  0.2777170E+04  0.7818609E-02  0.8310391E-01
        2   -1    0    0  501    0  0.00000000000E+00  0.00000000000E+00  0.15594112307E+04  0.15594112307E+04  0.25500000920E-02 0. -1.
       -2   -1    0    0    0  501  0.00000000000E+00  0.00000000000E+00 -0.12364719352E+04  0.12364719352E+04  0.25500000920E-02 0.  1.
    10030    2    1    2    0    0  0.00000000000E+00  0.00000000000E+00  0.32293929546E+03  0.27958831660E+04  0.27771699424E+04 0.  0.
        3    1    3    3  502    0 -0.28646975517E+03  0.11464642375E+04 -0.57263724870E+03  0.13131483531E+04  0.10100000352E+00 0.  1.
       -3    1    3    3    0  502  0.28646975517E+03 -0.11464642375E+04  0.89557654416E+03  0.14827348128E+04  0.10100000352E+00 0. -1.
</event>
<event>
 5   0  0.7681342E-06  0.2811667E+04  0.7818609E-02  0.8299655E-01
       -1   -1    0    0    0  501  0.00000000000E+00  0.00000000000E+00  0.13213493311E+04  0.13213493311E+04  0.50400001928E-02 0. -1.
        1   -1    0    0  501    0  0.00000000000E+00  0.00000000000E+00 -0.14957195310E+04  0.14957195310E+04  0.50400001928E-02 0.  1.
    10030    2    1    2    0    0  0.00000000000E+00  0.00000000000E+00 -0.17437019990E+03  0.28170688621E+04  0.28116671224E+04 0.  0.
        2    1    3    3  502    0 -0.16962309027E+03  0.10099697456E+04 -0.10521330612E+04  0.14682625304E+04  0.25500000920E-02 0.  1.
       -2    1    3    3    0  502  0.16962309027E+03 -0.10099697456E+04  0.87776286133E+03  0.13488063317E+04  0.25500000920E-02 0. -1.
</event>
<event>
 5   0  0.7555871E-06  0.2781565E+04  0.7818609E-02  0.8309015E-01
       -1   -1    0    0    0  501  0.00000000000E+00  0.00000000000E+00  0.21492451229E+04  0.21492451229E+04  0.50400001928E-02 0. -1.
        1   -1    0    0  501    0  0.00000000000E+00  0.00000000000E+00 -0.89997900240E+03  0.89997900241E+03  0.50400001928E-02 0.  1.
    10030    2    1    2    0    0  0.00000000000E+00  0.00000000000E+00  0.12492661205E+04  0.30492241253E+04  0.27815646544E+04 0.  0.
        3    1    3    3  502    0 -0.99285751452E+03  0.29757832030E+03 -0.39193965175E+03  0.11081225572E+04  0.10100000352E+00 0.  1.
       -3    1    3    3    0  502  0.99285751452E+03 -0.29757832030E+03  0.16412057723E+04  0.19411015682E+04  0.10100000352E+00 0. -1.
</event>
<event>
 5   0  0.7681342E-06  0.2797933E+04  0.7818609E-02  0.8303910E-01
       -1   -1    0    0    0  501  0.00000000000E+00  0.00000000000E+00  0.14417580053E+04  0.14417580053E+04  0.50400001928E-02 0.  1.
        1   -1    0    0  501    0  0.00000000000E+00  0.00000000000E+00 -0.13574451744E+04  0.13574451744E+04  0.50400001928E-02 0. -1.
    10030    2    1    2    0    0  0.00000000000E+00  0.00000000000E+00  0.84312830879E+02  0.27992031797E+04  0.27979331278E+04 0.  0.
        2    1    3    3  502    0  0.12643749265E+04  0.59698155011E+03  0.87745958791E+02  0.14009747604E+04  0.25500000920E-02 0.  1.
       -2    1    3    3    0  502 -0.12643749265E+04 -0.59698155011E+03 -0.34331279116E+01  0.13982284193E+04  0.25500000920E-02 0. -1.
</event>
<event>
 5   0  0.7388013E-06  0.1814739E+04  0.7818609E-02  0.8698500E-01
       -1   -1    0    0    0  501  0.00000000000E+00  0.00000000000E+00  0.48701668021E+03  0.48701668023E+03  0.50400001928E-02 0. -1.
        1   -1    0    0  501    0  0.00000000000E+00  0.00000000000E+00 -0.16905364580E+04  0.16905364580E+04  0.50400001928E-02 0.  1.
    10030    2    1    2    0    0  0.00000000000E+00  0.00000000000E+00 -0.12035197778E+04  0.21775531383E+04  0.18147390486E+04 0.  0.
        1    1    3    3  502    0  0.31341444309E+03 -0.84980628774E+03 -0.66660159935E+03  0.11246141703E+04  0.50400001928E-02 0. -1.
       -1    1    3    3    0  502 -0.31341444309E+03  0.84980628774E+03 -0.53691817847E+03  0.10529389679E+04  0.50400001928E-02 0.  1.
</event>
<event>
 5   0  0.1904553E-05  0.2782664E+04  0.7818609E-02  0.8308671E-01
        2   -1    0    0  501    0  0.00000000000E+00  0.00000000000E+00  0.17769879914E+04  0.17769879914E+04  0.25500000920E-02 0. -1.
       -2   -1    0    0    0  501  0.00000000000E+00  0.00000000000E+00 -0.10893742647E+04  0.10893742647E+04  0.25500000920E-02 0.  1.
    10030    2    1    2    0    0  0.00000000000E+00  0.00000000000E+00  0.68761372671E+03  0.28663622561E+04  0.27826641813E+04 0.  0.
        1    1    3    3  502    0 -0.53409147422E+03 -0.48734035757E+03 -0.88066594344E+03  0.11394414557E+04  0.50400001928E-02 0.  1.
       -1    1    3    3    0  502  0.53409147422E+03  0.48734035757E+03  0.15682796701E+04  0.17269208004E+04  0.50400001928E-02 0. -1.
</event>
<event>
 5   0  0.7555871E-06  0.2792612E+04  0.7818609E-02  0.8305566E-01
        1   -1    0    0  501    0  0.00000000000E+00  0.00000000000E+00  0.17930649674E+04  0.17930649674E+04  0.50400001928E-02 0.  1.
       -1   -1    0    0    0  501  0.00000000000E+00  0.00000000000E+00 -0.10873395347E+04  0.10873395347E+04  0.50400001928E-02 0. -1.
    10030    2    1    2    0    0  0.00000000000E+00  0.00000000000E+00  0.70572543269E+03  0.28804045021E+04  0.27926119869E+04 0.  0.
        3    1    3    3  502    0 -0.71486906896E+03 -0.11395762189E+04  0.73878943090E+03  0.15347578239E+04  0.10100000352E+00 0.  1.
       -3    1    3    3    0  502  0.71486906896E+03  0.11395762189E+04 -0.33063998207E+02  0.13456466782E+04  0.10100000352E+00 0. -1.
</event>
<event>
 5   0  0.1832502E-05  0.2792561E+04  0.7818609E-02  0.8305582E-01
       -2   -1    0    0    0  501  0.00000000000E+00  0.00000000000E+00  0.74158072308E+03  0.74158072308E+03  0.25500000920E-02 0.  1.
        2   -1    0    0  501    0  0.00000000000E+00  0.00000000000E+00 -0.26289768385E+04  0.26289768385E+04  0.25500000920E-02 0. -1.
    10030    2    1    2    0    0  0.00000000000E+00  0.00000000000E+00 -0.18873961154E+04  0.33705575616E+04  0.27925605060E+04 0.  0.
        2    1    3    3  502    0 -0.56822242093E+03 -0.60744944980E+03  0.40990818050E+03  0.92730592048E+03  0.25500000920E-02 0.  1.
       -2    1    3    3    0  502  0.56822242093E+03  0.60744944980E+03 -0.22973042959E+04  0.24432516411E+04  0.25500000920E-02 0. -1.
</event>
<event>
 5   0  0.7613444E-06  0.2619549E+04  0.7818609E-02  0.8361591E-01
       -1   -1    0    0    0  501  0.00000000000E+00  0.00000000000E+00  0.11086140672E+04  0.11086140672E+04  0.50400001928E-02 0. -1.
        1   -1    0    0  501    0  0.00000000000E+00  0.00000000000E+00 -0.15474361997E+04  0.15474361997E+04  0.50400001928E-02 0.  1.
    10030    2    1    2    0    0  0.00000000000E+00  0.00000000000E+00 -0.43882213251E+03  0.26560502669E+04  0.26195492277E+04 0.  0.
        5    1    3    3  502    0 -0.46516686475E+03  0.29123170917E+03 -0.14252218541E+04  0.15272444283E+04  0.46999998093E+01 0.  1.
       -5    1    3    3    0  502  0.46516686475E+03 -0.29123170917E+03  0.98639972158E+03  0.11288058386E+04  0.46999998093E+01 0. -1.
</event>
<event>
 5   0  0.1923559E-05  0.2790469E+04  0.7818609E-02  0.8306234E-01
       -2   -1    0    0    0  501  0.00000000000E+00  0.00000000000E+00  0.10211576537E+04  0.10211576537E+04  0.25500000920E-02 0. -1.
        2   -1    0    0  501    0  0.00000000000E+00  0.00000000000E+00 -0.19063451699E+04  0.19063451699E+04  0.25500000920E-02 0.  1.
    10030    2    1    2    0    0  0.00000000000E+00  0.00000000000E+00 -0.88518751623E+03  0.29275028236E+04  0.27904687497E+04 0.  0.
        4    1    3    3  502    0 -0.76027943841E+03  0.11388622550E+04 -0.16178284969E+03  0.13788427625E+04  0.12699999809E+01 0. -1.
       -4    1    3    3    0  502  0.76027943841E+03 -0.11388622550E+04 -0.72340466654E+03  0.15486600611E+04  0.12699999809E+01 0.  1.
</event>
<event>
 5   0  0.1904553E-05  0.2836425E+04  0.7818609E-02  0.8292048E-01
        2   -1    0    0  501    0  0.00000000000E+00  0.00000000000E+00  0.15083387942E+04  0.15083387942E+04  0.25500000920E-02 0. -1.
       -2   -1    0    0    0  501  0.00000000000E+00  0.00000000000E+00 -0.13334712920E+04  0.13334712920E+04  0.25500000920E-02 0.  1.
    10030    2    1    2    0    0  0.00000000000E+00  0.00000000000E+00  0.17486750222E+03  0.28418100863E+04  0.28364248488E+04 0.  0.
        1    1    3    3  502    0  0.66903953702E+03 -0.93269282385E+02  0.13368030813E+04  0.14977835422E+04  0.50400001928E-02 0. -1.
       -1    1    3    3    0  502 -0.66903953702E+03  0.93269282385E+02 -0.11619355791E+04  0.13440265440E+04  0.50400001928E-02 0.  1.
</event>
<event>
 5   0  0.1904553E-05  0.2783286E+04  0.7818609E-02  0.8308476E-01
       -2   -1    0    0    0  501  0.00000000000E+00  0.00000000000E+00  0.14414642445E+04  0.14414642445E+04  0.25500000920E-02 0.  1.
        2   -1    0    0  501    0  0.00000000000E+00  0.00000000000E+00 -0.13435441046E+04  0.13435441046E+04  0.25500000920E-02 0. -1.
    10030    2    1    2    0    0  0.00000000000E+00  0.00000000000E+00  0.97920139857E+02  0.27850083491E+04  0.27832863940E+04 0.  0.
        1    1    3    3  502    0 -0.12960771593E+04  0.80016303693E+02  0.54972165962E+03  0.14101108165E+04  0.50400001928E-02 0.  1.
       -1    1    3    3    0  502  0.12960771593E+04 -0.80016303693E+02 -0.45180151976E+03  0.13748975326E+04  0.50400001928E-02 0. -1.
</event>
<event>
 5   0  0.7509685E-06  0.2963177E+04  0.7818609E-02  0.8254325E-01
       -1   -1    0    0    0  501  0.00000000000E+00  0.00000000000E+00  0.16417911527E+04  0.16417911527E+04  0.50400001928E-02 0.  1.
        1   -1    0    0  501    0  0.00000000000E+00  0.00000000000E+00 -0.13370178167E+04  0.13370178167E+04  0.50400001928E-02 0. -1.
    10030    2    1    2    0    0  0.00000000000E+00  0.00000000000E+00  0.30477333605E+03  0.29788089694E+04  0.29631766889E+04 0.  0.
        4    1    3    3  502    0 -0.13027962915E+04  0.90885850171E+02 -0.55099304683E+03  0.14174390165E+04  0.12699999809E+01 0.  1.
       -4    1    3    3    0  502  0.13027962915E+04 -0.90885850171E+02  0.85576638288E+03  0.15613699529E+04  0.12699999809E+01 0. -1.
</event>
<event>
 5   0  0.1923559E-05  0.2849884E+04  0.7818609E-02  0.8287947E-01
        2   -1    0    0  501    0  0.00000000000E+00  0.00000000000E+00  0.19781776450E+04  0.19781776450E+04  0.25500000920E-02 0. -1.
       -2   -1    0    0    0  501  0.00000000000E+00  0.00000000000E+00 -0.10264293056E+04  0.10264293056E+04  0.25500000920E-02 0.  1.
    10030    2    1    2    0    0  0.00000000000E+00  0.00000000000E+00  0.95174833936E+03  0.30046069506E+04  0.28498838618E+04 0.  0.
        4    1    3    3  502    0  0.59925395241E+03 -0.47480519117E+03  0.17436180721E+04  0.19038778488E+04  0.12699999809E+01 0. -1.
       -4    1    3    3    0  502 -0.59925395241E+03  0.47480519117E+03 -0.79186973270E+03  0.11007291018E+04  0.12699999809E+01 0.  1.
</event>
<event>
 5   0  0.1923559E-05  0.2787175E+04  0.7818609E-02  0.8307261E-01
       -2   -1    0    0    0  501  0.00000000000E+00  0.00000000000E+00  0.23212295684E+04  0.23212295684E+04  0.25500000920E-02 0.  1.
        2   -1    0    0  501    0  0.00000000000E+00  0.00000000000E+00 -0.83666294866E+03  0.83666294866E+03  0.25500000920E-02 0. -1.
    10030    2    1    2    0    0  0.00000000000E+00  0.00000000000E+00  0.14845666198E+04  0.31578925171E+04  0.27871754701E+04 0.  0.
        4    1    3    3  502    0  0.11536261115E+04 -0.68362058468E+03  0.31249394594E+03  0.13768966512E+04  0.12699999809E+01 0. -1.
       -4    1    3    3    0  502 -0.11536261115E+04  0.68362058468E+03  0.11720726738E+04  0.17809958659E+04  0.12699999809E+01 0.  1.
</event>
<event>
 5   0  0.7681342E-06  0.2784891E+04  0.7818609E-02  0.8307975E-01
       -1   -1    0    0    0  501  0.00000000000E+00  0.00000000000E+00  0.10705933601E+04  0.10705933601E+04  0.50400001928E-02 0.  1.
        1   -1    0    0  501    0  0.00000000000E+00  0.00000000000E+00 -0.18110557538E+04  0.18110557538E+04  0.50400001928E-02 0. -1.
    10030    2    1    2    0    0  0.00000000000E+00  0.00000000000E+00 -0.74046239370E+03  0.28816491139E+04  0.27848908523E+04 0.  0.
        2    1    3    3  502    0 -0.37154892421E+03  0.70267759462E+03  0.81277577186E+03  0.11368416162E+04  0.25500000920E-02 0.  1.
       -2    1    3    3    0  502  0.37154892421E+03 -0.70267759462E+03 -0.15532381656E+04  0.17448074977E+04  0.25500000920E-02 0. -1.
</event>
<event>
 5   0  0.1904553E-05  0.2781976E+04  0.7818609E-02  0.8308886E-01
       -2   -1    0    0    0  501  0.00000000000E+00  0.00000000000E+00  0.73373927356E+03  0.73373927357E+03  0.25500000920E-02 0.  1.
        2   -1    0    0  501    0  0.00000000000E+00  0.00000000000E+00 -0.26369688144E+04  0.26369688144E+04  0.25500000920E-02 0. -1.
    10030    2    1    2    0    0  0.00000000000E+00  0.00000000000E+00 -0.19032295408E+04  0.33707080880E+04  0.27819759757E+04 0.  0.
        1    1    3    3  502    0  0.12779863802E+04  0.17730551625E+03 -0.15813807768E+04  0.20409438002E+04  0.50400001928E-02 0. -1.
       -1    1    3    3    0  502 -0.12779863802E+04 -0.17730551625E+03 -0.32184876400E+03  0.13297642878E+04  0.50400001928E-02 0.  1.
</event>
<event>
 5   0  0.7613444E-06  0.2830668E+04  0.7818609E-02  0.8293810E-01
       -1   -1    0    0    0  501  0.00000000000E+00  0.00000000000E+00  0.15797039074E+04  0.15797039074E+04  0.50400001928E-02 0.  1.
        1   -1    0    0  501    0  0.00000000000E+00  0.00000000000E+00 -0.12680673461E+04  0.12680673461E+04  0.50400001928E-02 0. -1.
    10030    2    1    2    0    0  0.00000000000E+00  0.00000000000E+00  0.31163656128E+03  0.28477712536E+04  0.28306684310E+04 0.  0.
        5    1    3    3  502    0  0.54000260000E+03 -0.11294680500E+04 -0.50835838404E+03  0.13512036192E+04  0.46999998093E+01 0. -1.
       -5    1    3    3    0  502 -0.54000260000E+03  0.11294680500E+04  0.81999494532E+03  0.14965676344E+04  0.46999998093E+01 0.  1.
</event>
<event>
 5   0  0.7613444E-06  0.2799079E+04  0.7818609E-02  0.8303554E-01
        1   -1    0    0  501    0  0.00000000000E+00  0.00000000000E+00  0.12903527145E+04  0.12903527145E+04  0.50400001928E-02 0. -1.
       -1   -1    0    0    0  501  0.00000000000E+00  0.00000000000E+00 -0.15179659660E+04  0.15179659660E+04  0.50400001928E-02 0.  1.
    10030    2    1    2    0    0  0.00000000000E+00  0.00000000000E+00 -0.22761325155E+03  0.28083186805E+04  0.27990794950E+04 0.  0.
        5    1    3    3  502    0  0.33185440514E+03  0.40111805368E+03  0.11895835852E+04  0.12985200174E+04  0.46999998093E+01 0. -1.
       -5    1    3    3    0  502 -0.33185440514E+03 -0.40111805368E+03 -0.14171968368E+04  0.15097986632E+04  0.46999998093E+01 0.  1.
</event>
<event>
 5   0  0.7613444E-06  0.2819151E+04  0.7818609E-02  0.8297347E-01
        1   -1    0    0  501    0  0.00000000000E+00  0.00000000000E+00  0.11568009250E+04  0.11568009250E+04  0.50400001928E-02 0. -1.
       -1   -1    0    0    0  501  0.00000000000E+00  0.00000000000E+00 -0.17175844521E+04  0.17175844521E+04  0.50400001928E-02 0.  1.
    10030    2    1    2    0    0  0.00000000000E+00  0.00000000000E+00 -0.56078352716E+03  0.28743853771E+04  0.28191511368E+04 0.  0.
        5    1    3    3  502    0 -0.56457709685E+03  0.23207854821E+03 -0.15758254505E+04  0.16899277177E+04  0.46999998093E+01 0.  1.
       -5    1    3    3    0  502  0.56457709685E+03 -0.23207854821E+03  0.10150419233E+04  0.11844576594E+04  0.46999998093E+01 0. -1.
</event>
<event>
 5   0  0.7681342E-06  0.2364954E+04  0.7818609E-02  0.8452742E-01
       -1   -1    0    0    0  501  0.00000000000E+00  0.00000000000E+00  0.89814226868E+03  0.89814226870E+03  0.50400001928E-02 0.  1.
        1   -1    0    0  501    0  0.00000000000E+00  0.00000000000E+00 -0.15568264440E+04  0.15568264440E+04  0.50400001928E-02 0. -1.
    10030    2    1    2    0    0  0.00000000000E+00  0.00000000000E+00 -0.65868417529E+03  0.24549687127E+04  0.23649538130E+04 0.  0.
        2    1    3    3  502    0 -0.87756259982E+03  0.31063540103E+03  0.42754761856E+03  0.10244058937E+04  0.25500000920E-02 0.  1.
       -2    1    3    3    0  502  0.87756259982E+03 -0.31063540103E+03 -0.10862317939E+04  0.14305628189E+04  0.25500000920E-02 0. -1.
</event>
<event>
 5   0  0.1874272E-05  0.2839440E+04  0.7818609E-02  0.8291128E-01
       -2   -1    0    0    0  501  0.00000000000E+00  0.00000000000E+00  0.14093624531E+04  0.14093624531E+04  0.25500000920E-02 0. -1.
        2   -1    0    0  501    0  0.00000000000E+00  0.00000000000E+00 -0.14301531620E+04  0.14301531620E+04  0.25500000920E-02 0.  1.
    10030    2    1    2    0    0  0.00000000000E+00  0.00000000000E+00 -0.20790708870E+02  0.28395156151E+04  0.28394395001E+04 0.  0.
        3    1    3    3  502    0  0.13207345865E+04 -0.18310947449E+03 -0.49798942386E+03  0.14233279328E+04  0.10100000352E+00 0. -1.
       -3    1    3    3    0  502 -0.13207345865E+04  0.18310947449E+03  0.47719871499E+03  0.14161876823E+04  0.10100000352E+00 0.  1.
</event>
<event>
 5   0  0.1814230E-05  0.2846108E+04  0.7818609E-02  0.8289095E-01
        2   -1    0    0  501    0  0.00000000000E+00  0.00000000000E+00  0.25178368013E+04  0.25178368013E+04  0.25500000920E-02 0.  1.
       -2   -1    0    0    0  501  0.00000000000E+00  0.00000000000E+00 -0.80429460777E+03  0.80429460778E+03  0.25500000920E-02 0. -1.
    10030    2    1    2    0    0  0.00000000000E+00  0.00000000000E+00  0.17135421935E+04  0.33221314091E+04  0.28461079126E+04 0.  0.
        5    1    3    3  502    0 -0.69563373423E+03 -0.12414277095E+04  0.86071607640E+03  0.16631005094E+04  0.46999998093E+01 0. -1.
       -5    1    3    3    0  502  0.69563373423E+03  0.12414277095E+04  0.85282611713E+03  0.16590308997E+04  0.46999998093E+01 0.  1.
</event>
<event>
 5   0  0.1832502E-05  0.2760967E+04  0.7818609E-02  0.8315490E-01
       -2   -1    0    0    0  501  0.00000000000E+00  0.00000000000E+00  0.17378245929E+04  0.17378245929E+04  0.25500000920E-02 0. -1.
        2   -1    0    0  501    0  0.00000000000E+00  0.00000000000E+00 -0.10966209552E+04  0.10966209552E+04  0.25500000920E-02 0.  1.
    10030    2    1    2    0    0  0.00000000000E+00  0.00000000000E+00  0.64120363764E+03  0.28344455481E+04  0.27609671241E+04 0.  0.
        2    1    3    3  502    0 -0.92085142597E+02  0.11092790653E+04  0.11588836846E+04  0.16068575272E+04  0.25500000920E-02 0. -1.
       -2    1    3    3    0  502  0.92085142597E+02 -0.11092790653E+04 -0.51768004698E+03  0.12275880209E+04  0.25500000920E-02 0.  1.
</event>
<event>
 5   0  0.7509685E-06  0.2862678E+04  0.7818609E-02  0.8284069E-01
       -1   -1    0    0    0  501  0.00000000000E+00  0.00000000000E+00  0.89858467380E+03  0.89858467381E+03  0.50400001928E-02 0.  1.
        1   -1    0    0  501    0  0.00000000000E+00  0.00000000000E+00 -0.22799533580E+04  0.22799533580E+04  0.50400001928E-02 0. -1.
    10030    2    1    2    0    0  0.00000000000E+00  0.00000000000E+00 -0.13813686842E+04  0.31785380319E+04  0.28626778684E+04 0.  0.
        4    1    3    3  502    0 -0.33639967180E+03  0.13181234224E+04 -0.11848972552E+04  0.18040502250E+04  0.12699999809E+01 0. -1.
       -4    1    3    3    0  502  0.33639967180E+03 -0.13181234224E+04 -0.19647142904E+03  0.13744878069E+04  0.12699999809E+01 0.  1.
</event>
<event>
 5   0  0.1904553E-05  0.2787240E+04  0.7818609E-02  0.8307241E-01
       -2   -1    0    0    0  501  0.00000000000E+00  0.00000000000E+00  0.18574191249E+04  0.18574191249E+04  0.25500000920E-02 0.  1.
        2   -1    0    0  501    0  0.00000000000E+00  0.00000000000E+00 -0.10456319979E+04  0.10456319979E+04  0.25500000920E-02 0. -1.
    10030    2    1    2    0    0  0.00000000000E+00  0.00000000000E+00  0.81178712692E+03  0.29030511228E+04  0.27872401192E+04 0.  0.
        1    1    3    3  502    0 -0.77251366064E+03  0.11561969329E+04  0.50252882823E+03  0.14785479116E+04  0.50400001928E-02 0.  1.
       -1    1    3    3    0  502  0.77251366064E+03 -0.11561969329E+04  0.30925829870E+03  0.14245032113E+04  0.50400001928E-02 0. -1.
</event>
<event>
 5   0  0.7681342E-06  0.2795419E+04  0.7818609E-02  0.8304692E-01
        1   -1    0    0  501    0  0.00000000000E+00  0.00000000000E+00  0.24441220867E+04  0.24441220867E+04  0.50400001928E-02 0. -1.
       -1   -1    0    0    0  501  0.00000000000E+00  0.00000000000E+00 -0.79930220405E+03  0.79930220407E+03  0.50400001928E-02 0.  1.
    10030    2    1    2    0    0  0.00000000000E+00  0.00000000000E+00  0.16448198827E+04  0.32434242908E+04  0.27954192322E+04 0.  0.
        2    1    3    3  502    0 -0.19821630042E+03 -0.90190093697E+03  0.20397901828E+04  0.22390754770E+04  0.25500000920E-02 0. -1.
       -2    1    3    3    0  502  0.19821630042E+03  0.90190093697E+03 -0.39497030011E+03  0.10043488138E+04  0.25500000920E-02 0.  1.
</event>
<event>
 5   0  0.7388013E-06  0.2790332E+04  0.7818609E-02  0.8306276E-01
        1   -1    0    0  501    0  0.00000000000E+00  0.00000000000E+00  0.94881460032E+03  0.94881460034E+03  0.50400001928E-02 0.  1.
       -1   -1    0    0    0  501  0.00000000000E+00  0.00000000000E+00 -0.20514944992E+04  0.20514944992E+04  0.50400001928E-02 0. -1.
    10030    2    1    2    0    0  0.00000000000E+00  0.00000000000E+00 -0.11026798988E+04  0.30003090995E+04  0.27903318321E+04 0.  0.
        1    1    3    3  502    0  0.13598235083E+04 -0.97896581402E+02 -0.86991984836E+03  0.16172397030E+04  0.50400001928E-02 0.  1.
       -1    1    3    3    0  502 -0.13598235083E+04  0.97896581402E+02 -0.23276005048E+03  0.13830693965E+04  0.50400001928E-02 0. -1.
</event>
<event>
 5   0  0.7555871E-06  0.2777494E+04  0.7818609E-02  0.8310290E-01
       -1   -1    0    0    0  501  0.00000000000E+00  0.00000000000E+00  0.10656580854E+04  0.10656580854E+04  0.50400001928E-02 0.  1.
        1   -1    0    0  501    0  0.00000000000E+00  0.00000000000E+00 -0.18097907204E+04  0.18097907204E+04  0.50400001928E-02 0. -1.
    10030    2    1    2    0    0  0.00000000000E+00  0.00000000000E+00 -0.74413263492E+03  0.28754488058E+04  0.27774939165E+04 0.  0.
        3    1    3    3  502    0  0.67299903272E+03  0.64694380094E+03 -0.14365075219E+04  0.17131893796E+04  0.10100000352E+00 0. -1.
       -3    1    3    3    0  502 -0.67299903272E+03 -0.64694380094E+03  0.69237488695E+03  0.11622594262E+04  0.10100000352E+00 0.  1.
</event>
<event>
 5   0  0.7681342E-06  0.2724467E+04  0.7818609E-02  0.8327110E-01
        1   -1    0    0  501    0  0.00000000000E+00  0.00000000000E+00  0.79509745794E+03  0.79509745796E+03  0.50400001928E-02 0.  1.
       -1   -1    0    0    0  501  0.00000000000E+00  0.00000000000E+00 -0.23339029082E+04  0.23339029082E+04  0.50400001928E-02 0. -1.
    10030    2    1    2    0    0  0.00000000000E+00  0.00000000000E+00 -0.15388054503E+04  0.31290003662E+04  0.27244671181E+04 0.  0.
        2    1    3    3  502    0  0.10583512691E+04  0.72467499917E+03 -0.12962279070E+04  0.18235865897E+04  0.25500000920E-02 0. -1.
       -2    1    3    3    0  502 -0.10583512691E+04 -0.72467499917E+03 -0.24257754328E+03  0.13054137765E+04  0.25500000920E-02 0.  1.
</event>
<event>
 5   0  0.7555871E-06  0.1880829E+04  0.7818609E-02  0.8664458E-01
        1   -1    0    0  501    0  0.00000000000E+00  0.00000000000E+00  0.12241986695E+04  0.12241986695E+04  0.50400001928E-02 0. -1.
       -1   -1    0    0    0  501  0.00000000000E+00  0.00000000000E+00 -0.72241502625E+03  0.72241502626E+03  0.50400001928E-02 0.  1.
    10030    2    1    2    0    0  0.00000000000E+00  0.00000000000E+00  0.50178364327E+03  0.19466136958E+04  0.18808290874E+04 0.  0.
        3    1    3    3  502    0  0.73997800477E+03 -0.37377903421E+03 -0.20859723779E+03  0.85486316553E+03  0.10100000352E+00 0.  1.
       -3    1    3    3    0  502 -0.73997800477E+03  0.37377903421E+03  0.71038088106E+03  0.10917505303E+04  0.10100000352E+00 0. -1.
</event>
<event>
 5   0  0.7388013E-06  0.2811918E+04  0.7818609E-02  0.8299578E-01
       -1   -1    0    0    0  501  0.00000000000E+00  0.00000000000E+00  0.94009999519E+03  0.94009999520E+03  0.50400001928E-02 0.  1.
        1   -1    0    0  501    0  0.00000000000E+00  0.00000000000E+00 -0.21026704509E+04  0.21026704509E+04  0.50400001928E-02 0. -1.
    10030    2    1    2    0    0  0.00000000000E+00  0.00000000000E+00 -0.11625704557E+04  0.30427704461E+04  0.28119178372E+04 0.  0.
        1    1    3    3  502    0 -0.39396679155E+03  0.32924702513E+03  0.83502637543E+03  0.98024613444E+03  0.50400001928E-02 0.  1.
       -1    1    3    3    0  502  0.39396679155E+03 -0.32924702513E+03 -0.19975968312E+04  0.20625243117E+04  0.50400001928E-02 0. -1.
</event>
<event>
 5   0  0.7681342E-06  0.2822555E+04  0.7818609E-02  0.8296300E-01
       -1   -1    0    0    0  501  0.00000000000E+00  0.00000000000E+00  0.95837077206E+03  0.95837077207E+03  0.50400001928E-02 0. -1.
        1   -1    0    0  501    0  0.00000000000E+00  0.00000000000E+00 -0.20782186731E+04  0.20782186731E+04  0.50400001928E-02 0.  1.
    10030    2    1    2    0    0  0.00000000000E+00  0.00000000000E+00 -0.11198479010E+04  0.30365894451E+04  0.28225548953E+04 0.  0.
        2    1    3    3  502    0 -0.10733088308E+04  0.15013529041E+03  0.41260000693E+03  0.11596427111E+04  0.25500000920E-02 0. -1.
       -2    1    3    3    0  502  0.10733088308E+04 -0.15013529041E+03 -0.15324479079E+04  0.18769467340E+04  0.25500000920E-02 0.  1.
</event>
<event>
 5   0  0.1832502E-05  0.2778190E+04  0.7818609E-02  0.8310072E-01
        2   -1    0    0  501    0  0.00000000000E+00  0.00000000000E+00  0.19064557924E+04  0.19064557924E+04  0.25500000920E-02 0. -1.
       -2   -1    0    0    0  501  0.00000000000E+00  0.00000000000E+00 -0.10121318926E+04  0.10121318926E+04  0.25500000920E-02 0.  1.
    10030    2    1    2    0    0  0.00000000000E+00  0.00000000000E+00  0.89432389983E+03  0.29185876849E+04  0.27781898490E+04 0.  0.
        2    1    3    3  502    0  0.13788917407E+04  0.15616008768E+03  0.38192458140E+03  0.14393035786E+04  0.25500000920E-02 0. -1.
       -2    1    3    3    0  502 -0.13788917407E+04 -0.15616008768E+03  0.51239931843E+03  0.14792841063E+04  0.25500000920E-02 0.  1.
</event>
<event>
 5   0  0.7681342E-06  0.2747632E+04  0.7818609E-02  0.8319713E-01
       -1   -1    0    0    0  501  0.00000000000E+00  0.00000000000E+00  0.13528988935E+04  0.13528988935E+04  0.50400001928E-02 0.  1.
        1   -1    0    0  501    0  0.00000000000E+00  0.00000000000E+00 -0.13950566056E+04  0.13950566056E+04  0.50400001928E-02 0. -1.
    10030    2    1    2    0    0  0.00000000000E+00  0.00000000000E+00 -0.42157712030E+02  0.27479554991E+04  0.27476320992E+04 0.  0.
        2    1    3    3  502    0 -0.10039256913E+04  0.62337265696E+03 -0.72181121816E+03  0.13847280230E+04  0.25500000920E-02 0. -1.
       -2    1    3    3    0  502  0.10039256913E+04 -0.62337265696E+03  0.67965350613E+03  0.13632274761E+04  0.25500000920E-02 0.  1.
</event>
<event>
 5   0  0.7613444E-06  0.2810190E+04  0.7818609E-02  0.8300112E-01
       -1   -1    0    0    0  501  0.00000000000E+00  0.00000000000E+00  0.12716081583E+04  0.12716081583E+04  0.50400001928E-02 0.  1.
        1   -1    0    0  501    0  0.00000000000E+00  0.00000000000E+00 -0.15525947423E+04  0.15525947423E+04  0.50400001928E-02 0. -1.
    10030    2    1    2    0    0  0.00000000000E+00  0.00000000000E+00 -0.28098658400E+03  0.28242029006E+04  0.28101901294E+04 0.  0.
        5    1    3    3  502    0 -0.64686465078E+03 -0.75531604064E+03 -0.11380828458E+04  0.15113539796E+04  0.46999998093E+01 0. -1.
       -5    1    3    3    0  502  0.64686465078E+03  0.75531604064E+03  0.85709626177E+03  0.13128489211E+04  0.46999998093E+01 0.  1.
</event>
<event>
 5   0  0.1874272E-05  0.3228524E+04  0.7818609E-02  0.8181324E-01
        2   -1    0    0  501    0  0.00000000000E+00  0.00000000000E+00  0.17069118459E+04  0.17069118459E+04  0.25500000920E-02 0.  1.
       -2   -1    0    0    0  501  0.00000000000E+00  0.00000000000E+00 -0.15266415313E+04  0.15266415313E+04  0.25500000920E-02 0. -1.
    10030    2    1    2    0    0  0.00000000000E+00  0.00000000000E+00  0.18027031460E+03  0.32335533772E+04  0.32285244396E+04 0.  0.
        3    1    3    3  502    0 -0.80609682370E+02  0.14240176949E+04  0.84730094800E+03  0.16589886144E+04  0.10100000352E+00 0.  1.
       -3    1    3    3    0  502  0.80609682370E+02 -0.14240176949E+04 -0.66703063340E+03  0.15745647628E+04  0.10100000352E+00 0. -1.
</event>
<event>
 5   0  0.1874272E-05  0.2774582E+04  0.7818609E-02  0.8311203E-01
        2   -1    0    0  501    0  0.00000000000E+00  0.00000000000E+00  0.12215667627E+04  0.12215667627E+04  0.25500000920E-02 0.  1.
       -2   -1    0    0    0  501  0.00000000000E+00  0.00000000000E+00 -0.15754987067E+04  0.15754987067E+04  0.25500000920E-02 0. -1.
    10030    2    1    2    0    0  0.00000000000E+00  0.00000000000E+00 -0.35393194397E+03  0.27970654695E+04  0.27745823865E+04 0.  0.
        3    1    3    3  502    0  0.96172340160E+03 -0.99898094680E+03 -0.13537622854E+03  0.13932700983E+04  0.10100000352E+00 0.  1.
       -3    1    3    3    0  502 -0.96172340160E+03  0.99898094680E+03 -0.21855571543E+03  0.14037953712E+04  0.10100000352E+00 0. -1.
</event>
<event>
 5   0  0.1923559E-05  0.2689090E+04  0.7818609E-02  0.8338554E-01
        2   -1    0    0  501    0  0.00000000000E+00  0.00000000000E+00  0.19216120442E+04  0.19216120442E+04  0.25500000920E-02 0.  1.
       -2   -1    0    0    0  501  0.00000000000E+00  0.00000000000E+00 -0.94077330634E+03  0.94077330634E+03  0.25500000920E-02 0. -1.
    10030    2    1    2    0    0  0.00000000000E+00  0.00000000000E+00  0.98083873784E+03  0.28623853505E+04  0.26890900441E+04 0.  0.
        4    1    3    3  502    0  0.36671612437E+03  0.11238304262E+04 -0.19142663660E+03  0.11975480420E+04  0.12699999809E+01 0. -1.
       -4    1    3    3    0  502 -0.36671612437E+03 -0.11238304262E+04  0.11722653744E+04  0.16648373085E+04  0.12699999809E+01 0.  1.
</event>
<event>
 5   0  0.1874272E-05  0.2767271E+04  0.7818609E-02  0.8313502E-01
        2   -1    0    0  501    0  0.00000000000E+00  0.00000000000E+00  0.15101454931E+04  0.15101454931E+04  0.25500000920E-02 0. -1.
       -2   -1    0    0    0  501  0.00000000000E+00  0.00000000000E+00 -0.12677239891E+04  0.12677239891E+04  0.25500000920E-02 0.  1.
    10030    2    1    2    0    0  0.00000000000E+00  0.00000000000E+00  0.24242150394E+03  0.27778694822E+04  0.27672713410E+04 0.  0.
        3    1    3    3  502    0  0.90242570028E+02 -0.63300117159E+03  0.13529444828E+04  0.14964267400E+04  0.10100000352E+00 0. -1.
       -3    1    3    3    0  502 -0.90242570028E+02  0.63300117159E+03 -0.11105229788E+04  0.12814427421E+04  0.10100000352E+00 0.  1.
</event>
<event>
 5   0  0.1904553E-05  0.2817206E+04  0.7818609E-02  0.8297946E-01
       -2   -1    0    0    0  501  0.00000000000E+00  0.00000000000E+00  0.15610332267E+04  0.15610332267E+04  0.25500000920E-02 0. -1.
        2   -1    0    0  501    0  0.00000000000E+00  0.00000000000E+00 -0.12710572787E+04  0.12710572787E+04  0.25500000920E-02 0.  1.
    10030    2    1    2    0    0  0.00000000000E+00  0.00000000000E+00  0.28997594793E+03  0.28320905054E+04  0.28172061658E+04 0.  0.
        1    1    3    3  502    0 -0.74018567833E+03  0.31961690039E+03  0.13061371964E+04  0.15349345840E+04  0.50400001928E-02 0. -1.
       -1    1    3    3    0  502  0.74018567833E+03 -0.31961690039E+03 -0.10161612485E+04  0.12971559214E+04  0.50400001928E-02 0.  1.
</event>
<event>
 5   0  0.1874272E-05  0.2840333E+04  0.7818609E-02  0.8290855E-01
       -2   -1    0    0    0  501  0.00000000000E+00  0.00000000000E+00  0.25578849741E+04  0.25578849741E+04  0.25500000920E-02 0. -1.
        2   -1    0    0  501    0  0.00000000000E+00  0.00000000000E+00 -0.78849229142E+03  0.78849229142E+03  0.25500000920E-02 0.  1.
    10030    2    1    2    0    0  0.00000000000E+00  0.00000000000E+00  0.17693926827E+04  0.33463772655E+04  0.28403327864E+04 0.  0.
        3    1    3    3  502    0 -0.12682635777E+04  0.55238888371E+03  0.12632640255E+04  0.18733558097E+04  0.10100000352E+00 0.  1.
       -3    1    3    3    0  502  0.12682635777E+04 -0.55238888371E+03  0.50612865715E+03  0.14730214558E+04  0.10100000352E+00 0. -1.
</event>
<event>
 5   0  0.1814230E-05  0.2658983E+04  0.7818609E-02  0.8348438E-01
       -2   -1    0    0    0  501  0.00000000000E+00  0.00000000000E+00  0.78802979588E+03  0.78802979588E+03  0.25500000920E-02 0.  1.
        2   -1    0    0  501    0  0.00000000000E+00  0.00000000000E+00 -0.22429952358E+04  0.22429952358E+04  0.25500000920E-02 0. -1.
    10030    2    1    2    0    0  0.00000000000E+00  0.00000000000E+00 -0.14549654399E+04  0.30310250317E+04  0.26589825707E+04 0.  0.
        5    1    3    3  502    0  0.26680736946E+03  0.29457397701E+03  0.71871705823E+03  0.82130158901E+03  0.46999998093E+01 0.  1.
       -5    1    3    3    0  502 -0.26680736946E+03 -0.29457397701E+03 -0.21736824981E+04  0.22097234427E+04  0.46999998093E+01 0. -1.
</event>
<event>
 5   0  0.7555871E-06  0.2800458E+04  0.7818609E-02  0.8303126E-01
       -1   -1    0    0    0  501  0.00000000000E+00  0.00000000000E+00  0.11660634257E+04  0.11660634257E+04  0.50400001928E-02 0.  1.
        1   -1    0    0  501    0  0.00000000000E+00  0.00000000000E+00 -0.16814192212E+04  0.16814192212E+04  0.50400001928E-02 0. -1.
    10030    2    1    2    0    0  0.00000000000E+00  0.00000000000E+00 -0.51535579553E+03  0.28474826469E+04  0.28004581461E+04 0.  0.
        3    1    3    3  502    0  0.43317504988E+02  0.37412486425E+03 -0.16289509779E+04  0.16719231797E+04  0.10100000352E+00 0. -1.
       -3    1    3    3    0  502 -0.43317504988E+02 -0.37412486425E+03  0.11135951824E+04  0.11755594671E+04  0.10100000352E+00 0.  1.
</event>
<event>
 5   0  0.7388013E-06  0.2791383E+04  0.7818609E-02  0.8305949E-01
       -1   -1    0    0    0  501  0.00000000000E+00  0.00000000000E+00  0.11221728102E+04  0.11221728102E+04  0.50400001928E-02 0. -1.
        1   -1    0    0  501    0  0.00000000000E+00  0.00000000000E+00 -0.17358777952E+04  0.17358777952E+04  0.50400001928E-02 0.  1.
    10030    2    1    2    0    0  0.00000000000E+00  0.00000000000E+00 -0.61370498503E+03  0.28580506055E+04  0.27913830720E+04 0.  0.
        1    1    3    3  502    0 -0.65569177512E+03 -0.54644601556E+03 -0.14374997014E+04  0.16718075079E+04  0.50400001928E-02 0.  1.
       -1    1    3    3    0  502  0.65569177512E+03  0.54644601556E+03  0.82379471635E+03  0.11862430976E+04  0.50400001928E-02 0. -1.
</event>
<event>
 5   0  0.7555871E-06  0.2741163E+04  0.7818609E-02  0.8321771E-01
       -1   -1    0    0    0  501  0.00000000000E+00  0.00000000000E+00  0.12826555787E+04  0.12826555787E+04  0.50400001928E-02 0. -1.
        1   -1    0    0  501    0  0.00000000000E+00  0.00000000000E+00 -0.14645348517E+04  0.14645348517E+04  0.50400001928E-02 0.  1.
    10030    2    1    2    0    0  0.00000000000E+00  0.00000000000E+00 -0.18187927304E+03  0.27471904304E+04  0.27411631092E+04 0.  0.
        3    1    3    3  502    0  0.42504650040E+03 -0.10151838283E+04  0.72769857494E+03  0.13193968163E+04  0.10100000352E+00 0. -1.
       -3    1    3    3    0  502 -0.42504650040E+03  0.10151838283E+04 -0.90957784798E+03  0.14277936141E+04  0.10100000352E+00 0.  1.
</event>
<event>
 5   0  0.7388013E-06  0.2827402E+04  0.7818609E-02  0.8294811E-01
        1   -1    0    0  501    0  0.00000000000E+00  0.00000000000E+00  0.12897093724E+04  0.12897093724E+04  0.50400001928E-02 0. -1.
       -1   -1    0    0    0  501  0.00000000000E+00  0.00000000000E+00 -0.15496130727E+04  0.15496130727E+04  0.50400001928E-02 0.  1.
    10030    2    1    2    0    0  0.00000000000E+00  0.00000000000E+00 -0.25990370030E+03  0.28393224452E+04  0.28274019902E+04 0.  0.
        1    1    3    3  502    0  0.10387174044E+04 -0.70544566131E+03 -0.78227738815E+03  0.14793732928E+04  0.50400001928E-02 0.  1.
       -1    1    3    3    0  502 -0.10387174044E+04  0.70544566131E+03  0.52237368785E+03  0.13599491524E+04  0.50400001928E-02 0. -1.
</event>
<event>
 5   0  0.7509685E-06  0.2815280E+04  0.7818609E-02  0.8298540E-01
       -1   -1    0    0    0  501  0.00000000000E+00  0.00000000000E+00  0.11381361916E+04  0.11381361916E+04  0.50400001928E-02 0.  1.
        1   -1    0    0  501    0  0.00000000000E+00  0.00000000000E+00 -0.17409603031E+04  0.17409603031E+04  0.50400001928E-02 0. -1.
    10030    2    1    2    0    0  0.00000000000E+00  0.00000000000E+00 -0.60282411148E+03  0.28790964947E+04  0.28152796870E+04 0.  0.
        4    1    3    3  502    0 -0.26870642278E+03 -0.15703426207E+03  0.11025086745E+04  0.11455958674E+04  0.12699999809E+01 0.  1.
       -4    1    3    3    0  502  0.26870642278E+03  0.15703426207E+03 -0.17053327860E+04  0.17335006273E+04  0.12699999809E+01 0. -1.
</event>
<event>
 5   0  0.1923559E-05  0.2826067E+04  0.7818609E-02  0.8295221E-01
        2   -1    0    0  501    0  0.00000000000E+00  0.00000000000E+00  0.17146975059E+04  0.17146975059E+04  0.25500000920E-02 0. -1.
       -2   -1    0    0    0  501  0.00000000000E+00  0.00000000000E+00 -0.11644408057E+04  0.11644408057E+04  0.25500000920E-02 0.  1.
    10030    2    1    2    0    0  0.00000000000E+00  0.00000000000E+00  0.55025670023E+03  0.28791383116E+04  0.28260670518E+04 0.  0.
        4    1    3    3  502    0  0.66727401878E+03  0.21111873374E+02  0.15438916802E+04  0.16820533465E+04  0.12699999809E+01 0. -1.
       -4    1    3    3    0  502 -0.66727401878E+03 -0.21111873374E+02 -0.99363497997E+03  0.11970849651E+04  0.12699999809E+01 0.  1.
</event>
<event>
 5   0  0.1814230E-05  0.2984019E+04  0.7818609E-02  0.8248309E-01
        2   -1    0    0  501    0  0.00000000000E+00  0.00000000000E+00  0.14135351135E+04  0.14135351135E+04  0.25500000920E-02 0. -1.
       -2   -1    0    0    0  501  0.00000000000E+00  0.00000000000E+00 -0.15748402514E+04  0.15748402514E+04  0.25500000920E-02 0.  1.
    10030    2    1    2    0    0  0.00000000000E+00  0.00000000000E+00 -0.16130513795E+03  0.29883753649E+04  0.29840187624E+04 0.  0.
        5    1    3    3  502    0  0.24070060852E+03 -0.14401726582E+04 -0.38775290487E+03  0.15107642018E+04  0.46999998093E+01 0. -1.
       -5    1    3    3    0  502 -0.24070060852E+03  0.14401726582E+04  0.22644776692E+03  0.14776111631E+04  0.46999998093E+01 0.  1.
</event>
<event>
 5   0  0.7388013E-06  0.2781704E+04  0.7818609E-02  0.8308971E-01
       -1   -1    0    0    0  501  0.00000000000E+00  0.00000000000E+00  0.11672516480E+04  0.11672516480E+04  0.50400001928E-02 0. -1.
        1   -1    0    0  501    0  0.00000000000E+00  0.00000000000E+00 -0.16572853962E+04  0.16572853962E+04  0.50400001928E-02 0.  1.
    10030    2    1    2    0    0  0.00000000000E+00  0.00000000000E+00 -0.49003374825E+03  0.28245370442E+04  0.27817038735E+04 0.  0.
        1    1    3    3  502    0 -0.19442403546E+03 -0.71132989077E+03 -0.14424456804E+04  0.16200124876E+04  0.50400001928E-02 0.  1.
       -1    1    3    3    0  502  0.19442403546E+03  0.71132989077E+03  0.95241193211E+03  0.12045245566E+04  0.50400001928E-02 0. -1.
</event>
<event>
 5   0  0.1874272E-05  0.2739732E+04  0.7818609E-02  0.8322227E-01
        2   -1    0    0  501    0  0.00000000000E+00  0.00000000000E+00  0.34724421299E+04  0.34724421299E+04  0.25500000920E-02 0.  1.
       -2   -1    0    0    0  501  0.00000000000E+00  0.00000000000E+00 -0.54040704931E+03  0.54040704932E+03  0.25500000920E-02 0. -1.
    10030    2    1    2    0    0  0.00000000000E+00  0.00000000000E+00  0.29320350806E+04  0.40128491792E+04  0.27397315236E+04 0.  0.
        3    1    3    3  502    0  0.76584920772E+02 -0.99462978746E+03  0.90943559856E+02  0.10017107394E+04  0.10100000352E+00 0. -1.
       -3    1    3    3    0  502 -0.76584920772E+02  0.99462978746E+03  0.28410915208E+04  0.30111384398E+04  0.10100000352E+00 0.  1.
</event>
<event>
 5   0  0.1904553E-05  0.2565648E+04  0.7818609E-02  0.8379964E-01
        2   -1    0    0  501    0  0.00000000000E+00  0.00000000000E+00  0.17623001261E+04  0.17623001261E+04  0.25500000920E-02 0.  1.
       -2   -1    0    0    0  501  0.00000000000E+00  0.00000000000E+00 -0.93380078069E+03  0.93380078070E+03  0.25500000920E-02 0. -1.
    10030    2    1    2    0    0  0.00000000000E+00  0.00000000000E+00  0.82849934537E+03  0.26961009068E+04  0.25656478586E+04 0.  0.
        1    1    3    3  502    0  0.68844835235E+03  0.75377369864E+02  0.15489660359E+04  0.16967435463E+04  0.50400001928E-02 0.  1.
       -1    1    3    3    0  502 -0.68844835235E+03 -0.75377369864E+02 -0.72046669048E+03  0.99935736044E+03  0.50400001928E-02 0. -1.
</event>
<event>
 5   0  0.1832502E-05  0.2790622E+04  0.7818609E-02  0.8306186E-01
       -2   -1    0    0    0  501  0.00000000000E+00  0.00000000000E+00  0.10536599184E+04  0.10536599184E+04  0.25500000920E-02 0.  1.
        2   -1    0    0  501    0  0.00000000000E+00  0.00000000000E+00 -0.18477424981E+04  0.18477424982E+04  0.25500000920E-02 0. -1.
    10030    2    1    2    0    0  0.00000000000E+00  0.00000000000E+00 -0.79408257975E+03  0.29014024165E+04  0.27906215865E+04 0.  0.
        2    1    3    3  502    0 -0.13899123143E+04  0.23274208979E+02 -0.27186982464E+03  0.14164431269E+04  0.25500000920E-02 0. -1.
       -2    1    3    3    0  502  0.13899123143E+04 -0.23274208979E+02 -0.52221275511E+03  0.14849592896E+04  0.25500000920E-02 0.  1.
</event>
<event>
 5   0  0.7681342E-06  0.2830311E+04  0.7818609E-02  0.8293919E-01
       -1   -1    0    0    0  501  0.00000000000E+00  0.00000000000E+00  0.88249957155E+03  0.88249957157E+03  0.50400001928E-02 0.  1.
        1   -1    0    0  501    0  0.00000000000E+00  0.00000000000E+00 -0.22693094353E+04  0.22693094353E+04  0.50400001928E-02 0. -1.
    10030    2    1    2    0    0  0.00000000000E+00  0.00000000000E+00 -0.13868098637E+04  0.31518090069E+04  0.28303106574E+04 0.  0.
        2    1    3    3  502    0  0.34455978460E+03 -0.12692474645E+04 -0.12752006807E+04  0.18318971989E+04  0.25500000920E-02 0.  1.
       -2    1    3    3    0  502 -0.34455978460E+03  0.12692474645E+04 -0.11160918308E+03  0.13199118080E+04  0.25500000920E-02 0. -1.
</event>
<event>
 5   0  0.7509685E-06  0.1899541E+04  0.7818609E-02  0.8655085E-01
        1   -1    0    0  501    0  0.00000000000E+00  0.00000000000E+00  0.10855252217E+04  0.10855252217E+04  0.50400001928E-02 0. -1.
       -1   -1    0    0    0  501  0.00000000000E+00  0.00000000000E+00 -0.83099312627E+03  0.83099312628E+03  0.50400001928E-02 0.  1.
    10030    2    1    2    0    0  0.00000000000E+00  0.00000000000E+00  0.25453209545E+03  0.19165183480E+04  0.18995409947E+04 0.  0.
        4    1    3    3  502    0 -0.10070391630E+03  0.12595361696E+03 -0.81707842193E+03  0.83284113303E+03  0.12699999809E+01 0.  1.
       -4    1    3    3    0  502  0.10070391630E+03 -0.12595361696E+03  0.10716105174E+04  0.10836772150E+04  0.12699999809E+01 0. -1.
</event>
<event>
 5   0  0.1814230E-05  0.2876203E+04  0.7818609E-02  0.8279993E-01
        2   -1    0    0  501    0  0.00000000000E+00  0.00000000000E+00  0.11904106924E+04  0.11904106924E+04  0.25500000920E-02 0. -1.
       -2   -1    0    0    0  501  0.00000000000E+00  0.00000000000E+00 -0.17373297351E+04  0.17373297351E+04  0.25500000920E-02 0.  1.
    10030    2    1    2    0    0  0.00000000000E+00  0.00000000000E+00 -0.54691904267E+03  0.29277404275E+04  0.28762029782E+04 0.  0.
        5    1    3    3  502    0 -0.20343893041E+03  0.14051752617E+04 -0.50604642727E+03  0.15073188087E+04  0.46999998093E+01 0.  1.
       -5    1    3    3    0  502  0.20343893041E+03 -0.14051752617E+04 -0.40872615396E+02  0.14204216188E+04  0.46999998093E+01 0. -1.
</event>
<event>
 5   0  0.6288000E-06  0.2821909E+04  0.7818609E-02  0.8296499E-01
        4   -1    0    0  501    0  0.00000000000E+00  0.00000000000E+00  0.10884643912E+04  0.10884651321E+04  0.12699999809E+01 0. -1.
       -4   -1    0    0    0  501  0.00000000000E+00  0.00000000000E+00 -0.18289897553E+04  0.18289901962E+04  0.12699999809E+01 0.  1.
    10030    2    1    2    0    0  0.00000000000E+00  0.00000000000E+00 -0.74052536409E+03  0.29174553283E+04  0.28219085346E+04 0.  0.
        5    1    3    3  502    0 -0.99229161794E+03  0.70992948814E+03  0.36233950040E+03  0.12727743463E+04  0.46999998093E+01 0. -1.
       -5    1    3    3    0  502  0.99229161794E+03 -0.70992948814E+03 -0.11028648645E+04  0.16446809820E+04  0.46999998093E+01 0.  1.
</event>
<event>
 5   0  0.7613444E-06  0.2713267E+04  0.7818609E-02  0.8330713E-01
       -1   -1    0    0    0  501  0.00000000000E+00  0.00000000000E+00  0.11364040695E+04  0.11364040695E+04  0.50400001928E-02 0.  1.
        1   -1    0    0  501    0  0.00000000000E+00  0.00000000000E+00 -0.16195419358E+04  0.16195419358E+04  0.50400001928E-02 0. -1.
    10030    2    1    2    0    0  0.00000000000E+00  0.00000000000E+00 -0.48313786629E+03  0.27559460052E+04  0.27132667001E+04 0.  0.
        5    1    3    3  502    0  0.70504790135E+03  0.22117201235E+02  0.93547320481E+03  0.11716287470E+04  0.46999998093E+01 0.  1.
       -5    1    3    3    0  502 -0.70504790135E+03 -0.22117201235E+02 -0.14186110711E+04  0.15843172583E+04  0.46999998093E+01 0. -1.
</event>
<event>
 5   0  0.7509685E-06  0.2871548E+04  0.7818609E-02  0.8281393E-01
        1   -1    0    0  501    0  0.00000000000E+00  0.00000000000E+00  0.20481490524E+04  0.20481490524E+04  0.50400001928E-02 0.  1.
       -1   -1    0    0    0  501  0.00000000000E+00  0.00000000000E+00 -0.10064928541E+04  0.10064928542E+04  0.50400001928E-02 0. -1.
    10030    2    1    2    0    0  0.00000000000E+00  0.00000000000E+00  0.10416561983E+04  0.30546419066E+04  0.28715482831E+04 0.  0.
        4    1    3    3  502    0 -0.55905698163E+03  0.84554743735E+03 -0.56084013624E+03  0.11584638315E+04  0.12699999809E+01 0. -1.
       -4    1    3    3    0  502  0.55905698163E+03 -0.84554743735E+03  0.16024963345E+04  0.18961780751E+04  0.12699999809E+01 0.  1.
</event>
<event>
 5   0  0.7555871E-06  0.2837034E+04  0.7818609E-02  0.8291862E-01
        1   -1    0    0  501    0  0.00000000000E+00  0.00000000000E+00  0.24347490488E+04  0.24347490488E+04  0.50400001928E-02 0. -1.
       -1   -1    0    0    0  501  0.00000000000E+00  0.00000000000E+00 -0.82644690825E+03  0.82644690826E+03  0.50400001928E-02 0.  1.
    10030    2    1    2    0    0  0.00000000000E+00  0.00000000000E+00  0.16083021406E+04  0.32611959571E+04  0.28370342429E+04 0.  0.
        3    1    3    3  502    0  0.19171289544E+03 -0.13512614371E+04  0.35964697183E+03  0.14113848732E+04  0.10100000352E+00 0.  1.
       -3    1    3    3    0  502 -0.19171289544E+03  0.13512614371E+04  0.12486551687E+04  0.18498110839E+04  0.10100000352E+00 0. -1.
</event>
<event>
 5   0  0.7613444E-06  0.2757384E+04  0.7818609E-02  0.8316622E-01
       -1   -1    0    0    0  501  0.00000000000E+00  0.00000000000E+00  0.11713891406E+04  0.11713891407E+04  0.50400001928E-02 0. -1.
        1   -1    0    0  501    0  0.00000000000E+00  0.00000000000E+00 -0.16226812444E+04  0.16226812445E+04  0.50400001928E-02 0.  1.
    10030    2    1    2    0    0  0.00000000000E+00  0.00000000000E+00 -0.45129210381E+03  0.27940703851E+04  0.27573836791E+04 0.  0.
        5    1    3    3  502    0 -0.10153611383E+04  0.90024678024E+03 -0.47254042983E+03  0.14369130295E+04  0.46999998093E+01 0.  1.
       -5    1    3    3    0  502  0.10153611383E+04 -0.90024678024E+03  0.21248326022E+02  0.13571573556E+04  0.46999998093E+01 0. -1.
</event>
<event>
 5   0  0.7388013E-06  0.2836742E+04  0.7818609E-02  0.8291951E-01
       -1   -1    0    0    0  501  0.00000000000E+00  0.00000000000E+00  0.17306765122E+04  0.17306765122E+04  0.50400001928E-02 0.  1.
        1   -1    0    0  501    0  0.00000000000E+00  0.00000000000E+00 -0.11624218673E+04  0.11624218673E+04  0.50400001928E-02 0. -1.
    10030    2    1    2    0    0  0.00000000000E+00  0.00000000000E+00  0.56825464498E+03  0.28930983795E+04  0.28367419502E+04 0.  0.
        1    1    3    3  502    0 -0.58850330652E+03  0.12894423426E+04  0.33788625303E+03  0.14571083751E+04  0.50400001928E-02 0. -1.
       -1    1    3    3    0  502  0.58850330652E+03 -0.12894423426E+04  0.23036839194E+03  0.14359900044E+04  0.50400001928E-02 0.  1.
</event>
<event>
 5   0  0.1904553E-05  0.2874853E+04  0.7818609E-02  0.8280399E-01
       -2   -1    0    0    0  501  0.00000000000E+00  0.00000000000E+00  0.87533432803E+03  0.87533432803E+03  0.25500000920E-02 0.  1.
        2   -1    0    0  501    0  0.00000000000E+00  0.00000000000E+00 -0.23604632493E+04  0.23604632493E+04  0.25500000920E-02 0. -1.
    10030    2    1    2    0    0  0.00000000000E+00  0.00000000000E+00 -0.14851289213E+04  0.32357975773E+04  0.28748527003E+04 0.  0.
        1    1    3    3  502    0  0.14001768860E+04  0.31595497559E+03 -0.82881185018E+03  0.16574836173E+04  0.50400001928E-02 0. -1.
       -1    1    3    3    0  502 -0.14001768860E+04 -0.31595497559E+03 -0.65631707109E+03  0.15783139600E+04  0.50400001928E-02 0.  1.
</event>
<event>
 5   0  0.7388013E-06  0.1970775E+04  0.7818609E-02  0.8620407E-01
        1   -1    0    0  501    0  0.00000000000E+00  0.00000000000E+00  0.20981758908E+04  0.20981758908E+04  0.50400001928E-02 0.  1.
       -1   -1    0    0    0  501  0.00000000000E+00  0.00000000000E+00 -0.46277750282E+03  0.46277750284E+03  0.50400001928E-02 0. -1.
    10030    2    1    2    0    0  0.00000000000E+00  0.00000000000E+00  0.16353983880E+04  0.25609533936E+04  0.19707750752E+04 0.  0.
        1    1    3    3  502    0 -0.28237747775E+03  0.66430234337E+02 -0.40603445956E+03  0.49901302423E+03  0.50400001928E-02 0. -1.
       -1    1    3    3    0  502  0.28237747775E+03 -0.66430234337E+02  0.20414328475E+04  0.20619403694E+04  0.50400001928E-02 0.  1.
</event>
<event>
 5   0  0.1923559E-05  0.2779799E+04  0.7818609E-02  0.8309567E-01
        2   -1    0    0  501    0  0.00000000000E+00  0.00000000000E+00  0.11199404184E+04  0.11199404184E+04  0.25500000920E-02 0.  1.
       -2   -1    0    0    0  501  0.00000000000E+00  0.00000000000E+00 -0.17249321663E+04  0.17249321663E+04  0.25500000920E-02 0. -1.
    10030    2    1    2    0    0  0.00000000000E+00  0.00000000000E+00 -0.60499174796E+03  0.28448725847E+04  0.27797994547E+04 0.  0.
        4    1    3    3  502    0  0.58119319523E+03  0.97391577090E+03  0.51975612760E+03  0.12475758510E+04  0.12699999809E+01 0.  1.
       -4    1    3    3    0  502 -0.58119319523E+03 -0.97391577090E+03 -0.11247478756E+04  0.15972967337E+04  0.12699999809E+01 0. -1.
</event>
<event>
 5   0  0.1814230E-05  0.2777834E+04  0.7818609E-02  0.8310183E-01
        2   -1    0    0  501    0  0.00000000000E+00  0.00000000000E+00  0.26529939967E+04  0.26529939967E+04  0.25500000920E-02 0. -1.
       -2   -1    0    0    0  501  0.00000000000E+00  0.00000000000E+00 -0.72713716504E+03  0.72713716504E+03  0.25500000920E-02 0.  1.
    10030    2    1    2    0    0  0.00000000000E+00  0.00000000000E+00  0.19258568317E+04  0.33801311617E+04  0.27778340725E+04 0.  0.
        5    1    3    3  502    0  0.96384329235E+03  0.13920797811E+03  0.21679487781E+04  0.23766355943E+04  0.46999998093E+01 0. -1.
       -5    1    3    3    0  502 -0.96384329235E+03 -0.13920797811E+03 -0.24209194648E+03  0.10034955675E+04  0.46999998093E+01 0.  1.
</event>
<event>
 5   0  0.7681342E-06  0.2166482E+04  0.7818609E-02  0.8532510E-01
        1   -1    0    0  501    0  0.00000000000E+00  0.00000000000E+00  0.13272407323E+04  0.13272407323E+04  0.50400001928E-02 0. -1.
       -1   -1    0    0    0  501  0.00000000000E+00  0.00000000000E+00 -0.88409837223E+03  0.88409837225E+03  0.50400001928E-02 0.  1.
    10030    2    1    2    0    0  0.00000000000E+00  0.00000000000E+00  0.44314236003E+03  0.22113391045E+04  0.21664822833E+04 0.  0.
        2    1    3    3  502    0 -0.94650466269E+02 -0.10726628568E+04  0.34168111344E+03  0.11297390400E+04  0.25500000920E-02 0. -1.
       -2    1    3    3    0  502  0.94650466269E+02  0.10726628568E+04  0.10146124659E+03  0.10816000646E+04  0.25500000920E-02 0.  1.
</event>
<event>
 5   0  0.7388013E-06  0.2306774E+04  0.7818609E-02  0.8475255E-01
       -1   -1    0    0    0  501  0.00000000000E+00  0.00000000000E+00  0.70924379309E+03  0.70924379311E+03  0.50400001928E-02 0. -1.
        1   -1    0    0  501    0  0.00000000000E+00  0.00000000000E+00 -0.18756620633E+04  0.18756620633E+04  0.50400001928E-02 0.  1.
    10030    2    1    2    0    0  0.00000000000E+00  0.00000000000E+00 -0.11664182702E+04  0.25849058564E+04  0.23067740907E+04 0.  0.
        1    1    3    3  502    0  0.64208340175E+03  0.38417683357E+03  0.40036867516E+03  0.84862124079E+03  0.50400001928E-02 0. -1.
       -1    1    3    3    0  502 -0.64208340175E+03 -0.38417683357E+03 -0.15667869453E+04  0.17362846156E+04  0.50400001928E-02 0.  1.
</event>
<event>
 5   0  0.1832502E-05  0.2707134E+04  0.7818609E-02  0.8332694E-01
       -2   -1    0    0    0  501  0.00000000000E+00  0.00000000000E+00  0.10542177832E+04  0.10542177832E+04  0.25500000920E-02 0. -1.
        2   -1    0    0  501    0  0.00000000000E+00  0.00000000000E+00 -0.17379175567E+04  0.17379175567E+04  0.25500000920E-02 0.  1.
    10030    2    1    2    0    0  0.00000000000E+00  0.00000000000E+00 -0.68369977359E+03  0.27921353399E+04  0.27071339782E+04 0.  0.
        2    1    3    3  502    0 -0.86335755828E+03 -0.66272507213E+03  0.48812377005E+03  0.11928351142E+04  0.25500000920E-02 0. -1.
       -2    1    3    3    0  502  0.86335755828E+03  0.66272507213E+03 -0.11718235436E+04  0.15993002258E+04  0.25500000920E-02 0.  1.
</event>
<event>
 5   0  0.7555871E-06  0.2867758E+04  0.7818609E-02  0.8282536E-01
        1   -1    0    0  501    0  0.00000000000E+00  0.00000000000E+00  0.23273604557E+04  0.23273604557E+04  0.50400001928E-02 0. -1.
       -1   -1    0    0    0  501  0.00000000000E+00  0.00000000000E+00 -0.88340803533E+03  0.88340803535E+03  0.50400001928E-02 0.  1.
    10030    2    1    2    0    0  0.00000000000E+00  0.00000000000E+00  0.14439524204E+04  0.32107684911E+04  0.28677579589E+04 0.  0.
        3    1    3    3  502    0 -0.11677164322E+04  0.55938961443E+03  0.32229169012E+02  0.12951900000E+04  0.10100000352E+00 0.  1.
       -3    1    3    3    0  502  0.11677164322E+04 -0.55938961443E+03  0.14117232514E+04  0.19155784911E+04  0.10100000352E+00 0. -1.
</event>
<event>
 5   0  0.7555871E-06  0.2802623E+04  0.7818609E-02  0.8302455E-01
        1   -1    0    0  501    0  0.00000000000E+00  0.00000000000E+00  0.19218465176E+04  0.19218465176E+04  0.50400001928E-02 0.  1.
       -1   -1    0    0    0  501  0.00000000000E+00  0.00000000000E+00 -0.10217639041E+04  0.10217639041E+04  0.50400001928E-02 0. -1.
    10030    2    1    2    0    0  0.00000000000E+00  0.00000000000E+00  0.90008261352E+03  0.29436104216E+04  0.28026226295E+04 0.  0.
        3    1    3    3  502    0  0.49878846261E+02 -0.68330362432E+03 -0.83386088099E+03  0.10792199597E+04  0.10100000352E+00 0. -1.
       -3    1    3    3    0  502 -0.49878846261E+02  0.68330362432E+03  0.17339434945E+04  0.18643904620E+04  0.10100000352E+00 0.  1.
</event>
<event>
 5   0  0.1832502E-05  0.2905348E+04  0.7818609E-02  0.8271288E-01
       -2   -1    0    0    0  501  0.00000000000E+00  0.00000000000E+00  0.10860993316E+04  0.10860993316E+04  0.25500000920E-02 0. -1.
        2   -1    0    0  501    0  0.00000000000E+00  0.00000000000E+00 -0.19429735713E+04  0.19429735713E+04  0.25500000920E-02 0.  1.
    10030    2    1    2    0    0  0.00000000000E+00  0.00000000000E+00 -0.85687423965E+03  0.30290729029E+04  0.29053483765E+04 0.  0.
        2    1    3    3  502    0  0.88989348371E+03  0.74158678064E+03 -0.13423513756E+04  0.17730675625E+04  0.25500000920E-02 0.  1.
       -2    1    3    3    0  502 -0.88989348371E+03 -0.74158678064E+03  0.48547713599E+03  0.12560053404E+04  0.25500000920E-02 0. -1.
</event>
<event>
 5   0  0.7613444E-06  0.2665177E+04  0.7818609E-02  0.8346393E-01
       -1   -1    0    0    0  501  0.00000000000E+00  0.00000000000E+00  0.15031618889E+04  0.15031618890E+04  0.50400001928E-02 0.  1.
        1   -1    0    0  501    0  0.00000000000E+00  0.00000000000E+00 -0.11813715572E+04  0.11813715572E+04  0.50400001928E-02 0. -1.
    10030    2    1    2    0    0  0.00000000000E+00  0.00000000000E+00  0.32179033172E+03  0.26845334462E+04  0.26651774437E+04 0.  0.
        5    1    3    3  502    0 -0.65022897202E+03  0.57862768176E+03 -0.85547363330E+03  0.12204363717E+04  0.46999998093E+01 0. -1.
       -5    1    3    3    0  502  0.65022897202E+03 -0.57862768176E+03  0.11772639650E+04  0.14640970745E+04  0.46999998093E+01 0.  1.
</event>
<event>
 5   0  0.1874272E-05  0.2852182E+04  0.7818609E-02  0.8287249E-01
        2   -1    0    0  501    0  0.00000000000E+00  0.00000000000E+00  0.22663225516E+04  0.22663225516E+04  0.25500000920E-02 0.  1.
       -2   -1    0    0    0  501  0.00000000000E+00  0.00000000000E+00 -0.89737219385E+03  0.89737219385E+03  0.25500000920E-02 0. -1.
    10030    2    1    2    0    0  0.00000000000E+00  0.00000000000E+00  0.13689503578E+04  0.31636947455E+04  0.28521815090E+04 0.  0.
        3    1    3    3  502    0 -0.37568423920E+03  0.13490018860E+04  0.98373854279E+03  0.17113404882E+04  0.10100000352E+00 0.  1.
       -3    1    3    3    0  502  0.37568423920E+03 -0.13490018860E+04  0.38521181498E+03  0.14523542572E+04  0.10100000352E+00 0. -1.
</event>
<event>
 5   0  0.1874272E-05  0.2830420E+04  0.7818609E-02  0.8293886E-01
       -2   -1    0    0    0  501  0.00000000000E+00  0.00000000000E+00  0.92978858379E+03  0.92978858380E+03  0.25500000920E-02 0. -1.
        2   -1    0    0  501    0  0.00000000000E+00  0.00000000000E+00 -0.21540585156E+04  0.21540585156E+04  0.25500000920E-02 0.  1.
    10030    2    1    2    0    0  0.00000000000E+00  0.00000000000E+00 -0.12242699318E+04  0.30838470994E+04  0.28304197686E+04 0.  0.
        3    1    3    3  502    0 -0.52415468393E+03 -0.81115153865E+03  0.51495094874E+03  0.10944767888E+04  0.10100000352E+00 0. -1.
       -3    1    3    3    0  502  0.52415468393E+03  0.81115153865E+03 -0.17392208806E+04  0.19893703107E+04  0.10100000352E+00 0.  1.
</event>
<event>
 5   0  0.1832502E-05  0.2801891E+04  0.7818609E-02  0.8302682E-01
        2   -1    0    0  501    0  0.00000000000E+00  0.00000000000E+00  0.16765270992E+04  0.16765270992E+04  0.25500000920E-02 0.  1.
       -2   -1    0    0    0  501  0.00000000000E+00  0.00000000000E+00 -0.11706628628E+04  0.11706628628E+04  0.25500000920E-02 0. -1.
    10030    2    1    2    0    0  0.00000000000E+00  0.00000000000E+00  0.50586423632E+03  0.28471899620E+04  0.28018907998E+04 0.  0.
        2    1    3    3  502    0 -0.42772462403E+03 -0.91737606129E+03 -0.73129341234E+03  0.12487262497E+04  0.25500000920E-02 0. -1.
       -2    1    3    3    0  502  0.42772462403E+03  0.91737606129E+03  0.12371576487E+04  0.15984637123E+04  0.25500000920E-02 0.  1.
</event>
<event>
 5   0  0.7509685E-06  0.2767036E+04  0.7818609E-02  0.8313576E-01
       -1   -1    0    0    0  501  0.00000000000E+00  0.00000000000E+00  0.96749916546E+03  0.96749916547E+03  0.50400001928E-02 0.  1.
        1   -1    0    0  501    0  0.00000000000E+00  0.00000000000E+00 -0.19784218220E+04  0.19784218220E+04  0.50400001928E-02 0. -1.
    10030    2    1    2    0    0  0.00000000000E+00  0.00000000000E+00 -0.10109226565E+04  0.29459209875E+04  0.27670355702E+04 0.  0.
        4    1    3    3  502    0  0.36496150133E+03 -0.47191295814E+03 -0.18344488231E+04  0.19290160276E+04  0.12699999809E+01 0. -1.
       -4    1    3    3    0  502 -0.36496150133E+03  0.47191295814E+03  0.82352616653E+03  0.10169049598E+04  0.12699999809E+01 0.  1.
</event>
<event>
 5   0  0.1904553E-05  0.2806289E+04  0.7818609E-02  0.8301319E-01
       -2   -1    0    0    0  501  0.00000000000E+00  0.00000000000E+00  0.81790416445E+03  0.81790416446E+03  0.25500000920E-02 0. -1.
        2   -1    0    0  501    0  0.00000000000E+00  0.00000000000E+00 -0.24071458317E+04  0.24071458317E+04  0.25500000920E-02 0.  1.
    10030    2    1    2    0    0  0.00000000000E+00  0.00000000000E+00 -0.15892416673E+04  0.32250499962E+04  0.28062890801E+04 0.  0.
        1    1    3    3  502    0  0.10767191748E+04 -0.28477466144E+03  0.18619432391E+03  0.11291984394E+04  0.50400001928E-02 0. -1.
       -1    1    3    3    0  502 -0.10767191748E+04  0.28477466144E+03 -0.17754359912E+04  0.20958515568E+04  0.50400001928E-02 0.  1.
</event>
<event>
 5   0  0.1832502E-05  0.2358782E+04  0.7818609E-02  0.8455098E-01
       -2   -1    0    0    0  501  0.00000000000E+00  0.00000000000E+00  0.16795084663E+04  0.16795084663E+04  0.25500000920E-02 0. -1.
        2   -1    0    0  501    0  0.00000000000E+00  0.00000000000E+00 -0.82819648826E+03  0.82819648826E+03  0.25500000920E-02 0.  1.
    10030    2    1    2    0    0  0.00000000000E+00  0.00000000000E+00  0.85131197800E+03  0.25077049545E+04  0.23587819007E+04 0.  0.
        2    1    3    3  502    0 -0.53680281347E+03  0.48241374269E+03  0.14173299882E+04  0.15905045034E+04  0.25500000920E-02 0. -1.
       -2    1    3    3    0  502  0.53680281347E+03 -0.48241374269E+03 -0.56601801024E+03  0.91720045116E+03  0.25500000920E-02 0.  1.
</event>
<event>
 5   0  0.1904553E-05  0.2793240E+04  0.7818609E-02  0.8305370E-01
       -2   -1    0    0    0  501  0.00000000000E+00  0.00000000000E+00  0.14298939805E+04  0.14298939805E+04  0.25500000920E-02 0. -1.
        2   -1    0    0  501    0  0.00000000000E+00  0.00000000000E+00 -0.13641203447E+04  0.13641203447E+04  0.25500000920E-02 0.  1.
    10030    2    1    2    0    0  0.00000000000E+00  0.00000000000E+00  0.65773635810E+02  0.27940143253E+04  0.27932400324E+04 0.  0.
        1    1    3    3  502    0 -0.56233798276E+03 -0.90015533644E+03 -0.87513341881E+03  0.13756315413E+04  0.50400001928E-02 0.  1.
       -1    1    3    3    0  502  0.56233798276E+03  0.90015533644E+03  0.94090705462E+03  0.14183827840E+04  0.50400001928E-02 0. -1.
</event>
<event>
 5   0  0.1874272E-05  0.2332541E+04  0.7818609E-02  0.8465200E-01
       -2   -1    0    0    0  501  0.00000000000E+00  0.00000000000E+00  0.66189177942E+03  0.66189177943E+03  0.25500000920E-02 0.  1.
        2   -1    0    0  501    0  0.00000000000E+00  0.00000000000E+00 -0.20549994517E+04  0.20549994517E+04  0.25500000920E-02 0. -1.
    10030    2    1    2    0    0  0.00000000000E+00  0.00000000000E+00 -0.13931076723E+04  0.27168912311E+04  0.23325413127E+04 0.  0.
        3    1    3    3  502    0 -0.89018840887E+03 -0.10020598902E+03  0.17330214336E+03  0.91242001655E+03  0.10100000352E+00 0.  1.
       -3    1    3    3    0  502  0.89018840887E+03  0.10020598902E+03 -0.15664098157E+04  0.18044712146E+04  0.10100000352E+00 0. -1.
</event>
<event>
 5   0  0.7681342E-06  0.2819569E+04  0.7818609E-02  0.8297219E-01
       -1   -1    0    0    0  501  0.00000000000E+00  0.00000000000E+00  0.16858928700E+04  0.16858928701E+04  0.50400001928E-02 0. -1.
        1   -1    0    0  501    0  0.00000000000E+00  0.00000000000E+00 -0.11788959505E+04  0.11788959505E+04  0.50400001928E-02 0.  1.
    10030    2    1    2    0    0  0.00000000000E+00  0.00000000000E+00  0.50699691953E+03  0.28647888206E+04  0.28195689582E+04 0.  0.
        2    1    3    3  502    0  0.12560975418E+04  0.63242511352E+03  0.35382271383E+03  0.14501493273E+04  0.25500000920E-02 0.  1.
       -2    1    3    3    0  502 -0.12560975418E+04 -0.63242511352E+03  0.15317420570E+03  0.14146394933E+04  0.25500000920E-02 0. -1.
</event>
<event>
 5   0  0.1904553E-05  0.1751043E+04  0.7818609E-02  0.8732776E-01
        2   -1    0    0  501    0  0.00000000000E+00  0.00000000000E+00  0.12957065723E+04  0.12957065723E+04  0.25500000920E-02 0. -1.
       -2   -1    0    0    0  501  0.00000000000E+00  0.00000000000E+00 -0.59159827245E+03  0.59159827246E+03  0.25500000920E-02 0.  1.
    10030    2    1    2    0    0  0.00000000000E+00  0.00000000000E+00  0.70410829989E+03  0.18873048448E+04  0.17510428548E+04 0.  0.
        1    1    3    3  502    0  0.14516248747E+03 -0.79836608221E+03  0.70638777214E+03  0.10758458224E+04  0.50400001928E-02 0. -1.
       -1    1    3    3    0  502 -0.14516248747E+03  0.79836608221E+03 -0.22794722463E+01  0.81145902238E+03  0.50400001928E-02 0.  1.
</event>
<event>
 5   0  0.1923559E-05  0.2706576E+04  0.7818609E-02  0.8332874E-01
        2   -1    0    0  501    0  0.00000000000E+00  0.00000000000E+00  0.20907074419E+04  0.20907074419E+04  0.25500000920E-02 0.  1.
       -2   -1    0    0    0  501  0.00000000000E+00  0.00000000000E+00 -0.87596615818E+03  0.87596615818E+03  0.25500000920E-02 0. -1.
    10030    2    1    2    0    0  0.00000000000E+00  0.00000000000E+00  0.12147412838E+04  0.29666736001E+04  0.27065764100E+04 0.  0.
        4    1    3    3  502    0  0.59064217278E+03 -0.28567000210E+03 -0.68997717544E+03  0.95212165289E+03  0.12699999809E+01 0. -1.
       -4    1    3    3    0  502 -0.59064217278E+03  0.28567000210E+03  0.19047184592E+04  0.20145519472E+04  0.12699999809E+01 0.  1.
</event>
<event>
 5   0  0.7388013E-06  0.2789013E+04  0.7818609E-02  0.8306687E-01
       -1   -1    0    0    0  501  0.00000000000E+00  0.00000000000E+00  0.11218976112E+04  0.11218976112E+04  0.50400001928E-02 0. -1.
        1   -1    0    0  501    0  0.00000000000E+00  0.00000000000E+00 -0.17333569779E+04  0.17333569779E+04  0.50400001928E-02 0.  1.
    10030    2    1    2    0    0  0.00000000000E+00  0.00000000000E+00 -0.61145936664E+03  0.28552545891E+04  0.27890134836E+04 0.  0.
        1    1    3    3  502    0 -0.71192064868E+03 -0.50588124451E+03  0.80724425928E+03  0.11892813535E+04  0.50400001928E-02 0. -1.
       -1    1    3    3    0  502  0.71192064868E+03  0.50588124451E+03 -0.14187036259E+04  0.16659732356E+04  0.50400001928E-02 0.  1.
</event>
<event>
 5   0  0.7681342E-06  0.2826573E+04  0.7818609E-02  0.8295066E-01
       -1   -1    0    0    0  501  0.00000000000E+00  0.00000000000E+00  0.80258634353E+03  0.80258634355E+03  0.50400001928E-02 0. -1.
        1   -1    0    0  501    0  0.00000000000E+00  0.00000000000E+00 -0.24886784692E+04  0.24886784692E+04  0.50400001928E-02 0.  1.
    10030    2    1    2    0    0  0.00000000000E+00  0.00000000000E+00 -0.16860921257E+04  0.32912648128E+04  0.28265734400E+04 0.  0.
        2    1    3    3  502    0 -0.31857053174E+03 -0.10328511411E+04 -0.19032973544E+04  0.21887917860E+04  0.25500000920E-02 0.  1.
       -2    1    3    3    0  502  0.31857053174E+03  0.10328511411E+04  0.21720522869E+03  0.11024730268E+04  0.25500000920E-02 0. -1.
</event>
<event>
 5   0  0.7613444E-06  0.2112700E+04  0.7818609E-02  0.8555670E-01
        1   -1    0    0  501    0  0.00000000000E+00  0.00000000000E+00  0.19838306359E+04  0.19838306359E+04  0.50400001928E-02 0.  1.
       -1   -1    0    0    0  501  0.00000000000E+00  0.00000000000E+00 -0.56248493921E+03  0.56248493924E+03  0.50400001928E-02 0. -1.
    10030    2    1    2    0    0  0.00000000000E+00  0.00000000000E+00  0.14213456967E+04  0.25463155752E+04  0.21126995572E+04 0.  0.
        5    1    3    3  502    0 -0.63460544504E+03 -0.81932905017E+03  0.46417612145E+03  0.11355640559E+04  0.46999998093E+01 0. -1.
       -5    1    3    3    0  502  0.63460544504E+03  0.81932905017E+03  0.95716957527E+03  0.14107515193E+04  0.46999998093E+01 0.  1.
</event>
<event>
 5   0  0.7555871E-06  0.2828328E+04  0.7818609E-02  0.8294527E-01
        1   -1    0    0  501    0  0.00000000000E+00  0.00000000000E+00  0.19090942269E+04  0.19090942269E+04  0.50400001928E-02 0.  1.
       -1   -1    0    0    0  501  0.00000000000E+00  0.00000000000E+00 -0.10475440916E+04  0.10475440916E+04  0.50400001928E-02 0. -1.
    10030    2    1    2    0    0  0.00000000000E+00  0.00000000000E+00  0.86155013529E+03  0.29566383185E+04  0.28283283952E+04 0.  0.
        3    1    3    3  502    0 -0.36903832092E+03 -0.13480112046E+04  0.20526445355E+03  0.14126064548E+04  0.10100000352E+00 0.  1.
       -3    1    3    3    0  502  0.36903832092E+03  0.13480112046E+04  0.65628568174E+03  0.15440318637E+04  0.10100000352E+00 0. -1.
</event>
<event>
 5   0  0.1923559E-05  0.2791869E+04  0.7818609E-02  0.8305797E-01
        2   -1    0    0  501    0  0.00000000000E+00  0.00000000000E+00  0.22557318297E+04  0.22557318297E+04  0.25500000920E-02 0.  1.
       -2   -1    0    0    0  501  0.00000000000E+00  0.00000000000E+00 -0.86385855237E+03  0.86385855237E+03  0.25500000920E-02 0. -1.
    10030    2    1    2    0    0  0.00000000000E+00  0.00000000000E+00  0.13918732774E+04  0.31195903821E+04  0.27918690750E+04 0.  0.
        4    1    3    3  502    0 -0.10231896194E+04 -0.71297631612E+03 -0.48863331235E+01  0.12471077394E+04  0.12699999809E+01 0. -1.
       -4    1    3    3    0  502  0.10231896194E+04  0.71297631612E+03  0.13967596105E+04  0.18724826426E+04  0.12699999809E+01 0.  1.
</event>
<event>
 5   0  0.7388013E-06  0.2877005E+04  0.7818609E-02  0.8279752E-01
        1   -1    0    0  501    0  0.00000000000E+00  0.00000000000E+00  0.15990916458E+04  0.15990916458E+04  0.50400001928E-02 0.  1.
       -1   -1    0    0    0  501  0.00000000000E+00  0.00000000000E+00 -0.12940409894E+04  0.12940409894E+04  0.50400001928E-02 0. -1.
    10030    2    1    2    0    0  0.00000000000E+00  0.00000000000E+00  0.30505065642E+03  0.28931326352E+04  0.28770054817E+04 0.  0.
        1    1    3    3  502    0 -0.28039579276E+03  0.13744987407E+04  0.47277800573E+03  0.14803336217E+04  0.50400001928E-02 0.  1.
       -1    1    3    3    0  502  0.28039579276E+03 -0.13744987407E+04 -0.16772734931E+03  0.14127990135E+04  0.50400001928E-02 0. -1.
</event>
<event>
 5   0  0.1814230E-05  0.2711650E+04  0.7818609E-02  0.8331235E-01
       -2   -1    0    0    0  501  0.00000000000E+00  0.00000000000E+00  0.13179534134E+04  0.13179534134E+04  0.25500000920E-02 0. -1.
        2   -1    0    0  501    0  0.00000000000E+00  0.00000000000E+00 -0.13947847900E+04  0.13947847900E+04  0.25500000920E-02 0.  1.
    10030    2    1    2    0    0  0.00000000000E+00  0.00000000000E+00 -0.76831376527E+02  0.27127382034E+04  0.27116499589E+04 0.  0.
        5    1    3    3  502    0  0.88403713140E+03  0.66776805544E+01 -0.10667742571E+04  0.13854947299E+04  0.46999998093E+01 0.  1.
       -5    1    3    3    0  502 -0.88403713140E+03 -0.66776805544E+01  0.98994288054E+03  0.13272434735E+04  0.46999998093E+01 0. -1.
</event>
<event>
 5   0  0.1814230E-05  0.2850579E+04  0.7818609E-02  0.8287736E-01
        2   -1    0    0  501    0  0.00000000000E+00  0.00000000000E+00  0.13409036968E+04  0.13409036968E+04  0.25500000920E-02 0.  1.
       -2   -1    0    0    0  501  0.00000000000E+00  0.00000000000E+00 -0.15149854039E+04  0.15149854039E+04  0.25500000920E-02 0. -1.
    10030    2    1    2    0    0  0.00000000000E+00  0.00000000000E+00 -0.17408170706E+03  0.28558891007E+04  0.28505785579E+04 0.  0.
        5    1    3    3  502    0  0.70995767002E+03 -0.37873560486E+03 -0.12656451950E+04  0.14997867853E+04  0.46999998093E+01 0. -1.
       -5    1    3    3    0  502 -0.70995767002E+03  0.37873560486E+03  0.10915634880E+04  0.13561023154E+04  0.46999998093E+01 0.  1.
</event>
<event>
 5   0  0.1814230E-05  0.2797108E+04  0.7818609E-02  0.8304167E-01
        2   -1    0    0  501    0  0.00000000000E+00  0.00000000000E+00  0.11279991390E+04  0.11279991390E+04  0.25500000920E-02 0. -1.
       -2   -1    0    0    0  501  0.00000000000E+00  0.00000000000E+00 -0.17340020819E+04  0.17340020819E+04  0.25500000920E-02 0.  1.
    10030    2    1    2    0    0  0.00000000000E+00  0.00000000000E+00 -0.60600294285E+03  0.28620012209E+04  0.27971076886E+04 0.  0.
        5    1    3    3  502    0 -0.35196899503E+03  0.45206864772E+03 -0.16084070934E+04  0.17074084760E+04  0.46999998093E+01 0.  1.
       -5    1    3    3    0  502  0.35196899503E+03 -0.45206864772E+03  0.10024041505E+04  0.11545927450E+04  0.46999998093E+01 0. -1.
</event>
<event>
 5   0  0.1832502E-05  0.2763406E+04  0.7818609E-02  0.8314720E-01
       -2   -1    0    0    0  501  0.00000000000E+00  0.00000000000E+00  0.91510673523E+03  0.91510673523E+03  0.25500000920E-02 0. -1.
        2   -1    0    0  501    0  0.00000000000E+00  0.00000000000E+00 -0.20862076648E+04  0.20862076648E+04  0.25500000920E-02 0.  1.
    10030    2    1    2    0    0  0.00000000000E+00  0.00000000000E+00 -0.11711009296E+04  0.30013144000E+04  0.27634056417E+04 0.  0.
        2    1    3    3  502    0  0.73866658773E+03 -0.11289996320E+04 -0.90926106530E+03  0.16269677875E+04  0.25500000920E-02 0.  1.
       -2    1    3    3    0  502 -0.73866658773E+03  0.11289996320E+04 -0.26183986428E+03  0.13743466125E+04  0.25500000920E-02 0. -1.
</event>
<event>
 5   0  0.7509685E-06  0.2513237E+04  0.7818609E-02  0.8398285E-01
       -1   -1    0    0    0  501  0.00000000000E+00  0.00000000000E+00  0.10246643725E+04  0.10246643725E+04  0.50400001928E-02 0.  1.
        1   -1    0    0  501    0  0.00000000000E+00  0.00000000000E+00 -0.15410803598E+04  0.15410803598E+04  0.50400001928E-02 0. -1.
    10030    2    1    2    0    0  0.00000000000E+00  0.00000000000E+00 -0.51641598729E+03  0.25657447323E+04  0.25132370679E+04 0.  0.
        4    1    3    3  502    0 -0.42671171527E+03  0.11809356379E+04 -0.30818647160E+03  0.12929317008E+04  0.12699999809E+01 0. -1.
       -4    1    3    3    0  502  0.42671171527E+03 -0.11809356379E+04 -0.20822951569E+03  0.12728130314E+04  0.12699999809E+01 0.  1.
</event>
<event>
 5   0  0.1904553E-05  0.2755592E+04  0.7818609E-02  0.8317189E-01
        2   -1    0    0  501    0  0.00000000000E+00  0.00000000000E+00  0.26601015198E+04  0.26601015198E+04  0.25500000920E-02 0.  1.
       -2   -1    0    0    0  501  0.00000000000E+00  0.00000000000E+00 -0.71362739998E+03  0.71362739999E+03  0.25500000920E-02 0. -1.
    10030    2    1    2    0    0  0.00000000000E+00  0.00000000000E+00  0.19464741198E+04  0.33737289198E+04  0.27555916470E+04 0.  0.
        1    1    3    3  502    0 -0.71876746945E+03  0.25020518072E+03  0.23793910109E+04  0.24981454902E+04  0.50400001928E-02 0.  1.
       -1    1    3    3    0  502  0.71876746945E+03 -0.25020518072E+03 -0.43291689105E+03  0.87558342959E+03  0.50400001928E-02 0. -1.
</event>
<event>
 5   0  0.1814230E-05  0.2680091E+04  0.7818609E-02  0.8341494E-01
       -2   -1    0    0    0  501  0.00000000000E+00  0.00000000000E+00  0.13776632053E+04  0.13776632053E+04  0.25500000920E-02 0.  1.
        2   -1    0    0  501    0  0.00000000000E+00  0.00000000000E+00 -0.13034549823E+04  0.13034549823E+04  0.25500000920E-02 0. -1.
    10030    2    1    2    0    0  0.00000000000E+00  0.00000000000E+00  0.74208222945E+02  0.26811181876E+04  0.26800910200E+04 0.  0.
        5    1    3    3  502    0 -0.98972674016E+03 -0.83152422959E+03 -0.31617187653E+03  0.13307810902E+04  0.46999998093E+01 0.  1.
       -5    1    3    3    0  502  0.98972674016E+03  0.83152422959E+03  0.39038009947E+03  0.13503370974E+04  0.46999998093E+01 0. -1.
</event>
<event>
 5   0  0.1923559E-05  0.2829944E+04  0.7818609E-02  0.8294032E-01
       -2   -1    0    0    0  501  0.00000000000E+00  0.00000000000E+00  0.26324836717E+04  0.26324836717E+04  0.25500000920E-02 0. -1.
        2   -1    0    0  501    0  0.00000000000E+00  0.00000000000E+00 -0.76055375516E+03  0.76055375516E+03  0.25500000920E-02 0.  1.
    10030    2    1    2    0    0  0.00000000000E+00  0.00000000000E+00  0.18719299166E+04  0.33930374269E+04  0.28299437040E+04 0.  0.
        4    1    3    3  502    0 -0.43106768751E+03 -0.87754795898E+03  0.21623455244E+04  0.23731096796E+04  0.12699999809E+01 0. -1.
       -4    1    3    3    0  502  0.43106768751E+03  0.87754795898E+03 -0.29041560785E+03  0.10199277473E+04  0.12699999809E+01 0.  1.
</event>
<event>
 5   0  0.1874272E-05  0.2869924E+04  0.7818609E-02  0.8281882E-01
       -2   -1    0    0    0  501  0.00000000000E+00  0.00000000000E+00  0.18452261875E+04  0.18452261875E+04  0.25500000920E-02 0.  1.
        2   -1    0    0  501    0  0.00000000000E+00  0.00000000000E+00 -0.11159155076E+04  0.11159155076E+04  0.25500000920E-02 0. -1.
    10030    2    1    2    0    0  0.00000000000E+00  0.00000000000E+00  0.72931067993E+03  0.29611416951E+04  0.28699244015E+04 0.  0.
        3    1    3    3  502    0  0.94854999418E+03 -0.92103103816E+03  0.94012000862E+03  0.16223041964E+04  0.10100000352E+00 0. -1.
       -3    1    3    3    0  502 -0.94854999418E+03  0.92103103816E+03 -0.21080932869E+03  0.13388374987E+04  0.10100000352E+00 0.  1.
</event>
<event>
 5   0  0.1814230E-05  0.2731765E+04  0.7818609E-02  0.8324771E-01
        2   -1    0    0  501    0  0.00000000000E+00  0.00000000000E+00  0.19589376759E+04  0.19589376759E+04  0.25500000920E-02 0. -1.
       -2   -1    0    0    0  501  0.00000000000E+00  0.00000000000E+00 -0.95237047220E+03  0.95237047220E+03  0.25500000920E-02 0.  1.
    10030    2    1    2    0    0  0.00000000000E+00  0.00000000000E+00  0.10065672037E+04  0.29113081481E+04  0.27317645575E+04 0.  0.
        5    1    3    3  502    0  0.14202478118E+03  0.19566171789E+03  0.19359429688E+04  0.19509873948E+04  0.46999998093E+01 0. -1.
       -5    1    3    3    0  502 -0.14202478118E+03 -0.19566171789E+03 -0.92937576513E+03  0.96032075325E+03  0.46999998093E+01 0.  1.
</event>
<event>
 5   0  0.7509685E-06  0.2734000E+04  0.7818609E-02  0.8324057E-01
        1   -1    0    0  501    0  0.00000000000E+00  0.00000000000E+00  0.17770514724E+04  0.17770514724E+04  0.50400001928E-02 0.  1.
       -1   -1    0    0    0  501  0.00000000000E+00  0.00000000000E+00 -0.10515671447E+04  0.10515671447E+04  0.50400001928E-02 0. -1.
    10030    2    1    2    0    0  0.00000000000E+00  0.00000000000E+00  0.72548432767E+03  0.28286186171E+04  0.27339999581E+04 0.  0.
        4    1    3    3  502    0 -0.26670143072E+03  0.11666114624E+04  0.10463476013E+04  0.15896404855E+04  0.12699999809E+01 0.  1.
       -4    1    3    3    0  502  0.26670143072E+03 -0.11666114624E+04 -0.32086327368E+03  0.12389781316E+04  0.12699999809E+01 0. -1.
</event>
<event>
 5   0  0.7555871E-06  0.2851752E+04  0.7818609E-02  0.8287379E-01
       -1   -1    0    0    0  501  0.00000000000E+00  0.00000000000E+00  0.12182309228E+04  0.12182309228E+04  0.50400001928E-02 0.  1.
        1   -1    0    0  501    0  0.00000000000E+00  0.00000000000E+00 -0.16689143313E+04  0.16689143313E+04  0.50400001928E-02 0. -1.
    10030    2    1    2    0    0  0.00000000000E+00  0.00000000000E+00 -0.45068340846E+03  0.28871452541E+04  0.28517524758E+04 0.  0.
        3    1    3    3  502    0  0.61662492194E+03  0.93052611938E+03 -0.11234921856E+04  0.15837739278E+04  0.10100000352E+00 0. -1.
       -3    1    3    3    0  502 -0.61662492194E+03 -0.93052611938E+03  0.67280877715E+03  0.13033713262E+04  0.10100000352E+00 0.  1.
</event>
<event>
 5   0  0.7613444E-06  0.2802261E+04  0.7818609E-02  0.8302567E-01
       -1   -1    0    0    0  501  0.00000000000E+00  0.00000000000E+00  0.10454077160E+04  0.10454077160E+04  0.50400001928E-02 0.  1.
        1   -1    0    0  501    0  0.00000000000E+00  0.00000000000E+00 -0.18778960551E+04  0.18778960551E+04  0.50400001928E-02 0. -1.
    10030    2    1    2    0    0  0.00000000000E+00  0.00000000000E+00 -0.83248833916E+03  0.29233037711E+04  0.28022612482E+04 0.  0.
        5    1    3    3  502    0 -0.76276008759E+03 -0.25881458750E+03  0.77973053974E+03  0.11210663435E+04  0.46999998093E+01 0.  1.
       -5    1    3    3    0  502  0.76276008759E+03  0.25881458750E+03 -0.16122188789E+04  0.18022374276E+04  0.46999998093E+01 0. -1.
</event>
<event>
 5   0  0.1904553E-05  0.2861924E+04  0.7818609E-02  0.8284297E-01
       -2   -1    0    0    0  501  0.00000000000E+00  0.00000000000E+00  0.26338652996E+04  0.26338652996E+04  0.25500000920E-02 0. -1.
        2   -1    0    0  501    0  0.00000000000E+00  0.00000000000E+00 -0.77743236283E+03  0.77743236283E+03  0.25500000920E-02 0.  1.
    10030    2    1    2    0    0  0.00000000000E+00  0.00000000000E+00  0.18564329368E+04  0.34112976625E+04  0.28619239146E+04 0.  0.
        1    1    3    3  502    0 -0.13855922189E+04  0.35260854308E+03  0.99826416788E+03  0.17437688868E+04  0.50400001928E-02 0. -1.
       -1    1    3    3    0  502  0.13855922189E+04 -0.35260854308E+03  0.85816876893E+03  0.16675287757E+04  0.50400001928E-02 0.  1.
</event>
<event>
 5   0  0.1814230E-05  0.2786401E+04  0.7818609E-02  0.8307503E-01
       -2   -1    0    0    0  501  0.00000000000E+00  0.00000000000E+00  0.17093230250E+04  0.17093230250E+04  0.25500000920E-02 0. -1.
        2   -1    0    0  501    0  0.00000000000E+00  0.00000000000E+00 -0.11355420059E+04  0.11355420059E+04  0.25500000920E-02 0.  1.
    10030    2    1    2    0    0  0.00000000000E+00  0.00000000000E+00  0.57378101908E+03  0.28448650310E+04  0.27864013327E+04 0.  0.
        5    1    3    3  502    0  0.13189332809E+04  0.44249365459E+02 -0.16907017585E+03  0.13304697742E+04  0.46999998093E+01 0. -1.
       -5    1    3    3    0  502 -0.13189332809E+04 -0.44249365459E+02  0.74285119494E+03  0.15143952567E+04  0.46999998093E+01 0.  1.
</event>
<event>
 5   0  0.7613444E-06  0.2537898E+04  0.7818609E-02  0.8389607E-01
        1   -1    0    0  501    0  0.00000000000E+00  0.00000000000E+00  0.16424044345E+04  0.16424044345E+04  0.50400001928E-02 0.  1.
       -1   -1    0    0    0  501  0.00000000000E+00  0.00000000000E+00 -0.98041145650E+03  0.98041145651E+03  0.50400001928E-02 0. -1.
    10030    2    1    2    0    0  0.00000000000E+00  0.00000000000E+00  0.66199297799E+03  0.26228158910E+04  0.25378984407E+04 0.  0.
        5    1    3    3  502    0  0.10514251296E+04 -0.62001380023E+02  0.10623991512E+04  0.14960123732E+04  0.46999998093E+01 0.  1.
       -5    1    3    3    0  502 -0.10514251296E+04  0.62001380023E+02 -0.40040617318E+03  0.11268035178E+04  0.46999998093E+01 0. -1.
</event>
<event>
 5   0  0.7388013E-06  0.2666555E+04  0.7818609E-02  0.8345939E-01
        1   -1    0    0  501    0  0.00000000000E+00  0.00000000000E+00  0.17606215473E+04  0.17606215473E+04  0.50400001928E-02 0.  1.
       -1   -1    0    0    0  501  0.00000000000E+00  0.00000000000E+00 -0.10096599856E+04  0.10096599856E+04  0.50400001928E-02 0. -1.
    10030    2    1    2    0    0  0.00000000000E+00  0.00000000000E+00  0.75096156175E+03  0.27702815329E+04  0.26665551756E+04 0.  0.
        1    1    3    3  502    0  0.33802255207E+03 -0.87984341444E+03 -0.60419902840E+03  0.11195714116E+04  0.50400001928E-02 0. -1.
       -1    1    3    3    0  502 -0.33802255207E+03  0.87984341444E+03  0.13551605901E+04  0.16507101214E+04  0.50400001928E-02 0.  1.
</event>
<event>
 5   0  0.1832502E-05  0.2823308E+04  0.7818609E-02  0.8296068E-01
       -2   -1    0    0    0  501  0.00000000000E+00  0.00000000000E+00  0.13259059691E+04  0.13259059691E+04  0.25500000920E-02 0.  1.
        2   -1    0    0  501    0  0.00000000000E+00  0.00000000000E+00 -0.15029476411E+04  0.15029476411E+04  0.25500000920E-02 0. -1.
    10030    2    1    2    0    0  0.00000000000E+00  0.00000000000E+00 -0.17704167199E+03  0.28288536103E+04  0.28233081650E+04 0.  0.
        2    1    3    3  502    0 -0.12510171528E+04 -0.45887559067E+03 -0.55543670097E+03  0.14436483828E+04  0.25500000920E-02 0. -1.
       -2    1    3    3    0  502  0.12510171528E+04  0.45887559067E+03  0.37839502897E+03  0.13852052275E+04  0.25500000920E-02 0.  1.
</event>
<event>
 5   0  0.7388013E-06  0.2800847E+04  0.7818609E-02  0.8303006E-01
        1   -1    0    0  501    0  0.00000000000E+00  0.00000000000E+00  0.17252369041E+04  0.17252369041E+04  0.50400001928E-02 0.  1.
       -1   -1    0    0    0  501  0.00000000000E+00  0.00000000000E+00 -0.11367630114E+04  0.11367630114E+04  0.50400001928E-02 0. -1.
    10030    2    1    2    0    0  0.00000000000E+00  0.00000000000E+00  0.58847389264E+03  0.28619999155E+04  0.28008466566E+04 0.  0.
        1    1    3    3  502    0  0.21869358825E+03 -0.13020929357E+04 -0.18276643251E+03  0.13329202780E+04  0.50400001928E-02 0. -1.
       -1    1    3    3    0  502 -0.21869358825E+03  0.13020929357E+04  0.77124032515E+03  0.15290796375E+04  0.50400001928E-02 0.  1.
</event>
<event>
 5   0  0.1923559E-05  0.2804018E+04  0.7818609E-02  0.8302022E-01
       -2   -1    0    0    0  501  0.00000000000E+00  0.00000000000E+00  0.10619925112E+04  0.10619925112E+04  0.25500000920E-02 0.  1.
        2   -1    0    0  501    0  0.00000000000E+00  0.00000000000E+00 -0.18508882216E+04  0.18508882216E+04  0.25500000920E-02 0. -1.
    10030    2    1    2    0    0  0.00000000000E+00  0.00000000000E+00 -0.78889571040E+03  0.29128807329E+04  0.28040181387E+04 0.  0.
        4    1    3    3  502    0 -0.10536720953E+04 -0.15194344269E+03  0.55328522153E+03  0.11997657452E+04  0.12699999809E+01 0.  1.
       -4    1    3    3    0  502  0.10536720953E+04  0.15194344269E+03 -0.13421809319E+04  0.17131149877E+04  0.12699999809E+01 0. -1.
</event>
<event>
 5   0  0.1904553E-05  0.2818597E+04  0.7818609E-02  0.8297518E-01
       -2   -1    0    0    0  501  0.00000000000E+00  0.00000000000E+00  0.12417525020E+04  0.12417525020E+04  0.25500000920E-02 0.  1.
        2   -1    0    0  501    0  0.00000000000E+00  0.00000000000E+00 -0.15994512497E+04  0.15994512497E+04  0.25500000920E-02 0. -1.
    10030    2    1    2    0    0  0.00000000000E+00  0.00000000000E+00 -0.35769874776E+03  0.28412037517E+04  0.28185972335E+04 0.  0.
        1    1    3    3  502    0  0.10417617453E+04  0.22998552792E+03 -0.11070833914E+04  0.15374636622E+04  0.50400001928E-02 0. -1.
       -1    1    3    3    0  502 -0.10417617453E+04 -0.22998552792E+03  0.74938464365E+03  0.13037400896E+04  0.50400001928E-02 0.  1.
</event>
<event>
 5   0  0.6288000E-06  0.2050683E+04  0.7818609E-02  0.8583285E-01
       -4   -1    0    0    0  501  0.00000000000E+00  0.00000000000E+00  0.63878802411E+03  0.63878928658E+03  0.12699999809E+01 0.  1.
        4   -1    0    0  501    0  0.00000000000E+00  0.00000000000E+00 -0.16458092499E+04  0.16458097399E+04  0.12699999809E+01 0. -1.
    10030    2    1    2    0    0  0.00000000000E+00  0.00000000000E+00 -0.10070212258E+04  0.22845990265E+04  0.20506830478E+04 0.  0.
        1    1    3    3  502    0  0.44585782354E+03 -0.74139670424E+03  0.10959797807E+03  0.87204930405E+03  0.50400001928E-02 0.  1.
       -1    1    3    3    0  502 -0.44585782354E+03  0.74139670424E+03 -0.11166192038E+04  0.14125497224E+04  0.50400001928E-02 0. -1.
</event>
<event>
 5   0  0.7388013E-06  0.2815279E+04  0.7818609E-02  0.8298541E-01
        1   -1    0    0  501    0  0.00000000000E+00  0.00000000000E+00  0.16833487243E+04  0.16833487243E+04  0.50400001928E-02 0. -1.
       -1   -1    0    0    0  501  0.00000000000E+00  0.00000000000E+00 -0.11770874356E+04  0.11770874356E+04  0.50400001928E-02 0.  1.
    10030    2    1    2    0    0  0.00000000000E+00  0.00000000000E+00  0.50626128875E+03  0.28604361600E+04  0.28152787664E+04 0.  0.
        1    1    3    3  502    0 -0.62916101753E+03  0.94702790333E+03  0.10963479594E+04  0.15794569585E+04  0.50400001928E-02 0. -1.
       -1    1    3    3    0  502  0.62916101753E+03 -0.94702790333E+03 -0.59008667064E+03  0.12809792015E+04  0.50400001928E-02 0.  1.
</event>
<event>
 5   0  0.1923559E-05  0.3028515E+04  0.7818609E-02  0.8235635E-01
       -2   -1    0    0    0  501  0.00000000000E+00  0.00000000000E+00  0.14306566259E+04  0.14306566259E+04  0.25500000920E-02 0.  1.
        2   -1    0    0  501    0  0.00000000000E+00  0.00000000000E+00 -0.16027439378E+04  0.16027439378E+04  0.25500000920E-02 0. -1.
    10030    2    1    2    0    0  0.00000000000E+00  0.00000000000E+00 -0.17208731187E+03  0.30334005637E+04  0.30285153024E+04 0.  0.
        4    1    3    3  502    0  0.42022062080E+03  0.41685750071E+03  0.13099833354E+04  0.14375025210E+04  0.12699999809E+01 0.  1.
       -4    1    3    3    0  502 -0.42022062080E+03 -0.41685750071E+03 -0.14820706473E+04  0.15958980426E+04  0.12699999809E+01 0. -1.
</event>
<event>
 5   0  0.7509685E-06  0.2820219E+04  0.7818609E-02  0.8297019E-01
        1   -1    0    0  501    0  0.00000000000E+00  0.00000000000E+00  0.20838329541E+04  0.20838329542E+04  0.50400001928E-02 0. -1.
       -1   -1    0    0    0  501  0.00000000000E+00  0.00000000000E+00 -0.95420738906E+03  0.95420738908E+03  0.50400001928E-02 0.  1.
    10030    2    1    2    0    0  0.00000000000E+00  0.00000000000E+00  0.11296255651E+04  0.30380403432E+04  0.28202190003E+04 0.  0.
        4    1    3    3  502    0 -0.52942056607E+03  0.60723279130E+02  0.19711865708E+04  0.20419479822E+04  0.12699999809E+01 0. -1.
       -4    1    3    3    0  502  0.52942056607E+03 -0.60723279130E+02 -0.84156100570E+03  0.99609236099E+03  0.12699999809E+01 0.  1.
</event>
<event>
 5   0  0.1923559E-05  0.2467708E+04  0.7818609E-02  0.8414581E-01
       -2   -1    0    0    0  501  0.00000000000E+00  0.00000000000E+00  0.80404226745E+03  0.80404226745E+03  0.25500000920E-02 0. -1.
        2   -1    0    0  501    0  0.00000000000E+00  0.00000000000E+00 -0.18934278324E+04  0.18934278324E+04  0.25500000920E-02 0.  1.
    10030    2    1    2    0    0  0.00000000000E+00  0.00000000000E+00 -0.10893855649E+04  0.26974700998E+04  0.24677082547E+04 0.  0.
        4    1    3    3  502    0  0.22385658092E+03 -0.36074215562E+03  0.72168413242E+03  0.83730297476E+03  0.12699999809E+01 0. -1.
       -4    1    3    3    0  502 -0.22385658092E+03  0.36074215562E+03 -0.18110696973E+04  0.18601671251E+04  0.12699999809E+01 0.  1.
</event>
<event>
 5   0  0.7681342E-06  0.2317201E+04  0.7818609E-02  0.8471170E-01
       -1   -1    0    0    0  501  0.00000000000E+00  0.00000000000E+00  0.91435432638E+03  0.91435432639E+03  0.50400001928E-02 0.  1.
        1   -1    0    0  501    0  0.00000000000E+00  0.00000000000E+00 -0.14680902743E+04  0.14680902743E+04  0.50400001928E-02 0. -1.
    10030    2    1    2    0    0  0.00000000000E+00  0.00000000000E+00 -0.55373594788E+03  0.23824446007E+04  0.23172006334E+04 0.  0.
        2    1    3    3  502    0 -0.11667244600E+02  0.32328404619E+03 -0.14207149263E+04  0.14570791333E+04  0.25500000920E-02 0. -1.
       -2    1    3    3    0  502  0.11667244600E+02 -0.32328404619E+03  0.86697897839E+03  0.92536546731E+03  0.25500000920E-02 0.  1.
</event>
<event>
 5   0  0.1904553E-05  0.2845471E+04  0.7818609E-02  0.8289289E-01
        2   -1    0    0  501    0  0.00000000000E+00  0.00000000000E+00  0.28075114446E+04  0.28075114446E+04  0.25500000920E-02 0.  1.
       -2   -1    0    0    0  501  0.00000000000E+00  0.00000000000E+00 -0.72098592843E+03  0.72098592843E+03  0.25500000920E-02 0. -1.
    10030    2    1    2    0    0  0.00000000000E+00  0.00000000000E+00  0.20865255161E+04  0.35284973730E+04  0.28454709596E+04 0.  0.
        1    1    3    3  502    0  0.44673229743E+03  0.78479395865E+03 -0.32005091301E+03  0.95807300872E+03  0.50400001928E-02 0. -1.
       -1    1    3    3    0  502 -0.44673229743E+03 -0.78479395865E+03  0.24065764291E+04  0.25704243643E+04  0.50400001928E-02 0.  1.
</event>
<event>
 5   0  0.7555871E-06  0.2741090E+04  0.7818609E-02  0.8321794E-01
        1   -1    0    0  501    0  0.00000000000E+00  0.00000000000E+00  0.15625334829E+04  0.15625334829E+04  0.50400001928E-02 0.  1.
       -1   -1    0    0    0  501  0.00000000000E+00  0.00000000000E+00 -0.12021465601E+04  0.12021465601E+04  0.50400001928E-02 0. -1.
    10030    2    1    2    0    0  0.00000000000E+00  0.00000000000E+00  0.36038692284E+03  0.27646800430E+04  0.27410904775E+04 0.  0.
        3    1    3    3  502    0  0.16687052541E+03  0.62423059260E+03 -0.10388788506E+04  0.12234291485E+04  0.10100000352E+00 0. -1.
       -3    1    3    3    0  502 -0.16687052541E+03 -0.62423059260E+03  0.13992657734E+04  0.15412508945E+04  0.10100000352E+00 0.  1.
</event>
<event>
 5   0  0.7388013E-06  0.2803124E+04  0.7818609E-02  0.8302299E-01
        1   -1    0    0  501    0  0.00000000000E+00  0.00000000000E+00  0.15056536593E+04  0.15056536593E+04  0.50400001928E-02 0. -1.
       -1   -1    0    0    0  501  0.00000000000E+00  0.00000000000E+00 -0.13046666477E+04  0.13046666477E+04  0.50400001928E-02 0.  1.
    10030    2    1    2    0    0  0.00000000000E+00  0.00000000000E+00  0.20098701156E+03  0.28103203070E+04  0.28031240517E+04 0.  0.
        1    1    3    3  502    0  0.39433405110E+03  0.20091547796E+03 -0.12327738065E+04  0.13098082422E+04  0.50400001928E-02 0.  1.
       -1    1    3    3    0  502 -0.39433405110E+03 -0.20091547796E+03  0.14337608181E+04  0.15005120648E+04  0.50400001928E-02 0. -1.
</event>
<event>
 5   0  0.7555871E-06  0.2311401E+04  0.7818609E-02  0.8473439E-01
        1   -1    0    0  501    0  0.00000000000E+00  0.00000000000E+00  0.15476061023E+04  0.15476061023E+04  0.50400001928E-02 0.  1.
       -1   -1    0    0    0  501  0.00000000000E+00  0.00000000000E+00 -0.86303832119E+03  0.86303832120E+03  0.50400001928E-02 0. -1.
    10030    2    1    2    0    0  0.00000000000E+00  0.00000000000E+00  0.68456778107E+03  0.24106444235E+04  0.23114007635E+04 0.  0.
        3    1    3    3  502    0  0.93651701144E+03 -0.23277139897E+03 -0.32094237660E+03  0.10169811484E+04  0.10100000352E+00 0. -1.
       -3    1    3    3    0  502 -0.93651701144E+03  0.23277139897E+03  0.10055101577E+04  0.13936632751E+04  0.10100000352E+00 0.  1.
</event>
<event>
 5   0  0.1874272E-05  0.2800904E+04  0.7818609E-02  0.8302988E-01
        2   -1    0    0  501    0  0.00000000000E+00  0.00000000000E+00  0.17096959960E+04  0.17096959960E+04  0.25500000920E-02 0. -1.
       -2   -1    0    0    0  501  0.00000000000E+00  0.00000000000E+00 -0.11471430602E+04  0.11471430602E+04  0.25500000920E-02 0.  1.
    10030    2    1    2    0    0  0.00000000000E+00  0.00000000000E+00  0.56255293581E+03  0.28568390562E+04  0.28009040661E+04 0.  0.
        3    1    3    3  502    0 -0.98377046680E+02 -0.43637057629E+03  0.16348691659E+04  0.16949615107E+04  0.10100000352E+00 0. -1.
       -3    1    3    3    0  502  0.98377046680E+02  0.43637057629E+03 -0.10723162301E+04  0.11618775454E+04  0.10100000352E+00 0.  1.
</event>
<event>
 5   0  0.1832502E-05  0.2820540E+04  0.7818609E-02  0.8296920E-01
       -2   -1    0    0    0  501  0.00000000000E+00  0.00000000000E+00  0.11067744380E+04  0.11067744380E+04  0.25500000920E-02 0.  1.
        2   -1    0    0  501    0  0.00000000000E+00  0.00000000000E+00 -0.17969883601E+04  0.17969883601E+04  0.25500000920E-02 0. -1.
    10030    2    1    2    0    0  0.00000000000E+00  0.00000000000E+00 -0.69021392214E+03  0.29037627981E+04  0.28205395103E+04 0.  0.
        2    1    3    3  502    0 -0.37956053798E+03  0.13105304916E+04  0.22218197750E+02  0.13645695364E+04  0.25500000920E-02 0. -1.
       -2    1    3    3    0  502  0.37956053798E+03 -0.13105304916E+04 -0.71243211989E+03  0.15391932617E+04  0.25500000920E-02 0.  1.
</event>
<event>
 5   0  0.7509685E-06  0.2812653E+04  0.7818609E-02  0.8299351E-01
       -1   -1    0    0    0  501  0.00000000000E+00  0.00000000000E+00  0.21017632904E+04  0.21017632904E+04  0.50400001928E-02 0. -1.
        1   -1    0    0  501    0  0.00000000000E+00  0.00000000000E+00 -0.94099773642E+03  0.94099773644E+03  0.50400001928E-02 0.  1.
    10030    2    1    2    0    0  0.00000000000E+00  0.00000000000E+00  0.11607655539E+04  0.30427610268E+04  0.28126531949E+04 0.  0.
        4    1    3    3  502    0  0.39421518640E+03 -0.13397514063E+04  0.75949838992E+03  0.15897103073E+04  0.12699999809E+01 0. -1.
       -4    1    3    3    0  502 -0.39421518640E+03  0.13397514063E+04  0.40126716402E+03  0.14530507196E+04  0.12699999809E+01 0.  1.
</event>
<event>
 5   0  0.1904553E-05  0.2744979E+04  0.7818609E-02  0.8320557E-01
       -2   -1    0    0    0  501  0.00000000000E+00  0.00000000000E+00  0.10875551414E+04  0.10875551414E+04  0.25500000920E-02 0.  1.
        2   -1    0    0  501    0  0.00000000000E+00  0.00000000000E+00 -0.17320758971E+04  0.17320758971E+04  0.25500000920E-02 0. -1.
    10030    2    1    2    0    0  0.00000000000E+00  0.00000000000E+00 -0.64452075568E+03  0.28196310384E+04  0.27449794514E+04 0.  0.
        1    1    3    3  502    0 -0.56569622727E+03  0.20565215964E+03 -0.15892649314E+04  0.16994316857E+04  0.50400001928E-02 0. -1.
       -1    1    3    3    0  502  0.56569622727E+03 -0.20565215964E+03  0.94474417569E+03  0.11201993527E+04  0.50400001928E-02 0.  1.
</event>
<event>
 5   0  0.1814230E-05  0.2657956E+04  0.7818609E-02  0.8348777E-01
        2   -1    0    0  501    0  0.00000000000E+00  0.00000000000E+00  0.14184133511E+04  0.14184133511E+04  0.25500000920E-02 0. -1.
       -2   -1    0    0    0  501  0.00000000000E+00  0.00000000000E+00 -0.12451815259E+04  0.12451815259E+04  0.25500000920E-02 0.  1.
    10030    2    1    2    0    0  0.00000000000E+00  0.00000000000E+00  0.17323182516E+03  0.26635948770E+04  0.26579556812E+04 0.  0.
        5    1    3    3  502    0  0.93468566717E+03  0.75037819809E+03 -0.48858381007E+03  0.12943882594E+04  0.46999998093E+01 0.  1.
       -5    1    3    3    0  502 -0.93468566717E+03 -0.75037819809E+03  0.66181563523E+03  0.13692066176E+04  0.46999998093E+01 0. -1.
</event>
<event>
 5   0  0.7509685E-06  0.1846768E+04  0.7818609E-02  0.8681817E-01
        1   -1    0    0  501    0  0.00000000000E+00  0.00000000000E+00  0.13954701521E+04  0.13954701521E+04  0.50400001928E-02 0.  1.
       -1   -1    0    0    0  501  0.00000000000E+00  0.00000000000E+00 -0.61100409236E+03  0.61100409238E+03  0.50400001928E-02 0. -1.
    10030    2    1    2    0    0  0.00000000000E+00  0.00000000000E+00  0.78446605975E+03  0.20064742445E+04  0.18467679591E+04 0.  0.
        4    1    3    3  502    0 -0.73409394523E+03  0.50192434775E+03  0.66235882030E+03  0.11088475058E+04  0.12699999809E+01 0. -1.
       -4    1    3    3    0  502  0.73409394523E+03 -0.50192434775E+03  0.12210723945E+03  0.89762673875E+03  0.12699999809E+01 0.  1.
</event>
<event>
 5   0  0.1904553E-05  0.2357118E+04  0.7818609E-02  0.8455735E-01
        2   -1    0    0  501    0  0.00000000000E+00  0.00000000000E+00  0.10507181179E+04  0.10507181179E+04  0.25500000920E-02 0. -1.
       -2   -1    0    0    0  501  0.00000000000E+00  0.00000000000E+00 -0.13219538181E+04  0.13219538181E+04  0.25500000920E-02 0.  1.
    10030    2    1    2    0    0  0.00000000000E+00  0.00000000000E+00 -0.27123570018E+03  0.23726719360E+04  0.23571175853E+04 0.  0.
        1    1    3    3  502    0 -0.24330853122E+03 -0.10848531835E+04 -0.52921649412E+03  0.12313308121E+04  0.50400001928E-02 0.  1.
       -1    1    3    3    0  502  0.24330853122E+03  0.10848531835E+04  0.25798079394E+03  0.11413411239E+04  0.50400001928E-02 0. -1.
</event>
<event>
 5   0  0.7388013E-06  0.2840503E+04  0.7818609E-02  0.8290803E-01
       -1   -1    0    0    0  501  0.00000000000E+00  0.00000000000E+00  0.13701306095E+04  0.13701306095E+04  0.50400001928E-02 0. -1.
        1   -1    0    0  501    0  0.00000000000E+00  0.00000000000E+00 -0.14722054455E+04  0.14722054455E+04  0.50400001928E-02 0.  1.
    10030    2    1    2    0    0  0.00000000000E+00  0.00000000000E+00 -0.10207483600E+03  0.28423360550E+04  0.28405025924E+04 0.  0.
        1    1    3    3  502    0 -0.13408216775E+03 -0.14129332182E+04  0.14887265659E+01  0.14192816927E+04  0.50400001928E-02 0. -1.
       -1    1    3    3    0  502  0.13408216775E+03  0.14129332182E+04 -0.10356356257E+03  0.14230543624E+04  0.50400001928E-02 0.  1.
</event>
<event>
 5   0  0.1904553E-05  0.2816206E+04  0.7818609E-02  0.8298255E-01
        2   -1    0    0  501    0  0.00000000000E+00  0.00000000000E+00  0.13492379408E+04  0.13492379408E+04  0.25500000920E-02 0. -1.
       -2   -1    0    0    0  501  0.00000000000E+00  0.00000000000E+00 -0.14695364164E+04  0.14695364164E+04  0.25500000920E-02 0.  1.
    10030    2    1    2    0    0  0.00000000000E+00  0.00000000000E+00 -0.12029847564E+03  0.28187743572E+04  0.28162061632E+04 0.  0.
        1    1    3    3  502    0 -0.13975193722E+04  0.52192311652E+02 -0.22452401403E+03  0.14164022967E+04  0.50400001928E-02 0.  1.
       -1    1    3    3    0  502  0.13975193722E+04 -0.52192311652E+02  0.10422553839E+03  0.14023720605E+04  0.50400001928E-02 0. -1.
</event>
<event>
 5   0  0.7509685E-06  0.2850927E+04  0.7818609E-02  0.8287630E-01
       -1   -1    0    0    0  501  0.00000000000E+00  0.00000000000E+00  0.73922900688E+03  0.73922900690E+03  0.50400001928E-02 0.  1.
        1   -1    0    0  501    0  0.00000000000E+00  0.00000000000E+00 -0.27487370910E+04  0.27487370910E+04  0.50400001928E-02 0. -1.
    10030    2    1    2    0    0  0.00000000000E+00  0.00000000000E+00 -0.20095080842E+04  0.34879660979E+04  0.28509270001E+04 0.  0.
        4    1    3    3  502    0 -0.10592450279E+04 -0.19291467067E+03  0.13819200983E+03  0.10855020699E+04  0.12699999809E+01 0.  1.
       -4    1    3    3    0  502  0.10592450279E+04  0.19291467067E+03 -0.21477000940E+04  0.24024640280E+04  0.12699999809E+01 0. -1.
</event>
<event>
 5   0  0.1832502E-05  0.2800312E+04  0.7818609E-02  0.8303172E-01
        2   -1    0    0  501    0  0.00000000000E+00  0.00000000000E+00  0.20534640986E+04  0.20534640986E+04  0.25500000920E-02 0.  1.
       -2   -1    0    0    0  501  0.00000000000E+00  0.00000000000E+00 -0.95469735734E+03  0.95469735735E+03  0.25500000920E-02 0. -1.
    10030    2    1    2    0    0  0.00000000000E+00  0.00000000000E+00  0.10987667413E+04  0.30081614560E+04  0.28003119457E+04 0.  0.
        2    1    3    3  502    0  0.70562207463E+03  0.75816107794E+03  0.15615084890E+04  0.18737714625E+04  0.25500000920E-02 0.  1.
       -2    1    3    3    0  502 -0.70562207463E+03 -0.75816107794E+03 -0.46274174771E+03  0.11343899935E+04  0.25500000920E-02 0. -1.
</event>
<event>
 5   0  0.1832502E-05  0.2827830E+04  0.7818609E-02  0.8294680E-01
        2   -1    0    0  501    0  0.00000000000E+00  0.00000000000E+00  0.21044182030E+04  0.21044182030E+04  0.25500000920E-02 0. -1.
       -2   -1    0    0    0  501  0.00000000000E+00  0.00000000000E+00 -0.94998037180E+03  0.94998037180E+03  0.25500000920E-02 0.  1.
    10030    2    1    2    0    0  0.00000000000E+00  0.00000000000E+00  0.11544378312E+04  0.30543985748E+04  0.28278302544E+04 0.  0.
        2    1    3    3  502    0  0.41606421523E+03 -0.16093927501E+03  0.20264115859E+04  0.20749348898E+04  0.25500000920E-02 0. -1.
       -2    1    3    3    0  502 -0.41606421523E+03  0.16093927501E+03 -0.87197375468E+03  0.97946368503E+03  0.25500000920E-02 0.  1.
</event>
<event>
 5   0  0.7509685E-06  0.2927764E+04  0.7818609E-02  0.8264665E-01
       -1   -1    0    0    0  501  0.00000000000E+00  0.00000000000E+00  0.11228671315E+04  0.11228671315E+04  0.50400001928E-02 0.  1.
        1   -1    0    0  501    0  0.00000000000E+00  0.00000000000E+00 -0.19084629623E+04  0.19084629623E+04  0.50400001928E-02 0. -1.
    10030    2    1    2    0    0  0.00000000000E+00  0.00000000000E+00 -0.78559583078E+03  0.30313300938E+04  0.29277638785E+04 0.  0.
        4    1    3    3  502    0 -0.13547644768E+03  0.18425053730E+03  0.11042561845E+04  0.11276903220E+04  0.12699999809E+01 0.  1.
       -4    1    3    3    0  502  0.13547644768E+03 -0.18425053730E+03 -0.18898520153E+04  0.19036397718E+04  0.12699999809E+01 0. -1.
</event>
<event>
 5   0  0.7613444E-06  0.2792286E+04  0.7818609E-02  0.8305667E-01
       -1   -1    0    0    0  501  0.00000000000E+00  0.00000000000E+00  0.75923188536E+03  0.75923188537E+03  0.50400001928E-02 0. -1.
        1   -1    0    0  501    0  0.00000000000E+00  0.00000000000E+00 -0.25673524254E+04  0.25673524254E+04  0.50400001928E-02 0.  1.
    10030    2    1    2    0    0  0.00000000000E+00  0.00000000000E+00 -0.18081205400E+04  0.33265843107E+04  0.27922863910E+04 0.  0.
        5    1    3    3  502    0  0.53547326061E+03  0.68578254691E+03 -0.22048486628E+04  0.23703183394E+04  0.46999998093E+01 0.  1.
       -5    1    3    3    0  502 -0.53547326061E+03 -0.68578254691E+03  0.39672812278E+03  0.95626597131E+03  0.46999998093E+01 0. -1.
</event>
<event>
 5   0  0.7681342E-06  0.2360270E+04  0.7818609E-02  0.8454529E-01
       -1   -1    0    0    0  501  0.00000000000E+00  0.00000000000E+00  0.11330018221E+04  0.11330018221E+04  0.50400001928E-02 0.  1.
        1   -1    0    0  501    0  0.00000000000E+00  0.00000000000E+00 -0.12292292124E+04  0.12292292124E+04  0.50400001928E-02 0. -1.
    10030    2    1    2    0    0  0.00000000000E+00  0.00000000000E+00 -0.96227390293E+02  0.23622310345E+04  0.23602702704E+04 0.  0.
        2    1    3    3  502    0  0.23487359361E+03  0.49455032607E+03 -0.10944358294E+04  0.12237382950E+04  0.25500000920E-02 0. -1.
       -2    1    3    3    0  502 -0.23487359361E+03 -0.49455032607E+03  0.99820843908E+03  0.11384927395E+04  0.25500000920E-02 0.  1.
</event>
<event>
 5   0  0.1874272E-05  0.2823861E+04  0.7818609E-02  0.8295898E-01
        2   -1    0    0  501    0  0.00000000000E+00  0.00000000000E+00  0.16902576301E+04  0.16902576301E+04  0.25500000920E-02 0. -1.
       -2   -1    0    0    0  501  0.00000000000E+00  0.00000000000E+00 -0.11794344251E+04  0.11794344251E+04  0.25500000920E-02 0.  1.
    10030    2    1    2    0    0  0.00000000000E+00  0.00000000000E+00  0.51082320494E+03  0.28696920552E+04  0.28238612121E+04 0.  0.
        3    1    3    3  502    0 -0.68121602223E+03  0.54336960728E+03 -0.87358373326E+03  0.12338777688E+04  0.10100000352E+00 0.  1.
       -3    1    3    3    0  502  0.68121602223E+03 -0.54336960728E+03  0.13844069382E+04  0.16358142865E+04  0.10100000352E+00 0. -1.
</event>
<event>
 5   0  0.7681342E-06  0.2767434E+04  0.7818609E-02  0.8313451E-01
        1   -1    0    0  501    0  0.00000000000E+00  0.00000000000E+00  0.21402620925E+04  0.21402620925E+04  0.50400001928E-02 0.  1.
       -1   -1    0    0    0  501  0.00000000000E+00  0.00000000000E+00 -0.89459704546E+03  0.89459704547E+03  0.50400001928E-02 0. -1.
    10030    2    1    2    0    0  0.00000000000E+00  0.00000000000E+00  0.12456650470E+04  0.30348591380E+04  0.27674335724E+04 0.  0.
        2    1    3    3  502    0 -0.12475699705E+04  0.25211767390E+02 -0.32955584818E+02  0.12482598027E+04  0.25500000920E-02 0. -1.
       -2    1    3    3    0  502  0.12475699705E+04 -0.25211767390E+02  0.12786206318E+04  0.17865993352E+04  0.25500000920E-02 0.  1.
</event>
<event>
 5   0  0.7388013E-06  0.2795891E+04  0.7818609E-02  0.8304545E-01
       -1   -1    0    0    0  501  0.00000000000E+00  0.00000000000E+00  0.14296953253E+04  0.14296953253E+04  0.50400001928E-02 0.  1.
        1   -1    0    0  501    0  0.00000000000E+00  0.00000000000E+00 -0.13669004061E+04  0.13669004061E+04  0.50400001928E-02 0. -1.
    10030    2    1    2    0    0  0.00000000000E+00  0.00000000000E+00  0.62794919220E+02  0.27965957314E+04  0.27958906422E+04 0.  0.
        1    1    3    3  502    0  0.75225774563E+02 -0.19346103717E+03  0.14141950214E+04  0.14293472806E+04  0.50400001928E-02 0.  1.
       -1    1    3    3    0  502 -0.75225774563E+02  0.19346103717E+03 -0.13514001022E+04  0.13672484508E+04  0.50400001928E-02 0. -1.
</event>
<event>
 5   0  0.1904553E-05  0.2442175E+04  0.7818609E-02  0.8423880E-01
       -2   -1    0    0    0  501  0.00000000000E+00  0.00000000000E+00  0.14392483794E+04  0.14392483794E+04  0.25500000920E-02 0.  1.
        2   -1    0    0  501    0  0.00000000000E+00  0.00000000000E+00 -0.10359955130E+04  0.10359955130E+04  0.25500000920E-02 0. -1.
    10030    2    1    2    0    0  0.00000000000E+00  0.00000000000E+00  0.40325286646E+03  0.24752438924E+04  0.24421751478E+04 0.  0.
        1    1    3    3  502    0  0.25003828944E+03  0.16682002487E+03 -0.99791376973E+03  0.10421995772E+04  0.50400001928E-02 0. -1.
       -1    1    3    3    0  502 -0.25003828944E+03 -0.16682002487E+03  0.14011666362E+04  0.14330443152E+04  0.50400001928E-02 0.  1.
</event>
<event>
 5   0  0.6288000E-06  0.2794570E+04  0.7818609E-02  0.8304956E-01
        3   -1    0    0  501    0  0.00000000000E+00  0.00000000000E+00  0.82271045996E+03  0.82271046616E+03  0.10100000352E+00 0. -1.
       -3   -1    0    0    0  501  0.00000000000E+00  0.00000000000E+00 -0.23731383598E+04  0.23731383619E+04  0.10100000352E+00 0.  1.
    10030    2    1    2    0    0  0.00000000000E+00  0.00000000000E+00 -0.15504278998E+04  0.31958488281E+04  0.27945702817E+04 0.  0.
        1    1    3    3  502    0 -0.27750790802E+03 -0.46199685056E+03  0.69906850044E+03  0.88269388651E+03  0.50400001928E-02 0. -1.
       -1    1    3    3    0  502  0.27750790802E+03  0.46199685056E+03 -0.22494964002E+04  0.23131549416E+04  0.50400001928E-02 0.  1.
</event>
<event>
 5   0  0.7613444E-06  0.2836399E+04  0.7818609E-02  0.8292056E-01
        1   -1    0    0  501    0  0.00000000000E+00  0.00000000000E+00  0.14530932824E+04  0.14530932824E+04  0.50400001928E-02 0.  1.
       -1   -1    0    0    0  501  0.00000000000E+00  0.00000000000E+00 -0.13841432191E+04  0.13841432191E+04  0.50400001928E-02 0. -1.
    10030    2    1    2    0    0  0.00000000000E+00  0.00000000000E+00  0.68950063278E+02  0.28372365015E+04  0.28363985711E+04 0.  0.
        5    1    3    3  502    0 -0.96575911552E+03 -0.46660259958E+03  0.96257371934E+03  0.14411727552E+04  0.46999998093E+01 0. -1.
       -5    1    3    3    0  502  0.96575911552E+03  0.46660259958E+03 -0.89362365606E+03  0.13960637463E+04  0.46999998093E+01 0.  1.
</event>
<event>
 5   0  0.1832502E-05  0.2766198E+04  0.7818609E-02  0.8313840E-01
        2   -1    0    0  501    0  0.00000000000E+00  0.00000000000E+00  0.23249698296E+04  0.23249698296E+04  0.25500000920E-02 0.  1.
       -2   -1    0    0    0  501  0.00000000000E+00  0.00000000000E+00 -0.82279040393E+03  0.82279040394E+03  0.25500000920E-02 0. -1.
    10030    2    1    2    0    0  0.00000000000E+00  0.00000000000E+00  0.15021794257E+04  0.31477602336E+04  0.27661980155E+04 0.  0.
        2    1    3    3  502    0  0.90510490337E+03 -0.69279252341E+03  0.16426014078E+04  0.19993288252E+04  0.25500000920E-02 0.  1.
       -2    1    3    3    0  502 -0.90510490337E+03  0.69279252341E+03 -0.14042198208E+03  0.11484314083E+04  0.25500000920E-02 0. -1.
</event>
<event>
 5   0  0.1832502E-05  0.2810962E+04  0.7818609E-02  0.8299873E-01
        2   -1    0    0  501    0  0.00000000000E+00  0.00000000000E+00  0.11233404499E+04  0.11233404499E+04  0.25500000920E-02 0. -1.
       -2   -1    0    0    0  501  0.00000000000E+00  0.00000000000E+00 -0.17584849456E+04  0.17584849456E+04  0.25500000920E-02 0.  1.
    10030    2    1    2    0    0  0.00000000000E+00  0.00000000000E+00 -0.63514449570E+03  0.28818253954E+04  0.28109623048E+04 0.  0.
        2    1    3    3  502    0 -0.11798260660E+04 -0.51193499709E+03  0.26355997143E+03  0.13128331371E+04  0.25500000920E-02 0. -1.
       -2    1    3    3    0  502  0.11798260660E+04  0.51193499709E+03 -0.89870446712E+03  0.15689922583E+04  0.25500000920E-02 0.  1.
</event>
<event>
 5   0  0.7555871E-06  0.2993907E+04  0.7818609E-02  0.8245473E-01
        1   -1    0    0  501    0  0.00000000000E+00  0.00000000000E+00  0.22334868481E+04  0.22334868481E+04  0.50400001928E-02 0. -1.
       -1   -1    0    0    0  501  0.00000000000E+00  0.00000000000E+00 -0.10033054934E+04  0.10033054934E+04  0.50400001928E-02 0.  1.
    10030    2    1    2    0    0  0.00000000000E+00  0.00000000000E+00  0.12301813547E+04  0.32367923415E+04  0.29939068951E+04 0.  0.
        3    1    3    3  502    0 -0.13765549962E+04 -0.33358871103E+03  0.11388343352E+04  0.18174511655E+04  0.10100000352E+00 0. -1.
       -3    1    3    3    0  502  0.13765549962E+04  0.33358871103E+03  0.91347019537E+02  0.14193411760E+04  0.10100000352E+00 0.  1.
</event>
<event>
 5   0  0.1814230E-05  0.2861744E+04  0.7818609E-02  0.8284352E-01
        2   -1    0    0  501    0  0.00000000000E+00  0.00000000000E+00  0.22785748606E+04  0.22785748606E+04  0.25500000920E-02 0.  1.
       -2   -1    0    0    0  501  0.00000000000E+00  0.00000000000E+00 -0.89854156861E+03  0.89854156861E+03  0.25500000920E-02 0. -1.
    10030    2    1    2    0    0  0.00000000000E+00  0.00000000000E+00  0.13800332920E+04  0.31771164292E+04  0.28617436848E+04 0.  0.
        5    1    3    3  502    0 -0.19343003571E+03 -0.13472619794E+04  0.11800705124E+04  0.18014212511E+04  0.46999998093E+01 0.  1.
       -5    1    3    3    0  502  0.19343003571E+03  0.13472619794E+04  0.19996277957E+03  0.13756951781E+04  0.46999998093E+01 0. -1.
</event>
<event>
 5   0  0.7509685E-06  0.2876961E+04  0.7818609E-02  0.8279765E-01
        1   -1    0    0  501    0  0.00000000000E+00  0.00000000000E+00  0.21950142753E+04  0.21950142753E+04  0.50400001928E-02 0. -1.
       -1   -1    0    0    0  501  0.00000000000E+00  0.00000000000E+00 -0.94269399991E+03  0.94269399992E+03  0.50400001928E-02 0.  1.
    10030    2    1    2    0    0  0.00000000000E+00  0.00000000000E+00  0.12523202754E+04  0.31377082753E+04  0.28769614437E+04 0.  0.
        4    1    3    3  502    0 -0.13250733540E+04 -0.51747540338E+03  0.39320091887E+03  0.14758755917E+04  0.12699999809E+01 0.  1.
       -4    1    3    3    0  502  0.13250733540E+04  0.51747540338E+03  0.85911935656E+03  0.16618326836E+04  0.12699999809E+01 0. -1.
</event>
<event>
 5   0  0.1832502E-05  0.2521199E+04  0.7818609E-02  0.8395472E-01
        2   -1    0    0  501    0  0.00000000000E+00  0.00000000000E+00  0.15232457201E+04  0.15232457201E+04  0.25500000920E-02 0.  1.
       -2   -1    0    0    0  501  0.00000000000E+00  0.00000000000E+00 -0.10432402900E+04  0.10432402900E+04  0.25500000920E-02 0. -1.
    10030    2    1    2    0    0  0.00000000000E+00  0.00000000000E+00  0.48000543016E+03  0.25664860101E+04  0.25211991645E+04 0.  0.
        2    1    3    3  502    0  0.98816673911E+03 -0.90198081223E+02  0.10314657878E+04  0.14312689718E+04  0.25500000920E-02 0.  1.
       -2    1    3    3    0  502 -0.98816673911E+03  0.90198081223E+02 -0.55146035763E+03  0.11352170384E+04  0.25500000920E-02 0. -1.
</event>
<event>
 5   0  0.7613444E-06  0.2751279E+04  0.7818609E-02  0.8318556E-01
       -1   -1    0    0    0  501  0.00000000000E+00  0.00000000000E+00  0.97548380262E+03  0.97548380263E+03  0.50400001928E-02 0.  1.
        1   -1    0    0  501    0  0.00000000000E+00  0.00000000000E+00 -0.19399441200E+04  0.19399441200E+04  0.50400001928E-02 0. -1.
    10030    2    1    2    0    0  0.00000000000E+00  0.00000000000E+00 -0.96446031737E+03  0.29154279226E+04  0.27512790241E+04 0.  0.
        5    1    3    3  502    0  0.78430184043E+03 -0.82145428624E+03  0.34025209903E+03  0.11856264598E+04  0.46999998093E+01 0.  1.
       -5    1    3    3    0  502 -0.78430184043E+03  0.82145428624E+03 -0.13047124164E+04  0.17298014628E+04  0.46999998093E+01 0. -1.
</event>
<event>
 5   0  0.6288000E-06  0.2745454E+04  0.7818609E-02  0.8320406E-01
        3   -1    0    0  501    0  0.00000000000E+00  0.00000000000E+00  0.21172472843E+04  0.21172472867E+04  0.10100000352E+00 0.  1.
       -3   -1    0    0    0  501  0.00000000000E+00  0.00000000000E+00 -0.89001363131E+03  0.89001363704E+03  0.10100000352E+00 0. -1.
    10030    2    1    2    0    0  0.00000000000E+00  0.00000000000E+00  0.12272336530E+04  0.30072609238E+04  0.27454536646E+04 0.  0.
        1    1    3    3  502    0  0.12236349865E+04 -0.60340735852E+03  0.77972176093E+03  0.15714162545E+04  0.50400001928E-02 0. -1.
       -1    1    3    3    0  502 -0.12236349865E+04  0.60340735852E+03  0.44751189210E+03  0.14358446692E+04  0.50400001928E-02 0.  1.
</event>
<event>
 5   0  0.7681342E-06  0.2985343E+04  0.7818609E-02  0.8247929E-01
       -1   -1    0    0    0  501  0.00000000000E+00  0.00000000000E+00  0.12882480962E+04  0.12882480962E+04  0.50400001928E-02 0.  1.
        1   -1    0    0  501    0  0.00000000000E+00  0.00000000000E+00 -0.17295334327E+04  0.17295334327E+04  0.50400001928E-02 0. -1.
    10030    2    1    2    0    0  0.00000000000E+00  0.00000000000E+00 -0.44128533649E+03  0.30177815289E+04  0.29853429633E+04 0.  0.
        2    1    3    3  502    0 -0.56605698667E+03  0.12942707790E+04 -0.70807588471E+03  0.15801673393E+04  0.25500000920E-02 0.  1.
       -2    1    3    3    0  502  0.56605698667E+03 -0.12942707790E+04  0.26679054822E+03  0.14376141897E+04  0.25500000920E-02 0. -1.
</event>
<event>
 5   0  0.7613444E-06  0.2782531E+04  0.7818609E-02  0.8308712E-01
        1   -1    0    0  501    0  0.00000000000E+00  0.00000000000E+00  0.15009696985E+04  0.15009696985E+04  0.50400001928E-02 0. -1.
       -1   -1    0    0    0  501  0.00000000000E+00  0.00000000000E+00 -0.12895792062E+04  0.12895792062E+04  0.50400001928E-02 0.  1.
    10030    2    1    2    0    0  0.00000000000E+00  0.00000000000E+00  0.21139049232E+03  0.27905489046E+04  0.27825307274E+04 0.  0.
        5    1    3    3  502    0  0.13215164805E+04 -0.25252892241E+03 -0.24947291932E+03  0.13683696476E+04  0.46999998093E+01 0.  1.
       -5    1    3    3    0  502 -0.13215164805E+04  0.25252892241E+03  0.46086341163E+03  0.14221792570E+04  0.46999998093E+01 0. -1.
</event>
<event>
 5   0  0.1832502E-05  0.2306486E+04  0.7818609E-02  0.8475368E-01
        2   -1    0    0  501    0  0.00000000000E+00  0.00000000000E+00  0.81028811109E+03  0.81028811109E+03  0.25500000920E-02 0.  1.
       -2   -1    0    0    0  501  0.00000000000E+00  0.00000000000E+00 -0.16413532414E+04  0.16413532414E+04  0.25500000920E-02 0. -1.
    10030    2    1    2    0    0  0.00000000000E+00  0.00000000000E+00 -0.83106513028E+03  0.24516413525E+04  0.23064856536E+04 0.  0.
        2    1    3    3  502    0 -0.37065921999E+02 -0.60181255560E+03 -0.14604654865E+04  0.15800353388E+04  0.25500000920E-02 0. -1.
       -2    1    3    3    0  502  0.37065921999E+02  0.60181255560E+03  0.62940035621E+03  0.87160601366E+03  0.25500000920E-02 0.  1.
</event>
<event>
 5   0  0.1832502E-05  0.2732667E+04  0.7818609E-02  0.8324483E-01
       -2   -1    0    0    0  501  0.00000000000E+00  0.00000000000E+00  0.19632180610E+04  0.19632180610E+04  0.25500000920E-02 0. -1.
        2   -1    0    0  501    0  0.00000000000E+00  0.00000000000E+00 -0.95092201498E+03  0.95092201499E+03  0.25500000920E-02 0.  1.
    10030    2    1    2    0    0  0.00000000000E+00  0.00000000000E+00  0.10122960460E+04  0.29141400760E+04  0.27326670302E+04 0.  0.
        2    1    3    3  502    0  0.59490490710E+03 -0.40342175089E+03  0.17452977176E+04  0.18875182332E+04  0.25500000920E-02 0. -1.
       -2    1    3    3    0  502 -0.59490490710E+03  0.40342175089E+03 -0.73300167157E+03  0.10266218428E+04  0.25500000920E-02 0.  1.
</event>
<event>
 5   0  0.7509685E-06  0.2825760E+04  0.7818609E-02  0.8295315E-01
       -1   -1    0    0    0  501  0.00000000000E+00  0.00000000000E+00  0.83742653585E+03  0.83742653586E+03  0.50400001928E-02 0.  1.
        1   -1    0    0  501    0  0.00000000000E+00  0.00000000000E+00 -0.23837668506E+04  0.23837668506E+04  0.50400001928E-02 0. -1.
    10030    2    1    2    0    0  0.00000000000E+00  0.00000000000E+00 -0.15463403148E+04  0.32211933865E+04  0.28257598030E+04 0.  0.
        4    1    3    3  502    0  0.57635217356E+03 -0.10303819409E+04  0.11155696433E+03  0.11858816725E+04  0.12699999809E+01 0. -1.
       -4    1    3    3    0  502 -0.57635217356E+03  0.10303819409E+04 -0.16578972791E+04  0.20353117140E+04  0.12699999809E+01 0.  1.
</event>
<event>
 5   0  0.1923559E-05  0.2787247E+04  0.7818609E-02  0.8307239E-01
        2   -1    0    0  501    0  0.00000000000E+00  0.00000000000E+00  0.25482334231E+04  0.25482334231E+04  0.25500000920E-02 0.  1.
       -2   -1    0    0    0  501  0.00000000000E+00  0.00000000000E+00 -0.76216948914E+03  0.76216948915E+03  0.25500000920E-02 0. -1.
    10030    2    1    2    0    0  0.00000000000E+00  0.00000000000E+00  0.17860639340E+04  0.33104029123E+04  0.27872465024E+04 0.  0.
        4    1    3    3  502    0  0.27494296318E+03  0.80911359709E+03  0.22005373187E+04  0.23606407075E+04  0.12699999809E+01 0.  1.
       -4    1    3    3    0  502 -0.27494296318E+03 -0.80911359709E+03 -0.41447338475E+03  0.94976220475E+03  0.12699999809E+01 0. -1.
</event>
<event>
 5   0  0.6288000E-06  0.2792452E+04  0.7818609E-02  0.8305615E-01
       -3   -1    0    0    0  501  0.00000000000E+00  0.00000000000E+00  0.13772128855E+04  0.13772128892E+04  0.10100000352E+00 0. -1.
        3   -1    0    0  501    0  0.00000000000E+00  0.00000000000E+00 -0.14155017891E+04  0.14155017927E+04  0.10100000352E+00 0.  1.
    10030    2    1    2    0    0  0.00000000000E+00  0.00000000000E+00 -0.38288903562E+02  0.27927146819E+04  0.27924521937E+04 0.  0.
        1    1    3    3  502    0  0.44524679868E+03 -0.13125412713E+04 -0.18779604367E+03  0.13986696017E+04  0.50400001928E-02 0.  1.
       -1    1    3    3    0  502 -0.44524679868E+03  0.13125412713E+04  0.14950714011E+03  0.13940450802E+04  0.50400001928E-02 0. -1.
</event>
<event>
 5   0  0.7555871E-06  0.2288782E+04  0.7818609E-02  0.8482357E-01
        1   -1    0    0  501    0  0.00000000000E+00  0.00000000000E+00  0.10454093504E+04  0.10454093504E+04  0.50400001928E-02 0.  1.
       -1   -1    0    0    0  501  0.00000000000E+00  0.00000000000E+00 -0.12527442311E+04  0.12527442311E+04  0.50400001928E-02 0. -1.
    10030    2    1    2    0    0  0.00000000000E+00  0.00000000000E+00 -0.20733488071E+03  0.22981535815E+04  0.22887818008E+04 0.  0.
        3    1    3    3  502    0  0.52485091134E+03  0.58776798445E+02  0.91572718514E+03  0.10571090194E+04  0.10100000352E+00 0.  1.
       -3    1    3    3    0  502 -0.52485091134E+03 -0.58776798445E+02 -0.11230620658E+04  0.12410445621E+04  0.10100000352E+00 0. -1.
</event>
<event>
 5   0  0.1832502E-05  0.2797797E+04  0.7818609E-02  0.8303953E-01
        2   -1    0    0  501    0  0.00000000000E+00  0.00000000000E+00  0.20286785612E+04  0.20286785612E+04  0.25500000920E-02 0. -1.
       -2   -1    0    0    0  501  0.00000000000E+00  0.00000000000E+00 -0.96462622298E+03  0.96462622298E+03  0.25500000920E-02 0.  1.
    10030    2    1    2    0    0  0.00000000000E+00  0.00000000000E+00  0.10640523382E+04  0.29933047841E+04  0.27977966603E+04 0.  0.
        2    1    3    3  502    0  0.10760514369E+04 -0.89384909732E+03  0.54056073207E+03  0.14996862367E+04  0.25500000920E-02 0.  1.
       -2    1    3    3    0  502 -0.10760514369E+04  0.89384909732E+03  0.52349160611E+03  0.14936185474E+04  0.25500000920E-02 0. -1.
</event>
<event>
 5   0  0.7388013E-06  0.2750264E+04  0.7818609E-02  0.8318878E-01
       -1   -1    0    0    0  501  0.00000000000E+00  0.00000000000E+00  0.78529193243E+03  0.78529193245E+03  0.50400001928E-02 0.  1.
        1   -1    0    0  501    0  0.00000000000E+00  0.00000000000E+00 -0.24080055480E+04  0.24080055480E+04  0.50400001928E-02 0. -1.
    10030    2    1    2    0    0  0.00000000000E+00  0.00000000000E+00 -0.16227136156E+04  0.31932974805E+04  0.27502635002E+04 0.  0.
        1    1    3    3  502    0  0.18036531606E+03 -0.90211857348E+02 -0.23907425086E+04  0.23992331210E+04  0.50400001928E-02 0. -1.
       -1    1    3    3    0  502 -0.18036531606E+03  0.90211857348E+02  0.76802889302E+03  0.79406435947E+03  0.50400001928E-02 0.  1.
</event>
<event>
 5   0  0.1832502E-05  0.2895135E+04  0.7818609E-02  0.8274326E-01
       -2   -1    0    0    0  501  0.00000000000E+00  0.00000000000E+00  0.14527870955E+04  0.14527870955E+04  0.25500000920E-02 0. -1.
        2   -1    0    0  501    0  0.00000000000E+00  0.00000000000E+00 -0.14423666321E+04  0.14423666321E+04  0.25500000920E-02 0.  1.
    10030    2    1    2    0    0  0.00000000000E+00  0.00000000000E+00  0.10420463398E+02  0.28951537277E+04  0.28951349745E+04 0.  0.
        2    1    3    3  502    0  0.10290262912E+02 -0.53303211164E+03 -0.13406151555E+04  0.14427328640E+04  0.25500000920E-02 0.  1.
       -2    1    3    3    0  502 -0.10290262912E+02  0.53303211164E+03  0.13510356189E+04  0.14524208637E+04  0.25500000920E-02 0. -1.
</event>
<event>
 5   0  0.1832502E-05  0.2695958E+04  0.7818609E-02  0.8336318E-01
       -2   -1    0    0    0  501  0.00000000000E+00  0.00000000000E+00  0.15197712184E+04  0.15197712184E+04  0.25500000920E-02 0.  1.
        2   -1    0    0  501    0  0.00000000000E+00  0.00000000000E+00 -0.11956059714E+04  0.11956059714E+04  0.25500000920E-02 0. -1.
    10030    2    1    2    0    0  0.00000000000E+00  0.00000000000E+00  0.32416524704E+03  0.27153771898E+04  0.26959581183E+04 0.  0.
        2    1    3    3  502    0 -0.73490727714E+03  0.91955691341E+03  0.82360412895E+03  0.14366618893E+04  0.25500000920E-02 0.  1.
       -2    1    3    3    0  502  0.73490727714E+03 -0.91955691341E+03 -0.49943888191E+03  0.12787153005E+04  0.25500000920E-02 0. -1.
</event>
<event>
 5   0  0.7555871E-06  0.2805108E+04  0.7818609E-02  0.8301684E-01
        1   -1    0    0  501    0  0.00000000000E+00  0.00000000000E+00  0.20322817150E+04  0.20322817150E+04  0.50400001928E-02 0.  1.
       -1   -1    0    0    0  501  0.00000000000E+00  0.00000000000E+00 -0.96795506213E+03  0.96795506214E+03  0.50400001928E-02 0. -1.
    10030    2    1    2    0    0  0.00000000000E+00  0.00000000000E+00  0.10643266529E+04  0.30002367772E+04  0.28051077511E+04 0.  0.
        3    1    3    3  502    0  0.22709249035E+03  0.10577479890E+03 -0.94383153972E+03  0.97651282267E+03  0.10100000352E+00 0. -1.
       -3    1    3    3    0  502 -0.22709249035E+03 -0.10577479890E+03  0.20081581926E+04  0.20237239545E+04  0.10100000352E+00 0.  1.
</event>
<event>
 5   0  0.7388013E-06  0.2816901E+04  0.7818609E-02  0.8298040E-01
       -1   -1    0    0    0  501  0.00000000000E+00  0.00000000000E+00  0.11390516325E+04  0.11390516326E+04  0.50400001928E-02 0. -1.
        1   -1    0    0  501    0  0.00000000000E+00  0.00000000000E+00 -0.17415659097E+04  0.17415659097E+04  0.50400001928E-02 0.  1.
    10030    2    1    2    0    0  0.00000000000E+00  0.00000000000E+00 -0.60251427714E+03  0.28806175422E+04  0.28169014840E+04 0.  0.
        1    1    3    3  502    0 -0.32643280775E+03  0.83342761102E+03  0.81080234924E+03  0.12077087440E+04  0.50400001928E-02 0. -1.
       -1    1    3    3    0  502  0.32643280775E+03 -0.83342761102E+03 -0.14133166264E+04  0.16729087982E+04  0.50400001928E-02 0.  1.
</event>
<event>
 5   0  0.7555871E-06  0.2804240E+04  0.7818609E-02  0.8301953E-01
        1   -1    0    0  501    0  0.00000000000E+00  0.00000000000E+00  0.15836032595E+04  0.15836032595E+04  0.50400001928E-02 0.  1.
       -1   -1    0    0    0  501  0.00000000000E+00  0.00000000000E+00 -0.12414350783E+04  0.12414350783E+04  0.50400001928E-02 0. -1.
    10030    2    1    2    0    0  0.00000000000E+00  0.00000000000E+00  0.34216818118E+03  0.28250383378E+04  0.28042401013E+04 0.  0.
        3    1    3    3  502    0 -0.67440232886E+03 -0.87765727995E+03  0.10381883315E+04  0.15175426927E+04  0.10100000352E+00 0. -1.
       -3    1    3    3    0  502  0.67440232886E+03  0.87765727995E+03 -0.69602015029E+03  0.13074956451E+04  0.10100000352E+00 0.  1.
</event>
<event>
 5   0  0.7509685E-06  0.2773116E+04  0.7818609E-02  0.8311664E-01
        1   -1    0    0  501    0  0.00000000000E+00  0.00000000000E+00  0.18369150333E+04  0.18369150333E+04  0.50400001928E-02 0.  1.
       -1   -1    0    0    0  501  0.00000000000E+00  0.00000000000E+00 -0.10466151921E+04  0.10466151921E+04  0.50400001928E-02 0. -1.
    10030    2    1    2    0    0  0.00000000000E+00  0.00000000000E+00  0.79029984121E+03  0.28835302254E+04  0.27731160672E+04 0.  0.
        4    1    3    3  502    0 -0.31428621488E+03  0.13285419926E+04  0.14313252596E+03  0.13726937691E+04  0.12699999809E+01 0.  1.
       -4    1    3    3    0  502  0.31428621488E+03 -0.13285419926E+04  0.64716731525E+03  0.15108364563E+04  0.12699999809E+01 0. -1.
</event>
<event>
 5   0  0.7509685E-06  0.2797158E+04  0.7818609E-02  0.8304151E-01
       -1   -1    0    0    0  501  0.00000000000E+00  0.00000000000E+00  0.67403123632E+03  0.67403123634E+03  0.50400001928E-02 0.  1.
        1   -1    0    0  501    0  0.00000000000E+00  0.00000000000E+00 -0.29019770536E+04  0.29019770536E+04  0.50400001928E-02 0. -1.
    10030    2    1    2    0    0  0.00000000000E+00  0.00000000000E+00 -0.22279458173E+04  0.35760082899E+04  0.27971579728E+04 0.  0.
        4    1    3    3  502    0 -0.32715979566E+02  0.15172230801E+03  0.66298603142E+03  0.68091268517E+03  0.12699999809E+01 0.  1.
       -4    1    3    3    0  502  0.32715979566E+02 -0.15172230801E+03 -0.28909318487E+04  0.28950956048E+04  0.12699999809E+01 0. -1.
</event>
<event>
 5   0  0.1904553E-05  0.2756554E+04  0.7818609E-02  0.8316885E-01
        2   -1    0    0  501    0  0.00000000000E+00  0.00000000000E+00  0.18896051909E+04  0.18896051909E+04  0.25500000920E-02 0. -1.
       -2   -1    0    0    0  501  0.00000000000E+00  0.00000000000E+00 -0.10053147362E+04  0.10053147362E+04  0.25500000920E-02 0.  1.
    10030    2    1    2    0    0  0.00000000000E+00  0.00000000000E+00  0.88429045470E+03  0.28949199271E+04  0.27565543303E+04 0.  0.
        1    1    3    3  502    0 -0.44086946111E+02  0.39472608463E+03 -0.94391167714E+03  0.10240710888E+04  0.50400001928E-02 0.  1.
       -1    1    3    3    0  502  0.44086946111E+02 -0.39472608463E+03  0.18282021318E+04  0.18708488383E+04  0.50400001928E-02 0. -1.
</event>
<event>
 5   0  0.1874272E-05  0.1782643E+04  0.7818609E-02  0.8715584E-01
       -2   -1    0    0    0  501  0.00000000000E+00  0.00000000000E+00  0.90258988283E+03  0.90258988283E+03  0.25500000920E-02 0.  1.
        2   -1    0    0  501    0  0.00000000000E+00  0.00000000000E+00 -0.88019428936E+03  0.88019428936E+03  0.25500000920E-02 0. -1.
    10030    2    1    2    0    0  0.00000000000E+00  0.00000000000E+00  0.22395593470E+02  0.17827841722E+04  0.17826434983E+04 0.  0.
        3    1    3    3  502    0  0.13141305102E+03 -0.42699978857E+03  0.78252790018E+03  0.90108164679E+03  0.10100000352E+00 0.  1.
       -3    1    3    3    0  502 -0.13141305102E+03  0.42699978857E+03 -0.76013230671E+03  0.88170252541E+03  0.10100000352E+00 0. -1.
</event>
<event>
 5   0  0.6288000E-06  0.2825832E+04  0.7818609E-02  0.8295293E-01
        3   -1    0    0  501    0  0.00000000000E+00  0.00000000000E+00  0.13129808864E+04  0.13129808903E+04  0.10100000352E+00 0. -1.
       -3   -1    0    0    0  501  0.00000000000E+00  0.00000000000E+00 -0.15204575103E+04  0.15204575136E+04  0.10100000352E+00 0.  1.
    10030    2    1    2    0    0  0.00000000000E+00  0.00000000000E+00 -0.20747662389E+03  0.28334384039E+04  0.28258320260E+04 0.  0.
        3    1    3    3  502    0 -0.11704614532E+03 -0.76822660600E+03 -0.12869399315E+04  0.15033583458E+04  0.10100000352E+00 0.  1.
       -3    1    3    3    0  502  0.11704614532E+03  0.76822660600E+03  0.10794633076E+04  0.13300800581E+04  0.10100000352E+00 0. -1.
</event>
<event>
 5   0  0.1832502E-05  0.2770574E+04  0.7818609E-02  0.8312463E-01
       -2   -1    0    0    0  501  0.00000000000E+00  0.00000000000E+00  0.13868752209E+04  0.13868752209E+04  0.25500000920E-02 0.  1.
        2   -1    0    0  501    0  0.00000000000E+00  0.00000000000E+00 -0.13837005385E+04  0.13837005385E+04  0.25500000920E-02 0. -1.
    10030    2    1    2    0    0  0.00000000000E+00  0.00000000000E+00  0.31746823811E+01  0.27705757594E+04  0.27705739405E+04 0.  0.
        2    1    3    3  502    0 -0.11406019972E+04 -0.62959290325E+03 -0.46922062511E+03  0.13847484013E+04  0.25500000920E-02 0. -1.
       -2    1    3    3    0  502  0.11406019972E+04  0.62959290325E+03  0.47239530750E+03  0.13858273581E+04  0.25500000920E-02 0.  1.
</event>
<event>
 5   0  0.1923559E-05  0.2803688E+04  0.7818609E-02  0.8302124E-01
       -2   -1    0    0    0  501  0.00000000000E+00  0.00000000000E+00  0.11238801004E+04  0.11238801004E+04  0.25500000920E-02 0. -1.
        2   -1    0    0  501    0  0.00000000000E+00  0.00000000000E+00 -0.17485548633E+04  0.17485548633E+04  0.25500000920E-02 0.  1.
    10030    2    1    2    0    0  0.00000000000E+00  0.00000000000E+00 -0.62467476286E+03  0.28724349637E+04  0.28036875827E+04 0.  0.
        4    1    3    3  502    0  0.12647922370E+04 -0.60453020631E+03 -0.30939834947E+03  0.14355783241E+04  0.12699999809E+01 0. -1.
       -4    1    3    3    0  502 -0.12647922370E+04  0.60453020631E+03 -0.31527641339E+03  0.14368566396E+04  0.12699999809E+01 0.  1.
</event>
<event>
 5   0  0.7509685E-06  0.2719812E+04  0.7818609E-02  0.8328605E-01
       -1   -1    0    0    0  501  0.00000000000E+00  0.00000000000E+00  0.11376057798E+04  0.11376057798E+04  0.50400001928E-02 0. -1.
        1   -1    0    0  501    0  0.00000000000E+00  0.00000000000E+00 -0.16256464800E+04  0.16256464800E+04  0.50400001928E-02 0.  1.
    10030    2    1    2    0    0  0.00000000000E+00  0.00000000000E+00 -0.48804070012E+03  0.27632522598E+04  0.27198123697E+04 0.  0.
        4    1    3    3  502    0 -0.55487131594E+03  0.11423721699E+04  0.25000401781E+03  0.12943724246E+04  0.12699999809E+01 0.  1.
       -4    1    3    3    0  502  0.55487131594E+03 -0.11423721699E+04 -0.73804471793E+03  0.14688798352E+04  0.12699999809E+01 0. -1.
</event>
<event>
 5   0  0.1814230E-05  0.2621138E+04  0.7818609E-02  0.8361056E-01
        2   -1    0    0  501    0  0.00000000000E+00  0.00000000000E+00  0.16435282801E+04  0.16435282801E+04  0.25500000920E-02 0.  1.
       -2   -1    0    0    0  501  0.00000000000E+00  0.00000000000E+00 -0.10450634592E+04  0.10450634592E+04  0.25500000920E-02 0. -1.
    10030    2    1    2    0    0  0.00000000000E+00  0.00000000000E+00  0.59846482084E+03  0.26885917393E+04  0.26211381877E+04 0.  0.
        5    1    3    3  502    0 -0.43064305330E+03 -0.10588734005E+04  0.95674574901E+03  0.14906544992E+04  0.46999998093E+01 0.  1.
       -5    1    3    3    0  502  0.43064305330E+03  0.10588734005E+04 -0.35828092817E+03  0.11979372401E+04  0.46999998093E+01 0. -1.
</event>
<event>
 5   0  0.1874272E-05  0.2833339E+04  0.7818609E-02  0.8292992E-01
        2   -1    0    0  501    0  0.00000000000E+00  0.00000000000E+00  0.20848150084E+04  0.20848150084E+04  0.25500000920E-02 0.  1.
       -2   -1    0    0    0  501  0.00000000000E+00  0.00000000000E+00 -0.96265221508E+03  0.96265221508E+03  0.25500000920E-02 0. -1.
    10030    2    1    2    0    0  0.00000000000E+00  0.00000000000E+00  0.11221627933E+04  0.30474672235E+04  0.28333385155E+04 0.  0.
        3    1    3    3  502    0  0.91997410454E+03  0.43895466323E+03  0.16192622811E+04  0.19133854538E+04  0.10100000352E+00 0.  1.
       -3    1    3    3    0  502 -0.91997410454E+03 -0.43895466323E+03 -0.49709948781E+03  0.11340817697E+04  0.10100000352E+00 0. -1.
</event>
<event>
 5   0  0.7509685E-06  0.2791974E+04  0.7818609E-02  0.8305764E-01
        1   -1    0    0  501    0  0.00000000000E+00  0.00000000000E+00  0.12184347970E+04  0.12184347970E+04  0.50400001928E-02 0.  1.
       -1   -1    0    0    0  501  0.00000000000E+00  0.00000000000E+00 -0.15994123140E+04  0.15994123140E+04  0.50400001928E-02 0. -1.
    10030    2    1    2    0    0  0.00000000000E+00  0.00000000000E+00 -0.38097751701E+03  0.28178471111E+04  0.27919739384E+04 0.  0.
        4    1    3    3  502    0 -0.91912010459E+03  0.57973068385E+03  0.69393586155E+03  0.12893479070E+04  0.12699999809E+01 0.  1.
       -4    1    3    3    0  502  0.91912010459E+03 -0.57973068385E+03 -0.10749133786E+04  0.15284992040E+04  0.12699999809E+01 0. -1.
</event>
<event>
 5   0  0.7555871E-06  0.2792270E+04  0.7818609E-02  0.8305672E-01
        1   -1    0    0  501    0  0.00000000000E+00  0.00000000000E+00  0.74926107285E+03  0.74926107287E+03  0.50400001928E-02 0.  1.
       -1   -1    0    0    0  501  0.00000000000E+00  0.00000000000E+00 -0.26014874376E+04  0.26014874376E+04  0.50400001928E-02 0. -1.
    10030    2    1    2    0    0  0.00000000000E+00  0.00000000000E+00 -0.18522263648E+04  0.33507485105E+04  0.27922702366E+04 0.  0.
        3    1    3    3  502    0  0.65851200373E+03  0.51693606335E+03  0.41464202066E+03  0.93423175291E+03  0.10100000352E+00 0.  1.
       -3    1    3    3    0  502 -0.65851200373E+03 -0.51693606335E+03 -0.22668683854E+04  0.24165167576E+04  0.10100000352E+00 0. -1.
</event>
<event>
 5   0  0.1923559E-05  0.2558605E+04  0.7818609E-02  0.8382399E-01
       -2   -1    0    0    0  501  0.00000000000E+00  0.00000000000E+00  0.53890695692E+03  0.53890695692E+03  0.25500000920E-02 0.  1.
        2   -1    0    0  501    0  0.00000000000E+00  0.00000000000E+00 -0.30369164306E+04  0.30369164306E+04  0.25500000920E-02 0. -1.
    10030    2    1    2    0    0  0.00000000000E+00  0.00000000000E+00 -0.24980094736E+04  0.35758233875E+04  0.25586053951E+04 0.  0.
        4    1    3    3  502    0  0.22108938343E+03 -0.95136265040E+03 -0.24037052791E+04  0.25945658769E+04  0.12699999809E+01 0. -1.
       -4    1    3    3    0  502 -0.22108938343E+03  0.95136265040E+03 -0.94304194564E+02  0.98125751058E+03  0.12699999809E+01 0.  1.
</event>
<event>
 5   0  0.1874272E-05  0.2730695E+04  0.7818609E-02  0.8325114E-01
        2   -1    0    0  501    0  0.00000000000E+00  0.00000000000E+00  0.14169053825E+04  0.14169053825E+04  0.25500000920E-02 0. -1.
       -2   -1    0    0    0  501  0.00000000000E+00  0.00000000000E+00 -0.13156654317E+04  0.13156654317E+04  0.25500000920E-02 0.  1.
    10030    2    1    2    0    0  0.00000000000E+00  0.00000000000E+00  0.10123995087E+03  0.27325708142E+04  0.27306947334E+04 0.  0.
        3    1    3    3  502    0 -0.92094981476E+03  0.26098375363E+03 -0.92365682531E+03  0.13301890926E+04  0.10100000352E+00 0.  1.
       -3    1    3    3    0  502  0.92094981476E+03 -0.26098375363E+03  0.10248967762E+04  0.14023817216E+04  0.10100000352E+00 0. -1.
</event>
<event>
 5   0  0.1832502E-05  0.2675525E+04  0.7818609E-02  0.8342990E-01
       -2   -1    0    0    0  501  0.00000000000E+00  0.00000000000E+00  0.11775181723E+04  0.11775181723E+04  0.25500000920E-02 0. -1.
        2   -1    0    0  501    0  0.00000000000E+00  0.00000000000E+00 -0.15198138874E+04  0.15198138874E+04  0.25500000920E-02 0.  1.
    10030    2    1    2    0    0  0.00000000000E+00  0.00000000000E+00 -0.34229571512E+03  0.26973320597E+04  0.26755249735E+04 0.  0.
        2    1    3    3  502    0  0.57924754192E+03 -0.55040249573E+03 -0.12528036293E+04  0.14859298623E+04  0.25500000920E-02 0.  1.
       -2    1    3    3    0  502 -0.57924754192E+03  0.55040249573E+03  0.91050791418E+03  0.12114021974E+04  0.25500000920E-02 0. -1.
</event>
<event>
 5   0  0.1832502E-05  0.2190648E+04  0.7818609E-02  0.8522331E-01
       -2   -1    0    0    0  501  0.00000000000E+00  0.00000000000E+00  0.56571181065E+03  0.56571181066E+03  0.25500000920E-02 0.  1.
        2   -1    0    0  501    0  0.00000000000E+00  0.00000000000E+00 -0.21207517902E+04  0.21207517902E+04  0.25500000920E-02 0. -1.
    10030    2    1    2    0    0  0.00000000000E+00  0.00000000000E+00 -0.15550399796E+04  0.26864636009E+04  0.21906476989E+04 0.  0.
        2    1    3    3  502    0 -0.65794325215E+03  0.64086904052E+00  0.29637570963E+03  0.72161506015E+03  0.25500000920E-02 0.  1.
       -2    1    3    3    0  502  0.65794325215E+03 -0.64086904052E+00 -0.18514156892E+04  0.19648485407E+04  0.25500000920E-02 0. -1.
</event>
<event>
 5   0  0.1923559E-05  0.2812485E+04  0.7818609E-02  0.8299403E-01
        2   -1    0    0  501    0  0.00000000000E+00  0.00000000000E+00  0.18658940100E+04  0.18658940100E+04  0.25500000920E-02 0. -1.
       -2   -1    0    0    0  501  0.00000000000E+00  0.00000000000E+00 -0.10598232226E+04  0.10598232226E+04  0.25500000920E-02 0.  1.
    10030    2    1    2    0    0  0.00000000000E+00  0.00000000000E+00  0.80607078743E+03  0.29257172327E+04  0.28124848819E+04 0.  0.
        4    1    3    3  502    0  0.61691602179E+03  0.54781693429E+03  0.15876668079E+04  0.17892390219E+04  0.12699999809E+01 0. -1.
       -4    1    3    3    0  502 -0.61691602179E+03 -0.54781693429E+03 -0.78159602052E+03  0.11364782108E+04  0.12699999809E+01 0.  1.
</event>
<event>
 5   0  0.1814230E-05  0.1956950E+04  0.7818609E-02  0.8627017E-01
        2   -1    0    0  501    0  0.00000000000E+00  0.00000000000E+00  0.16266039030E+04  0.16266039030E+04  0.25500000920E-02 0. -1.
       -2   -1    0    0    0  501  0.00000000000E+00  0.00000000000E+00 -0.58859648874E+03  0.58859648874E+03  0.25500000920E-02 0.  1.
    10030    2    1    2    0    0  0.00000000000E+00  0.00000000000E+00  0.10380074143E+04  0.22152003918E+04  0.19569500207E+04 0.  0.
        5    1    3    3  502    0  0.91935538722E+03 -0.30434856304E+03  0.36073530188E+03  0.10334381568E+04  0.46999998093E+01 0. -1.
       -5    1    3    3    0  502 -0.91935538722E+03  0.30434856304E+03  0.67727211240E+03  0.11817622350E+04  0.46999998093E+01 0.  1.
</event>
<event>
 5   0  0.1814230E-05  0.2702213E+04  0.7818609E-02  0.8334287E-01
       -2   -1    0    0    0  501  0.00000000000E+00  0.00000000000E+00  0.15578698641E+04  0.15578698641E+04  0.25500000920E-02 0. -1.
        2   -1    0    0  501    0  0.00000000000E+00  0.00000000000E+00 -0.11717849293E+04  0.11717849293E+04  0.25500000920E-02 0.  1.
    10030    2    1    2    0    0  0.00000000000E+00  0.00000000000E+00  0.38608493482E+03  0.27296547935E+04  0.27022127441E+04 0.  0.
        5    1    3    3  502    0  0.93198192758E+03 -0.88247080901E+03 -0.23328774775E+03  0.13045268511E+04  0.46999998093E+01 0. -1.
       -5    1    3    3    0  502 -0.93198192758E+03  0.88247080901E+03  0.61937268257E+03  0.14251279423E+04  0.46999998093E+01 0.  1.
</event>
<event>
 5   0  0.1874272E-05  0.2838665E+04  0.7818609E-02  0.8291364E-01
       -2   -1    0    0    0  501  0.00000000000E+00  0.00000000000E+00  0.10357488688E+04  0.10357488688E+04  0.25500000920E-02 0.  1.
        2   -1    0    0  501    0  0.00000000000E+00  0.00000000000E+00 -0.19449745401E+04  0.19449745401E+04  0.25500000920E-02 0. -1.
    10030    2    1    2    0    0  0.00000000000E+00  0.00000000000E+00 -0.90922567133E+03  0.29807234089E+04  0.28386653059E+04 0.  0.
        3    1    3    3  502    0  0.10721863388E+04 -0.59471047199E+03  0.29618041488E+03  0.12613433074E+04  0.10100000352E+00 0.  1.
       -3    1    3    3    0  502 -0.10721863388E+04  0.59471047199E+03 -0.12054060862E+04  0.17193801015E+04  0.10100000352E+00 0. -1.
</event>
<event>
 5   0  0.7388013E-06  0.2807438E+04  0.7818609E-02  0.8300963E-01
        1   -1    0    0  501    0  0.00000000000E+00  0.00000000000E+00  0.13785020952E+04  0.13785020952E+04  0.50400001928E-02 0.  1.
       -1   -1    0    0    0  501  0.00000000000E+00  0.00000000000E+00 -0.14293972196E+04  0.14293972196E+04  0.50400001928E-02 0. -1.
    10030    2    1    2    0    0  0.00000000000E+00  0.00000000000E+00 -0.50895124399E+02  0.28078993149E+04  0.28074380223E+04 0.  0.
        1    1    3    3  502    0 -0.28434814530E+03 -0.13298374105E+04 -0.37350712212E+03  0.14102584786E+04  0.50400001928E-02 0.  1.
       -1    1    3    3    0  502  0.28434814530E+03  0.13298374105E+04  0.32261199772E+03  0.13976408363E+04  0.50400001928E-02 0. -1.
</event>
<event>
 5   0  0.7388013E-06  0.2754578E+04  0.7818609E-02  0.8317510E-01
        1   -1    0    0  501    0  0.00000000000E+00  0.00000000000E+00  0.22568911802E+04  0.22568911802E+04  0.50400001928E-02 0.  1.
       -1   -1    0    0    0  501  0.00000000000E+00  0.00000000000E+00 -0.84050373954E+03  0.84050373955E+03  0.50400001928E-02 0. -1.
    10030    2    1    2    0    0  0.00000000000E+00  0.00000000000E+00  0.14163874406E+04  0.30973949197E+04  0.27545783537E+04 0.  0.
        1    1    3    3  502    0 -0.41103606463E+03  0.38262354325E+03 -0.70592612558E+03  0.90204385541E+03  0.50400001928E-02 0. -1.
       -1    1    3    3    0  502  0.41103606463E+03 -0.38262354325E+03  0.21223135662E+04  0.21953510643E+04  0.50400001928E-02 0.  1.
</event>
<event>
 5   0  0.1832502E-05  0.2787707E+04  0.7818609E-02  0.8307095E-01
       -2   -1    0    0    0  501  0.00000000000E+00  0.00000000000E+00  0.92472464961E+03  0.92472464962E+03  0.25500000920E-02 0.  1.
        2   -1    0    0  501    0  0.00000000000E+00  0.00000000000E+00 -0.21009790824E+04  0.21009790824E+04  0.25500000920E-02 0. -1.
    10030    2    1    2    0    0  0.00000000000E+00  0.00000000000E+00 -0.11762544328E+04  0.30257037321E+04  0.27877066889E+04 0.  0.
        2    1    3    3  502    0 -0.25789180294E+03 -0.25134142831E+03 -0.20496169395E+04  0.20810118439E+04  0.25500000920E-02 0. -1.
       -2    1    3    3    0  502  0.25789180294E+03  0.25134142831E+03  0.87336250666E+03  0.94469188821E+03  0.25500000920E-02 0.  1.
</event>
<event>
 5   0  0.1923559E-05  0.2869602E+04  0.7818609E-02  0.8281980E-01
       -2   -1    0    0    0  501  0.00000000000E+00  0.00000000000E+00  0.14196303744E+04  0.14196303744E+04  0.25500000920E-02 0. -1.
        2   -1    0    0  501    0  0.00000000000E+00  0.00000000000E+00 -0.14501336470E+04  0.14501336470E+04  0.25500000920E-02 0.  1.
    10030    2    1    2    0    0  0.00000000000E+00  0.00000000000E+00 -0.30503272623E+02  0.28697640213E+04  0.28696019042E+04 0.  0.
        4    1    3    3  502    0 -0.32090024410E+03  0.50350179448E+03 -0.13199943186E+04  0.14487503711E+04  0.12699999809E+01 0.  1.
       -4    1    3    3    0  502  0.32090024410E+03 -0.50350179448E+03  0.12894910460E+04  0.14210136503E+04  0.12699999809E+01 0. -1.
</event>
<event>
 5   0  0.7613444E-06  0.2771344E+04  0.7818609E-02  0.8312221E-01
       -1   -1    0    0    0  501  0.00000000000E+00  0.00000000000E+00  0.13184792067E+04  0.13184792067E+04  0.50400001928E-02 0. -1.
        1   -1    0    0  501    0  0.00000000000E+00  0.00000000000E+00 -0.14562888492E+04  0.14562888492E+04  0.50400001928E-02 0.  1.
    10030    2    1    2    0    0  0.00000000000E+00  0.00000000000E+00 -0.13780964249E+03  0.27747680559E+04  0.27713437654E+04 0.  0.
        5    1    3    3  502    0  0.64079018955E+03 -0.24437102429E+03  0.11366324158E+04  0.13275106791E+04  0.46999998093E+01 0. -1.
       -5    1    3    3    0  502 -0.64079018955E+03  0.24437102429E+03 -0.12744420583E+04  0.14472573767E+04  0.46999998093E+01 0.  1.
</event>
<event>
 5   0  0.1904553E-05  0.2731845E+04  0.7818609E-02  0.8324746E-01
        2   -1    0    0  501    0  0.00000000000E+00  0.00000000000E+00  0.15022889709E+04  0.15022889709E+04  0.25500000920E-02 0. -1.
       -2   -1    0    0    0  501  0.00000000000E+00  0.00000000000E+00 -0.12419343855E+04  0.12419343855E+04  0.25500000920E-02 0.  1.
    10030    2    1    2    0    0  0.00000000000E+00  0.00000000000E+00  0.26035458537E+03  0.27442233564E+04  0.27318450395E+04 0.  0.
        1    1    3    3  502    0 -0.50483774594E+03  0.11923972826E+04 -0.30661693490E+03  0.13306713998E+04  0.50400001928E-02 0. -1.
       -1    1    3    3    0  502  0.50483774594E+03 -0.11923972826E+04  0.56697152026E+03  0.14135519567E+04  0.50400001928E-02 0.  1.
</event>
<event>
 5   0  0.7613444E-06  0.2810888E+04  0.7818609E-02  0.8299896E-01
       -1   -1    0    0    0  501  0.00000000000E+00  0.00000000000E+00  0.11381461092E+04  0.11381461093E+04  0.50400001928E-02 0. -1.
        1   -1    0    0  501    0  0.00000000000E+00  0.00000000000E+00 -0.17355179406E+04  0.17355179406E+04  0.50400001928E-02 0.  1.
    10030    2    1    2    0    0  0.00000000000E+00  0.00000000000E+00 -0.59737183137E+03  0.28736640499E+04  0.28108881100E+04 0.  0.
        5    1    3    3  502    0 -0.18986082911E+03 -0.12319737998E+04 -0.96237173886E+03  0.15747977749E+04  0.46999998093E+01 0.  1.
       -5    1    3    3    0  502  0.18986082911E+03  0.12319737998E+04  0.36499990749E+03  0.12988662750E+04  0.46999998093E+01 0. -1.
</event>
<event>
 5   0  0.7509685E-06  0.2168303E+04  0.7818609E-02  0.8531738E-01
       -1   -1    0    0    0  501  0.00000000000E+00  0.00000000000E+00  0.72959927523E+03  0.72959927525E+03  0.50400001928E-02 0. -1.
        1   -1    0    0  501    0  0.00000000000E+00  0.00000000000E+00 -0.16110006893E+04  0.16110006893E+04  0.50400001928E-02 0.  1.
    10030    2    1    2    0    0  0.00000000000E+00  0.00000000000E+00 -0.88140141409E+03  0.23405999646E+04  0.21683034247E+04 0.  0.
        4    1    3    3  502    0 -0.17271345238E+03 -0.98182739395E+03 -0.90066828146E+03  0.13435103030E+04  0.12699999809E+01 0.  1.
       -4    1    3    3    0  502  0.17271345238E+03  0.98182739395E+03  0.19266867373E+02  0.99708966157E+03  0.12699999809E+01 0. -1.
</event>
<event>
 5   0  0.7388013E-06  0.2811038E+04  0.7818609E-02  0.8299850E-01
       -1   -1    0    0    0  501  0.00000000000E+00  0.00000000000E+00  0.90803066966E+03  0.90803066967E+03  0.50400001928E-02 0.  1.
        1   -1    0    0  501    0  0.00000000000E+00  0.00000000000E+00 -0.21755697740E+04  0.21755697740E+04  0.50400001928E-02 0. -1.
    10030    2    1    2    0    0  0.00000000000E+00  0.00000000000E+00 -0.12675391043E+04  0.30836004437E+04  0.28110382984E+04 0.  0.
        1    1    3    3  502    0  0.64535111120E+03 -0.73617085304E+03  0.47250851731E+03  0.10870556014E+04  0.50400001928E-02 0.  1.
       -1    1    3    3    0  502 -0.64535111120E+03  0.73617085304E+03 -0.17400476216E+04  0.19965448423E+04  0.50400001928E-02 0. -1.
</event>
<event>
 5   0  0.7388013E-06  0.2646498E+04  0.7818609E-02  0.8352576E-01
       -1   -1    0    0    0  501  0.00000000000E+00  0.00000000000E+00  0.11957426575E+04  0.11957426575E+04  0.50400001928E-02 0. -1.
        1   -1    0    0  501    0  0.00000000000E+00  0.00000000000E+00 -0.14643514502E+04  0.14643514502E+04  0.50400001928E-02 0.  1.
    10030    2    1    2    0    0  0.00000000000E+00  0.00000000000E+00 -0.26860879264E+03  0.26600941077E+04  0.26464976816E+04 0.  0.
        1    1    3    3  502    0  0.13651121947E+03 -0.10407143422E+04  0.67560560148E+03  0.12482646289E+04  0.50400001928E-02 0. -1.
       -1    1    3    3    0  502 -0.13651121947E+03  0.10407143422E+04 -0.94421439412E+03  0.14118294788E+04  0.50400001928E-02 0.  1.
</event>
<event>
 5   0  0.7388013E-06  0.2785416E+04  0.7818609E-02  0.8307810E-01
       -1   -1    0    0    0  501  0.00000000000E+00  0.00000000000E+00  0.10392448542E+04  0.10392448542E+04  0.50400001928E-02 0.  1.
        1   -1    0    0  501    0  0.00000000000E+00  0.00000000000E+00 -0.18663892824E+04  0.18663892824E+04  0.50400001928E-02 0. -1.
    10030    2    1    2    0    0  0.00000000000E+00  0.00000000000E+00 -0.82714442820E+03  0.29056341367E+04  0.27854159171E+04 0.  0.
        1    1    3    3  502    0 -0.46265136108E+03  0.98142229046E+03 -0.13244123663E+04  0.17121051691E+04  0.50400001928E-02 0. -1.
       -1    1    3    3    0  502  0.46265136108E+03 -0.98142229046E+03  0.49726793809E+03  0.11935289676E+04  0.50400001928E-02 0.  1.
</event>
<event>
 5   0  0.7681342E-06  0.2847944E+04  0.7818609E-02  0.8288536E-01
        1   -1    0    0  501    0  0.00000000000E+00  0.00000000000E+00  0.21216927714E+04  0.21216927714E+04  0.50400001928E-02 0. -1.
       -1   -1    0    0    0  501  0.00000000000E+00  0.00000000000E+00 -0.95569747262E+03  0.95569747264E+03  0.50400001928E-02 0.  1.
    10030    2    1    2    0    0  0.00000000000E+00  0.00000000000E+00  0.11659952988E+04  0.30773902440E+04  0.28479441142E+04 0.  0.
        2    1    3    3  502    0  0.10121808948E+04  0.33659373936E+03 -0.43634335624E+03  0.11524760448E+04  0.25500000920E-02 0.  1.
       -2    1    3    3    0  502 -0.10121808948E+04 -0.33659373936E+03  0.16023386550E+04  0.19249141993E+04  0.25500000920E-02 0. -1.
</event>
<event>
 5   0  0.7613444E-06  0.2769731E+04  0.7818609E-02  0.8312728E-01
        1   -1    0    0  501    0  0.00000000000E+00  0.00000000000E+00  0.15262470319E+04  0.15262470319E+04  0.50400001928E-02 0. -1.
       -1   -1    0    0    0  501  0.00000000000E+00  0.00000000000E+00 -0.12565804192E+04  0.12565804192E+04  0.50400001928E-02 0.  1.
    10030    2    1    2    0    0  0.00000000000E+00  0.00000000000E+00  0.26966661266E+03  0.27828274511E+04  0.27697307704E+04 0.  0.
        5    1    3    3  502    0  0.52612139239E+02 -0.94829389594E+03  0.11474684037E+04  0.14895419356E+04  0.46999998093E+01 0. -1.
       -5    1    3    3    0  502 -0.52612139239E+02  0.94829389594E+03 -0.87780179108E+03  0.12932855155E+04  0.46999998093E+01 0.  1.
</event>
<event>
 5   0  0.1874272E-05  0.2809020E+04  0.7818609E-02  0.8300473E-01
       -2   -1    0    0    0  501  0.00000000000E+00  0.00000000000E+00  0.18007796994E+04  0.18007796994E+04  0.25500000920E-02 0. -1.
        2   -1    0    0  501    0  0.00000000000E+00  0.00000000000E+00 -0.10954413392E+04  0.10954413392E+04  0.25500000920E-02 0.  1.
    10030    2    1    2    0    0  0.00000000000E+00  0.00000000000E+00  0.70533836015E+03  0.28962210386E+04  0.28090201321E+04 0.  0.
        3    1    3    3  502    0  0.12572247275E+04  0.62137301454E+03  0.43206671333E+03  0.14674467941E+04  0.10100000352E+00 0.  1.
       -3    1    3    3    0  502 -0.12572247275E+04 -0.62137301454E+03  0.27327164682E+03  0.14287742445E+04  0.10100000352E+00 0. -1.
</event>
<event>
 5   0  0.7555871E-06  0.2754237E+04  0.7818609E-02  0.8317618E-01
        1   -1    0    0  501    0  0.00000000000E+00  0.00000000000E+00  0.13945325143E+04  0.13945325143E+04  0.50400001928E-02 0. -1.
       -1   -1    0    0    0  501  0.00000000000E+00  0.00000000000E+00 -0.13599217017E+04  0.13599217017E+04  0.50400001928E-02 0.  1.
    10030    2    1    2    0    0  0.00000000000E+00  0.00000000000E+00  0.34610812622E+02  0.27544542160E+04  0.27542367581E+04 0.  0.
        3    1    3    3  502    0 -0.98062087351E+03 -0.23138515666E+03 -0.92154378335E+03  0.13654300946E+04  0.10100000352E+00 0.  1.
       -3    1    3    3    0  502  0.98062087351E+03  0.23138515666E+03  0.95615459597E+03  0.13890241214E+04  0.10100000352E+00 0. -1.
</event>
<event>
 5   0  0.7681342E-06  0.2823021E+04  0.7818609E-02  0.8296157E-01
        1   -1    0    0  501    0  0.00000000000E+00  0.00000000000E+00  0.16882415097E+04  0.16882415097E+04  0.50400001928E-02 0.  1.
       -1   -1    0    0    0  501  0.00000000000E+00  0.00000000000E+00 -0.11801406202E+04  0.11801406202E+04  0.50400001928E-02 0. -1.
    10030    2    1    2    0    0  0.00000000000E+00  0.00000000000E+00  0.50810088943E+03  0.28683821299E+04  0.28230213477E+04 0.  0.
        2    1    3    3  502    0  0.12897481632E+04 -0.14509437049E+03 -0.30971603971E+03  0.13343263192E+04  0.25500000920E-02 0.  1.
       -2    1    3    3    0  502 -0.12897481632E+04  0.14509437049E+03  0.81781692915E+03  0.15340558107E+04  0.25500000920E-02 0. -1.
</event>
<event>
 5   0  0.1814230E-05  0.2801277E+04  0.7818609E-02  0.8302872E-01
        2   -1    0    0  501    0  0.00000000000E+00  0.00000000000E+00  0.17274131116E+04  0.17274131116E+04  0.25500000920E-02 0.  1.
       -2   -1    0    0    0  501  0.00000000000E+00  0.00000000000E+00 -0.11356802059E+04  0.11356802059E+04  0.25500000920E-02 0. -1.
    10030    2    1    2    0    0  0.00000000000E+00  0.00000000000E+00  0.59173290574E+03  0.28630933175E+04  0.28012774788E+04 0.  0.
        5    1    3    3  502    0 -0.12689175818E+04  0.36761970652E+03 -0.17966466840E+03  0.13332657503E+04  0.46999998093E+01 0. -1.
       -5    1    3    3    0  502  0.12689175818E+04 -0.36761970652E+03  0.77139757414E+03  0.15298275672E+04  0.46999998093E+01 0.  1.
</event>
<event>
 5   0  0.1874272E-05  0.2713314E+04  0.7818609E-02  0.8330698E-01
        2   -1    0    0  501    0  0.00000000000E+00  0.00000000000E+00  0.19641962255E+04  0.19641962255E+04  0.25500000920E-02 0. -1.
       -2   -1    0    0    0  501  0.00000000000E+00  0.00000000000E+00 -0.93703347611E+03  0.93703347611E+03  0.25500000920E-02 0.  1.
    10030    2    1    2    0    0  0.00000000000E+00  0.00000000000E+00  0.10271627494E+04  0.29012297016E+04  0.27133135587E+04 0.  0.
        3    1    3    3  502    0 -0.36145612077E+03 -0.12916305007E+04  0.73155705136E+03  0.15277878148E+04  0.10100000352E+00 0.  1.
       -3    1    3    3    0  502  0.36145612077E+03  0.12916305007E+04  0.29560569802E+03  0.13734418868E+04  0.10100000352E+00 0. -1.
</event>
<event>
 5   0  0.7388013E-06  0.2766590E+04  0.7818609E-02  0.8313716E-01
        1   -1    0    0  501    0  0.00000000000E+00  0.00000000000E+00  0.17525322799E+04  0.17525322799E+04  0.50400001928E-02 0.  1.
       -1   -1    0    0    0  501  0.00000000000E+00  0.00000000000E+00 -0.10918517824E+04  0.10918517824E+04  0.50400001928E-02 0. -1.
    10030    2    1    2    0    0  0.00000000000E+00  0.00000000000E+00  0.66068049745E+03  0.28443840623E+04  0.27665903156E+04 0.  0.
        1    1    3    3  502    0 -0.79233782266E+03  0.10653760888E+04 -0.68750144071E+02  0.13294931433E+04  0.50400001928E-02 0.  1.
       -1    1    3    3    0  502  0.79233782266E+03 -0.10653760888E+04  0.72943064152E+03  0.15148909190E+04  0.50400001928E-02 0. -1.
</event>
<event>
 5   0  0.1923559E-05  0.2925516E+04  0.7818609E-02  0.8265326E-01
       -2   -1    0    0    0  501  0.00000000000E+00  0.00000000000E+00  0.30624196949E+04  0.30624196949E+04  0.25500000920E-02 0.  1.
        2   -1    0    0  501    0  0.00000000000E+00  0.00000000000E+00 -0.69868306645E+03  0.69868306646E+03  0.25500000920E-02 0. -1.
    10030    2    1    2    0    0  0.00000000000E+00  0.00000000000E+00  0.23637366285E+04  0.37611027614E+04  0.29255158747E+04 0.  0.
        4    1    3    3  502    0 -0.98219979088E+03 -0.10831244024E+04  0.12361737165E+04  0.19146806445E+04  0.12699999809E+01 0.  1.
       -4    1    3    3    0  502  0.98219979088E+03  0.10831244024E+04  0.11275629119E+04  0.18464221168E+04  0.12699999809E+01 0. -1.
</event>
<event>
 5   0  0.1904553E-05  0.2752981E+04  0.7818609E-02  0.8318016E-01
        2   -1    0    0  501    0  0.00000000000E+00  0.00000000000E+00  0.96576716412E+03  0.96576716412E+03  0.25500000920E-02 0. -1.
       -2   -1    0    0    0  501  0.00000000000E+00  0.00000000000E+00 -0.19618874375E+04  0.19618874375E+04  0.25500000920E-02 0.  1.
    10030    2    1    2    0    0  0.00000000000E+00  0.00000000000E+00 -0.99612027338E+03  0.29276546016E+04  0.27529812690E+04 0.  0.
        1    1    3    3  502    0  0.52126023419E+03  0.46630996427E+03  0.76272971904E+03  0.10348496697E+04  0.50400001928E-02 0. -1.
       -1    1    3    3    0  502 -0.52126023419E+03 -0.46630996427E+03 -0.17588499924E+04  0.18928049319E+04  0.50400001928E-02 0.  1.
</event>
<event>
 5   0  0.1874272E-05  0.2702953E+04  0.7818609E-02  0.8334047E-01
        2   -1    0    0  501    0  0.00000000000E+00  0.00000000000E+00  0.18455422486E+04  0.18455422486E+04  0.25500000920E-02 0.  1.
       -2   -1    0    0    0  501  0.00000000000E+00  0.00000000000E+00 -0.98967624806E+03  0.98967624806E+03  0.25500000920E-02 0. -1.
    10030    2    1    2    0    0  0.00000000000E+00  0.00000000000E+00  0.85586600051E+03  0.28352184966E+04  0.27029534426E+04 0.  0.
        3    1    3    3  502    0 -0.56488759251E+03  0.41690686484E+03 -0.78338313936E+03  0.10519498464E+04  0.10100000352E+00 0. -1.
       -3    1    3    3    0  502  0.56488759251E+03 -0.41690686484E+03  0.16392491399E+04  0.17832686502E+04  0.10100000352E+00 0.  1.
</event>
<event>
 5   0  0.7613444E-06  0.2809658E+04  0.7818609E-02  0.8300276E-01
        1   -1    0    0  501    0  0.00000000000E+00  0.00000000000E+00  0.13225358040E+04  0.13225358040E+04  0.50400001928E-02 0. -1.
       -1   -1    0    0    0  501  0.00000000000E+00  0.00000000000E+00 -0.14922426319E+04  0.14922426320E+04  0.50400001928E-02 0.  1.
    10030    2    1    2    0    0  0.00000000000E+00  0.00000000000E+00 -0.16970682794E+03  0.28147784360E+04  0.28096578504E+04 0.  0.
        5    1    3    3  502    0  0.11545538873E+03  0.99380074383E+03 -0.10728314130E+04  0.14669557580E+04  0.46999998093E+01 0.  1.
       -5    1    3    3    0  502 -0.11545538873E+03 -0.99380074383E+03  0.90312458502E+03  0.13478226780E+04  0.46999998093E+01 0. -1.
</event>
<event>
 5   0  0.7681342E-06  0.2790665E+04  0.7818609E-02  0.8306172E-01
        1   -1    0    0  501    0  0.00000000000E+00  0.00000000000E+00  0.23141751298E+04  0.23141751298E+04  0.50400001928E-02 0.  1.
       -1   -1    0    0    0  501  0.00000000000E+00  0.00000000000E+00 -0.84131607794E+03  0.84131607795E+03  0.50400001928E-02 0. -1.
    10030    2    1    2    0    0  0.00000000000E+00  0.00000000000E+00  0.14728590518E+04  0.31554912077E+04  0.27906649701E+04 0.  0.
        2    1    3    3  502    0  0.12812238481E+04 -0.48816840716E+03  0.44350735163E+03  0.14410210664E+04  0.25500000920E-02 0. -1.
       -2    1    3    3    0  502 -0.12812238481E+04  0.48816840716E+03  0.10293517002E+04  0.17144701413E+04  0.25500000920E-02 0.  1.
</event>
<event>
 5   0  0.7555871E-06  0.1807296E+04  0.7818609E-02  0.8702429E-01
       -1   -1    0    0    0  501  0.00000000000E+00  0.00000000000E+00  0.24266271468E+04  0.24266271468E+04  0.50400001928E-02 0.  1.
        1   -1    0    0  501    0  0.00000000000E+00  0.00000000000E+00 -0.33650810275E+03  0.33650810278E+03  0.50400001928E-02 0. -1.
    10030    2    1    2    0    0  0.00000000000E+00  0.00000000000E+00  0.20901190441E+04  0.27631352496E+04  0.18072959883E+04 0.  0.
        3    1    3    3  502    0 -0.89447202605E+03  0.15291490260E+02  0.12400478421E+04  0.15290626854E+04  0.10100000352E+00 0.  1.
       -3    1    3    3    0  502  0.89447202605E+03 -0.15291490260E+02  0.85007120199E+03  0.12340725642E+04  0.10100000352E+00 0. -1.
</event>
<event>
 5   0  0.1832502E-05  0.2490194E+04  0.7818609E-02  0.8406487E-01
        2   -1    0    0  501    0  0.00000000000E+00  0.00000000000E+00  0.13145548537E+04  0.13145548537E+04  0.25500000920E-02 0.  1.
       -2   -1    0    0    0  501  0.00000000000E+00  0.00000000000E+00 -0.11793090331E+04  0.11793090331E+04  0.25500000920E-02 0. -1.
    10030    2    1    2    0    0  0.00000000000E+00  0.00000000000E+00  0.13524582059E+03  0.24938638867E+04  0.24901938988E+04 0.  0.
        2    1    3    3  502    0  0.22266075112E+03  0.86615070052E+03  0.93519725940E+03  0.12939817464E+04  0.25500000920E-02 0.  1.
       -2    1    3    3    0  502 -0.22266075112E+03 -0.86615070052E+03 -0.79995143882E+03  0.11998821403E+04  0.25500000920E-02 0. -1.
</event>
<event>
 5   0  0.1923559E-05  0.2826932E+04  0.7818609E-02  0.8294955E-01
       -2   -1    0    0    0  501  0.00000000000E+00  0.00000000000E+00  0.97041526313E+03  0.97041526313E+03  0.25500000920E-02 0.  1.
        2   -1    0    0  501    0  0.00000000000E+00  0.00000000000E+00 -0.20587955659E+04  0.20587955659E+04  0.25500000920E-02 0. -1.
    10030    2    1    2    0    0  0.00000000000E+00  0.00000000000E+00 -0.10883803028E+04  0.30292108291E+04  0.28269323592E+04 0.  0.
        4    1    3    3  502    0  0.58335731967E+02  0.29651392302E+03  0.93539338058E+03  0.98299845040E+03  0.12699999809E+01 0.  1.
       -4    1    3    3    0  502 -0.58335731967E+02 -0.29651392302E+03 -0.20237736834E+04  0.20462123787E+04  0.12699999809E+01 0. -1.
</event>
<event>
 5   0  0.7681342E-06  0.2838003E+04  0.7818609E-02  0.8291566E-01
        1   -1    0    0  501    0  0.00000000000E+00  0.00000000000E+00  0.20000975058E+04  0.20000975058E+04  0.50400001928E-02 0. -1.
       -1   -1    0    0    0  501  0.00000000000E+00  0.00000000000E+00 -0.10067337156E+04  0.10067337156E+04  0.50400001928E-02 0.  1.
    10030    2    1    2    0    0  0.00000000000E+00  0.00000000000E+00  0.99336379017E+03  0.30068312214E+04  0.28380032372E+04 0.  0.
        2    1    3    3  502    0  0.11249225538E+04  0.40835028745E+03 -0.31114919345E+03  0.12365332709E+04  0.25500000920E-02 0.  1.
       -2    1    3    3    0  502 -0.11249225538E+04 -0.40835028745E+03  0.13045129836E+04  0.17702979506E+04  0.25500000920E-02 0. -1.
</event>
<event>
 5   0  0.7613444E-06  0.2858544E+04  0.7818609E-02  0.8285320E-01
        1   -1    0    0  501    0  0.00000000000E+00  0.00000000000E+00  0.18524786927E+04  0.18524786927E+04  0.50400001928E-02 0. -1.
       -1   -1    0    0    0  501  0.00000000000E+00  0.00000000000E+00 -0.11027485257E+04  0.11027485258E+04  0.50400001928E-02 0.  1.
    10030    2    1    2    0    0  0.00000000000E+00  0.00000000000E+00  0.74973016698E+03  0.29552272185E+04  0.28585437883E+04 0.  0.
        5    1    3    3  502    0 -0.11949086755E+03  0.26310587156E+02  0.18470465459E+04  0.18511005773E+04  0.46999998093E+01 0. -1.
       -5    1    3    3    0  502  0.11949086755E+03 -0.26310587156E+02 -0.10973163789E+04  0.11041266412E+04  0.46999998093E+01 0.  1.
</event>
<event>
 5   0  0.7681342E-06  0.1836037E+04  0.7818609E-02  0.8687367E-01
       -1   -1    0    0    0  501  0.00000000000E+00  0.00000000000E+00  0.78698052585E+03  0.78698052586E+03  0.50400001928E-02 0. -1.
        1   -1    0    0  501    0  0.00000000000E+00  0.00000000000E+00 -0.10708749087E+04  0.10708749087E+04  0.50400001928E-02 0.  1.
    10030    2    1    2    0    0  0.00000000000E+00  0.00000000000E+00 -0.28389438285E+03  0.18578554346E+04  0.18360367086E+04 0.  0.
        2    1    3    3  502    0 -0.94396546275E+02 -0.75789155148E+03  0.37346561804E+03  0.85016873597E+03  0.25500000920E-02 0. -1.
       -2    1    3    3    0  502  0.94396546275E+02  0.75789155148E+03 -0.65736000089E+03  0.10076866986E+04  0.25500000920E-02 0.  1.
</event>
<event>
 5   0  0.1832502E-05  0.2795129E+04  0.7818609E-02  0.8304782E-01
        2   -1    0    0  501    0  0.00000000000E+00  0.00000000000E+00  0.19735453661E+04  0.19735453661E+04  0.25500000920E-02 0.  1.
       -2   -1    0    0    0  501  0.00000000000E+00  0.00000000000E+00 -0.98968439778E+03  0.98968439778E+03  0.25500000920E-02 0. -1.
    10030    2    1    2    0    0  0.00000000000E+00  0.00000000000E+00  0.98386096828E+03  0.29632297638E+04  0.27951293760E+04 0.  0.
        2    1    3    3  502    0  0.45945008852E+03  0.20694275756E+03  0.18738866614E+04  0.19404563661E+04  0.25500000920E-02 0.  1.
       -2    1    3    3    0  502 -0.45945008852E+03 -0.20694275756E+03 -0.89002569314E+03  0.10227733978E+04  0.25500000920E-02 0. -1.
</event>
<event>
 5   0  0.1874272E-05  0.2819558E+04  0.7818609E-02  0.8297222E-01
       -2   -1    0    0    0  501  0.00000000000E+00  0.00000000000E+00  0.17164724439E+04  0.17164724439E+04  0.25500000920E-02 0.  1.
        2   -1    0    0  501    0  0.00000000000E+00  0.00000000000E+00 -0.11578848868E+04  0.11578848868E+04  0.25500000920E-02 0. -1.
    10030    2    1    2    0    0  0.00000000000E+00  0.00000000000E+00  0.55858755708E+03  0.28743573307E+04  0.28195584770E+04 0.  0.
        3    1    3    3  502    0  0.57705956768E+03  0.42750935287E+03 -0.95742678741E+03  0.11968408645E+04  0.10100000352E+00 0. -1.
       -3    1    3    3    0  502 -0.57705956768E+03 -0.42750935287E+03  0.15160143445E+04  0.16775164662E+04  0.10100000352E+00 0.  1.
</event>
<event>
 5   0  0.1832502E-05  0.2775183E+04  0.7818609E-02  0.8311015E-01
        2   -1    0    0  501    0  0.00000000000E+00  0.00000000000E+00  0.24298786962E+04  0.24298786962E+04  0.25500000920E-02 0.  1.
       -2   -1    0    0    0  501  0.00000000000E+00  0.00000000000E+00 -0.79238948333E+03  0.79238948333E+03  0.25500000920E-02 0. -1.
    10030    2    1    2    0    0  0.00000000000E+00  0.00000000000E+00  0.16374892128E+04  0.32222681795E+04  0.27751831108E+04 0.  0.
        2    1    3    3  502    0  0.24833521003E+03 -0.28607683690E+03 -0.73118402750E+03  0.82349281431E+03  0.25500000920E-02 0. -1.
       -2    1    3    3    0  502 -0.24833521003E+03  0.28607683690E+03  0.23686732403E+04  0.23987753652E+04  0.25500000920E-02 0.  1.
</event>
<event>
 5   0  0.7555871E-06  0.2790183E+04  0.7818609E-02  0.8306323E-01
        1   -1    0    0  501    0  0.00000000000E+00  0.00000000000E+00  0.20716292614E+04  0.20716292614E+04  0.50400001928E-02 0.  1.
       -1   -1    0    0    0  501  0.00000000000E+00  0.00000000000E+00 -0.93949278167E+03  0.93949278168E+03  0.50400001928E-02 0. -1.
    10030    2    1    2    0    0  0.00000000000E+00  0.00000000000E+00  0.11321364797E+04  0.30111220431E+04  0.27901833183E+04 0.  0.
        3    1    3    3  502    0 -0.72742177642E+03  0.59294579187E+03 -0.54792682125E+03  0.10867156779E+04  0.10100000352E+00 0. -1.
       -3    1    3    3    0  502  0.72742177642E+03 -0.59294579187E+03  0.16800633010E+04  0.19244063652E+04  0.10100000352E+00 0.  1.
</event>
<event>
 5   0  0.7613444E-06  0.2861949E+04  0.7818609E-02  0.8284290E-01
        1   -1    0    0  501    0  0.00000000000E+00  0.00000000000E+00  0.18023581599E+04  0.18023581599E+04  0.50400001928E-02 0. -1.
       -1   -1    0    0    0  501  0.00000000000E+00  0.00000000000E+00 -0.11361157790E+04  0.11361157790E+04  0.50400001928E-02 0.  1.
    10030    2    1    2    0    0  0.00000000000E+00  0.00000000000E+00  0.66624238096E+03  0.29384739389E+04  0.28619486682E+04 0.  0.
        5    1    3    3  502    0 -0.56980299380E+03 -0.10670163551E+03 -0.10101439571E+04  0.11646774638E+04  0.46999998093E+01 0.  1.
       -5    1    3    3    0  502  0.56980299380E+03  0.10670163551E+03  0.16763863380E+04  0.17737964751E+04  0.46999998093E+01 0. -1.
</event>
<event>
 5   0  0.1814230E-05  0.2817526E+04  0.7818609E-02  0.8297848E-01
       -2   -1    0    0    0  501  0.00000000000E+00  0.00000000000E+00  0.88968303734E+03  0.88968303735E+03  0.25500000920E-02 0.  1.
        2   -1    0    0  501    0  0.00000000000E+00  0.00000000000E+00 -0.22306965405E+04  0.22306965405E+04  0.25500000920E-02 0. -1.
    10030    2    1    2    0    0  0.00000000000E+00  0.00000000000E+00 -0.13410135031E+04  0.31203795778E+04  0.28175257752E+04 0.  0.
        5    1    3    3  502    0 -0.12123553947E+04 -0.37260744226E+03  0.85466414795E+01  0.12683599821E+04  0.46999998093E+01 0.  1.
       -5    1    3    3    0  502  0.12123553947E+04  0.37260744226E+03 -0.13495601446E+04  0.18520195958E+04  0.46999998093E+01 0. -1.
</event>
<event>
 5   0  0.7613444E-06  0.2870797E+04  0.7818609E-02  0.8281620E-01
        1   -1    0    0  501    0  0.00000000000E+00  0.00000000000E+00  0.15487887085E+04  0.15487887085E+04  0.50400001928E-02 0.  1.
       -1   -1    0    0    0  501  0.00000000000E+00  0.00000000000E+00 -0.13303096228E+04  0.13303096228E+04  0.50400001928E-02 0. -1.
    10030    2    1    2    0    0  0.00000000000E+00  0.00000000000E+00  0.21847908573E+03  0.28790983313E+04  0.28707967693E+04 0.  0.
        5    1    3    3  502    0 -0.14013283864E+04 -0.30899958060E+03  0.14316701900E+03  0.14421237370E+04  0.46999998093E+01 0.  1.
       -5    1    3    3    0  502  0.14013283864E+04  0.30899958060E+03  0.75312066729E+02  0.14369745943E+04  0.46999998093E+01 0. -1.
</event>
<event>
 5   0  0.7681342E-06  0.2854918E+04  0.7818609E-02  0.8286418E-01
        1   -1    0    0  501    0  0.00000000000E+00  0.00000000000E+00  0.10614556754E+04  0.10614556754E+04  0.50400001928E-02 0.  1.
       -1   -1    0    0    0  501  0.00000000000E+00  0.00000000000E+00 -0.19196650712E+04  0.19196650712E+04  0.50400001928E-02 0. -1.
    10030    2    1    2    0    0  0.00000000000E+00  0.00000000000E+00 -0.85820939575E+03  0.29811207466E+04  0.28549181317E+04 0.  0.
        2    1    3    3  502    0  0.12188346905E+04 -0.73231222976E+03 -0.29784937404E+03  0.14527743989E+04  0.25500000920E-02 0. -1.
       -2    1    3    3    0  502 -0.12188346905E+04  0.73231222976E+03 -0.56036002172E+03  0.15283463477E+04  0.25500000920E-02 0.  1.
</event>
<event>
 5   0  0.1814230E-05  0.2997882E+04  0.7818609E-02  0.8244336E-01
       -2   -1    0    0    0  501  0.00000000000E+00  0.00000000000E+00  0.87639085692E+03  0.87639085692E+03  0.25500000920E-02 0.  1.
        2   -1    0    0  501    0  0.00000000000E+00  0.00000000000E+00 -0.25637238060E+04  0.25637238060E+04  0.25500000920E-02 0. -1.
    10030    2    1    2    0    0  0.00000000000E+00  0.00000000000E+00 -0.16873329491E+04  0.34401146629E+04  0.29978819878E+04 0.  0.
        5    1    3    3  502    0  0.91493560410E+03 -0.53540854708E+03 -0.20597252215E+04  0.23165188430E+04  0.46999998093E+01 0. -1.
       -5    1    3    3    0  502 -0.91493560410E+03  0.53540854708E+03  0.37239227242E+03  0.11235958199E+04  0.46999998093E+01 0.  1.
</event>
<event>
 5   0  0.7388013E-06  0.2798877E+04  0.7818609E-02  0.8303617E-01
       -1   -1    0    0    0  501  0.00000000000E+00  0.00000000000E+00  0.16646489648E+04  0.16646489648E+04  0.50400001928E-02 0. -1.
        1   -1    0    0  501    0  0.00000000000E+00  0.00000000000E+00 -0.11764807514E+04  0.11764807514E+04  0.50400001928E-02 0.  1.
    10030    2    1    2    0    0  0.00000000000E+00  0.00000000000E+00  0.48816821344E+03  0.28411297162E+04  0.27988765353E+04 0.  0.
        1    1    3    3  502    0  0.10232210274E+04  0.94478182935E+03  0.38339103402E+03  0.14445008345E+04  0.50400001928E-02 0. -1.
       -1    1    3    3    0  502 -0.10232210274E+04 -0.94478182935E+03  0.10477717942E+03  0.13966288817E+04  0.50400001928E-02 0.  1.
</event>
<event>
 5   0  0.1874272E-05  0.2704999E+04  0.7818609E-02  0.8333385E-01
       -2   -1    0    0    0  501  0.00000000000E+00  0.00000000000E+00  0.92230104013E+03  0.92230104014E+03  0.25500000920E-02 0.  1.
        2   -1    0    0  501    0  0.00000000000E+00  0.00000000000E+00 -0.19833593187E+04  0.19833593187E+04  0.25500000920E-02 0. -1.
    10030    2    1    2    0    0  0.00000000000E+00  0.00000000000E+00 -0.10610582786E+04  0.29056603588E+04  0.27049986045E+04 0.  0.
        3    1    3    3  502    0  0.10297436961E+04  0.41428699097E+03  0.29961854243E+03  0.11496856404E+04  0.10100000352E+00 0. -1.
       -3    1    3    3    0  502 -0.10297436961E+04 -0.41428699097E+03 -0.13606768210E+04  0.17559747185E+04  0.10100000352E+00 0.  1.
</event>
<event>
 5   0  0.1904553E-05  0.2751273E+04  0.7818609E-02  0.8318558E-01
       -2   -1    0    0    0  501  0.00000000000E+00  0.00000000000E+00  0.99583861703E+03  0.99583861703E+03  0.25500000920E-02 0. -1.
        2   -1    0    0  501    0  0.00000000000E+00  0.00000000000E+00 -0.19002840622E+04  0.19002840622E+04  0.25500000920E-02 0.  1.
    10030    2    1    2    0    0  0.00000000000E+00  0.00000000000E+00 -0.90444544517E+03  0.28961226792E+04  0.27512733434E+04 0.  0.
        1    1    3    3  502    0  0.48323924190E+03 -0.98372765341E+03  0.42289195721E+03  0.11747671550E+04  0.50400001928E-02 0. -1.
       -1    1    3    3    0  502 -0.48323924190E+03  0.98372765341E+03 -0.13273374024E+04  0.17213555242E+04  0.50400001928E-02 0.  1.
</event>
<event>
 5   0  0.1874272E-05  0.2754203E+04  0.7818609E-02  0.8317629E-01
       -2   -1    0    0    0  501  0.00000000000E+00  0.00000000000E+00  0.15214777441E+04  0.15214777441E+04  0.25500000920E-02 0.  1.
        2   -1    0    0  501    0  0.00000000000E+00  0.00000000000E+00 -0.12464255517E+04  0.12464255517E+04  0.25500000920E-02 0. -1.
    10030    2    1    2    0    0  0.00000000000E+00  0.00000000000E+00  0.27505219238E+03  0.27679032958E+04  0.27542031418E+04 0.  0.
        3    1    3    3  502    0 -0.30323420447E+03 -0.12034616526E+04  0.73726742238E+03  0.14435491659E+04  0.10100000352E+00 0. -1.
       -3    1    3    3    0  502  0.30323420447E+03  0.12034616526E+04 -0.46221523000E+03  0.13243541298E+04  0.10100000352E+00 0.  1.
</event>
<event>
 5   0  0.7681342E-06  0.2855930E+04  0.7818609E-02  0.8286112E-01
        1   -1    0    0  501    0  0.00000000000E+00  0.00000000000E+00  0.99824885839E+03  0.99824885840E+03  0.50400001928E-02 0. -1.
       -1   -1    0    0    0  501  0.00000000000E+00  0.00000000000E+00 -0.20426616180E+04  0.20426616180E+04  0.50400001928E-02 0.  1.
    10030    2    1    2    0    0  0.00000000000E+00  0.00000000000E+00 -0.10444127597E+04  0.30409104764E+04  0.28559304111E+04 0.  0.
        2    1    3    3  502    0 -0.78505651105E+03  0.51038048110E+03  0.62571433886E+03  0.11261973161E+04  0.25500000920E-02 0. -1.
       -2    1    3    3    0  502  0.78505651105E+03 -0.51038048110E+03 -0.16701270985E+04  0.19147131603E+04  0.25500000920E-02 0.  1.
</event>
<event>
 5   0  0.1923559E-05  0.2772566E+04  0.7818609E-02  0.8311836E-01
       -2   -1    0    0    0  501  0.00000000000E+00  0.00000000000E+00  0.15134294750E+04  0.15134294750E+04  0.25500000920E-02 0.  1.
        2   -1    0    0  501    0  0.00000000000E+00  0.00000000000E+00 -0.12698183381E+04  0.12698183381E+04  0.25500000920E-02 0. -1.
    10030    2    1    2    0    0  0.00000000000E+00  0.00000000000E+00  0.24361113688E+03  0.27832478132E+04  0.27725659602E+04 0.  0.
        4    1    3    3  502    0 -0.12124444062E+03  0.67792026698E+03  0.13295629308E+04  0.14973360687E+04  0.12699999809E+01 0.  1.
       -4    1    3    3    0  502  0.12124444062E+03 -0.67792026698E+03 -0.10859517940E+04  0.12859117444E+04  0.12699999809E+01 0. -1.
</event>
<event>
 5   0  0.7613444E-06  0.2791016E+04  0.7818609E-02  0.8306063E-01
        1   -1    0    0  501    0  0.00000000000E+00  0.00000000000E+00  0.19283608347E+04  0.19283608347E+04  0.50400001928E-02 0.  1.
       -1   -1    0    0    0  501  0.00000000000E+00  0.00000000000E+00 -0.10098954645E+04  0.10098954645E+04  0.50400001928E-02 0. -1.
    10030    2    1    2    0    0  0.00000000000E+00  0.00000000000E+00  0.91846537023E+03  0.29382562992E+04  0.27910162026E+04 0.  0.
        5    1    3    3  502    0 -0.88354822027E+03 -0.77063863953E+03  0.12560502909E+04  0.17182042351E+04  0.46999998093E+01 0.  1.
       -5    1    3    3    0  502  0.88354822027E+03  0.77063863953E+03 -0.33758492069E+03  0.12200520640E+04  0.46999998093E+01 0. -1.
</event>
<event>
 5   0  0.7681342E-06  0.2808768E+04  0.7818609E-02  0.8300551E-01
       -1   -1    0    0    0  501  0.00000000000E+00  0.00000000000E+00  0.11051089495E+04  0.11051089495E+04  0.50400001928E-02 0.  1.
        1   -1    0    0  501    0  0.00000000000E+00  0.00000000000E+00 -0.17847061116E+04  0.17847061116E+04  0.50400001928E-02 0. -1.
    10030    2    1    2    0    0  0.00000000000E+00  0.00000000000E+00 -0.67959716207E+03  0.28898150611E+04  0.28087681971E+04 0.  0.
        2    1    3    3  502    0  0.51210311080E+03 -0.11630272816E+04  0.27529204181E+03  0.13002568063E+04  0.25500000920E-02 0.  1.
       -2    1    3    3    0  502 -0.51210311080E+03  0.11630272816E+04 -0.95488920388E+03  0.15895582549E+04  0.25500000920E-02 0. -1.
</event>
<event>
 5   0  0.7681342E-06  0.2810185E+04  0.7818609E-02  0.8300113E-01
       -1   -1    0    0    0  501  0.00000000000E+00  0.00000000000E+00  0.15786236139E+04  0.15786236139E+04  0.50400001928E-02 0. -1.
        1   -1    0    0  501    0  0.00000000000E+00  0.00000000000E+00 -0.12506371538E+04  0.12506371538E+04  0.50400001928E-02 0.  1.
    10030    2    1    2    0    0  0.00000000000E+00  0.00000000000E+00  0.32798646010E+03  0.28292607676E+04  0.28101852916E+04 0.  0.
        2    1    3    3  502    0  0.13550830588E+04  0.49165571457E+02  0.53475647834E+03  0.14576116907E+04  0.25500000920E-02 0. -1.
       -2    1    3    3    0  502 -0.13550830588E+04 -0.49165571457E+02 -0.20677001824E+03  0.13716490769E+04  0.25500000920E-02 0.  1.
</event>
<event>
 5   0  0.7555871E-06  0.2806946E+04  0.7818609E-02  0.8301115E-01
        1   -1    0    0  501    0  0.00000000000E+00  0.00000000000E+00  0.85512099487E+03  0.85512099488E+03  0.50400001928E-02 0.  1.
       -1   -1    0    0    0  501  0.00000000000E+00  0.00000000000E+00 -0.23034593719E+04  0.23034593719E+04  0.50400001928E-02 0. -1.
    10030    2    1    2    0    0  0.00000000000E+00  0.00000000000E+00 -0.14483383770E+04  0.31585803668E+04  0.28069460057E+04 0.  0.
        3    1    3    3  502    0  0.20733423687E+02 -0.13882652909E+04 -0.95485306803E+03  0.16850681839E+04  0.10100000352E+00 0.  1.
       -3    1    3    3    0  502 -0.20733423687E+02  0.13882652909E+04 -0.49348530901E+03  0.14735121829E+04  0.10100000352E+00 0. -1.
</event>
<event>
 5   0  0.7613444E-06  0.2613903E+04  0.7818609E-02  0.8363494E-01
        1   -1    0    0  501    0  0.00000000000E+00  0.00000000000E+00  0.87383660174E+03  0.87383660176E+03  0.50400001928E-02 0.  1.
       -1   -1    0    0    0  501  0.00000000000E+00  0.00000000000E+00 -0.19547385437E+04  0.19547385437E+04  0.50400001928E-02 0. -1.
    10030    2    1    2    0    0  0.00000000000E+00  0.00000000000E+00 -0.10809019420E+04  0.28285751455E+04  0.26139028952E+04 0.  0.
        5    1    3    3  502    0 -0.39779001589E+03  0.25804824423E+03  0.77746886010E+03  0.91066223789E+03  0.46999998093E+01 0.  1.
       -5    1    3    3    0  502  0.39779001589E+03 -0.25804824423E+03 -0.18583708021E+04  0.19179129076E+04  0.46999998093E+01 0. -1.
</event>
<event>
 5   0  0.1814230E-05  0.2814997E+04  0.7818609E-02  0.8298628E-01
        2   -1    0    0  501    0  0.00000000000E+00  0.00000000000E+00  0.12743239077E+04  0.12743239077E+04  0.25500000920E-02 0.  1.
       -2   -1    0    0    0  501  0.00000000000E+00  0.00000000000E+00 -0.15545901512E+04  0.15545901512E+04  0.25500000920E-02 0. -1.
    10030    2    1    2    0    0  0.00000000000E+00  0.00000000000E+00 -0.28026624349E+03  0.28289140589E+04  0.28149965516E+04 0.  0.
        5    1    3    3  502    0 -0.60552284776E+03 -0.10963397002E+04 -0.78550022219E+03  0.14783948548E+04  0.46999998093E+01 0. -1.
       -5    1    3    3    0  502  0.60552284776E+03  0.10963397002E+04  0.50523397871E+03  0.13505192041E+04  0.46999998093E+01 0.  1.
</event>
<event>
 5   0  0.7555871E-06  0.2468001E+04  0.7818609E-02  0.8414475E-01
        1   -1    0    0  501    0  0.00000000000E+00  0.00000000000E+00  0.11956057393E+04  0.11956057393E+04  0.50400001928E-02 0.  1.
       -1   -1    0    0    0  501  0.00000000000E+00  0.00000000000E+00 -0.12736280292E+04  0.12736280293E+04  0.50400001928E-02 0. -1.
    10030    2    1    2    0    0  0.00000000000E+00  0.00000000000E+00 -0.78022289909E+02  0.24692337686E+04  0.24680007954E+04 0.  0.
        3    1    3    3  502    0 -0.14132271082E+03  0.69561908715E+03 -0.10489206723E+04  0.12665277770E+04  0.10100000352E+00 0. -1.
       -3    1    3    3    0  502  0.14132271082E+03 -0.69561908715E+03  0.97089838240E+03  0.12027059916E+04  0.10100000352E+00 0.  1.
</event>
<event>
 5   0  0.7613444E-06  0.2824088E+04  0.7818609E-02  0.8295829E-01
       -1   -1    0    0    0  501  0.00000000000E+00  0.00000000000E+00  0.83793710910E+03  0.83793710912E+03  0.50400001928E-02 0. -1.
        1   -1    0    0  501    0  0.00000000000E+00  0.00000000000E+00 -0.23794957448E+04  0.23794957448E+04  0.50400001928E-02 0.  1.
    10030    2    1    2    0    0  0.00000000000E+00  0.00000000000E+00 -0.15415586357E+04  0.32174328539E+04  0.28240876654E+04 0.  0.
        5    1    3    3  502    0  0.10453768598E+04 -0.46552320915E+03 -0.17132357233E+04  0.20602726447E+04  0.46999998093E+01 0.  1.
       -5    1    3    3    0  502 -0.10453768598E+04  0.46552320915E+03  0.17167708758E+03  0.11571602092E+04  0.46999998093E+01 0. -1.
</event>
<event>
 5   0  0.7509685E-06  0.2896287E+04  0.7818609E-02  0.8273983E-01
        1   -1    0    0  501    0  0.00000000000E+00  0.00000000000E+00  0.13556629783E+04  0.13556629783E+04  0.50400001928E-02 0.  1.
       -1   -1    0    0    0  501  0.00000000000E+00  0.00000000000E+00 -0.15469324326E+04  0.15469324326E+04  0.50400001928E-02 0. -1.
    10030    2    1    2    0    0  0.00000000000E+00  0.00000000000E+00 -0.19126945423E+03  0.29025954109E+04  0.28962866079E+04 0.  0.
        4    1    3    3  502    0  0.12184304856E+04  0.64108813858E+03  0.35428701384E+03  0.14216496582E+04  0.12699999809E+01 0.  1.
       -4    1    3    3    0  502 -0.12184304856E+04 -0.64108813858E+03 -0.54555646807E+03  0.14809457527E+04  0.12699999809E+01 0. -1.
</event>
<event>
 5   0  0.7681342E-06  0.2749274E+04  0.7818609E-02  0.8319192E-01
       -1   -1    0    0    0  501  0.00000000000E+00  0.00000000000E+00  0.25130325268E+04  0.25130325268E+04  0.50400001928E-02 0.  1.
        1   -1    0    0  501    0  0.00000000000E+00  0.00000000000E+00 -0.75193108817E+03  0.75193108818E+03  0.50400001928E-02 0. -1.
    10030    2    1    2    0    0  0.00000000000E+00  0.00000000000E+00  0.17611014387E+04  0.32649636150E+04  0.27492742915E+04 0.  0.
        2    1    3    3  502    0  0.38996960148E+03  0.35292402407E+03  0.23888129982E+04  0.24460292716E+04  0.25500000920E-02 0.  1.
       -2    1    3    3    0  502 -0.38996960148E+03 -0.35292402407E+03 -0.62771155957E+03  0.81893434344E+03  0.25500000920E-02 0. -1.
</event>
<event>
 5   0  0.1832502E-05  0.2730072E+04  0.7818609E-02  0.8325313E-01
       -2   -1    0    0    0  501  0.00000000000E+00  0.00000000000E+00  0.13443321885E+04  0.13443321885E+04  0.25500000920E-02 0.  1.
        2   -1    0    0  501    0  0.00000000000E+00  0.00000000000E+00 -0.13860588414E+04  0.13860588415E+04  0.25500000920E-02 0. -1.
    10030    2    1    2    0    0  0.00000000000E+00  0.00000000000E+00 -0.41726652972E+02  0.27303910299E+04  0.27300721717E+04 0.  0.
        2    1    3    3  502    0 -0.96742498248E+03  0.76555848809E+03 -0.60516834672E+03  0.13741250392E+04  0.25500000920E-02 0. -1.
       -2    1    3    3    0  502  0.96742498248E+03 -0.76555848809E+03  0.56344169375E+03  0.13562659908E+04  0.25500000920E-02 0.  1.
</event>
<event>
 5   0  0.1874272E-05  0.2833144E+04  0.7818609E-02  0.8293052E-01
       -2   -1    0    0    0  501  0.00000000000E+00  0.00000000000E+00  0.17570759174E+04  0.17570759174E+04  0.25500000920E-02 0. -1.
        2   -1    0    0  501    0  0.00000000000E+00  0.00000000000E+00 -0.11420546026E+04  0.11420546026E+04  0.25500000920E-02 0.  1.
    10030    2    1    2    0    0  0.00000000000E+00  0.00000000000E+00  0.61502131481E+03  0.28991305200E+04  0.28331442876E+04 0.  0.
        3    1    3    3  502    0  0.42246270353E+03 -0.12237989590E+04  0.89580765677E+03  0.15743665380E+04  0.10100000352E+00 0.  1.
       -3    1    3    3    0  502 -0.42246270353E+03  0.12237989590E+04 -0.28078634196E+03  0.13247639820E+04  0.10100000352E+00 0. -1.
</event>
<event>
 5   0  0.1923559E-05  0.2807969E+04  0.7818609E-02  0.8300799E-01
       -2   -1    0    0    0  501  0.00000000000E+00  0.00000000000E+00  0.87241147204E+03  0.87241147204E+03  0.25500000920E-02 0.  1.
        2   -1    0    0  501    0  0.00000000000E+00  0.00000000000E+00 -0.22594521332E+04  0.22594521332E+04  0.25500000920E-02 0. -1.
    10030    2    1    2    0    0  0.00000000000E+00  0.00000000000E+00 -0.13870406611E+04  0.31318636052E+04  0.28079686334E+04 0.  0.
        4    1    3    3  502    0  0.60869469866E+03 -0.12129082732E+04 -0.10949135277E+04  0.17437009381E+04  0.12699999809E+01 0. -1.
       -4    1    3    3    0  502 -0.60869469866E+03  0.12129082732E+04 -0.29212713343E+03  0.13881626671E+04  0.12699999809E+01 0.  1.
</event>
<event>
 5   0  0.7613444E-06  0.2950534E+04  0.7818609E-02  0.8257999E-01
       -1   -1    0    0    0  501  0.00000000000E+00  0.00000000000E+00  0.10455423335E+04  0.10455423335E+04  0.50400001928E-02 0.  1.
        1   -1    0    0  501    0  0.00000000000E+00  0.00000000000E+00 -0.20816117473E+04  0.20816117473E+04  0.50400001928E-02 0. -1.
    10030    2    1    2    0    0  0.00000000000E+00  0.00000000000E+00 -0.10360694138E+04  0.31271540808E+04  0.29505343271E+04 0.  0.
        5    1    3    3  502    0  0.78829698278E+03  0.97215024199E+03  0.30967672494E+03  0.12893447910E+04  0.46999998093E+01 0.  1.
       -5    1    3    3    0  502 -0.78829698278E+03 -0.97215024199E+03 -0.13457461387E+04  0.18378092899E+04  0.46999998093E+01 0. -1.
</event>
<event>
 5   0  0.1904553E-05  0.2842619E+04  0.7818609E-02  0.8290158E-01
       -2   -1    0    0    0  501  0.00000000000E+00  0.00000000000E+00  0.17280663714E+04  0.17280663714E+04  0.25500000920E-02 0. -1.
        2   -1    0    0  501    0  0.00000000000E+00  0.00000000000E+00 -0.11690063557E+04  0.11690063557E+04  0.25500000920E-02 0.  1.
    10030    2    1    2    0    0  0.00000000000E+00  0.00000000000E+00  0.55906001577E+03  0.28970727271E+04  0.28426189131E+04 0.  0.
        1    1    3    3  502    0  0.50082037321E+03  0.12706098829E+04  0.68057807910E+03  0.15259282561E+04  0.50400001928E-02 0. -1.
       -1    1    3    3    0  502 -0.50082037321E+03 -0.12706098829E+04 -0.12151806334E+03  0.13711444711E+04  0.50400001928E-02 0.  1.
</event>
<event>
 5   0  0.1814230E-05  0.3022360E+04  0.7818609E-02  0.8237374E-01
        2   -1    0    0  501    0  0.00000000000E+00  0.00000000000E+00  0.16444256966E+04  0.16444256966E+04  0.25500000920E-02 0. -1.
       -2   -1    0    0    0  501  0.00000000000E+00  0.00000000000E+00 -0.13887313148E+04  0.13887313148E+04  0.25500000920E-02 0.  1.
    10030    2    1    2    0    0  0.00000000000E+00  0.00000000000E+00  0.25569438186E+03  0.30331570114E+04  0.30223603093E+04 0.  0.
        5    1    3    3  502    0  0.59067003574E+03  0.10269293968E+04  0.10693714503E+04  0.15959487667E+04  0.46999998093E+01 0. -1.
       -5    1    3    3    0  502 -0.59067003574E+03 -0.10269293968E+04 -0.81367706839E+03  0.14372082448E+04  0.46999998093E+01 0.  1.
</event>
<event>
 5   0  0.7509685E-06  0.2862712E+04  0.7818609E-02  0.8284059E-01
       -1   -1    0    0    0  501  0.00000000000E+00  0.00000000000E+00  0.96162907140E+03  0.96162907142E+03  0.50400001928E-02 0.  1.
        1   -1    0    0  501    0  0.00000000000E+00  0.00000000000E+00 -0.21305308547E+04  0.21305308547E+04  0.50400001928E-02 0. -1.
    10030    2    1    2    0    0  0.00000000000E+00  0.00000000000E+00 -0.11689017833E+04  0.30921599261E+04  0.28627122855E+04 0.  0.
        4    1    3    3  502    0  0.10704141050E+04 -0.93230133078E+03 -0.78305371742E+03  0.16211560273E+04  0.12699999809E+01 0. -1.
       -4    1    3    3    0  502 -0.10704141050E+04  0.93230133078E+03 -0.38584806590E+03  0.14710038989E+04  0.12699999809E+01 0.  1.
</event>
<event>
 5   0  0.7681342E-06  0.2767382E+04  0.7818609E-02  0.8313467E-01
        1   -1    0    0  501    0  0.00000000000E+00  0.00000000000E+00  0.19930547641E+04  0.19930547641E+04  0.50400001928E-02 0.  1.
       -1   -1    0    0    0  501  0.00000000000E+00  0.00000000000E+00 -0.96063656371E+03  0.96063656372E+03  0.50400001928E-02 0. -1.
    10030    2    1    2    0    0  0.00000000000E+00  0.00000000000E+00  0.10324182004E+04  0.29536913278E+04  0.27673823588E+04 0.  0.
        2    1    3    3  502    0 -0.11023149832E+04  0.81383558715E+03  0.72199663324E+03  0.15487755885E+04  0.25500000920E-02 0. -1.
       -2    1    3    3    0  502  0.11023149832E+04 -0.81383558715E+03  0.31042156715E+03  0.14049157393E+04  0.25500000920E-02 0.  1.
</event>
<event>
 5   0  0.7681342E-06  0.2769939E+04  0.7818609E-02  0.8312662E-01
        1   -1    0    0  501    0  0.00000000000E+00  0.00000000000E+00  0.11292474642E+04  0.11292474642E+04  0.50400001928E-02 0. -1.
       -1   -1    0    0    0  501  0.00000000000E+00  0.00000000000E+00 -0.16986002742E+04  0.16986002742E+04  0.50400001928E-02 0.  1.
    10030    2    1    2    0    0  0.00000000000E+00  0.00000000000E+00 -0.56935281001E+03  0.28278477384E+04  0.27699386653E+04 0.  0.
        2    1    3    3  502    0 -0.99892740493E+03  0.71472565771E+03  0.36858501446E+03  0.12823976135E+04  0.25500000920E-02 0. -1.
       -2    1    3    3    0  502  0.99892740493E+03 -0.71472565771E+03 -0.93793782447E+03  0.15454501249E+04  0.25500000920E-02 0.  1.
</event>
<event>
 5   0  0.7613444E-06  0.2780989E+04  0.7818609E-02  0.8309195E-01
       -1   -1    0    0    0  501  0.00000000000E+00  0.00000000000E+00  0.13373959952E+04  0.13373959952E+04  0.50400001928E-02 0.  1.
        1   -1    0    0  501    0  0.00000000000E+00  0.00000000000E+00 -0.14457009355E+04  0.14457009355E+04  0.50400001928E-02 0. -1.
    10030    2    1    2    0    0  0.00000000000E+00  0.00000000000E+00 -0.10830494034E+03  0.27830969307E+04  0.27809887748E+04 0.  0.
        5    1    3    3  502    0  0.14541024130E+03 -0.75314677312E+03  0.11065018384E+04  0.13463813013E+04  0.46999998093E+01 0.  1.
       -5    1    3    3    0  502 -0.14541024130E+03  0.75314677312E+03 -0.12148067787E+04  0.14367156294E+04  0.46999998093E+01 0. -1.
</event>
<event>
 5   0  0.7681342E-06  0.2819387E+04  0.7818609E-02  0.8297275E-01
        1   -1    0    0  501    0  0.00000000000E+00  0.00000000000E+00  0.19113824655E+04  0.19113824655E+04  0.50400001928E-02 0.  1.
       -1   -1    0    0    0  501  0.00000000000E+00  0.00000000000E+00 -0.10396852482E+04  0.10396852482E+04  0.50400001928E-02 0. -1.
    10030    2    1    2    0    0  0.00000000000E+00  0.00000000000E+00  0.87169721728E+03  0.29510677137E+04  0.28193872760E+04 0.  0.
        2    1    3    3  502    0 -0.11255282089E+04 -0.23572584500E+03 -0.41762116985E+03  0.12234328198E+04  0.25500000920E-02 0. -1.
       -2    1    3    3    0  502  0.11255282089E+04  0.23572584500E+03  0.12893183871E+04  0.17276348939E+04  0.25500000920E-02 0.  1.
</event>
<event>
 5   0  0.1832502E-05  0.2804749E+04  0.7818609E-02  0.8301795E-01
        2   -1    0    0  501    0  0.00000000000E+00  0.00000000000E+00  0.25299154444E+04  0.25299154444E+04  0.25500000920E-02 0.  1.
       -2   -1    0    0    0  501  0.00000000000E+00  0.00000000000E+00 -0.77735988755E+03  0.77735988756E+03  0.25500000920E-02 0. -1.
    10030    2    1    2    0    0  0.00000000000E+00  0.00000000000E+00  0.17525555569E+04  0.33072753320E+04  0.28047493902E+04 0.  0.
        2    1    3    3  502    0 -0.25061086449E+03  0.91843794952E+03  0.20904908724E+04  0.22970603301E+04  0.25500000920E-02 0.  1.
       -2    1    3    3    0  502  0.25061086449E+03 -0.91843794952E+03 -0.33793531554E+03  0.10102150019E+04  0.25500000920E-02 0. -1.
</event>
<event>
 5   0  0.1832502E-05  0.2817350E+04  0.7818609E-02  0.8297902E-01
       -2   -1    0    0    0  501  0.00000000000E+00  0.00000000000E+00  0.95963453612E+03  0.95963453612E+03  0.25500000920E-02 0.  1.
        2   -1    0    0  501    0  0.00000000000E+00  0.00000000000E+00 -0.20678345120E+04  0.20678345120E+04  0.25500000920E-02 0. -1.
    10030    2    1    2    0    0  0.00000000000E+00  0.00000000000E+00 -0.11081999758E+04  0.30274690481E+04  0.28173501115E+04 0.  0.
        2    1    3    3  502    0 -0.93784266869E+03 -0.79280898668E+03 -0.12956931403E+04  0.17851934558E+04  0.25500000920E-02 0. -1.
       -2    1    3    3    0  502  0.93784266869E+03  0.79280898668E+03  0.18749316447E+03  0.12422755923E+04  0.25500000920E-02 0.  1.
</event>
<event>
 5   0  0.1874272E-05  0.3067460E+04  0.7818609E-02  0.8224725E-01
       -2   -1    0    0    0  501  0.00000000000E+00  0.00000000000E+00  0.14101239839E+04  0.14101239840E+04  0.25500000920E-02 0.  1.
        2   -1    0    0  501    0  0.00000000000E+00  0.00000000000E+00 -0.16681710448E+04  0.16681710448E+04  0.25500000920E-02 0. -1.
    10030    2    1    2    0    0  0.00000000000E+00  0.00000000000E+00 -0.25804706085E+03  0.30782950288E+04  0.30674601869E+04 0.  0.
        3    1    3    3  502    0  0.75049915072E+03  0.33150364607E+02  0.12128532648E+04  0.14266607775E+04  0.10100000352E+00 0.  1.
       -3    1    3    3    0  502 -0.75049915072E+03 -0.33150364607E+02 -0.14709003256E+04  0.16516342513E+04  0.10100000352E+00 0. -1.
</event>
<event>
 5   0  0.7388013E-06  0.2884431E+04  0.7818609E-02  0.8277525E-01
       -1   -1    0    0    0  501  0.00000000000E+00  0.00000000000E+00  0.69598251099E+03  0.69598251100E+03  0.50400001928E-02 0.  1.
        1   -1    0    0  501    0  0.00000000000E+00  0.00000000000E+00 -0.29885599348E+04  0.29885599348E+04  0.50400001928E-02 0. -1.
    10030    2    1    2    0    0  0.00000000000E+00  0.00000000000E+00 -0.22925774238E+04  0.36845424458E+04  0.28844309301E+04 0.  0.
        1    1    3    3  502    0  0.12520382208E+04 -0.53111356357E+03 -0.53326922908E+03  0.14608413310E+04  0.50400001928E-02 0.  1.
       -1    1    3    3    0  502 -0.12520382208E+04  0.53111356357E+03 -0.17593081947E+04  0.22237011147E+04  0.50400001928E-02 0. -1.
</event>
<event>
 5   0  0.7681342E-06  0.2773245E+04  0.7818609E-02  0.8311623E-01
        1   -1    0    0  501    0  0.00000000000E+00  0.00000000000E+00  0.17223762379E+04  0.17223762379E+04  0.50400001928E-02 0. -1.
       -1   -1    0    0    0  501  0.00000000000E+00  0.00000000000E+00 -0.11163196087E+04  0.11163196087E+04  0.50400001928E-02 0.  1.
    10030    2    1    2    0    0  0.00000000000E+00  0.00000000000E+00  0.60605662918E+03  0.28386958466E+04  0.27732452960E+04 0.  0.
        2    1    3    3  502    0  0.73526038515E+03  0.95586333028E+03 -0.39755127990E+03  0.12697753976E+04  0.25500000920E-02 0.  1.
       -2    1    3    3    0  502 -0.73526038515E+03 -0.95586333028E+03  0.10036079091E+04  0.15689204490E+04  0.25500000920E-02 0. -1.
</event>
<event>
 5   0  0.7681342E-06  0.2810975E+04  0.7818609E-02  0.8299869E-01
       -1   -1    0    0    0  501  0.00000000000E+00  0.00000000000E+00  0.14116427457E+04  0.14116427457E+04  0.50400001928E-02 0. -1.
        1   -1    0    0  501    0  0.00000000000E+00  0.00000000000E+00 -0.13993587068E+04  0.13993587068E+04  0.50400001928E-02 0.  1.
    10030    2    1    2    0    0  0.00000000000E+00  0.00000000000E+00  0.12284038978E+02  0.28110014525E+04  0.28109746118E+04 0.  0.
        2    1    3    3  502    0  0.48421970805E+03 -0.52679232322E+03  0.12158707646E+04  0.14107872248E+04  0.25500000920E-02 0. -1.
       -2    1    3    3    0  502 -0.48421970805E+03  0.52679232322E+03 -0.12035867256E+04  0.14002142277E+04  0.25500000920E-02 0.  1.
</event>
<event>
 5   0  0.1874272E-05  0.2785283E+04  0.7818609E-02  0.8307852E-01
        2   -1    0    0  501    0  0.00000000000E+00  0.00000000000E+00  0.15315050864E+04  0.15315050864E+04  0.25500000920E-02 0.  1.
       -2   -1    0    0    0  501  0.00000000000E+00  0.00000000000E+00 -0.12663692711E+04  0.12663692711E+04  0.25500000920E-02 0. -1.
    10030    2    1    2    0    0  0.00000000000E+00  0.00000000000E+00  0.26513581523E+03  0.27978743575E+04  0.27852834541E+04 0.  0.
        3    1    3    3  502    0 -0.91897303085E+03 -0.71172057303E+03 -0.63796766258E+03  0.13259186831E+04  0.10100000352E+00 0. -1.
       -3    1    3    3    0  502  0.91897303085E+03  0.71172057303E+03  0.90310347781E+03  0.14719556744E+04  0.10100000352E+00 0.  1.
</event>
<event>
 5   0  0.1832502E-05  0.2808146E+04  0.7818609E-02  0.8300744E-01
        2   -1    0    0  501    0  0.00000000000E+00  0.00000000000E+00  0.21947359675E+04  0.21947359675E+04  0.25500000920E-02 0.  1.
       -2   -1    0    0    0  501  0.00000000000E+00  0.00000000000E+00 -0.89824971848E+03  0.89824971848E+03  0.25500000920E-02 0. -1.
    10030    2    1    2    0    0  0.00000000000E+00  0.00000000000E+00  0.12964862490E+04  0.30929856860E+04  0.28081459826E+04 0.  0.
        2    1    3    3  502    0 -0.54551199205E+03 -0.53194667922E+03 -0.65073415699E+03  0.10020007715E+04  0.25500000920E-02 0. -1.
       -2    1    3    3    0  502  0.54551199205E+03  0.53194667922E+03  0.19472204060E+04  0.20909849145E+04  0.25500000920E-02 0.  1.
</event>
<event>
 5   0  0.1832502E-05  0.2811565E+04  0.7818609E-02  0.8299687E-01
        2   -1    0    0  501    0  0.00000000000E+00  0.00000000000E+00  0.95318747400E+03  0.95318747401E+03  0.25500000920E-02 0.  1.
       -2   -1    0    0    0  501  0.00000000000E+00  0.00000000000E+00 -0.20732801849E+04  0.20732801849E+04  0.25500000920E-02 0. -1.
    10030    2    1    2    0    0  0.00000000000E+00  0.00000000000E+00 -0.11200927109E+04  0.30264676589E+04  0.28115651886E+04 0.  0.
        2    1    3    3  502    0  0.38393723693E+03  0.54757300456E+03 -0.18910795375E+04  0.20058479041E+04  0.25500000920E-02 0. -1.
       -2    1    3    3    0  502 -0.38393723693E+03 -0.54757300456E+03  0.77098682657E+03  0.10206197548E+04  0.25500000920E-02 0.  1.
</event>
<event>
 5   0  0.7509685E-06  0.2791003E+04  0.7818609E-02  0.8306067E-01
       -1   -1    0    0    0  501  0.00000000000E+00  0.00000000000E+00  0.97955480388E+03  0.97955480389E+03  0.50400001928E-02 0. -1.
        1   -1    0    0  501    0  0.00000000000E+00  0.00000000000E+00 -0.19880707666E+04  0.19880707666E+04  0.50400001928E-02 0.  1.
    10030    2    1    2    0    0  0.00000000000E+00  0.00000000000E+00 -0.10085159627E+04  0.29676255705E+04  0.27910028806E+04 0.  0.
        4    1    3    3  502    0  0.59874655686E+03  0.10352877425E+04 -0.12688644744E+04  0.17436561634E+04  0.12699999809E+01 0.  1.
       -4    1    3    3    0  502 -0.59874655686E+03 -0.10352877425E+04  0.26034851164E+03  0.12239694071E+04  0.12699999809E+01 0. -1.
</event>
<event>
 5   0  0.1904553E-05  0.2765465E+04  0.7818609E-02  0.8314071E-01
        2   -1    0    0  501    0  0.00000000000E+00  0.00000000000E+00  0.16230645969E+04  0.16230645969E+04  0.25500000920E-02 0. -1.
       -2   -1    0    0    0  501  0.00000000000E+00  0.00000000000E+00 -0.11779867071E+04  0.11779867071E+04  0.25500000920E-02 0.  1.
    10030    2    1    2    0    0  0.00000000000E+00  0.00000000000E+00  0.44507788985E+03  0.28010513040E+04  0.27654645324E+04 0.  0.
        1    1    3    3  502    0  0.19365482188E+03  0.16592032689E+03 -0.11539623790E+04  0.11818040942E+04  0.50400001928E-02 0.  1.
       -1    1    3    3    0  502 -0.19365482188E+03 -0.16592032689E+03  0.15990402689E+04  0.16192472098E+04  0.50400001928E-02 0. -1.
</event>
<event>
 5   0  0.1874272E-05  0.2307409E+04  0.7818609E-02  0.8475006E-01
        2   -1    0    0  501    0  0.00000000000E+00  0.00000000000E+00  0.13948800363E+04  0.13948800364E+04  0.25500000920E-02 0.  1.
       -2   -1    0    0    0  501  0.00000000000E+00  0.00000000000E+00 -0.95422844475E+03  0.95422844475E+03  0.25500000920E-02 0. -1.
    10030    2    1    2    0    0  0.00000000000E+00  0.00000000000E+00  0.44065159160E+03  0.23491084811E+04  0.23074091165E+04 0.  0.
        3    1    3    3  502    0  0.98320997953E+03  0.59088127121E+03  0.94843908635E+02  0.11510160371E+04  0.10100000352E+00 0. -1.
       -3    1    3    3    0  502 -0.98320997953E+03 -0.59088127121E+03  0.34580768296E+03  0.11980924440E+04  0.10100000352E+00 0.  1.
</event>
<event>
 5   0  0.7681342E-06  0.2276336E+04  0.7818609E-02  0.8487310E-01
        1   -1    0    0  501    0  0.00000000000E+00  0.00000000000E+00  0.14546460591E+04  0.14546460592E+04  0.50400001928E-02 0.  1.
       -1   -1    0    0    0  501  0.00000000000E+00  0.00000000000E+00 -0.89054403434E+03  0.89054403435E+03  0.50400001928E-02 0. -1.
    10030    2    1    2    0    0  0.00000000000E+00  0.00000000000E+00  0.56410202481E+03  0.23451900935E+04  0.22763359770E+04 0.  0.
        2    1    3    3  502    0  0.75131283099E+03  0.58309503851E+02  0.11608200029E+04  0.13839703925E+04  0.25500000920E-02 0.  1.
       -2    1    3    3    0  502 -0.75131283099E+03 -0.58309503851E+02 -0.59671797806E+03  0.96121970100E+03  0.25500000920E-02 0. -1.
</event>
<event>
 5   0  0.1874272E-05  0.2854002E+04  0.7818609E-02  0.8286696E-01
        2   -1    0    0  501    0  0.00000000000E+00  0.00000000000E+00  0.12628024074E+04  0.12628024074E+04  0.25500000920E-02 0. -1.
       -2   -1    0    0    0  501  0.00000000000E+00  0.00000000000E+00 -0.16125501801E+04  0.16125501801E+04  0.25500000920E-02 0.  1.
    10030    2    1    2    0    0  0.00000000000E+00  0.00000000000E+00 -0.34974777269E+03  0.28753525875E+04  0.28540022771E+04 0.  0.
        3    1    3    3  502    0 -0.21257417091E+03 -0.13206588380E+04 -0.67558749592E+03  0.14985813356E+04  0.10100000352E+00 0.  1.
       -3    1    3    3    0  502  0.21257417091E+03  0.13206588380E+04  0.32583972323E+03  0.13767712519E+04  0.10100000352E+00 0. -1.
</event>
<event>
 5   0  0.1832502E-05  0.2647352E+04  0.7818609E-02  0.8352292E-01
        2   -1    0    0  501    0  0.00000000000E+00  0.00000000000E+00  0.19192298200E+04  0.19192298200E+04  0.25500000920E-02 0.  1.
       -2   -1    0    0    0  501  0.00000000000E+00  0.00000000000E+00 -0.91292806833E+03  0.91292806833E+03  0.25500000920E-02 0. -1.
    10030    2    1    2    0    0  0.00000000000E+00  0.00000000000E+00  0.10063017516E+04  0.28321578883E+04  0.26473524678E+04 0.  0.
        2    1    3    3  502    0 -0.20327926612E+03 -0.12714621978E+04  0.83146191004E+03  0.15327320341E+04  0.25500000920E-02 0. -1.
       -2    1    3    3    0  502  0.20327926612E+03  0.12714621978E+04  0.17483984160E+03  0.12994258542E+04  0.25500000920E-02 0.  1.
</event>
<event>
 5   0  0.1814230E-05  0.2774747E+04  0.7818609E-02  0.8311151E-01
       -2   -1    0    0    0  501  0.00000000000E+00  0.00000000000E+00  0.22685285579E+04  0.22685285579E+04  0.25500000920E-02 0.  1.
        2   -1    0    0  501    0  0.00000000000E+00  0.00000000000E+00 -0.84848211787E+03  0.84848211787E+03  0.25500000920E-02 0. -1.
    10030    2    1    2    0    0  0.00000000000E+00  0.00000000000E+00  0.14200464400E+04  0.31170106757E+04  0.27747474950E+04 0.  0.
        5    1    3    3  502    0  0.11147302929E+04  0.81514854419E+03  0.56060065819E+03  0.14904314687E+04  0.46999998093E+01 0. -1.
       -5    1    3    3    0  502 -0.11147302929E+04 -0.81514854419E+03  0.85944578181E+03  0.16265792070E+04  0.46999998093E+01 0.  1.
</event>
<event>
 5   0  0.7613444E-06  0.2825942E+04  0.7818609E-02  0.8295259E-01
        1   -1    0    0  501    0  0.00000000000E+00  0.00000000000E+00  0.19858937674E+04  0.19858937674E+04  0.50400001928E-02 0.  1.
       -1   -1    0    0    0  501  0.00000000000E+00  0.00000000000E+00 -0.10053342366E+04  0.10053342366E+04  0.50400001928E-02 0. -1.
    10030    2    1    2    0    0  0.00000000000E+00  0.00000000000E+00  0.98055953081E+03  0.29912280041E+04  0.28259419631E+04 0.  0.
        5    1    3    3  502    0 -0.96328680095E+02  0.51703282963E+03 -0.89785993132E+03  0.10405655711E+04  0.46999998093E+01 0. -1.
       -5    1    3    3    0  502  0.96328680095E+02 -0.51703282963E+03  0.18784194621E+04  0.19506624329E+04  0.46999998093E+01 0.  1.
</event>
<event>
 5   0  0.7613444E-06  0.2807810E+04  0.7818609E-02  0.8300848E-01
       -1   -1    0    0    0  501  0.00000000000E+00  0.00000000000E+00  0.95372571773E+03  0.95372571774E+03  0.50400001928E-02 0.  1.
        1   -1    0    0  501    0  0.00000000000E+00  0.00000000000E+00 -0.20665781053E+04  0.20665781053E+04  0.50400001928E-02 0. -1.
    10030    2    1    2    0    0  0.00000000000E+00  0.00000000000E+00 -0.11128523875E+04  0.30203038230E+04  0.28078095995E+04 0.  0.
        5    1    3    3  502    0  0.59807322297E+03 -0.77138937994E+03  0.52899457053E+03  0.11102209245E+04  0.46999998093E+01 0.  1.
       -5    1    3    3    0  502 -0.59807322297E+03  0.77138937994E+03 -0.16418469581E+04  0.19100828985E+04  0.46999998093E+01 0. -1.
</event>
<event>
 5   0  0.1904553E-05  0.1739072E+04  0.7818609E-02  0.8739389E-01
       -2   -1    0    0    0  501  0.00000000000E+00  0.00000000000E+00  0.42440954978E+03  0.42440954978E+03  0.25500000920E-02 0. -1.
        2   -1    0    0  501    0  0.00000000000E+00  0.00000000000E+00 -0.17815163445E+04  0.17815163445E+04  0.25500000920E-02 0.  1.
    10030    2    1    2    0    0  0.00000000000E+00  0.00000000000E+00 -0.13571067948E+04  0.22059258943E+04  0.17390716486E+04 0.  0.
        1    1    3    3  502    0  0.40348197845E+03 -0.76978802231E+03 -0.64448792718E+03  0.10820055427E+04  0.50400001928E-02 0. -1.
       -1    1    3    3    0  502 -0.40348197845E+03  0.76978802231E+03 -0.71261886759E+03  0.11239203516E+04  0.50400001928E-02 0.  1.
</event>
<event>
 5   0  0.7509685E-06  0.2800676E+04  0.7818609E-02  0.8303059E-01
        1   -1    0    0  501    0  0.00000000000E+00  0.00000000000E+00  0.14522403746E+04  0.14522403747E+04  0.50400001928E-02 0.  1.
       -1   -1    0    0    0  501  0.00000000000E+00  0.00000000000E+00 -0.13502905813E+04  0.13502905813E+04  0.50400001928E-02 0. -1.
    10030    2    1    2    0    0  0.00000000000E+00  0.00000000000E+00  0.10194979336E+03  0.28025309560E+04  0.28006759896E+04 0.  0.
        4    1    3    3  502    0 -0.29173961590E+02  0.13714059509E+04 -0.23088431823E+03  0.13910120716E+04  0.12699999809E+01 0. -1.
       -4    1    3    3    0  502  0.29173961590E+02 -0.13714059509E+04  0.33283411159E+03  0.14115188843E+04  0.12699999809E+01 0.  1.
</event>
<event>
 5   0  0.1832502E-05  0.2920939E+04  0.7818609E-02  0.8266675E-01
       -2   -1    0    0    0  501  0.00000000000E+00  0.00000000000E+00  0.10825528875E+04  0.10825528875E+04  0.25500000920E-02 0.  1.
        2   -1    0    0  501    0  0.00000000000E+00  0.00000000000E+00 -0.19703162030E+04  0.19703162030E+04  0.25500000920E-02 0. -1.
    10030    2    1    2    0    0  0.00000000000E+00  0.00000000000E+00 -0.88776331547E+03  0.30528690905E+04  0.29209392289E+04 0.  0.
        2    1    3    3  502    0  0.66927635167E+03 -0.31125042324E+03 -0.17610258199E+04  0.19094553148E+04  0.25500000920E-02 0. -1.
       -2    1    3    3    0  502 -0.66927635167E+03  0.31125042324E+03  0.87326250439E+03  0.11434137757E+04  0.25500000920E-02 0.  1.
</event>
<event>
 5   0  0.7388013E-06  0.2281156E+04  0.7818609E-02  0.8485388E-01
       -1   -1    0    0    0  501  0.00000000000E+00  0.00000000000E+00  0.71967946918E+03  0.71967946920E+03  0.50400001928E-02 0.  1.
        1   -1    0    0  501    0  0.00000000000E+00  0.00000000000E+00 -0.18076357423E+04  0.18076357423E+04  0.50400001928E-02 0. -1.
    10030    2    1    2    0    0  0.00000000000E+00  0.00000000000E+00 -0.10879562731E+04  0.25273152115E+04  0.22811561380E+04 0.  0.
        1    1    3    3  502    0 -0.42458254068E+03  0.17072643934E+03 -0.17014657828E+04  0.17619317981E+04  0.50400001928E-02 0. -1.
       -1    1    3    3    0  502  0.42458254068E+03 -0.17072643934E+03  0.61350950973E+03  0.76538341339E+03  0.50400001928E-02 0.  1.
</event>
<event>
 5   0  0.1923559E-05  0.2909033E+04  0.7818609E-02  0.8270195E-01
       -2   -1    0    0    0  501  0.00000000000E+00  0.00000000000E+00  0.10375201266E+04  0.10375201266E+04  0.25500000920E-02 0.  1.
        2   -1    0    0  501    0  0.00000000000E+00  0.00000000000E+00 -0.20391106877E+04  0.20391106877E+04  0.25500000920E-02 0. -1.
    10030    2    1    2    0    0  0.00000000000E+00  0.00000000000E+00 -0.10015905611E+04  0.30766308143E+04  0.29090330894E+04 0.  0.
        4    1    3    3  502    0 -0.33260669829E+03 -0.80688546388E+03  0.72982506763E+03  0.11376895929E+04  0.12699999809E+01 0.  1.
       -4    1    3    3    0  502  0.33260669829E+03  0.80688546388E+03 -0.17314156287E+04  0.19389412213E+04  0.12699999809E+01 0. -1.
</event>
<event>
 5   0  0.7509685E-06  0.2834326E+04  0.7818609E-02  0.8292690E-01
       -1   -1    0    0    0  501  0.00000000000E+00  0.00000000000E+00  0.16177475810E+04  0.16177475810E+04  0.50400001928E-02 0. -1.
        1   -1    0    0  501    0  0.00000000000E+00  0.00000000000E+00 -0.12414488227E+04  0.12414488227E+04  0.50400001928E-02 0.  1.
    10030    2    1    2    0    0  0.00000000000E+00  0.00000000000E+00  0.37629875833E+03  0.28591964037E+04  0.28343259021E+04 0.  0.
        4    1    3    3  502    0  0.25597373824E+03  0.45696378377E+03  0.15165225561E+04  0.16044253583E+04  0.12699999809E+01 0. -1.
       -4    1    3    3    0  502 -0.25597373824E+03 -0.45696378377E+03 -0.11402237978E+04  0.12547710454E+04  0.12699999809E+01 0.  1.
</event>
<event>
 5   0  0.1814230E-05  0.2804473E+04  0.7818609E-02  0.8301881E-01
       -2   -1    0    0    0  501  0.00000000000E+00  0.00000000000E+00  0.21546618501E+04  0.21546618501E+04  0.25500000920E-02 0. -1.
        2   -1    0    0  501    0  0.00000000000E+00  0.00000000000E+00 -0.91256433326E+03  0.91256433326E+03  0.25500000920E-02 0.  1.
    10030    2    1    2    0    0  0.00000000000E+00  0.00000000000E+00  0.12420975168E+04  0.30672261833E+04  0.28044732515E+04 0.  0.
        5    1    3    3  502    0 -0.10218582777E+04  0.62419146117E+03  0.14190953844E+04  0.18567883886E+04  0.46999998093E+01 0. -1.
       -5    1    3    3    0  502  0.10218582777E+04 -0.62419146117E+03 -0.17699786761E+03  0.12104377948E+04  0.46999998093E+01 0.  1.
</event>
<event>
 5   0  0.7509685E-06  0.2795621E+04  0.7818609E-02  0.8304629E-01
        1   -1    0    0  501    0  0.00000000000E+00  0.00000000000E+00  0.13101496071E+04  0.13101496072E+04  0.50400001928E-02 0.  1.
       -1   -1    0    0    0  501  0.00000000000E+00  0.00000000000E+00 -0.14913369556E+04  0.14913369556E+04  0.50400001928E-02 0. -1.
    10030    2    1    2    0    0  0.00000000000E+00  0.00000000000E+00 -0.18118734843E+03  0.28014865627E+04  0.27956212379E+04 0.  0.
        4    1    3    3  502    0  0.87418292482E+03 -0.43060655647E+03  0.91363412670E+03  0.13357944164E+04  0.12699999809E+01 0.  1.
       -4    1    3    3    0  502 -0.87418292482E+03  0.43060655647E+03 -0.10948214751E+04  0.14656921463E+04  0.12699999809E+01 0. -1.
</event>
<event>
 5   0  0.7613444E-06  0.2301335E+04  0.7818609E-02  0.8477395E-01
       -1   -1    0    0    0  501  0.00000000000E+00  0.00000000000E+00  0.85909003144E+03  0.85909003146E+03  0.50400001928E-02 0. -1.
        1   -1    0    0  501    0  0.00000000000E+00  0.00000000000E+00 -0.15412074245E+04  0.15412074245E+04  0.50400001928E-02 0.  1.
    10030    2    1    2    0    0  0.00000000000E+00  0.00000000000E+00 -0.68211739301E+03  0.24002974559E+04  0.23013352079E+04 0.  0.
        5    1    3    3  502    0 -0.67338723530E+03 -0.92863039643E+03 -0.43555873288E+03  0.12270037822E+04  0.46999998093E+01 0. -1.
       -5    1    3    3    0  502  0.67338723530E+03  0.92863039643E+03 -0.24655866013E+03  0.11732936737E+04  0.46999998093E+01 0.  1.
</event>
<event>
 5   0  0.1904553E-05  0.2800580E+04  0.7818609E-02  0.8303088E-01
       -2   -1    0    0    0  501  0.00000000000E+00  0.00000000000E+00  0.10722939475E+04  0.10722939475E+04  0.25500000920E-02 0. -1.
        2   -1    0    0  501    0  0.00000000000E+00  0.00000000000E+00 -0.18286149307E+04  0.18286149307E+04  0.25500000920E-02 0.  1.
    10030    2    1    2    0    0  0.00000000000E+00  0.00000000000E+00 -0.75632098323E+03  0.29009088782E+04  0.28005804559E+04 0.  0.
        1    1    3    3  502    0 -0.73668227648E+03  0.82455705919E+03  0.51181537815E+03  0.12184211512E+04  0.50400001928E-02 0. -1.
       -1    1    3    3    0  502  0.73668227648E+03 -0.82455705919E+03 -0.12681363614E+04  0.16824877270E+04  0.50400001928E-02 0.  1.
</event>
<event>
 5   0  0.7613444E-06  0.2800682E+04  0.7818609E-02  0.8303057E-01
       -1   -1    0    0    0  501  0.00000000000E+00  0.00000000000E+00  0.14353612478E+04  0.14353612478E+04  0.50400001928E-02 0.  1.
        1   -1    0    0  501    0  0.00000000000E+00  0.00000000000E+00 -0.13661755175E+04  0.13661755175E+04  0.50400001928E-02 0. -1.
    10030    2    1    2    0    0  0.00000000000E+00  0.00000000000E+00  0.69185730305E+02  0.28015367653E+04  0.28006823422E+04 0.  0.
        5    1    3    3  502    0  0.51357610659E+03 -0.68926331386E+03 -0.10712257222E+04  0.13734594901E+04  0.46999998093E+01 0. -1.
       -5    1    3    3    0  502 -0.51357610659E+03  0.68926331386E+03  0.11404114525E+04  0.14280772752E+04  0.46999998093E+01 0.  1.
</event>
<event>
 5   0  0.1904553E-05  0.2736607E+04  0.7818609E-02  0.8323224E-01
        2   -1    0    0  501    0  0.00000000000E+00  0.00000000000E+00  0.21013659861E+04  0.21013659861E+04  0.25500000920E-02 0.  1.
       -2   -1    0    0    0  501  0.00000000000E+00  0.00000000000E+00 -0.89097001352E+03  0.89097001352E+03  0.25500000920E-02 0. -1.
    10030    2    1    2    0    0  0.00000000000E+00  0.00000000000E+00  0.12103959725E+04  0.29923359996E+04  0.27366067171E+04 0.  0.
        1    1    3    3  502    0  0.24777100484E+03 -0.12744988957E+04  0.10774308627E+04  0.16871855766E+04  0.50400001928E-02 0. -1.
       -1    1    3    3    0  502 -0.24777100484E+03  0.12744988957E+04  0.13296510987E+03  0.13051504230E+04  0.50400001928E-02 0.  1.
</event>
<event>
 5   0  0.7555871E-06  0.2121645E+04  0.7818609E-02  0.8551768E-01
       -1   -1    0    0    0  501  0.00000000000E+00  0.00000000000E+00  0.72557991415E+03  0.72557991417E+03  0.50400001928E-02 0. -1.
        1   -1    0    0  501    0  0.00000000000E+00  0.00000000000E+00 -0.15509587175E+04  0.15509587175E+04  0.50400001928E-02 0.  1.
    10030    2    1    2    0    0  0.00000000000E+00  0.00000000000E+00 -0.82537880335E+03  0.22765386317E+04  0.21216451099E+04 0.  0.
        3    1    3    3  502    0  0.56201957365E+03 -0.85452050438E+03 -0.11057915924E+03  0.10287366302E+04  0.10100000352E+00 0. -1.
       -3    1    3    3    0  502 -0.56201957365E+03  0.85452050438E+03 -0.71479964410E+03  0.12478020015E+04  0.10100000352E+00 0.  1.
</event>
<event>
 5   0  0.7613444E-06  0.2722715E+04  0.7818609E-02  0.8327672E-01
        1   -1    0    0  501    0  0.00000000000E+00  0.00000000000E+00  0.21853065352E+04  0.21853065352E+04  0.50400001928E-02 0. -1.
       -1   -1    0    0    0  501  0.00000000000E+00  0.00000000000E+00 -0.84807074087E+03  0.84807074089E+03  0.50400001928E-02 0.  1.
    10030    2    1    2    0    0  0.00000000000E+00  0.00000000000E+00  0.13372357943E+04  0.30333772761E+04  0.27227152127E+04 0.  0.
        5    1    3    3  502    0 -0.34419193042E+03  0.12456290808E+04  0.11454898951E+04  0.17269131656E+04  0.46999998093E+01 0. -1.
       -5    1    3    3    0  502  0.34419193042E+03 -0.12456290808E+04  0.19174589922E+03  0.13064641104E+04  0.46999998093E+01 0.  1.
</event>
<event>
 5   0  0.1923559E-05  0.2803639E+04  0.7818609E-02  0.8302139E-01
       -2   -1    0    0    0  501  0.00000000000E+00  0.00000000000E+00  0.10626402257E+04  0.10626402257E+04  0.25500000920E-02 0.  1.
        2   -1    0    0  501    0  0.00000000000E+00  0.00000000000E+00 -0.18492604273E+04  0.18492604273E+04  0.25500000920E-02 0. -1.
    10030    2    1    2    0    0  0.00000000000E+00  0.00000000000E+00 -0.78662020164E+03  0.29119006530E+04  0.28036394332E+04 0.  0.
        4    1    3    3  502    0  0.48777915241E+03 -0.12466513737E+04 -0.82533973441E+03  0.15726587167E+04  0.12699999809E+01 0.  1.
       -4    1    3    3    0  502 -0.48777915241E+03  0.12466513737E+04  0.38719532770E+02  0.13392419364E+04  0.12699999809E+01 0. -1.
</event>
<event>
 5   0  0.1832502E-05  0.2831359E+04  0.7818609E-02  0.8293598E-01
        2   -1    0    0  501    0  0.00000000000E+00  0.00000000000E+00  0.11852787637E+04  0.11852787637E+04  0.25500000920E-02 0.  1.
       -2   -1    0    0    0  501  0.00000000000E+00  0.00000000000E+00 -0.16908666915E+04  0.16908666915E+04  0.25500000920E-02 0. -1.
    10030    2    1    2    0    0  0.00000000000E+00  0.00000000000E+00 -0.50558792778E+03  0.28761454553E+04  0.28313589541E+04 0.  0.
        2    1    3    3  502    0  0.52333161591E+03 -0.80220660634E+03  0.80616256741E+03  0.12519223237E+04  0.25500000920E-02 0.  1.
       -2    1    3    3    0  502 -0.52333161591E+03  0.80220660634E+03 -0.13117504952E+04  0.16242231316E+04  0.25500000920E-02 0. -1.
</event>
<event>
 5   0  0.7509685E-06  0.2797648E+04  0.7818609E-02  0.8303999E-01
       -1   -1    0    0    0  501  0.00000000000E+00  0.00000000000E+00  0.87095257370E+03  0.87095257371E+03  0.50400001928E-02 0. -1.
        1   -1    0    0  501    0  0.00000000000E+00  0.00000000000E+00 -0.22466297957E+04  0.22466297957E+04  0.50400001928E-02 0.  1.
    10030    2    1    2    0    0  0.00000000000E+00  0.00000000000E+00 -0.13756772220E+04  0.31175823694E+04  0.27976475852E+04 0.  0.
        4    1    3    3  502    0  0.11004780526E+04 -0.69878431685E+03 -0.12252274862E+03  0.13093375816E+04  0.12699999809E+01 0. -1.
       -4    1    3    3    0  502 -0.11004780526E+04  0.69878431685E+03 -0.12531544734E+04  0.18082447879E+04  0.12699999809E+01 0.  1.
</event>
<event>
 5   0  0.1814230E-05  0.2791841E+04  0.7818609E-02  0.8305806E-01
        2   -1    0    0  501    0  0.00000000000E+00  0.00000000000E+00  0.12763820233E+04  0.12763820233E+04  0.25500000920E-02 0. -1.
       -2   -1    0    0    0  501  0.00000000000E+00  0.00000000000E+00 -0.15266542722E+04  0.15266542722E+04  0.25500000920E-02 0.  1.
    10030    2    1    2    0    0  0.00000000000E+00  0.00000000000E+00 -0.25027224893E+03  0.28030362955E+04  0.27918410190E+04 0.  0.
        5    1    3    3  502    0  0.99833401637E+03  0.74121296451E+02  0.85159956348E+03  0.13143092031E+04  0.46999998093E+01 0. -1.
       -5    1    3    3    0  502 -0.99833401637E+03 -0.74121296451E+02 -0.11018718124E+04  0.14887270925E+04  0.46999998093E+01 0.  1.
</event>
<event>
 5   0  0.7388013E-06  0.2798962E+04  0.7818609E-02  0.8303591E-01
       -1   -1    0    0    0  501  0.00000000000E+00  0.00000000000E+00  0.15293428174E+04  0.15293428174E+04  0.50400001928E-02 0. -1.
        1   -1    0    0  501    0  0.00000000000E+00  0.00000000000E+00 -0.12806465438E+04  0.12806465438E+04  0.50400001928E-02 0.  1.
    10030    2    1    2    0    0  0.00000000000E+00  0.00000000000E+00  0.24869627362E+03  0.28099893612E+04  0.27989623745E+04 0.  0.
        1    1    3    3  502    0  0.89521885614E+03 -0.86804494595E+03  0.76216892465E+03  0.14614445930E+04  0.50400001928E-02 0. -1.
       -1    1    3    3    0  502 -0.89521885614E+03  0.86804494595E+03 -0.51347265103E+03  0.13485447682E+04  0.50400001928E-02 0.  1.
</event>
<event>
 5   0  0.1923559E-05  0.2774493E+04  0.7818609E-02  0.8311231E-01
        2   -1    0    0  501    0  0.00000000000E+00  0.00000000000E+00  0.12591677415E+04  0.12591677415E+04  0.25500000920E-02 0. -1.
       -2   -1    0    0    0  501  0.00000000000E+00  0.00000000000E+00 -0.15283529790E+04  0.15283529790E+04  0.25500000920E-02 0.  1.
    10030    2    1    2    0    0  0.00000000000E+00  0.00000000000E+00 -0.26918523755E+03  0.27875207205E+04  0.27744929402E+04 0.  0.
        4    1    3    3  502    0 -0.29123197641E+01 -0.10983258984E+04 -0.98599305199E+03  0.14759783779E+04  0.12699999809E+01 0.  1.
       -4    1    3    3    0  502  0.29123197641E+01  0.10983258984E+04  0.71680781444E+03  0.13115423426E+04  0.12699999809E+01 0. -1.
</event>
<event>
 5   0  0.7681342E-06  0.1797875E+04  0.7818609E-02  0.8707431E-01
       -1   -1    0    0    0  501  0.00000000000E+00  0.00000000000E+00  0.79348454420E+03  0.79348454421E+03  0.50400001928E-02 0.  1.
        1   -1    0    0  501    0  0.00000000000E+00  0.00000000000E+00 -0.10184044614E+04  0.10184044615E+04  0.50400001928E-02 0. -1.
    10030    2    1    2    0    0  0.00000000000E+00  0.00000000000E+00 -0.22491991725E+03  0.18118890057E+04  0.17978745228E+04 0.  0.
        2    1    3    3  502    0 -0.51328482010E+03 -0.55492712347E+03 -0.60275278991E+03  0.96680729448E+03  0.25500000920E-02 0. -1.
       -2    1    3    3    0  502  0.51328482010E+03  0.55492712347E+03  0.37783287267E+03  0.84508171119E+03  0.25500000920E-02 0.  1.
</event>
<event>
 5   0  0.7681342E-06  0.2781976E+04  0.7818609E-02  0.8308886E-01
       -1   -1    0    0    0  501  0.00000000000E+00  0.00000000000E+00  0.13623148280E+04  0.13623148280E+04  0.50400001928E-02 0.  1.
        1   -1    0    0  501    0  0.00000000000E+00  0.00000000000E+00 -0.14202649463E+04  0.14202649463E+04  0.50400001928E-02 0. -1.
    10030    2    1    2    0    0  0.00000000000E+00  0.00000000000E+00 -0.57950118303E+02  0.27825797742E+04  0.27819762730E+04 0.  0.
        2    1    3    3  502    0 -0.31855350648E+02 -0.47444931756E+03  0.12784929201E+04  0.13640605064E+04  0.25500000920E-02 0.  1.
       -2    1    3    3    0  502  0.31855350648E+02  0.47444931756E+03 -0.13364430384E+04  0.14185192678E+04  0.25500000920E-02 0. -1.
</event>
<event>
 5   0  0.1832502E-05  0.2934949E+04  0.7818609E-02  0.8262554E-01
       -2   -1    0    0    0  501  0.00000000000E+00  0.00000000000E+00  0.34982823387E+04  0.34982823387E+04  0.25500000920E-02 0.  1.
        2   -1    0    0  501    0  0.00000000000E+00  0.00000000000E+00 -0.61558246785E+03  0.61558246786E+03  0.25500000920E-02 0. -1.
    10030    2    1    2    0    0  0.00000000000E+00  0.00000000000E+00  0.28826998708E+04  0.41138648065E+04  0.29349489095E+04 0.  0.
        2    1    3    3  502    0 -0.87512676470E+03  0.11712366248E+04  0.12649428806E+04  0.19333190571E+04  0.25500000920E-02 0.  1.
       -2    1    3    3    0  502  0.87512676470E+03 -0.11712366248E+04  0.16177569903E+04  0.21805457494E+04  0.25500000920E-02 0. -1.
</event>
<event>
 5   0  0.6288000E-06  0.2792838E+04  0.7818609E-02  0.8305495E-01
        3   -1    0    0  501    0  0.00000000000E+00  0.00000000000E+00  0.14910540292E+04  0.14910540327E+04  0.10100000352E+00 0.  1.
       -3   -1    0    0    0  501  0.00000000000E+00  0.00000000000E+00 -0.13077906021E+04  0.13077906060E+04  0.10100000352E+00 0. -1.
    10030    2    1    2    0    0  0.00000000000E+00  0.00000000000E+00  0.18326342708E+03  0.27988446387E+04  0.27928383104E+04 0.  0.
        2    1    3    3  502    0 -0.12019195454E+04  0.59847818042E+03 -0.29285957693E+03  0.13742465055E+04  0.25500000920E-02 0. -1.
       -2    1    3    3    0  502  0.12019195454E+04 -0.59847818042E+03  0.47612300402E+03  0.14245981332E+04  0.25500000920E-02 0.  1.
</event>
<event>
 5   0  0.7388013E-06  0.2931403E+04  0.7818609E-02  0.8263595E-01
        1   -1    0    0  501    0  0.00000000000E+00  0.00000000000E+00  0.11131196733E+04  0.11131196733E+04  0.50400001928E-02 0. -1.
       -1   -1    0    0    0  501  0.00000000000E+00  0.00000000000E+00 -0.19299642427E+04  0.19299642428E+04  0.50400001928E-02 0.  1.
    10030    2    1    2    0    0  0.00000000000E+00  0.00000000000E+00 -0.81684456948E+03  0.30430839160E+04  0.29314031912E+04 0.  0.
        1    1    3    3  502    0 -0.26478373426E+03 -0.13053611994E+04  0.22660434169E+03  0.13510839406E+04  0.50400001928E-02 0. -1.
       -1    1    3    3    0  502  0.26478373426E+03  0.13053611994E+04 -0.10434489112E+04  0.16919999755E+04  0.50400001928E-02 0.  1.
</event>
<event>
 5   0  0.7613444E-06  0.1881509E+04  0.7818609E-02  0.8664116E-01
       -1   -1    0    0    0  501  0.00000000000E+00  0.00000000000E+00  0.54227147691E+03  0.54227147694E+03  0.50400001928E-02 0. -1.
        1   -1    0    0  501    0  0.00000000000E+00  0.00000000000E+00 -0.16320593188E+04  0.16320593188E+04  0.50400001928E-02 0.  1.
    10030    2    1    2    0    0  0.00000000000E+00  0.00000000000E+00 -0.10897878418E+04  0.21743307957E+04  0.18815091998E+04 0.  0.
        5    1    3    3  502    0  0.56154277965E+03  0.22016764741E+03 -0.13791868732E+04  0.15053181085E+04  0.46999998093E+01 0.  1.
       -5    1    3    3    0  502 -0.56154277965E+03 -0.22016764741E+03  0.28939903138E+03  0.66901268725E+03  0.46999998093E+01 0. -1.
</event>
<event>
 5   0  0.1832502E-05  0.2785283E+04  0.7818609E-02  0.8307852E-01
        2   -1    0    0  501    0  0.00000000000E+00  0.00000000000E+00  0.15680054009E+04  0.15680054009E+04  0.25500000920E-02 0. -1.
       -2   -1    0    0    0  501  0.00000000000E+00  0.00000000000E+00 -0.12368905260E+04  0.12368905260E+04  0.25500000920E-02 0.  1.
    10030    2    1    2    0    0  0.00000000000E+00  0.00000000000E+00  0.33111487491E+03  0.28048959269E+04  0.27852834866E+04 0.  0.
        2    1    3    3  502    0  0.10348106108E+04  0.21499619119E+03  0.10788028284E+04  0.15102555760E+04  0.25500000920E-02 0. -1.
       -2    1    3    3    0  502 -0.10348106108E+04 -0.21499619119E+03 -0.74768795348E+03  0.12946403509E+04  0.25500000920E-02 0.  1.
</event>
<event>
 5   0  0.1832502E-05  0.2740962E+04  0.7818609E-02  0.8321835E-01
       -2   -1    0    0    0  501  0.00000000000E+00  0.00000000000E+00  0.95537089760E+03  0.95537089761E+03  0.25500000920E-02 0. -1.
        2   -1    0    0  501    0  0.00000000000E+00  0.00000000000E+00 -0.19659568523E+04  0.19659568523E+04  0.25500000920E-02 0.  1.
    10030    2    1    2    0    0  0.00000000000E+00  0.00000000000E+00 -0.10105859547E+04  0.29213277499E+04  0.27409618477E+04 0.  0.
        2    1    3    3  502    0 -0.52059104170E+03 -0.41330879967E+03 -0.17826484758E+04  0.19025442925E+04  0.25500000920E-02 0.  1.
       -2    1    3    3    0  502  0.52059104170E+03  0.41330879967E+03  0.77206252112E+03  0.10187834574E+04  0.25500000920E-02 0. -1.
</event>
<event>
 5   0  0.7388013E-06  0.2815673E+04  0.7818609E-02  0.8298419E-01
       -1   -1    0    0    0  501  0.00000000000E+00  0.00000000000E+00  0.93776530914E+03  0.93776530915E+03  0.50400001928E-02 0. -1.
        1   -1    0    0  501    0  0.00000000000E+00  0.00000000000E+00 -0.21135395246E+04  0.21135395246E+04  0.50400001928E-02 0.  1.
    10030    2    1    2    0    0  0.00000000000E+00  0.00000000000E+00 -0.11757742155E+04  0.30513048338E+04  0.28156733090E+04 0.  0.
        1    1    3    3  502    0  0.87407317588E+03  0.97250509696E+03 -0.22462783639E+02  0.13077746966E+04  0.50400001928E-02 0. -1.
       -1    1    3    3    0  502 -0.87407317588E+03 -0.97250509696E+03 -0.11533114319E+04  0.17435301372E+04  0.50400001928E-02 0.  1.
</event>
<event>
 5   0  0.1874272E-05  0.2648658E+04  0.7818609E-02  0.8351859E-01
       -2   -1    0    0    0  501  0.00000000000E+00  0.00000000000E+00  0.84774164861E+03  0.84774164861E+03  0.25500000920E-02 0.  1.
        2   -1    0    0  501    0  0.00000000000E+00  0.00000000000E+00 -0.20688459623E+04  0.20688459623E+04  0.25500000920E-02 0. -1.
    10030    2    1    2    0    0  0.00000000000E+00  0.00000000000E+00 -0.12211043137E+04  0.29165876109E+04  0.26486576878E+04 0.  0.
        3    1    3    3  502    0 -0.53425487268E+03  0.12053327593E+04 -0.74804933830E+03  0.15158605320E+04  0.10100000352E+00 0. -1.
       -3    1    3    3    0  502  0.53425487268E+03 -0.12053327593E+04 -0.47305497540E+03  0.14007270789E+04  0.10100000352E+00 0.  1.
</event>
<event>
 5   0  0.1874272E-05  0.2829239E+04  0.7818609E-02  0.8294248E-01
        2   -1    0    0  501    0  0.00000000000E+00  0.00000000000E+00  0.10725446927E+04  0.10725446927E+04  0.25500000920E-02 0.  1.
       -2   -1    0    0    0  501  0.00000000000E+00  0.00000000000E+00 -0.18657947223E+04  0.18657947223E+04  0.25500000920E-02 0. -1.
    10030    2    1    2    0    0  0.00000000000E+00  0.00000000000E+00 -0.79325002958E+03  0.29383394150E+04  0.28292389274E+04 0.  0.
        3    1    3    3  502    0  0.93172864000E+03 -0.66859262467E+01 -0.15020886611E+04  0.17676066633E+04  0.10100000352E+00 0. -1.
       -3    1    3    3    0  502 -0.93172864000E+03  0.66859262467E+01  0.70883863151E+03  0.11707327517E+04  0.10100000352E+00 0.  1.
</event>
<event>
 5   0  0.1923559E-05  0.2770898E+04  0.7818609E-02  0.8312361E-01
        2   -1    0    0  501    0  0.00000000000E+00  0.00000000000E+00  0.20167460753E+04  0.20167460753E+04  0.25500000920E-02 0.  1.
       -2   -1    0    0    0  501  0.00000000000E+00  0.00000000000E+00 -0.95176509319E+03  0.95176509320E+03  0.25500000920E-02 0. -1.
    10030    2    1    2    0    0  0.00000000000E+00  0.00000000000E+00  0.10649809821E+04  0.29685111685E+04  0.27708977002E+04 0.  0.
        4    1    3    3  502    0 -0.10867338281E+04 -0.61677717103E+02  0.14507491714E+04  0.18136894235E+04  0.12699999809E+01 0.  1.
       -4    1    3    3    0  502  0.10867338281E+04  0.61677717103E+02 -0.38576818929E+03  0.11548217450E+04  0.12699999809E+01 0. -1.
</event>
<event>
 5   0  0.7509685E-06  0.2776107E+04  0.7818609E-02  0.8310725E-01
        1   -1    0    0  501    0  0.00000000000E+00  0.00000000000E+00  0.16962166504E+04  0.16962166504E+04  0.50400001928E-02 0.  1.
       -1   -1    0    0    0  501  0.00000000000E+00  0.00000000000E+00 -0.11358760908E+04  0.11358760908E+04  0.50400001928E-02 0. -1.
    10030    2    1    2    0    0  0.00000000000E+00  0.00000000000E+00  0.56034055963E+03  0.28320927412E+04  0.27761065816E+04 0.  0.
        4    1    3    3  502    0  0.11137315081E+04 -0.76387591183E+03  0.60723854817E+03  0.14807580991E+04  0.12699999809E+01 0. -1.
       -4    1    3    3    0  502 -0.11137315081E+04  0.76387591183E+03 -0.46897988543E+02  0.13513346421E+04  0.12699999809E+01 0.  1.
</event>
<event>
 5   0  0.7509685E-06  0.2775884E+04  0.7818609E-02  0.8310795E-01
        1   -1    0    0  501    0  0.00000000000E+00  0.00000000000E+00  0.22357189616E+04  0.22357189616E+04  0.50400001928E-02 0.  1.
       -1   -1    0    0    0  501  0.00000000000E+00  0.00000000000E+00 -0.86163919122E+03  0.86163919123E+03  0.50400001928E-02 0. -1.
    10030    2    1    2    0    0  0.00000000000E+00  0.00000000000E+00  0.13740797704E+04  0.30973581529E+04  0.27758840595E+04 0.  0.
        4    1    3    3  502    0  0.72971834772E+03 -0.97633125679E+03  0.14277474579E+04  0.18772788835E+04  0.12699999809E+01 0.  1.
       -4    1    3    3    0  502 -0.72971834772E+03  0.97633125679E+03 -0.53667687483E+02  0.12200792694E+04  0.12699999809E+01 0. -1.
</event>
<event>
 5   0  0.1814230E-05  0.2795180E+04  0.7818609E-02  0.8304766E-01
        2   -1    0    0  501    0  0.00000000000E+00  0.00000000000E+00  0.23753024941E+04  0.23753024941E+04  0.25500000920E-02 0. -1.
       -2   -1    0    0    0  501  0.00000000000E+00  0.00000000000E+00 -0.82231947475E+03  0.82231947475E+03  0.25500000920E-02 0.  1.
    10030    2    1    2    0    0  0.00000000000E+00  0.00000000000E+00  0.15529830194E+04  0.31976219689E+04  0.27951797791E+04 0.  0.
        5    1    3    3  502    0  0.31354808150E+03 -0.13238056203E+04  0.41030855083E+03  0.14209675988E+04  0.46999998093E+01 0.  1.
       -5    1    3    3    0  502 -0.31354808150E+03  0.13238056203E+04  0.11426744686E+04  0.17766543701E+04  0.46999998093E+01 0. -1.
</event>
<event>
 5   0  0.7509685E-06  0.2734727E+04  0.7818609E-02  0.8323824E-01
       -1   -1    0    0    0  501  0.00000000000E+00  0.00000000000E+00  0.10820943275E+04  0.10820943275E+04  0.50400001928E-02 0. -1.
        1   -1    0    0  501    0  0.00000000000E+00  0.00000000000E+00 -0.17278377271E+04  0.17278377271E+04  0.50400001928E-02 0.  1.
    10030    2    1    2    0    0  0.00000000000E+00  0.00000000000E+00 -0.64574339957E+03  0.28099320546E+04  0.27347273381E+04 0.  0.
        4    1    3    3  502    0 -0.94246903049E+03 -0.49002521202E+03  0.56179867461E+03  0.12016621595E+04  0.12699999809E+01 0. -1.
       -4    1    3    3    0  502  0.94246903049E+03  0.49002521202E+03 -0.12075420742E+04  0.16082698952E+04  0.12699999809E+01 0.  1.
</event>
<event>
 5   0  0.1874272E-05  0.2769626E+04  0.7818609E-02  0.8312761E-01
        2   -1    0    0  501    0  0.00000000000E+00  0.00000000000E+00  0.20669876195E+04  0.20669876195E+04  0.25500000920E-02 0. -1.
       -2   -1    0    0    0  501  0.00000000000E+00  0.00000000000E+00 -0.92777853901E+03  0.92777853902E+03  0.25500000920E-02 0.  1.
    10030    2    1    2    0    0  0.00000000000E+00  0.00000000000E+00  0.11392090805E+04  0.29947661585E+04  0.27696257897E+04 0.  0.
        3    1    3    3  502    0 -0.90110637431E+03  0.78367478856E+03 -0.18850780238E+03  0.12089971356E+04  0.10100000352E+00 0.  1.
       -3    1    3    3    0  502  0.90110637431E+03 -0.78367478856E+03  0.13277168829E+04  0.17857690229E+04  0.10100000352E+00 0. -1.
</event>
<event>
 5   0  0.1874272E-05  0.1748992E+04  0.7818609E-02  0.8733906E-01
       -2   -1    0    0    0  501  0.00000000000E+00  0.00000000000E+00  0.45582299998E+03  0.45582299998E+03  0.25500000920E-02 0.  1.
        2   -1    0    0  501    0  0.00000000000E+00  0.00000000000E+00 -0.16777191350E+04  0.16777191350E+04  0.25500000920E-02 0. -1.
    10030    2    1    2    0    0  0.00000000000E+00  0.00000000000E+00 -0.12218961350E+04  0.21335421349E+04  0.17489916743E+04 0.  0.
        3    1    3    3  502    0 -0.34761620874E+03  0.47961064855E+03 -0.13957326623E+04  0.15162232941E+04  0.10100000352E+00 0. -1.
       -3    1    3    3    0  502  0.34761620874E+03 -0.47961064855E+03  0.17383652734E+03  0.61731884081E+03  0.10100000352E+00 0.  1.
</event>
<event>
 5   0  0.7509685E-06  0.2572337E+04  0.7818609E-02  0.8377659E-01
        1   -1    0    0  501    0  0.00000000000E+00  0.00000000000E+00  0.23763029773E+04  0.23763029773E+04  0.50400001928E-02 0.  1.
       -1   -1    0    0    0  501  0.00000000000E+00  0.00000000000E+00 -0.69613589766E+03  0.69613589767E+03  0.50400001928E-02 0. -1.
    10030    2    1    2    0    0  0.00000000000E+00  0.00000000000E+00  0.16801670796E+04  0.30724388749E+04  0.25723373078E+04 0.  0.
        4    1    3    3  502    0  0.32011639188E+03 -0.35660418471E+03 -0.58552354641E+03  0.75662440167E+03  0.12699999809E+01 0. -1.
       -4    1    3    3    0  502 -0.32011639188E+03  0.35660418471E+03  0.22656906260E+04  0.23158144733E+04  0.12699999809E+01 0.  1.
</event>
<event>
 5   0  0.7555871E-06  0.2761452E+04  0.7818609E-02  0.8315337E-01
       -1   -1    0    0    0  501  0.00000000000E+00  0.00000000000E+00  0.64685103008E+03  0.64685103010E+03  0.50400001928E-02 0.  1.
        1   -1    0    0  501    0  0.00000000000E+00  0.00000000000E+00 -0.29472078657E+04  0.29472078657E+04  0.50400001928E-02 0. -1.
    10030    2    1    2    0    0  0.00000000000E+00  0.00000000000E+00 -0.23003568357E+04  0.35940588958E+04  0.27614521135E+04 0.  0.
        3    1    3    3  502    0 -0.64074735334E+03  0.11338089606E+04 -0.55329074550E+03  0.14149949079E+04  0.10100000352E+00 0.  1.
       -3    1    3    3    0  502  0.64074735334E+03 -0.11338089606E+04 -0.17470660902E+04  0.21790639880E+04  0.10100000352E+00 0. -1.
</event>
<event>
 5   0  0.7509685E-06  0.2786512E+04  0.7818609E-02  0.8307468E-01
       -1   -1    0    0    0  501  0.00000000000E+00  0.00000000000E+00  0.23702163978E+04  0.23702163978E+04  0.50400001928E-02 0. -1.
        1   -1    0    0  501    0  0.00000000000E+00  0.00000000000E+00 -0.81898096443E+03  0.81898096444E+03  0.50400001928E-02 0.  1.
    10030    2    1    2    0    0  0.00000000000E+00  0.00000000000E+00  0.15512354333E+04  0.31891973622E+04  0.27865118779E+04 0.  0.
        4    1    3    3  502    0  0.50185642120E+03  0.12886874735E+04  0.58211310644E+03  0.15004774419E+04  0.12699999809E+01 0.  1.
       -4    1    3    3    0  502 -0.50185642120E+03 -0.12886874735E+04  0.96912232690E+03  0.16887199203E+04  0.12699999809E+01 0. -1.
</event>
<event>
 5   0  0.1814230E-05  0.2834767E+04  0.7818609E-02  0.8292555E-01
        2   -1    0    0  501    0  0.00000000000E+00  0.00000000000E+00  0.14007434371E+04  0.14007434371E+04  0.25500000920E-02 0.  1.
       -2   -1    0    0    0  501  0.00000000000E+00  0.00000000000E+00 -0.14342216381E+04  0.14342216382E+04  0.25500000920E-02 0. -1.
    10030    2    1    2    0    0  0.00000000000E+00  0.00000000000E+00 -0.33478201031E+02  0.28349650753E+04  0.28347673958E+04 0.  0.
        5    1    3    3  502    0  0.59356794093E+03 -0.27518276418E+03 -0.12741676258E+04  0.14323315548E+04  0.46999998093E+01 0. -1.
       -5    1    3    3    0  502 -0.59356794093E+03  0.27518276418E+03  0.12406894247E+04  0.14026335205E+04  0.46999998093E+01 0.  1.
</event>
<event>
 5   0  0.7509685E-06  0.2668984E+04  0.7818609E-02  0.8345139E-01
        1   -1    0    0  501    0  0.00000000000E+00  0.00000000000E+00  0.14853902584E+04  0.14853902584E+04  0.50400001928E-02 0. -1.
       -1   -1    0    0    0  501  0.00000000000E+00  0.00000000000E+00 -0.11989229781E+04  0.11989229781E+04  0.50400001928E-02 0.  1.
    10030    2    1    2    0    0  0.00000000000E+00  0.00000000000E+00  0.28646728036E+03  0.26843132365E+04  0.26689837109E+04 0.  0.
        4    1    3    3  502    0 -0.47640723709E+03  0.57354490656E+03 -0.96989747774E+03  0.12233643552E+04  0.12699999809E+01 0.  1.
       -4    1    3    3    0  502  0.47640723709E+03 -0.57354490656E+03  0.12563647581E+04  0.14609488813E+04  0.12699999809E+01 0. -1.
</event>
<event>
 5   0  0.7681342E-06  0.2767235E+04  0.7818609E-02  0.8313513E-01
       -1   -1    0    0    0  501  0.00000000000E+00  0.00000000000E+00  0.18428813090E+04  0.18428813090E+04  0.50400001928E-02 0. -1.
        1   -1    0    0  501    0  0.00000000000E+00  0.00000000000E+00 -0.10388067174E+04  0.10388067174E+04  0.50400001928E-02 0.  1.
    10030    2    1    2    0    0  0.00000000000E+00  0.00000000000E+00  0.80407459162E+03  0.28816880264E+04  0.27672350700E+04 0.  0.
        2    1    3    3  502    0  0.11488001566E+04 -0.25113546456E+03  0.11612927961E+04  0.16526983329E+04  0.25500000920E-02 0. -1.
       -2    1    3    3    0  502 -0.11488001566E+04  0.25113546456E+03 -0.35721820443E+03  0.12289896936E+04  0.25500000920E-02 0.  1.
</event>
<event>
 5   0  0.6288000E-06  0.2741137E+04  0.7818609E-02  0.8321779E-01
        3   -1    0    0  501    0  0.00000000000E+00  0.00000000000E+00  0.13477160860E+04  0.13477160898E+04  0.10100000352E+00 0.  1.
       -3   -1    0    0    0  501  0.00000000000E+00  0.00000000000E+00 -0.13938088217E+04  0.13938088253E+04  0.10100000352E+00 0. -1.
    10030    2    1    2    0    0  0.00000000000E+00  0.00000000000E+00 -0.46092735642E+02  0.27415249152E+04  0.27411374136E+04 0.  0.
        2    1    3    3  502    0  0.12568312254E+04 -0.25950752436E+03 -0.50424814410E+03  0.13788528113E+04  0.25500000920E-02 0. -1.
       -2    1    3    3    0  502 -0.12568312254E+04  0.25950752436E+03  0.45815540846E+03  0.13626721039E+04  0.25500000920E-02 0.  1.
</event>
<event>
 5   0  0.1832502E-05  0.2754492E+04  0.7818609E-02  0.8317538E-01
       -2   -1    0    0    0  501  0.00000000000E+00  0.00000000000E+00  0.78150609826E+03  0.78150609827E+03  0.25500000920E-02 0.  1.
        2   -1    0    0  501    0  0.00000000000E+00  0.00000000000E+00 -0.24271171710E+04  0.24271171710E+04  0.25500000920E-02 0. -1.
    10030    2    1    2    0    0  0.00000000000E+00  0.00000000000E+00 -0.16456110727E+04  0.32086232692E+04  0.27544922366E+04 0.  0.
        2    1    3    3  502    0  0.13215751491E+04  0.29392625114E+03 -0.11171589217E+04  0.17552770642E+04  0.25500000920E-02 0. -1.
       -2    1    3    3    0  502 -0.13215751491E+04 -0.29392625114E+03 -0.52845215106E+03  0.14533462051E+04  0.25500000920E-02 0.  1.
</event>
<event>
 5   0  0.1923559E-05  0.2799324E+04  0.7818609E-02  0.8303478E-01
       -2   -1    0    0    0  501  0.00000000000E+00  0.00000000000E+00  0.10575900536E+04  0.10575900537E+04  0.25500000920E-02 0.  1.
        2   -1    0    0  501    0  0.00000000000E+00  0.00000000000E+00 -0.18523756687E+04  0.18523756687E+04  0.25500000920E-02 0. -1.
    10030    2    1    2    0    0  0.00000000000E+00  0.00000000000E+00 -0.79478561500E+03  0.29099657223E+04  0.27993242633E+04 0.  0.
        4    1    3    3  502    0  0.10794534443E+04  0.81610345440E+03 -0.25760479637E+02  0.13534806249E+04  0.12699999809E+01 0.  1.
       -4    1    3    3    0  502 -0.10794534443E+04 -0.81610345440E+03 -0.76902513536E+03  0.15564850974E+04  0.12699999809E+01 0. -1.
</event>
<event>
 5   0  0.1874272E-05  0.2806537E+04  0.7818609E-02  0.8301242E-01
       -2   -1    0    0    0  501  0.00000000000E+00  0.00000000000E+00  0.10321231611E+04  0.10321231611E+04  0.25500000920E-02 0.  1.
        2   -1    0    0  501    0  0.00000000000E+00  0.00000000000E+00 -0.19078753965E+04  0.19078753965E+04  0.25500000920E-02 0. -1.
    10030    2    1    2    0    0  0.00000000000E+00  0.00000000000E+00 -0.87575223544E+03  0.29399985576E+04  0.28065369302E+04 0.  0.
        3    1    3    3  502    0 -0.26360816311E+03 -0.12587208729E+04 -0.10260893798E+04  0.16452133372E+04  0.10100000352E+00 0. -1.
       -3    1    3    3    0  502  0.26360816311E+03  0.12587208729E+04  0.15033714431E+03  0.12947852203E+04  0.10100000352E+00 0.  1.
</event>
<event>
 5   0  0.7388013E-06  0.2808661E+04  0.7818609E-02  0.8300585E-01
       -1   -1    0    0    0  501  0.00000000000E+00  0.00000000000E+00  0.30465337105E+04  0.30465337105E+04  0.50400001928E-02 0.  1.
        1   -1    0    0  501    0  0.00000000000E+00  0.00000000000E+00 -0.64734023906E+03  0.64734023908E+03  0.50400001928E-02 0. -1.
    10030    2    1    2    0    0  0.00000000000E+00  0.00000000000E+00  0.23991934715E+04  0.36938739496E+04  0.28086607916E+04 0.  0.
        1    1    3    3  502    0  0.45770407171E+03 -0.46619850485E+03 -0.43530087377E+03  0.78506108929E+03  0.50400001928E-02 0. -1.
       -1    1    3    3    0  502 -0.45770407171E+03  0.46619850485E+03  0.28344943452E+04  0.29088128603E+04  0.50400001928E-02 0.  1.
</event>
<event>
 5   0  0.7555871E-06  0.2795192E+04  0.7818609E-02  0.8304763E-01
       -1   -1    0    0    0  501  0.00000000000E+00  0.00000000000E+00  0.89181310802E+03  0.89181310804E+03  0.50400001928E-02 0.  1.
        1   -1    0    0  501    0  0.00000000000E+00  0.00000000000E+00 -0.21902281474E+04  0.21902281474E+04  0.50400001928E-02 0. -1.
    10030    2    1    2    0    0  0.00000000000E+00  0.00000000000E+00 -0.12984150394E+04  0.30820412555E+04  0.27951917083E+04 0.  0.
        3    1    3    3  502    0  0.15972813648E+03  0.48636360124E+03 -0.20831304641E+04  0.21451095941E+04  0.10100000352E+00 0. -1.
       -3    1    3    3    0  502 -0.15972813648E+03 -0.48636360124E+03  0.78471542466E+03  0.93693166138E+03  0.10100000352E+00 0.  1.
</event>
<event>
 5   0  0.7613444E-06  0.2200896E+04  0.7818609E-02  0.8518055E-01
       -1   -1    0    0    0  501  0.00000000000E+00  0.00000000000E+00  0.10378327240E+04  0.10378327240E+04  0.50400001928E-02 0.  1.
        1   -1    0    0  501    0  0.00000000000E+00  0.00000000000E+00 -0.11668409235E+04  0.11668409235E+04  0.50400001928E-02 0. -1.
    10030    2    1    2    0    0  0.00000000000E+00  0.00000000000E+00 -0.12900819949E+03  0.22046736475E+04  0.22008959032E+04 0.  0.
        5    1    3    3  502    0 -0.67361922532E+03 -0.84757534862E+03 -0.26186200021E+03  0.11138853754E+04  0.46999998093E+01 0.  1.
       -5    1    3    3    0  502  0.67361922532E+03  0.84757534862E+03  0.13285380071E+03  0.10907882722E+04  0.46999998093E+01 0. -1.
</event>
<event>
 5   0  0.7613444E-06  0.2450119E+04  0.7818609E-02  0.8420975E-01
       -1   -1    0    0    0  501  0.00000000000E+00  0.00000000000E+00  0.10793438471E+04  0.10793438471E+04  0.50400001928E-02 0.  1.
        1   -1    0    0  501    0  0.00000000000E+00  0.00000000000E+00 -0.13904472139E+04  0.13904472139E+04  0.50400001928E-02 0. -1.
    10030    2    1    2    0    0  0.00000000000E+00  0.00000000000E+00 -0.31110336677E+03  0.24697910610E+04  0.24501188911E+04 0.  0.
        5    1    3    3  502    0  0.10214193139E+04 -0.36565061702E+03 -0.72911115802E+03  0.13071430524E+04  0.46999998093E+01 0. -1.
       -5    1    3    3    0  502 -0.10214193139E+04  0.36565061702E+03  0.41800779125E+03  0.11626480087E+04  0.46999998093E+01 0.  1.
</event>
<event>
 5   0  0.1832502E-05  0.2392981E+04  0.7818609E-02  0.8442136E-01
       -2   -1    0    0    0  501  0.00000000000E+00  0.00000000000E+00  0.71478702772E+03  0.71478702773E+03  0.25500000920E-02 0. -1.
        2   -1    0    0  501    0  0.00000000000E+00  0.00000000000E+00 -0.20028196537E+04  0.20028196537E+04  0.25500000920E-02 0.  1.
    10030    2    1    2    0    0  0.00000000000E+00  0.00000000000E+00 -0.12880326260E+04  0.27176066814E+04  0.23929809923E+04 0.  0.
        2    1    3    3  502    0  0.11635120026E+04 -0.27056516178E+03 -0.56679310685E+03  0.13222027503E+04  0.25500000920E-02 0.  1.
       -2    1    3    3    0  502 -0.11635120026E+04  0.27056516178E+03 -0.72123951914E+03  0.13954039311E+04  0.25500000920E-02 0. -1.
</event>
<event>
 5   0  0.1832502E-05  0.2780500E+04  0.7818609E-02  0.8309348E-01
       -2   -1    0    0    0  501  0.00000000000E+00  0.00000000000E+00  0.16771896973E+04  0.16771896973E+04  0.25500000920E-02 0.  1.
        2   -1    0    0  501    0  0.00000000000E+00  0.00000000000E+00 -0.11524006755E+04  0.11524006755E+04  0.25500000920E-02 0. -1.
    10030    2    1    2    0    0  0.00000000000E+00  0.00000000000E+00  0.52478902183E+03  0.28295903728E+04  0.27804996243E+04 0.  0.
        2    1    3    3  502    0  0.16034183762E+03 -0.11836080830E+04  0.98640244736E+03  0.15490730736E+04  0.25500000920E-02 0.  1.
       -2    1    3    3    0  502 -0.16034183762E+03  0.11836080830E+04 -0.46161342554E+03  0.12805172993E+04  0.25500000920E-02 0. -1.
</event>
<event>
 5   0  0.7555871E-06  0.2768561E+04  0.7818609E-02  0.8313096E-01
       -1   -1    0    0    0  501  0.00000000000E+00  0.00000000000E+00  0.24488202825E+04  0.24488202825E+04  0.50400001928E-02 0. -1.
        1   -1    0    0  501    0  0.00000000000E+00  0.00000000000E+00 -0.78251233994E+03  0.78251233996E+03  0.50400001928E-02 0.  1.
    10030    2    1    2    0    0  0.00000000000E+00  0.00000000000E+00  0.16663079426E+04  0.32313326225E+04  0.27685607014E+04 0.  0.
        3    1    3    3  502    0 -0.87992008426E+03  0.76929493553E+03  0.16988617941E+04  0.20620876456E+04  0.10100000352E+00 0. -1.
       -3    1    3    3    0  502  0.87992008426E+03 -0.76929493553E+03 -0.32553851508E+02  0.11692449769E+04  0.10100000352E+00 0.  1.
</event>
<event>
 5   0  0.7388013E-06  0.2815854E+04  0.7818609E-02  0.8298363E-01
       -1   -1    0    0    0  501  0.00000000000E+00  0.00000000000E+00  0.90268162488E+03  0.90268162490E+03  0.50400001928E-02 0.  1.
        1   -1    0    0  501    0  0.00000000000E+00  0.00000000000E+00 -0.21959657024E+04  0.21959657025E+04  0.50400001928E-02 0. -1.
    10030    2    1    2    0    0  0.00000000000E+00  0.00000000000E+00 -0.12932840776E+04  0.30986473274E+04  0.28158536102E+04 0.  0.
        1    1    3    3  502    0 -0.11324741772E+04 -0.46113834058E+03  0.12138461770E+03  0.12287719709E+04  0.50400001928E-02 0.  1.
       -1    1    3    3    0  502  0.11324741772E+04  0.46113834058E+03 -0.14146686953E+04  0.18698753564E+04  0.50400001928E-02 0. -1.
</event>
<event>
 5   0  0.1904553E-05  0.2825505E+04  0.7818609E-02  0.8295394E-01
       -2   -1    0    0    0  501  0.00000000000E+00  0.00000000000E+00  0.12258835111E+04  0.12258835111E+04  0.25500000920E-02 0.  1.
        2   -1    0    0  501    0  0.00000000000E+00  0.00000000000E+00 -0.16281065953E+04  0.16281065953E+04  0.25500000920E-02 0. -1.
    10030    2    1    2    0    0  0.00000000000E+00  0.00000000000E+00 -0.40222308425E+03  0.28539901064E+04  0.28255045776E+04 0.  0.
        1    1    3    3  502    0  0.10671756957E+04 -0.51944646466E+03  0.57289073071E+03  0.13179121308E+04  0.50400001928E-02 0.  1.
       -1    1    3    3    0  502 -0.10671756957E+04  0.51944646466E+03 -0.97511381496E+03  0.15360779757E+04  0.50400001928E-02 0. -1.
</event>
<event>
 5   0  0.1814230E-05  0.2491631E+04  0.7818609E-02  0.8405973E-01
        2   -1    0    0  501    0  0.00000000000E+00  0.00000000000E+00  0.89966005842E+03  0.89966005843E+03  0.25500000920E-02 0.  1.
       -2   -1    0    0    0  501  0.00000000000E+00  0.00000000000E+00 -0.17251580757E+04  0.17251580757E+04  0.25500000920E-02 0. -1.
    10030    2    1    2    0    0  0.00000000000E+00  0.00000000000E+00 -0.82549801727E+03  0.26248181341E+04  0.24916306429E+04 0.  0.
        5    1    3    3  502    0  0.72699144697E+02 -0.72760210877E+03 -0.14752990953E+04  0.16465781199E+04  0.46999998093E+01 0. -1.
       -5    1    3    3    0  502 -0.72699144697E+02  0.72760210877E+03  0.64980107807E+03  0.97824001420E+03  0.46999998093E+01 0.  1.
</event>
<event>
 5   0  0.7681342E-06  0.2425284E+04  0.7818609E-02  0.8430098E-01
       -1   -1    0    0    0  501  0.00000000000E+00  0.00000000000E+00  0.53627644534E+03  0.53627644537E+03  0.50400001928E-02 0.  1.
        1   -1    0    0  501    0  0.00000000000E+00  0.00000000000E+00 -0.27420563407E+04  0.27420563407E+04  0.50400001928E-02 0. -1.
    10030    2    1    2    0    0  0.00000000000E+00  0.00000000000E+00 -0.22057798953E+04  0.32783327861E+04  0.24252836761E+04 0.  0.
        2    1    3    3  502    0  0.79825614737E+02  0.12087276154E+04 -0.10275601560E+04  0.15884818070E+04  0.25500000920E-02 0. -1.
       -2    1    3    3    0  502 -0.79825614737E+02 -0.12087276154E+04 -0.11782197394E+04  0.16898509790E+04  0.25500000920E-02 0.  1.
</event>
<event>
 5   0  0.7681342E-06  0.2783520E+04  0.7818609E-02  0.8308403E-01
       -1   -1    0    0    0  501  0.00000000000E+00  0.00000000000E+00  0.23969332107E+04  0.23969332107E+04  0.50400001928E-02 0.  1.
        1   -1    0    0  501    0  0.00000000000E+00  0.00000000000E+00 -0.80811396810E+03  0.80811396811E+03  0.50400001928E-02 0. -1.
    10030    2    1    2    0    0  0.00000000000E+00  0.00000000000E+00  0.15888192426E+04  0.32050471788E+04  0.27835195047E+04 0.  0.
        2    1    3    3  502    0 -0.90758031124E+03  0.10551264217E+04  0.79303703189E+03  0.16018431637E+04  0.25500000920E-02 0.  1.
       -2    1    3    3    0  502  0.90758031124E+03 -0.10551264217E+04  0.79578221074E+03  0.16032040151E+04  0.25500000920E-02 0. -1.
</event>
<event>
 5   0  0.7555871E-06  0.2765414E+04  0.7818609E-02  0.8314087E-01
        1   -1    0    0  501    0  0.00000000000E+00  0.00000000000E+00  0.10579117836E+04  0.10579117836E+04  0.50400001928E-02 0. -1.
       -1   -1    0    0    0  501  0.00000000000E+00  0.00000000000E+00 -0.18072194843E+04  0.18072194843E+04  0.50400001928E-02 0.  1.
    10030    2    1    2    0    0  0.00000000000E+00  0.00000000000E+00 -0.74930770072E+03  0.28651312679E+04  0.27654141013E+04 0.  0.
        3    1    3    3  502    0  0.72396184424E+03 -0.33997434380E+03  0.79392456449E+03  0.11269514323E+04  0.10100000352E+00 0. -1.
       -3    1    3    3    0  502 -0.72396184424E+03  0.33997434380E+03 -0.15432322652E+04  0.17381798356E+04  0.10100000352E+00 0.  1.
</event>
<event>
 5   0  0.1874272E-05  0.2818738E+04  0.7818609E-02  0.8297474E-01
       -2   -1    0    0    0  501  0.00000000000E+00  0.00000000000E+00  0.77563458535E+03  0.77563458535E+03  0.25500000920E-02 0. -1.
        2   -1    0    0  501    0  0.00000000000E+00  0.00000000000E+00 -0.25608982928E+04  0.25608982928E+04  0.25500000920E-02 0.  1.
    10030    2    1    2    0    0  0.00000000000E+00  0.00000000000E+00 -0.17852637074E+04  0.33365328781E+04  0.28187382180E+04 0.  0.
        3    1    3    3  502    0 -0.74611001090E+03 -0.51887647088E+02  0.52135333378E+03  0.91169171606E+03  0.10100000352E+00 0. -1.
       -3    1    3    3    0  502  0.74611001090E+03  0.51887647088E+02 -0.23066170412E+04  0.24248411621E+04  0.10100000352E+00 0.  1.
</event>
<event>
 5   0  0.7613444E-06  0.2786010E+04  0.7818609E-02  0.8307625E-01
       -1   -1    0    0    0  501  0.00000000000E+00  0.00000000000E+00  0.13119869521E+04  0.13119869521E+04  0.50400001928E-02 0.  1.
        1   -1    0    0  501    0  0.00000000000E+00  0.00000000000E+00 -0.14790262563E+04  0.14790262563E+04  0.50400001928E-02 0. -1.
    10030    2    1    2    0    0  0.00000000000E+00  0.00000000000E+00 -0.16703930427E+03  0.27910132084E+04  0.27860101580E+04 0.  0.
        5    1    3    3  502    0 -0.13105319210E+03  0.11250712790E+04 -0.89582762010E+03  0.14441224106E+04  0.46999998093E+01 0. -1.
       -5    1    3    3    0  502  0.13105319210E+03 -0.11250712790E+04  0.72878831584E+03  0.13468907978E+04  0.46999998093E+01 0.  1.
</event>
<event>
 5   0  0.7509685E-06  0.2783754E+04  0.7818609E-02  0.8308330E-01
        1   -1    0    0  501    0  0.00000000000E+00  0.00000000000E+00  0.16797828779E+04  0.16797828779E+04  0.50400001928E-02 0. -1.
       -1   -1    0    0    0  501  0.00000000000E+00  0.00000000000E+00 -0.11533166421E+04  0.11533166421E+04  0.50400001928E-02 0.  1.
    10030    2    1    2    0    0  0.00000000000E+00  0.00000000000E+00  0.52646623579E+03  0.28330995200E+04  0.27837539749E+04 0.  0.
        4    1    3    3  502    0 -0.13870090433E+04  0.11614061806E+03  0.26944091031E+03  0.14177033351E+04  0.12699999809E+01 0. -1.
       -4    1    3    3    0  502  0.13870090433E+04 -0.11614061806E+03  0.25702532548E+03  0.14153961849E+04  0.12699999809E+01 0.  1.
</event>
<event>
 5   0  0.1874272E-05  0.2781730E+04  0.7818609E-02  0.8308963E-01
       -2   -1    0    0    0  501  0.00000000000E+00  0.00000000000E+00  0.14430621863E+04  0.14430621863E+04  0.25500000920E-02 0.  1.
        2   -1    0    0  501    0  0.00000000000E+00  0.00000000000E+00 -0.13405555261E+04  0.13405555261E+04  0.25500000920E-02 0. -1.
    10030    2    1    2    0    0  0.00000000000E+00  0.00000000000E+00  0.10250666025E+03  0.27836177124E+04  0.27817296694E+04 0.  0.
        3    1    3    3  502    0  0.32009717577E+03 -0.13506005705E+04 -0.37806375830E+02  0.13885292345E+04  0.10100000352E+00 0. -1.
       -3    1    3    3    0  502 -0.32009717577E+03  0.13506005705E+04  0.14031303608E+03  0.13950884779E+04  0.10100000352E+00 0.  1.
</event>
<event>
 5   0  0.1814230E-05  0.2395749E+04  0.7818609E-02  0.8441097E-01
       -2   -1    0    0    0  501  0.00000000000E+00  0.00000000000E+00  0.74140583151E+03  0.74140583151E+03  0.25500000920E-02 0.  1.
        2   -1    0    0  501    0  0.00000000000E+00  0.00000000000E+00 -0.19353820056E+04  0.19353820056E+04  0.25500000920E-02 0. -1.
    10030    2    1    2    0    0  0.00000000000E+00  0.00000000000E+00 -0.11939761741E+04  0.26767878371E+04  0.23957491564E+04 0.  0.
        5    1    3    3  502    0 -0.48714139853E+03 -0.54722236593E+03 -0.16558525174E+04  0.18106984038E+04  0.46999998093E+01 0. -1.
       -5    1    3    3    0  502  0.48714139853E+03  0.54722236593E+03  0.46187634337E+03  0.86608943331E+03  0.46999998093E+01 0.  1.
</event>
<event>
 5   0  0.1814230E-05  0.2776428E+04  0.7818609E-02  0.8310624E-01
        2   -1    0    0  501    0  0.00000000000E+00  0.00000000000E+00  0.17481981308E+04  0.17481981308E+04  0.25500000920E-02 0. -1.
       -2   -1    0    0    0  501  0.00000000000E+00  0.00000000000E+00 -0.11023568611E+04  0.11023568611E+04  0.25500000920E-02 0.  1.
    10030    2    1    2    0    0  0.00000000000E+00  0.00000000000E+00  0.64584126974E+03  0.28505549919E+04  0.27764280679E+04 0.  0.
        5    1    3    3  502    0  0.76528976528E+03  0.34808738474E+02  0.15115149364E+04  0.16945735647E+04  0.46999998093E+01 0. -1.
       -5    1    3    3    0  502 -0.76528976528E+03 -0.34808738474E+02 -0.86567366664E+03  0.11559814273E+04  0.46999998093E+01 0.  1.
</event>
<event>
 5   0  0.1814230E-05  0.2800877E+04  0.7818609E-02  0.8302996E-01
        2   -1    0    0  501    0  0.00000000000E+00  0.00000000000E+00  0.30333379715E+04  0.30333379715E+04  0.25500000920E-02 0. -1.
       -2   -1    0    0    0  501  0.00000000000E+00  0.00000000000E+00 -0.64655772490E+03  0.64655772490E+03  0.25500000920E-02 0.  1.
    10030    2    1    2    0    0  0.00000000000E+00  0.00000000000E+00  0.23867802466E+04  0.36798956964E+04  0.28008770753E+04 0.  0.
        5    1    3    3  502    0 -0.32554386831E+03  0.29943070062E+03  0.29391469152E+04  0.29722456550E+04  0.46999998093E+01 0. -1.
       -5    1    3    3    0  502  0.32554386831E+03 -0.29943070062E+03 -0.55236666853E+03  0.70765004145E+03  0.46999998093E+01 0.  1.
</event>
<event>
 5   0  0.1832502E-05  0.1971953E+04  0.7818609E-02  0.8619847E-01
        2   -1    0    0  501    0  0.00000000000E+00  0.00000000000E+00  0.16716221358E+04  0.16716221359E+04  0.25500000920E-02 0. -1.
       -2   -1    0    0    0  501  0.00000000000E+00  0.00000000000E+00 -0.58156058427E+03  0.58156058428E+03  0.25500000920E-02 0.  1.
    10030    2    1    2    0    0  0.00000000000E+00  0.00000000000E+00  0.10900615516E+04  0.22531827201E+04  0.19719528859E+04 0.  0.
        2    1    3    3  502    0  0.40618590613E+03  0.61656960843E+03 -0.20161754025E+03  0.76537226559E+03  0.25500000920E-02 0.  1.
       -2    1    3    3    0  502 -0.40618590613E+03 -0.61656960843E+03  0.12916790918E+04  0.14878104545E+04  0.25500000920E-02 0. -1.
</event>
<event>
 5   0  0.1923559E-05  0.2751616E+04  0.7818609E-02  0.8318449E-01
        2   -1    0    0  501    0  0.00000000000E+00  0.00000000000E+00  0.12335877355E+04  0.12335877355E+04  0.25500000920E-02 0.  1.
       -2   -1    0    0    0  501  0.00000000000E+00  0.00000000000E+00 -0.15344252088E+04  0.15344252088E+04  0.25500000920E-02 0. -1.
    10030    2    1    2    0    0  0.00000000000E+00  0.00000000000E+00 -0.30083747332E+03  0.27680129443E+04  0.27516163385E+04 0.  0.
        4    1    3    3  502    0 -0.11037129244E+04  0.44581108184E+03  0.54355932154E+03  0.13085824731E+04  0.12699999809E+01 0.  1.
       -4    1    3    3    0  502  0.11037129244E+04 -0.44581108184E+03 -0.84439679486E+03  0.14594304712E+04  0.12699999809E+01 0. -1.
</event>
<event>
 5   0  0.1874272E-05  0.2837876E+04  0.7818609E-02  0.8291605E-01
       -2   -1    0    0    0  501  0.00000000000E+00  0.00000000000E+00  0.11341464350E+04  0.11341464350E+04  0.25500000920E-02 0. -1.
        2   -1    0    0  501    0  0.00000000000E+00  0.00000000000E+00 -0.17752424723E+04  0.17752424723E+04  0.25500000920E-02 0.  1.
    10030    2    1    2    0    0  0.00000000000E+00  0.00000000000E+00 -0.64109603724E+03  0.29093889073E+04  0.28378759108E+04 0.  0.
        3    1    3    3  502    0  0.10541502564E+04 -0.50382875211E+03  0.50491821767E+03  0.12727995094E+04  0.10100000352E+00 0. -1.
       -3    1    3    3    0  502 -0.10541502564E+04  0.50382875211E+03 -0.11460142549E+04  0.16365893979E+04  0.10100000352E+00 0.  1.
</event>
<event>
 5   0  0.1814230E-05  0.2780969E+04  0.7818609E-02  0.8309201E-01
       -2   -1    0    0    0  501  0.00000000000E+00  0.00000000000E+00  0.17752135849E+04  0.17752135849E+04  0.25500000920E-02 0. -1.
        2   -1    0    0  501    0  0.00000000000E+00  0.00000000000E+00 -0.10891346323E+04  0.10891346323E+04  0.25500000920E-02 0.  1.
    10030    2    1    2    0    0  0.00000000000E+00  0.00000000000E+00  0.68607895260E+03  0.28643482173E+04  0.27809686047E+04 0.  0.
        5    1    3    3  502    0 -0.28673218838E+03  0.82224570838E+03  0.14595711552E+04  0.16996097787E+04  0.46999998093E+01 0. -1.
       -5    1    3    3    0  502  0.28673218838E+03 -0.82224570838E+03 -0.77349220258E+03  0.11647384386E+04  0.46999998093E+01 0.  1.
</event>
<event>
 5   0  0.1904553E-05  0.2797213E+04  0.7818609E-02  0.8304134E-01
       -2   -1    0    0    0  501  0.00000000000E+00  0.00000000000E+00  0.10026014678E+04  0.10026014678E+04  0.25500000920E-02 0.  1.
        2   -1    0    0  501    0  0.00000000000E+00  0.00000000000E+00 -0.19510242342E+04  0.19510242342E+04  0.25500000920E-02 0. -1.
    10030    2    1    2    0    0  0.00000000000E+00  0.00000000000E+00 -0.94842276639E+03  0.29536257020E+04  0.27972127277E+04 0.  0.
        1    1    3    3  502    0  0.69603540115E+03 -0.81475895268E+03 -0.14232470046E+04  0.17815525440E+04  0.50400001928E-02 0. -1.
       -1    1    3    3    0  502 -0.69603540115E+03  0.81475895268E+03  0.47482423824E+03  0.11720731581E+04  0.50400001928E-02 0.  1.
</event>
<event>
 5   0  0.1904553E-05  0.2288464E+04  0.7818609E-02  0.8482483E-01
       -2   -1    0    0    0  501  0.00000000000E+00  0.00000000000E+00  0.48514422527E+03  0.48514422527E+03  0.25500000920E-02 0. -1.
        2   -1    0    0  501    0  0.00000000000E+00  0.00000000000E+00 -0.26987168877E+04  0.26987168877E+04  0.25500000920E-02 0.  1.
    10030    2    1    2    0    0  0.00000000000E+00  0.00000000000E+00 -0.22135726624E+04  0.31838611129E+04  0.22884640383E+04 0.  0.
        1    1    3    3  502    0 -0.15135144187E+02 -0.99151882334E+03 -0.19010615889E+04  0.21441487389E+04  0.50400001928E-02 0.  1.
       -1    1    3    3    0  502  0.15135144187E+02  0.99151882334E+03 -0.31251107345E+03  0.10397123740E+04  0.50400001928E-02 0. -1.
</event>
<event>
 5   0  0.7681342E-06  0.2782012E+04  0.7818609E-02  0.8308875E-01
       -1   -1    0    0    0  501  0.00000000000E+00  0.00000000000E+00  0.12233109782E+04  0.12233109782E+04  0.50400001928E-02 0.  1.
        1   -1    0    0  501    0  0.00000000000E+00  0.00000000000E+00 -0.15816896660E+04  0.15816896660E+04  0.50400001928E-02 0. -1.
    10030    2    1    2    0    0  0.00000000000E+00  0.00000000000E+00 -0.35837868778E+03  0.28050006443E+04  0.27820124605E+04 0.  0.
        2    1    3    3  502    0  0.30487607575E+02 -0.17216913731E+02  0.12228666085E+04  0.12233677528E+04  0.25500000920E-02 0.  1.
       -2    1    3    3    0  502 -0.30487607575E+02  0.17216913731E+02 -0.15812452963E+04  0.15816328915E+04  0.25500000920E-02 0. -1.
</event>
<event>
 5   0  0.1874272E-05  0.1938216E+04  0.7818609E-02  0.8636064E-01
       -2   -1    0    0    0  501  0.00000000000E+00  0.00000000000E+00  0.11785931032E+04  0.11785931032E+04  0.25500000920E-02 0.  1.
        2   -1    0    0  501    0  0.00000000000E+00  0.00000000000E+00 -0.79685693612E+03  0.79685693612E+03  0.25500000920E-02 0. -1.
    10030    2    1    2    0    0  0.00000000000E+00  0.00000000000E+00  0.38173616711E+03  0.19754500394E+04  0.19382157663E+04 0.  0.
        3    1    3    3  502    0 -0.17829477104E+03 -0.84634112248E+02  0.11578933108E+04  0.11745930732E+04  0.10100000352E+00 0.  1.
       -3    1    3    3    0  502  0.17829477104E+03  0.84634112248E+02 -0.77615714366E+03  0.80085696613E+03  0.10100000352E+00 0. -1.
</event>
<event>
 5   0  0.7509685E-06  0.2806519E+04  0.7818609E-02  0.8301247E-01
       -1   -1    0    0    0  501  0.00000000000E+00  0.00000000000E+00  0.11615718386E+04  0.11615718386E+04  0.50400001928E-02 0. -1.
        1   -1    0    0  501    0  0.00000000000E+00  0.00000000000E+00 -0.16952345852E+04  0.16952345852E+04  0.50400001928E-02 0.  1.
    10030    2    1    2    0    0  0.00000000000E+00  0.00000000000E+00 -0.53366274663E+03  0.28568064238E+04  0.28065186648E+04 0.  0.
        4    1    3    3  502    0  0.21117304469E+03 -0.35502093839E+03 -0.16319432566E+04  0.16834115145E+04  0.12699999809E+01 0.  1.
       -4    1    3    3    0  502 -0.21117304469E+03  0.35502093839E+03  0.10982805100E+04  0.11733949092E+04  0.12699999809E+01 0. -1.
</event>
<event>
 5   0  0.7388013E-06  0.2776113E+04  0.7818609E-02  0.8310723E-01
       -1   -1    0    0    0  501  0.00000000000E+00  0.00000000000E+00  0.69132418620E+03  0.69132418622E+03  0.50400001928E-02 0. -1.
        1   -1    0    0  501    0  0.00000000000E+00  0.00000000000E+00 -0.27869710208E+04  0.27869710208E+04  0.50400001928E-02 0.  1.
    10030    2    1    2    0    0  0.00000000000E+00  0.00000000000E+00 -0.20956468346E+04  0.34782952070E+04  0.27761127304E+04 0.  0.
        1    1    3    3  502    0 -0.84358160610E+03 -0.10686853777E+04 -0.70933988143E+03  0.15352138060E+04  0.50400001928E-02 0. -1.
       -1    1    3    3    0  502  0.84358160610E+03  0.10686853777E+04 -0.13863069531E+04  0.19430814010E+04  0.50400001928E-02 0.  1.
</event>
<event>
 5   0  0.7613444E-06  0.2782128E+04  0.7818609E-02  0.8308838E-01
       -1   -1    0    0    0  501  0.00000000000E+00  0.00000000000E+00  0.11643114951E+04  0.11643114951E+04  0.50400001928E-02 0.  1.
        1   -1    0    0  501    0  0.00000000000E+00  0.00000000000E+00 -0.16619770625E+04  0.16619770625E+04  0.50400001928E-02 0. -1.
    10030    2    1    2    0    0  0.00000000000E+00  0.00000000000E+00 -0.49766556733E+03  0.28262885576E+04  0.27821279614E+04 0.  0.
        5    1    3    3  502    0  0.83547575821E+02  0.21905031999E+03 -0.16417548954E+04  0.16584162526E+04  0.46999998093E+01 0. -1.
       -5    1    3    3    0  502 -0.83547575821E+02 -0.21905031999E+03  0.11440893281E+04  0.11678723050E+04  0.46999998093E+01 0.  1.
</event>
<event>
 5   0  0.1923559E-05  0.2197483E+04  0.7818609E-02  0.8519477E-01
       -2   -1    0    0    0  501  0.00000000000E+00  0.00000000000E+00  0.81623479374E+03  0.81623479375E+03  0.25500000920E-02 0.  1.
        2   -1    0    0  501    0  0.00000000000E+00  0.00000000000E+00 -0.14790260964E+04  0.14790260964E+04  0.25500000920E-02 0. -1.
    10030    2    1    2    0    0  0.00000000000E+00  0.00000000000E+00 -0.66279130264E+03  0.22952608901E+04  0.21974827059E+04 0.  0.
        4    1    3    3  502    0 -0.80854931238E+03  0.63684071872E+03  0.70311490055E+02  0.10316314313E+04  0.12699999809E+01 0.  1.
       -4    1    3    3    0  502  0.80854931238E+03 -0.63684071872E+03 -0.73310279269E+03  0.12636294588E+04  0.12699999809E+01 0. -1.
</event>
<event>
 5   0  0.7681342E-06  0.2773814E+04  0.7818609E-02  0.8311444E-01
        1   -1    0    0  501    0  0.00000000000E+00  0.00000000000E+00  0.17945473716E+04  0.17945473716E+04  0.50400001928E-02 0. -1.
       -1   -1    0    0    0  501  0.00000000000E+00  0.00000000000E+00 -0.10718642502E+04  0.10718642502E+04  0.50400001928E-02 0.  1.
    10030    2    1    2    0    0  0.00000000000E+00  0.00000000000E+00  0.72268312140E+03  0.28664116218E+04  0.27738141055E+04 0.  0.
        2    1    3    3  502    0 -0.11164744626E+04  0.65310989162E+03 -0.15580782567E+03  0.13028214900E+04  0.25500000920E-02 0. -1.
       -2    1    3    3    0  502  0.11164744626E+04 -0.65310989162E+03  0.87849094706E+03  0.15635901318E+04  0.25500000920E-02 0.  1.
</event>
<event>
 5   0  0.1832502E-05  0.2798622E+04  0.7818609E-02  0.8303696E-01
        2   -1    0    0  501    0  0.00000000000E+00  0.00000000000E+00  0.28943151223E+04  0.28943151223E+04  0.25500000920E-02 0. -1.
       -2   -1    0    0    0  501  0.00000000000E+00  0.00000000000E+00 -0.67652329161E+03  0.67652329161E+03  0.25500000920E-02 0.  1.
    10030    2    1    2    0    0  0.00000000000E+00  0.00000000000E+00  0.22177918307E+04  0.35708384139E+04  0.27986222278E+04 0.  0.
        2    1    3    3  502    0 -0.10598802183E+04  0.61333357538E+03  0.19729044975E+04  0.23220414097E+04  0.25500000920E-02 0. -1.
       -2    1    3    3    0  502  0.10598802183E+04 -0.61333357538E+03  0.24488733314E+03  0.12487970042E+04  0.25500000920E-02 0.  1.
</event>
<event>
 5   0  0.1904553E-05  0.2795517E+04  0.7818609E-02  0.8304662E-01
       -2   -1    0    0    0  501  0.00000000000E+00  0.00000000000E+00  0.17532390942E+04  0.17532390942E+04  0.25500000920E-02 0.  1.
        2   -1    0    0  501    0  0.00000000000E+00  0.00000000000E+00 -0.11143536623E+04  0.11143536623E+04  0.25500000920E-02 0. -1.
    10030    2    1    2    0    0  0.00000000000E+00  0.00000000000E+00  0.63888543189E+03  0.28675927565E+04  0.27955167004E+04 0.  0.
        1    1    3    3  502    0  0.13447770026E+04 -0.20780667740E+03  0.64724346664E+03  0.15068287584E+04  0.50400001928E-02 0. -1.
       -1    1    3    3    0  502 -0.13447770026E+04  0.20780667740E+03 -0.83580347507E+01  0.13607639982E+04  0.50400001928E-02 0.  1.
</event>
<event>
 5   0  0.1814230E-05  0.2759342E+04  0.7818609E-02  0.8316003E-01
        2   -1    0    0  501    0  0.00000000000E+00  0.00000000000E+00  0.15648469932E+04  0.15648469932E+04  0.25500000920E-02 0. -1.
       -2   -1    0    0    0  501  0.00000000000E+00  0.00000000000E+00 -0.12164077138E+04  0.12164077138E+04  0.25500000920E-02 0.  1.
    10030    2    1    2    0    0  0.00000000000E+00  0.00000000000E+00  0.34843927936E+03  0.27812547070E+04  0.27593419168E+04 0.  0.
        5    1    3    3  502    0 -0.10190936864E+04 -0.80028332586E+03 -0.30331963688E+03  0.13308005994E+04  0.46999998093E+01 0.  1.
       -5    1    3    3    0  502  0.10190936864E+04  0.80028332586E+03  0.65175891624E+03  0.14504541076E+04  0.46999998093E+01 0. -1.
</event>
<event>
 5   0  0.7681342E-06  0.2847667E+04  0.7818609E-02  0.8288621E-01
       -1   -1    0    0    0  501  0.00000000000E+00  0.00000000000E+00  0.11998956458E+04  0.11998956458E+04  0.50400001928E-02 0.  1.
        1   -1    0    0  501    0  0.00000000000E+00  0.00000000000E+00 -0.16895645829E+04  0.16895645829E+04  0.50400001928E-02 0. -1.
    10030    2    1    2    0    0  0.00000000000E+00  0.00000000000E+00 -0.48966893703E+03  0.28894602287E+04  0.28476665439E+04 0.  0.
        2    1    3    3  502    0  0.32123835799E+03 -0.75411443840E+03  0.93647666062E+03  0.12445365422E+04  0.25500000920E-02 0.  1.
       -2    1    3    3    0  502 -0.32123835799E+03  0.75411443840E+03 -0.14261455977E+04  0.16449236866E+04  0.25500000920E-02 0. -1.
</event>
<event>
 5   0  0.7509685E-06  0.2895754E+04  0.7818609E-02  0.8274142E-01
       -1   -1    0    0    0  501  0.00000000000E+00  0.00000000000E+00  0.10252478896E+04  0.10252478896E+04  0.50400001928E-02 0.  1.
        1   -1    0    0  501    0  0.00000000000E+00  0.00000000000E+00 -0.20447221686E+04  0.20447221686E+04  0.50400001928E-02 0. -1.
    10030    2    1    2    0    0  0.00000000000E+00  0.00000000000E+00 -0.10194742790E+04  0.30699700582E+04  0.28957535034E+04 0.  0.
        4    1    3    3  502    0 -0.19593984761E+03 -0.73320964828E+03  0.79747264592E+03  0.11008873903E+04  0.12699999809E+01 0.  1.
       -4    1    3    3    0  502  0.19593984761E+03  0.73320964828E+03 -0.18169469249E+04  0.19690826679E+04  0.12699999809E+01 0. -1.
</event>
<event>
 5   0  0.1923559E-05  0.2550016E+04  0.7818609E-02  0.8385381E-01
       -2   -1    0    0    0  501  0.00000000000E+00  0.00000000000E+00  0.11398793575E+04  0.11398793575E+04  0.25500000920E-02 0.  1.
        2   -1    0    0  501    0  0.00000000000E+00  0.00000000000E+00 -0.14261556431E+04  0.14261556431E+04  0.25500000920E-02 0. -1.
    10030    2    1    2    0    0  0.00000000000E+00  0.00000000000E+00 -0.28627628561E+03  0.25660350007E+04  0.25500159829E+04 0.  0.
        4    1    3    3  502    0 -0.11937484901E+04 -0.41931885916E+03 -0.30154367401E+03  0.13006898030E+04  0.12699999809E+01 0. -1.
       -4    1    3    3    0  502  0.11937484901E+04  0.41931885916E+03  0.15267388398E+02  0.12653451977E+04  0.12699999809E+01 0.  1.
</event>
<event>
 5   0  0.1874272E-05  0.2788970E+04  0.7818609E-02  0.8306701E-01
        2   -1    0    0  501    0  0.00000000000E+00  0.00000000000E+00  0.83068030853E+03  0.83068030854E+03  0.25500000920E-02 0. -1.
       -2   -1    0    0    0  501  0.00000000000E+00  0.00000000000E+00 -0.23409583382E+04  0.23409583382E+04  0.25500000920E-02 0.  1.
    10030    2    1    2    0    0  0.00000000000E+00  0.00000000000E+00 -0.15102780297E+04  0.31716386468E+04  0.27889696984E+04 0.  0.
        3    1    3    3  502    0 -0.10463624188E+04 -0.91954027034E+03 -0.82848112209E+03  0.16207435331E+04  0.10100000352E+00 0.  1.
       -3    1    3    3    0  502  0.10463624188E+04  0.91954027034E+03 -0.68179690761E+03  0.15508951137E+04  0.10100000352E+00 0. -1.
</event>
<event>
 5   0  0.7388013E-06  0.2761937E+04  0.7818609E-02  0.8315184E-01
       -1   -1    0    0    0  501  0.00000000000E+00  0.00000000000E+00  0.11860416392E+04  0.11860416392E+04  0.50400001928E-02 0.  1.
        1   -1    0    0  501    0  0.00000000000E+00  0.00000000000E+00 -0.16079316975E+04  0.16079316976E+04  0.50400001928E-02 0. -1.
    10030    2    1    2    0    0  0.00000000000E+00  0.00000000000E+00 -0.42189005834E+03  0.27939733368E+04  0.27619369626E+04 0.  0.
        1    1    3    3  502    0 -0.20429436224E+03 -0.94957143224E+03  0.78209916339E+03  0.12470369653E+04  0.50400001928E-02 0.  1.
       -1    1    3    3    0  502  0.20429436224E+03  0.94957143224E+03 -0.12039892217E+04  0.15469363715E+04  0.50400001928E-02 0. -1.
</event>
<event>
 5   0  0.7555871E-06  0.2871947E+04  0.7818609E-02  0.8281273E-01
        1   -1    0    0  501    0  0.00000000000E+00  0.00000000000E+00  0.21442242543E+04  0.21442242543E+04  0.50400001928E-02 0. -1.
       -1   -1    0    0    0  501  0.00000000000E+00  0.00000000000E+00 -0.96166242962E+03  0.96166242963E+03  0.50400001928E-02 0.  1.
    10030    2    1    2    0    0  0.00000000000E+00  0.00000000000E+00  0.11825618246E+04  0.31058866839E+04  0.28719470093E+04 0.  0.
        3    1    3    3  502    0 -0.58773923069E+03 -0.41279429195E+03  0.19360251210E+04  0.20649527379E+04  0.10100000352E+00 0. -1.
       -3    1    3    3    0  502  0.58773923069E+03  0.41279429195E+03 -0.75346329631E+03  0.10409339460E+04  0.10100000352E+00 0.  1.
</event>
<event>
 5   0  0.7681342E-06  0.2718248E+04  0.7818609E-02  0.8329108E-01
        1   -1    0    0  501    0  0.00000000000E+00  0.00000000000E+00  0.21322183100E+04  0.21322183100E+04  0.50400001928E-02 0. -1.
       -1   -1    0    0    0  501  0.00000000000E+00  0.00000000000E+00 -0.86633634299E+03  0.86633634301E+03  0.50400001928E-02 0.  1.
    10030    2    1    2    0    0  0.00000000000E+00  0.00000000000E+00  0.12658819670E+04  0.29985546530E+04  0.27182481220E+04 0.  0.
        2    1    3    3  502    0  0.81614222163E+03  0.93630078523E+03  0.24251516137E+02  0.12423105177E+04  0.25500000920E-02 0. -1.
       -2    1    3    3    0  502 -0.81614222163E+03 -0.93630078523E+03  0.12416304509E+04  0.17562441353E+04  0.25500000920E-02 0.  1.
</event>
<event>
 5   0  0.7681342E-06  0.2768325E+04  0.7818609E-02  0.8313170E-01
       -1   -1    0    0    0  501  0.00000000000E+00  0.00000000000E+00  0.13521374535E+04  0.13521374535E+04  0.50400001928E-02 0.  1.
        1   -1    0    0  501    0  0.00000000000E+00  0.00000000000E+00 -0.14169464838E+04  0.14169464838E+04  0.50400001928E-02 0. -1.
    10030    2    1    2    0    0  0.00000000000E+00  0.00000000000E+00 -0.64809030358E+02  0.27690839373E+04  0.27683254219E+04 0.  0.
        2    1    3    3  502    0  0.27250416640E+03  0.34873965622E+03  0.12794534190E+04  0.13538385871E+04  0.25500000920E-02 0.  1.
       -2    1    3    3    0  502 -0.27250416640E+03 -0.34873965622E+03 -0.13442624494E+04  0.14152453502E+04  0.25500000920E-02 0. -1.
</event>
<event>
 5   0  0.1814230E-05  0.2595293E+04  0.7818609E-02  0.8369802E-01
       -2   -1    0    0    0  501  0.00000000000E+00  0.00000000000E+00  0.20101996555E+04  0.20101996555E+04  0.25500000920E-02 0. -1.
        2   -1    0    0  501    0  0.00000000000E+00  0.00000000000E+00 -0.83767118140E+03  0.83767118140E+03  0.25500000920E-02 0.  1.
    10030    2    1    2    0    0  0.00000000000E+00  0.00000000000E+00  0.11725284741E+04  0.28478708369E+04  0.25952929085E+04 0.  0.
        5    1    3    3  502    0 -0.75418157651E+03  0.10387924690E+04  0.37810668811E+03  0.13382325663E+04  0.46999998093E+01 0. -1.
       -5    1    3    3    0  502  0.75418157651E+03 -0.10387924690E+04  0.79442178595E+03  0.15096382706E+04  0.46999998093E+01 0.  1.
</event>
<event>
 5   0  0.7613444E-06  0.2822714E+04  0.7818609E-02  0.8296251E-01
       -1   -1    0    0    0  501  0.00000000000E+00  0.00000000000E+00  0.11028506967E+04  0.11028506967E+04  0.50400001928E-02 0. -1.
        1   -1    0    0  501    0  0.00000000000E+00  0.00000000000E+00 -0.18061640496E+04  0.18061640497E+04  0.50400001928E-02 0.  1.
    10030    2    1    2    0    0  0.00000000000E+00  0.00000000000E+00 -0.70331335295E+03  0.29090147464E+04  0.28227144953E+04 0.  0.
        5    1    3    3  502    0  0.41555250014E+03 -0.13087161887E+04 -0.68795421736E+03  0.15358141288E+04  0.46999998093E+01 0. -1.
       -5    1    3    3    0  502 -0.41555250014E+03  0.13087161887E+04 -0.15359135593E+02  0.13732006176E+04  0.46999998093E+01 0.  1.
</event>
<event>
 5   0  0.7555871E-06  0.2809536E+04  0.7818609E-02  0.8300314E-01
        1   -1    0    0  501    0  0.00000000000E+00  0.00000000000E+00  0.20414342962E+04  0.20414342962E+04  0.50400001928E-02 0.  1.
       -1   -1    0    0    0  501  0.00000000000E+00  0.00000000000E+00 -0.96666041642E+03  0.96666041644E+03  0.50400001928E-02 0. -1.
    10030    2    1    2    0    0  0.00000000000E+00  0.00000000000E+00  0.10747738798E+04  0.30080947126E+04  0.28095364222E+04 0.  0.
        3    1    3    3  502    0 -0.33701290696E+03  0.58243871110E+03 -0.78287099696E+03  0.10323272542E+04  0.10100000352E+00 0. -1.
       -3    1    3    3    0  502  0.33701290696E+03 -0.58243871110E+03  0.18576448767E+04  0.19757674584E+04  0.10100000352E+00 0.  1.
</event>
<event>
 5   0  0.7613444E-06  0.2618043E+04  0.7818609E-02  0.8362098E-01
        1   -1    0    0  501    0  0.00000000000E+00  0.00000000000E+00  0.16411555673E+04  0.16411555673E+04  0.50400001928E-02 0. -1.
       -1   -1    0    0    0  501  0.00000000000E+00  0.00000000000E+00 -0.10441039412E+04  0.10441039412E+04  0.50400001928E-02 0.  1.
    10030    2    1    2    0    0  0.00000000000E+00  0.00000000000E+00  0.59705162608E+03  0.26852595086E+04  0.26180427774E+04 0.  0.
        5    1    3    3  502    0  0.60794902373E+02  0.13018257289E+04  0.17261970304E+03  0.13146352728E+04  0.46999998093E+01 0.  1.
       -5    1    3    3    0  502 -0.60794902373E+02 -0.13018257289E+04  0.42443192304E+03  0.13706242358E+04  0.46999998093E+01 0. -1.
</event>
<event>
 5   0  0.7388013E-06  0.2680130E+04  0.7818609E-02  0.8341481E-01
        1   -1    0    0  501    0  0.00000000000E+00  0.00000000000E+00  0.30837340627E+04  0.30837340627E+04  0.50400001928E-02 0. -1.
       -1   -1    0    0    0  501  0.00000000000E+00  0.00000000000E+00 -0.58233747317E+03  0.58233747320E+03  0.50400001928E-02 0.  1.
    10030    2    1    2    0    0  0.00000000000E+00  0.00000000000E+00  0.25013965896E+04  0.36660715359E+04  0.26801297745E+04 0.  0.
        1    1    3    3  502    0  0.42658634384E+03 -0.59836591862E+03 -0.28214507852E+03  0.78716169030E+03  0.50400001928E-02 0.  1.
       -1    1    3    3    0  502 -0.42658634384E+03  0.59836591862E+03  0.27835416681E+04  0.28789098456E+04  0.50400001928E-02 0. -1.
</event>
<event>
 5   0  0.1832502E-05  0.2838025E+04  0.7818609E-02  0.8291559E-01
       -2   -1    0    0    0  501  0.00000000000E+00  0.00000000000E+00  0.78801752930E+03  0.78801752931E+03  0.25500000920E-02 0. -1.
        2   -1    0    0  501    0  0.00000000000E+00  0.00000000000E+00 -0.25552684679E+04  0.25552684679E+04  0.25500000920E-02 0.  1.
    10030    2    1    2    0    0  0.00000000000E+00  0.00000000000E+00 -0.17672509386E+04  0.33432859972E+04  0.28380249081E+04 0.  0.
        2    1    3    3  502    0  0.11338891079E+04 -0.85291915817E+03 -0.90778936854E+03  0.16844159632E+04  0.25500000920E-02 0. -1.
       -2    1    3    3    0  502 -0.11338891079E+04  0.85291915817E+03 -0.85946157008E+03  0.16588700340E+04  0.25500000920E-02 0.  1.
</event>
<event>
 5   0  0.1904553E-05  0.2796165E+04  0.7818609E-02  0.8304460E-01
       -2   -1    0    0    0  501  0.00000000000E+00  0.00000000000E+00  0.90204724869E+03  0.90204724869E+03  0.25500000920E-02 0.  1.
        2   -1    0    0  501    0  0.00000000000E+00  0.00000000000E+00 -0.21668873708E+04  0.21668873708E+04  0.25500000920E-02 0. -1.
    10030    2    1    2    0    0  0.00000000000E+00  0.00000000000E+00 -0.12648401221E+04  0.30689346195E+04  0.27961650817E+04 0.  0.
        1    1    3    3  502    0 -0.21230741862E+02 -0.30141620395E+03  0.86578060803E+03  0.91699429315E+03  0.50400001928E-02 0.  1.
       -1    1    3    3    0  502  0.21230741862E+02  0.30141620395E+03 -0.21306207301E+04  0.21519403263E+04  0.50400001928E-02 0. -1.
</event>
<event>
 5   0  0.6288000E-06  0.2780394E+04  0.7818609E-02  0.8309381E-01
       -3   -1    0    0    0  501  0.00000000000E+00  0.00000000000E+00  0.10239492375E+04  0.10239492425E+04  0.10100000352E+00 0. -1.
        3   -1    0    0  501    0  0.00000000000E+00  0.00000000000E+00 -0.18874445539E+04  0.18874445566E+04  0.10100000352E+00 0.  1.
    10030    2    1    2    0    0  0.00000000000E+00  0.00000000000E+00 -0.86349531633E+03  0.29113937991E+04  0.27803938016E+04 0.  0.
        1    1    3    3  502    0 -0.12455708026E+04 -0.41169950271E+02 -0.10768132385E+04  0.16470180144E+04  0.50400001928E-02 0.  1.
       -1    1    3    3    0  502  0.12455708026E+04  0.41169950271E+02  0.21331792221E+03  0.12643757847E+04  0.50400001928E-02 0. -1.
</event>
<event>
 5   0  0.7681342E-06  0.1923147E+04  0.7818609E-02  0.8643420E-01
        1   -1    0    0  501    0  0.00000000000E+00  0.00000000000E+00  0.15520465343E+04  0.15520465343E+04  0.50400001928E-02 0. -1.
       -1   -1    0    0    0  501  0.00000000000E+00  0.00000000000E+00 -0.59574466002E+03  0.59574466005E+03  0.50400001928E-02 0.  1.
    10030    2    1    2    0    0  0.00000000000E+00  0.00000000000E+00  0.95630187431E+03  0.21477911944E+04  0.19231468326E+04 0.  0.
        2    1    3    3  502    0  0.65386137898E+03  0.70248188957E+03  0.54523331929E+03  0.11037639605E+04  0.25500000920E-02 0. -1.
       -2    1    3    3    0  502 -0.65386137898E+03 -0.70248188957E+03  0.41106855502E+03  0.10440272339E+04  0.25500000920E-02 0.  1.
</event>
<event>
 5   0  0.7555871E-06  0.1780710E+04  0.7818609E-02  0.8716625E-01
        1   -1    0    0  501    0  0.00000000000E+00  0.00000000000E+00  0.64610143755E+03  0.64610143757E+03  0.50400001928E-02 0. -1.
       -1   -1    0    0    0  501  0.00000000000E+00  0.00000000000E+00 -0.12269471270E+04  0.12269471270E+04  0.50400001928E-02 0.  1.
    10030    2    1    2    0    0  0.00000000000E+00  0.00000000000E+00 -0.58084568945E+03  0.18730485646E+04  0.17807103106E+04 0.  0.
        3    1    3    3  502    0 -0.98225067990E+02 -0.42548465565E+03  0.52572894988E+03  0.68342980263E+03  0.10100000352E+00 0. -1.
       -3    1    3    3    0  502  0.98225067990E+02  0.42548465565E+03 -0.11065746393E+04  0.11896187620E+04  0.10100000352E+00 0.  1.
</event>
<event>
 5   0  0.1832502E-05  0.2814221E+04  0.7818609E-02  0.8298867E-01
        2   -1    0    0  501    0  0.00000000000E+00  0.00000000000E+00  0.14034296374E+04  0.14034296374E+04  0.25500000920E-02 0. -1.
       -2   -1    0    0    0  501  0.00000000000E+00  0.00000000000E+00 -0.14108012726E+04  0.14108012726E+04  0.25500000920E-02 0.  1.
    10030    2    1    2    0    0  0.00000000000E+00  0.00000000000E+00 -0.73716351769E+01  0.28142309100E+04  0.28142212553E+04 0.  0.
        2    1    3    3  502    0  0.57147278946E+03 -0.85226814355E+03 -0.96650695436E+03  0.14096374819E+04  0.25500000920E-02 0.  1.
       -2    1    3    3    0  502 -0.57147278946E+03  0.85226814355E+03  0.95913531919E+03  0.14045934280E+04  0.25500000920E-02 0. -1.
</event>
<event>
 5   0  0.1904553E-05  0.2855731E+04  0.7818609E-02  0.8286172E-01
        2   -1    0    0  501    0  0.00000000000E+00  0.00000000000E+00  0.11290062844E+04  0.11290062844E+04  0.25500000920E-02 0.  1.
       -2   -1    0    0    0  501  0.00000000000E+00  0.00000000000E+00 -0.18058361381E+04  0.18058361381E+04  0.25500000920E-02 0. -1.
    10030    2    1    2    0    0  0.00000000000E+00  0.00000000000E+00 -0.67682985366E+03  0.29348424225E+04  0.28557313239E+04 0.  0.
        1    1    3    3  502    0 -0.24884419232E+03 -0.70715015400E+03  0.91049343966E+03  0.11793994557E+04  0.50400001928E-02 0.  1.
       -1    1    3    3    0  502  0.24884419232E+03  0.70715015400E+03 -0.15873232933E+04  0.17554429669E+04  0.50400001928E-02 0. -1.
</event>
<event>
 5   0  0.7388013E-06  0.2651525E+04  0.7818609E-02  0.8350907E-01
        1   -1    0    0  501    0  0.00000000000E+00  0.00000000000E+00  0.13538519790E+04  0.13538519790E+04  0.50400001928E-02 0. -1.
       -1   -1    0    0    0  501  0.00000000000E+00  0.00000000000E+00 -0.12982553346E+04  0.12982553346E+04  0.50400001928E-02 0.  1.
    10030    2    1    2    0    0  0.00000000000E+00  0.00000000000E+00  0.55596644436E+02  0.26521073136E+04  0.26515245079E+04 0.  0.
        1    1    3    3  502    0  0.10816576227E+04 -0.28185996952E+03  0.74084862619E+03  0.13410014698E+04  0.50400001928E-02 0. -1.
       -1    1    3    3    0  502 -0.10816576227E+04  0.28185996952E+03 -0.68525198175E+03  0.13111058438E+04  0.50400001928E-02 0.  1.
</event>
<event>
 5   0  0.1832502E-05  0.2848318E+04  0.7818609E-02  0.8288423E-01
       -2   -1    0    0    0  501  0.00000000000E+00  0.00000000000E+00  0.10575599447E+04  0.10575599447E+04  0.25500000920E-02 0.  1.
        2   -1    0    0  501    0  0.00000000000E+00  0.00000000000E+00 -0.19178378720E+04  0.19178378720E+04  0.25500000920E-02 0. -1.
    10030    2    1    2    0    0  0.00000000000E+00  0.00000000000E+00 -0.86027792727E+03  0.29753978167E+04  0.28483177588E+04 0.  0.
        2    1    3    3  502    0  0.36343038006E+03  0.65374545141E+03 -0.16961356709E+04  0.18537370284E+04  0.25500000920E-02 0. -1.
       -2    1    3    3    0  502 -0.36343038006E+03 -0.65374545141E+03  0.83585774361E+03  0.11216607883E+04  0.25500000920E-02 0.  1.
</event>
<event>
 5   0  0.7509685E-06  0.2217232E+04  0.7818609E-02  0.8511290E-01
       -1   -1    0    0    0  501  0.00000000000E+00  0.00000000000E+00  0.59299077212E+03  0.59299077215E+03  0.50400001928E-02 0.  1.
        1   -1    0    0  501    0  0.00000000000E+00  0.00000000000E+00 -0.20725954638E+04  0.20725954638E+04  0.50400001928E-02 0. -1.
    10030    2    1    2    0    0  0.00000000000E+00  0.00000000000E+00 -0.14796046917E+04  0.26655862360E+04  0.22172324952E+04 0.  0.
        4    1    3    3  502    0  0.71454166625E+03  0.93223576222E+02 -0.17526396595E+04  0.18949954662E+04  0.12699999809E+01 0. -1.
       -4    1    3    3    0  502 -0.71454166625E+03 -0.93223576222E+02  0.27303496777E+03  0.77059076980E+03  0.12699999809E+01 0.  1.
</event>
<event>
 5   0  0.7555871E-06  0.2832427E+04  0.7818609E-02  0.8293271E-01
        1   -1    0    0  501    0  0.00000000000E+00  0.00000000000E+00  0.11722691313E+04  0.11722691313E+04  0.50400001928E-02 0. -1.
       -1   -1    0    0    0  501  0.00000000000E+00  0.00000000000E+00 -0.17109220276E+04  0.17109220276E+04  0.50400001928E-02 0.  1.
    10030    2    1    2    0    0  0.00000000000E+00  0.00000000000E+00 -0.53865289628E+03  0.28831911589E+04  0.28324272834E+04 0.  0.
        3    1    3    3  502    0 -0.12568617123E+03 -0.10801552253E+04  0.65419833086E+03  0.12690578358E+04  0.10100000352E+00 0. -1.
       -3    1    3    3    0  502  0.12568617123E+03  0.10801552253E+04 -0.11928512271E+04  0.16141333231E+04  0.10100000352E+00 0.  1.
</event>
<event>
 5   0  0.1814230E-05  0.2808069E+04  0.7818609E-02  0.8300768E-01
        2   -1    0    0  501    0  0.00000000000E+00  0.00000000000E+00  0.12438720941E+04  0.12438720941E+04  0.25500000920E-02 0. -1.
       -2   -1    0    0    0  501  0.00000000000E+00  0.00000000000E+00 -0.15848190963E+04  0.15848190963E+04  0.25500000920E-02 0.  1.
    10030    2    1    2    0    0  0.00000000000E+00  0.00000000000E+00 -0.34094700220E+03  0.28286911904E+04  0.28080685520E+04 0.  0.
        5    1    3    3  502    0 -0.32026036096E+03 -0.13121013918E+04  0.21589698475E+03  0.13677756977E+04  0.46999998093E+01 0. -1.
       -5    1    3    3    0  502  0.32026036096E+03  0.13121013918E+04 -0.55684398695E+03  0.14609154928E+04  0.46999998093E+01 0.  1.
</event>
<event>
 5   0  0.1832502E-05  0.2801578E+04  0.7818609E-02  0.8302779E-01
        2   -1    0    0  501    0  0.00000000000E+00  0.00000000000E+00  0.28055017612E+04  0.28055017612E+04  0.25500000920E-02 0.  1.
       -2   -1    0    0    0  501  0.00000000000E+00  0.00000000000E+00 -0.69941472441E+03  0.69941472441E+03  0.25500000920E-02 0. -1.
    10030    2    1    2    0    0  0.00000000000E+00  0.00000000000E+00  0.21060870368E+04  0.35049164856E+04  0.28015775850E+04 0.  0.
        2    1    3    3  502    0  0.33716393078E+03  0.16462116079E+03  0.27414663449E+04  0.27670231952E+04  0.25500000920E-02 0.  1.
       -2    1    3    3    0  502 -0.33716393078E+03 -0.16462116079E+03 -0.63537930811E+03  0.73789329037E+03  0.25500000920E-02 0. -1.
</event>
<event>
 5   0  0.6288000E-06  0.2801417E+04  0.7818609E-02  0.8302828E-01
        3   -1    0    0  501    0  0.00000000000E+00  0.00000000000E+00  0.21685755790E+04  0.21685755813E+04  0.10100000352E+00 0.  1.
       -3   -1    0    0    0  501  0.00000000000E+00  0.00000000000E+00 -0.90473437782E+03  0.90473438345E+03  0.10100000352E+00 0. -1.
    10030    2    1    2    0    0  0.00000000000E+00  0.00000000000E+00  0.12638412011E+04  0.30733099648E+04  0.28014174194E+04 0.  0.
        4    1    3    3  502    0  0.26195960819E+03  0.62862401430E+03 -0.71088244634E+03  0.98445236203E+03  0.12699999809E+01 0. -1.
       -4    1    3    3    0  502 -0.26195960819E+03 -0.62862401430E+03  0.19747236475E+04  0.20888576027E+04  0.12699999809E+01 0.  1.
</event>
<event>
 5   0  0.7681342E-06  0.2739998E+04  0.7818609E-02  0.8322142E-01
       -1   -1    0    0    0  501  0.00000000000E+00  0.00000000000E+00  0.92448678784E+03  0.92448678786E+03  0.50400001928E-02 0.  1.
        1   -1    0    0  501    0  0.00000000000E+00  0.00000000000E+00 -0.20302046805E+04  0.20302046806E+04  0.50400001928E-02 0. -1.
    10030    2    1    2    0    0  0.00000000000E+00  0.00000000000E+00 -0.11057178927E+04  0.29546914684E+04  0.27399981050E+04 0.  0.
        2    1    3    3  502    0  0.92450355142E+02 -0.60717151703E+03  0.76771605000E+03  0.98315423647E+03  0.25500000920E-02 0.  1.
       -2    1    3    3    0  502 -0.92450355142E+02  0.60717151703E+03 -0.18734339427E+04  0.19715372319E+04  0.25500000920E-02 0. -1.
</event>
<event>
 5   0  0.7388013E-06  0.2801608E+04  0.7818609E-02  0.8302769E-01
        1   -1    0    0  501    0  0.00000000000E+00  0.00000000000E+00  0.20720848104E+04  0.20720848105E+04  0.50400001928E-02 0. -1.
       -1   -1    0    0    0  501  0.00000000000E+00  0.00000000000E+00 -0.94699380638E+03  0.94699380640E+03  0.50400001928E-02 0.  1.
    10030    2    1    2    0    0  0.00000000000E+00  0.00000000000E+00  0.11250910041E+04  0.30190786169E+04  0.28016077397E+04 0.  0.
        1    1    3    3  502    0  0.26918545465E+03 -0.38257969775E+03  0.19854263539E+04  0.20397906366E+04  0.50400001928E-02 0. -1.
       -1    1    3    3    0  502 -0.26918545465E+03  0.38257969775E+03 -0.86033534985E+03  0.97928798030E+03  0.50400001928E-02 0.  1.
</event>
<event>
 5   0  0.1832502E-05  0.3145839E+04  0.7818609E-02  0.8203269E-01
        2   -1    0    0  501    0  0.00000000000E+00  0.00000000000E+00  0.14326993269E+04  0.14326993269E+04  0.25500000920E-02 0.  1.
       -2   -1    0    0    0  501  0.00000000000E+00  0.00000000000E+00 -0.17268628797E+04  0.17268628797E+04  0.25500000920E-02 0. -1.
    10030    2    1    2    0    0  0.00000000000E+00  0.00000000000E+00 -0.29416355281E+03  0.31595622065E+04  0.31458387023E+04 0.  0.
        2    1    3    3  502    0 -0.14637823654E+04 -0.40390000753E+03 -0.55909232155E+03  0.16181403688E+04  0.25500000920E-02 0. -1.
       -2    1    3    3    0  502  0.14637823654E+04  0.40390000753E+03  0.26492876874E+03  0.15414218377E+04  0.25500000920E-02 0.  1.
</event>
<event>
 5   0  0.7388013E-06  0.2604724E+04  0.7818609E-02  0.8366598E-01
       -1   -1    0    0    0  501  0.00000000000E+00  0.00000000000E+00  0.10985441965E+04  0.10985441965E+04  0.50400001928E-02 0. -1.
        1   -1    0    0  501    0  0.00000000000E+00  0.00000000000E+00 -0.15439950315E+04  0.15439950315E+04  0.50400001928E-02 0.  1.
    10030    2    1    2    0    0  0.00000000000E+00  0.00000000000E+00 -0.44545083501E+03  0.26425392280E+04  0.26047240017E+04 0.  0.
        1    1    3    3  502    0 -0.28276656168E+03  0.55115065174E+01 -0.15124644326E+04  0.15386799424E+04  0.50400001928E-02 0.  1.
       -1    1    3    3    0  502  0.28276656168E+03 -0.55115065174E+01  0.10670135976E+04  0.11038592857E+04  0.50400001928E-02 0. -1.
</event>
<event>
 5   0  0.1814230E-05  0.2791011E+04  0.7818609E-02  0.8306064E-01
        2   -1    0    0  501    0  0.00000000000E+00  0.00000000000E+00  0.20989532341E+04  0.20989532341E+04  0.25500000920E-02 0.  1.
       -2   -1    0    0    0  501  0.00000000000E+00  0.00000000000E+00 -0.92781302506E+03  0.92781302506E+03  0.25500000920E-02 0. -1.
    10030    2    1    2    0    0  0.00000000000E+00  0.00000000000E+00  0.11711402091E+04  0.30267662592E+04  0.27910113935E+04 0.  0.
        5    1    3    3  502    0  0.29153394066E+03  0.33004676305E+03  0.20216184616E+04  0.20690302556E+04  0.46999998093E+01 0.  1.
       -5    1    3    3    0  502 -0.29153394066E+03 -0.33004676305E+03 -0.85047825258E+03  0.95773600353E+03  0.46999998093E+01 0. -1.
</event>
<event>
 5   0  0.7555871E-06  0.1753934E+04  0.7818609E-02  0.8731188E-01
        1   -1    0    0  501    0  0.00000000000E+00  0.00000000000E+00  0.19450577630E+04  0.19450577630E+04  0.50400001928E-02 0.  1.
       -1   -1    0    0    0  501  0.00000000000E+00  0.00000000000E+00 -0.39539777183E+03  0.39539777186E+03  0.50400001928E-02 0. -1.
    10030    2    1    2    0    0  0.00000000000E+00  0.00000000000E+00  0.15496599911E+04  0.23404555348E+04  0.17539344407E+04 0.  0.
        3    1    3    3  502    0 -0.46789803290E+03  0.74156050995E+03  0.75455162105E+03  0.11568010711E+04  0.10100000352E+00 0. -1.
       -3    1    3    3    0  502  0.46789803290E+03 -0.74156050995E+03  0.79510837008E+03  0.11836544637E+04  0.10100000352E+00 0.  1.
</event>
<event>
 5   0  0.7613444E-06  0.2804964E+04  0.7818609E-02  0.8301729E-01
        1   -1    0    0  501    0  0.00000000000E+00  0.00000000000E+00  0.90655017556E+03  0.90655017558E+03  0.50400001928E-02 0.  1.
       -1   -1    0    0    0  501  0.00000000000E+00  0.00000000000E+00 -0.21697147535E+04  0.21697147535E+04  0.50400001928E-02 0. -1.
    10030    2    1    2    0    0  0.00000000000E+00  0.00000000000E+00 -0.12631645779E+04  0.30762649291E+04  0.28049636652E+04 0.  0.
        5    1    3    3  502    0 -0.41221955360E+03  0.86889065856E+03  0.48795385538E+03  0.10784326552E+04  0.46999998093E+01 0.  1.
       -5    1    3    3    0  502  0.41221955360E+03 -0.86889065856E+03 -0.17511184333E+04  0.19978322738E+04  0.46999998093E+01 0. -1.
</event>
<event>
 5   0  0.1832502E-05  0.2899184E+04  0.7818609E-02  0.8273120E-01
       -2   -1    0    0    0  501  0.00000000000E+00  0.00000000000E+00  0.19378601115E+04  0.19378601115E+04  0.25500000920E-02 0.  1.
        2   -1    0    0  501    0  0.00000000000E+00  0.00000000000E+00 -0.10843488690E+04  0.10843488690E+04  0.25500000920E-02 0. -1.
    10030    2    1    2    0    0  0.00000000000E+00  0.00000000000E+00  0.85351124257E+03  0.30222089805E+04  0.28991836231E+04 0.  0.
        2    1    3    3  502    0 -0.34120059794E+03 -0.11227052133E+04  0.13140085773E+04  0.17616762998E+04  0.25500000920E-02 0. -1.
       -2    1    3    3    0  502  0.34120059794E+03  0.11227052133E+04 -0.46049733473E+03  0.12605326807E+04  0.25500000920E-02 0.  1.
</event>
<event>
 5   0  0.7388013E-06  0.2729588E+04  0.7818609E-02  0.8325468E-01
        1   -1    0    0  501    0  0.00000000000E+00  0.00000000000E+00  0.22987604679E+04  0.22987604679E+04  0.50400001928E-02 0.  1.
       -1   -1    0    0    0  501  0.00000000000E+00  0.00000000000E+00 -0.81028977949E+03  0.81028977951E+03  0.50400001928E-02 0. -1.
    10030    2    1    2    0    0  0.00000000000E+00  0.00000000000E+00  0.14884706884E+04  0.31090502474E+04  0.27295875972E+04 0.  0.
        1    1    3    3  502    0  0.70205077770E+03 -0.50150050621E+03 -0.46026456678E+03  0.97786580043E+03  0.50400001928E-02 0. -1.
       -1    1    3    3    0  502 -0.70205077770E+03  0.50150050621E+03  0.19487352552E+04  0.21311844470E+04  0.50400001928E-02 0.  1.
</event>
<event>
 5   0  0.1832502E-05  0.2816713E+04  0.7818609E-02  0.8298098E-01
        2   -1    0    0  501    0  0.00000000000E+00  0.00000000000E+00  0.14483990299E+04  0.14483990299E+04  0.25500000920E-02 0.  1.
       -2   -1    0    0    0  501  0.00000000000E+00  0.00000000000E+00 -0.13694213154E+04  0.13694213154E+04  0.25500000920E-02 0. -1.
    10030    2    1    2    0    0  0.00000000000E+00  0.00000000000E+00  0.78977714577E+02  0.28178203453E+04  0.28167133363E+04 0.  0.
        2    1    3    3  502    0 -0.34576647305E+03  0.65532143174E+03 -0.11586745818E+04  0.13753281133E+04  0.25500000920E-02 0. -1.
       -2    1    3    3    0  502  0.34576647305E+03 -0.65532143174E+03  0.12376522963E+04  0.14424922320E+04  0.25500000920E-02 0.  1.
</event>
<event>
 5   0  0.7681342E-06  0.2947024E+04  0.7818609E-02  0.8259023E-01
        1   -1    0    0  501    0  0.00000000000E+00  0.00000000000E+00  0.28942309158E+04  0.28942309158E+04  0.50400001928E-02 0.  1.
       -1   -1    0    0    0  501  0.00000000000E+00  0.00000000000E+00 -0.75019476732E+03  0.75019476734E+03  0.50400001928E-02 0. -1.
    10030    2    1    2    0    0  0.00000000000E+00  0.00000000000E+00  0.21440361485E+04  0.36444256831E+04  0.29470235075E+04 0.  0.
        2    1    3    3  502    0  0.14117918313E+04 -0.22386479586E+03  0.62964208001E+03  0.15619605535E+04  0.25500000920E-02 0. -1.
       -2    1    3    3    0  502 -0.14117918313E+04  0.22386479586E+03  0.15143940685E+04  0.20824651297E+04  0.25500000920E-02 0.  1.
</event>
<event>
 5   0  0.7681342E-06  0.2771386E+04  0.7818609E-02  0.8312207E-01
       -1   -1    0    0    0  501  0.00000000000E+00  0.00000000000E+00  0.17300823743E+04  0.17300823743E+04  0.50400001928E-02 0.  1.
        1   -1    0    0  501    0  0.00000000000E+00  0.00000000000E+00 -0.11098580105E+04  0.11098580105E+04  0.50400001928E-02 0. -1.
    10030    2    1    2    0    0  0.00000000000E+00  0.00000000000E+00  0.62022436378E+03  0.28399403848E+04  0.27713864991E+04 0.  0.
        2    1    3    3  502    0  0.65178491211E+02 -0.13253968611E+03 -0.11017687441E+04  0.11116246532E+04  0.25500000920E-02 0. -1.
       -2    1    3    3    0  502 -0.65178491211E+02  0.13253968611E+03  0.17219931079E+04  0.17283157315E+04  0.25500000920E-02 0.  1.
</event>
<event>
 5   0  0.7509685E-06  0.2945695E+04  0.7818609E-02  0.8259410E-01
        1   -1    0    0  501    0  0.00000000000E+00  0.00000000000E+00  0.12896652413E+04  0.12896652413E+04  0.50400001928E-02 0.  1.
       -1   -1    0    0    0  501  0.00000000000E+00  0.00000000000E+00 -0.16820491643E+04  0.16820491643E+04  0.50400001928E-02 0. -1.
    10030    2    1    2    0    0  0.00000000000E+00  0.00000000000E+00 -0.39238392304E+03  0.29717144056E+04  0.29456953959E+04 0.  0.
        4    1    3    3  502    0  0.90632480246E+02  0.11285174107E+04 -0.11465922938E+04  0.16113476638E+04  0.12699999809E+01 0. -1.
       -4    1    3    3    0  502 -0.90632480246E+02 -0.11285174107E+04  0.75420837072E+03  0.13603667418E+04  0.12699999809E+01 0.  1.
</event>
<event>
 5   0  0.7509685E-06  0.2788039E+04  0.7818609E-02  0.8306992E-01
        1   -1    0    0  501    0  0.00000000000E+00  0.00000000000E+00  0.18837038191E+04  0.18837038191E+04  0.50400001928E-02 0.  1.
       -1   -1    0    0    0  501  0.00000000000E+00  0.00000000000E+00 -0.10316323855E+04  0.10316323855E+04  0.50400001928E-02 0. -1.
    10030    2    1    2    0    0  0.00000000000E+00  0.00000000000E+00  0.85207143363E+03  0.29153362046E+04  0.27880386399E+04 0.  0.
        4    1    3    3  502    0  0.52058635128E+03 -0.57571622900E+02  0.17769048906E+04  0.18524894720E+04  0.12699999809E+01 0.  1.
       -4    1    3    3    0  502 -0.52058635128E+03  0.57571622900E+02 -0.92483345695E+03  0.10628467325E+04  0.12699999809E+01 0. -1.
</event>
<event>
 5   0  0.7613444E-06  0.1805395E+04  0.7818609E-02  0.8703436E-01
        1   -1    0    0  501    0  0.00000000000E+00  0.00000000000E+00  0.16211203665E+04  0.16211203665E+04  0.50400001928E-02 0.  1.
       -1   -1    0    0    0  501  0.00000000000E+00  0.00000000000E+00 -0.50265408215E+03  0.50265408217E+03  0.50400001928E-02 0. -1.
    10030    2    1    2    0    0  0.00000000000E+00  0.00000000000E+00  0.11184662844E+04  0.21237744487E+04  0.18053949927E+04 0.  0.
        5    1    3    3  502    0  0.18573244937E+03  0.78053925998E+03  0.10458245807E+04  0.13181461310E+04  0.46999998093E+01 0. -1.
       -5    1    3    3    0  502 -0.18573244937E+03 -0.78053925998E+03  0.72641703647E+02  0.80562831767E+03  0.46999998093E+01 0.  1.
</event>
<event>
 5   0  0.7555871E-06  0.2821206E+04  0.7818609E-02  0.8296715E-01
       -1   -1    0    0    0  501  0.00000000000E+00  0.00000000000E+00  0.89642105347E+03  0.89642105348E+03  0.50400001928E-02 0.  1.
        1   -1    0    0  501    0  0.00000000000E+00  0.00000000000E+00 -0.22197161158E+04  0.22197161158E+04  0.50400001928E-02 0. -1.
    10030    2    1    2    0    0  0.00000000000E+00  0.00000000000E+00 -0.13232950623E+04  0.31161371693E+04  0.28212055997E+04 0.  0.
        3    1    3    3  502    0 -0.58932794914E+03 -0.25954836372E+03  0.72459647520E+03  0.96938787223E+03  0.10100000352E+00 0.  1.
       -3    1    3    3    0  502  0.58932794914E+03  0.25954836372E+03 -0.20478915375E+04  0.21467492971E+04  0.10100000352E+00 0. -1.
</event>
<event>
 5   0  0.1814230E-05  0.2806940E+04  0.7818609E-02  0.8301117E-01
        2   -1    0    0  501    0  0.00000000000E+00  0.00000000000E+00  0.17811656477E+04  0.17811656477E+04  0.25500000920E-02 0. -1.
       -2   -1    0    0    0  501  0.00000000000E+00  0.00000000000E+00 -0.11058644870E+04  0.11058644870E+04  0.25500000920E-02 0.  1.
    10030    2    1    2    0    0  0.00000000000E+00  0.00000000000E+00  0.67530116070E+03  0.28870301347E+04  0.28069398535E+04 0.  0.
        5    1    3    3  502    0 -0.11193018816E+03 -0.11764093770E+04  0.11163786533E+04  0.16256662563E+04  0.46999998093E+01 0. -1.
       -5    1    3    3    0  502  0.11193018816E+03  0.11764093770E+04 -0.44107749263E+03  0.12613638784E+04  0.46999998093E+01 0.  1.
</event>
<event>
 5   0  0.7613444E-06  0.1917961E+04  0.7818609E-02  0.8645968E-01
        1   -1    0    0  501    0  0.00000000000E+00  0.00000000000E+00  0.81645504882E+03  0.81645504883E+03  0.50400001928E-02 0. -1.
       -1   -1    0    0    0  501  0.00000000000E+00  0.00000000000E+00 -0.11263855183E+04  0.11263855183E+04  0.50400001928E-02 0.  1.
    10030    2    1    2    0    0  0.00000000000E+00  0.00000000000E+00 -0.30993046948E+03  0.19428405671E+04  0.19179605245E+04 0.  0.
        5    1    3    3  502    0  0.28287035901E+02 -0.19714355975E+03 -0.11051932008E+04  0.11230048266E+04  0.46999998093E+01 0.  1.
       -5    1    3    3    0  502 -0.28287035901E+02  0.19714355975E+03  0.79526273133E+03  0.81983574050E+03  0.46999998093E+01 0. -1.
</event>
<event>
 5   0  0.1904553E-05  0.2750854E+04  0.7818609E-02  0.8318691E-01
        2   -1    0    0  501    0  0.00000000000E+00  0.00000000000E+00  0.13205938726E+04  0.13205938726E+04  0.25500000920E-02 0. -1.
       -2   -1    0    0    0  501  0.00000000000E+00  0.00000000000E+00 -0.14325368350E+04  0.14325368350E+04  0.25500000920E-02 0.  1.
    10030    2    1    2    0    0  0.00000000000E+00  0.00000000000E+00 -0.11194296245E+03  0.27531307076E+04  0.27508539522E+04 0.  0.
        1    1    3    3  502    0 -0.12771299328E+04 -0.42638287283E+03  0.22521682698E+03  0.13651321690E+04  0.50400001928E-02 0. -1.
       -1    1    3    3    0  502  0.12771299328E+04  0.42638287283E+03 -0.33715978943E+03  0.13879985386E+04  0.50400001928E-02 0.  1.
</event>
<event>
 5   0  0.7555871E-06  0.2783679E+04  0.7818609E-02  0.8308353E-01
       -1   -1    0    0    0  501  0.00000000000E+00  0.00000000000E+00  0.92422076643E+03  0.92422076644E+03  0.50400001928E-02 0. -1.
        1   -1    0    0  501    0  0.00000000000E+00  0.00000000000E+00 -0.20960543855E+04  0.20960543855E+04  0.50400001928E-02 0.  1.
    10030    2    1    2    0    0  0.00000000000E+00  0.00000000000E+00 -0.11718336190E+04  0.30202751519E+04  0.27836788541E+04 0.  0.
        3    1    3    3  502    0  0.92533423025E+03  0.44853749606E+03  0.43177507612E+03  0.11152842909E+04  0.10100000352E+00 0. -1.
       -3    1    3    3    0  502 -0.92533423025E+03 -0.44853749606E+03 -0.16036086951E+04  0.19049908610E+04  0.10100000352E+00 0.  1.
</event>
<event>
 5   0  0.7509685E-06  0.2842569E+04  0.7818609E-02  0.8290173E-01
        1   -1    0    0  501    0  0.00000000000E+00  0.00000000000E+00  0.18927953864E+04  0.18927953864E+04  0.50400001928E-02 0.  1.
       -1   -1    0    0    0  501  0.00000000000E+00  0.00000000000E+00 -0.10672311767E+04  0.10672311767E+04  0.50400001928E-02 0. -1.
    10030    2    1    2    0    0  0.00000000000E+00  0.00000000000E+00  0.82556420969E+03  0.29600265630E+04  0.28425694344E+04 0.  0.
        4    1    3    3  502    0  0.90733941385E+03  0.95228083210E+03 -0.14793314523E+03  0.13236273733E+04  0.12699999809E+01 0. -1.
       -4    1    3    3    0  502 -0.90733941385E+03 -0.95228083210E+03  0.97349735492E+03  0.16363991897E+04  0.12699999809E+01 0.  1.
</event>
<event>
 5   0  0.1904553E-05  0.2744425E+04  0.7818609E-02  0.8320733E-01
       -2   -1    0    0    0  501  0.00000000000E+00  0.00000000000E+00  0.65894861292E+03  0.65894861293E+03  0.25500000920E-02 0. -1.
        2   -1    0    0  501    0  0.00000000000E+00  0.00000000000E+00 -0.28575329862E+04  0.28575329862E+04  0.25500000920E-02 0.  1.
    10030    2    1    2    0    0  0.00000000000E+00  0.00000000000E+00 -0.21985843733E+04  0.35164815992E+04  0.27444251840E+04 0.  0.
        1    1    3    3  502    0 -0.74155688568E+03 -0.63096535868E+03  0.13964599243E+03  0.98362843685E+03  0.50400001928E-02 0. -1.
       -1    1    3    3    0  502  0.74155688568E+03  0.63096535868E+03 -0.23382303657E+04  0.25328531623E+04  0.50400001928E-02 0.  1.
</event>
<event>
 5   0  0.1874272E-05  0.2811159E+04  0.7818609E-02  0.8299812E-01
       -2   -1    0    0    0  501  0.00000000000E+00  0.00000000000E+00  0.11736881650E+04  0.11736881650E+04  0.25500000920E-02 0. -1.
        2   -1    0    0  501    0  0.00000000000E+00  0.00000000000E+00 -0.16832864549E+04  0.16832864549E+04  0.25500000920E-02 0.  1.
    10030    2    1    2    0    0  0.00000000000E+00  0.00000000000E+00 -0.50959828990E+03  0.28569746200E+04  0.28111587579E+04 0.  0.
        3    1    3    3  502    0 -0.10248024172E+04 -0.80436569427E+03 -0.79106285918E+03  0.15241406174E+04  0.10100000352E+00 0.  1.
       -3    1    3    3    0  502  0.10248024172E+04  0.80436569427E+03  0.28146456928E+03  0.13328340025E+04  0.10100000352E+00 0. -1.
</event>
<event>
 5   0  0.1904553E-05  0.2783434E+04  0.7818609E-02  0.8308430E-01
        2   -1    0    0  501    0  0.00000000000E+00  0.00000000000E+00  0.84652449167E+03  0.84652449168E+03  0.25500000920E-02 0. -1.
       -2   -1    0    0    0  501  0.00000000000E+00  0.00000000000E+00 -0.22880339741E+04  0.22880339741E+04  0.25500000920E-02 0.  1.
    10030    2    1    2    0    0  0.00000000000E+00  0.00000000000E+00 -0.14415094825E+04  0.31345584658E+04  0.27834344231E+04 0.  0.
        1    1    3    3  502    0 -0.11598227216E+04  0.48227292397E+03 -0.45910393998E+02  0.12569342397E+04  0.50400001928E-02 0. -1.
       -1    1    3    3    0  502  0.11598227216E+04 -0.48227292397E+03 -0.13955990885E+04  0.18776242261E+04  0.50400001928E-02 0.  1.
</event>
<event>
 5   0  0.1874272E-05  0.2792060E+04  0.7818609E-02  0.8305738E-01
        2   -1    0    0  501    0  0.00000000000E+00  0.00000000000E+00  0.12326518127E+04  0.12326518127E+04  0.25500000920E-02 0. -1.
       -2   -1    0    0    0  501  0.00000000000E+00  0.00000000000E+00 -0.15810628543E+04  0.15810628543E+04  0.25500000920E-02 0.  1.
    10030    2    1    2    0    0  0.00000000000E+00  0.00000000000E+00 -0.34841104157E+03  0.28137146670E+04  0.27920601665E+04 0.  0.
        3    1    3    3  502    0  0.70635576484E+03 -0.11808088846E+03  0.10334283551E+04  0.12573208572E+04  0.10100000352E+00 0. -1.
       -3    1    3    3    0  502 -0.70635576484E+03  0.11808088846E+03 -0.13818393966E+04  0.15563938098E+04  0.10100000352E+00 0.  1.
</event>
<event>
 5   0  0.1832502E-05  0.2197648E+04  0.7818609E-02  0.8519408E-01
       -2   -1    0    0    0  501  0.00000000000E+00  0.00000000000E+00  0.65005045479E+03  0.65005045480E+03  0.25500000920E-02 0.  1.
        2   -1    0    0  501    0  0.00000000000E+00  0.00000000000E+00 -0.18574168161E+04  0.18574168161E+04  0.25500000920E-02 0. -1.
    10030    2    1    2    0    0  0.00000000000E+00  0.00000000000E+00 -0.12073663613E+04  0.25074672709E+04  0.21976484214E+04 0.  0.
        2    1    3    3  502    0  0.63102918948E+03  0.55542656432E+03  0.20368888679E+03  0.86497726498E+03  0.25500000920E-02 0.  1.
       -2    1    3    3    0  502 -0.63102918948E+03 -0.55542656432E+03 -0.14110552481E+04  0.16424900059E+04  0.25500000920E-02 0. -1.
</event>
<event>
 5   0  0.1904553E-05  0.2864534E+04  0.7818609E-02  0.8283508E-01
        2   -1    0    0  501    0  0.00000000000E+00  0.00000000000E+00  0.15423723625E+04  0.15423723625E+04  0.25500000920E-02 0. -1.
       -2   -1    0    0    0  501  0.00000000000E+00  0.00000000000E+00 -0.13300220777E+04  0.13300220777E+04  0.25500000920E-02 0.  1.
    10030    2    1    2    0    0  0.00000000000E+00  0.00000000000E+00  0.21235028481E+03  0.28723944403E+04  0.28645343735E+04 0.  0.
        1    1    3    3  502    0  0.13439926958E+03 -0.14066258533E+04  0.34076116224E+03  0.14535396879E+04  0.50400001928E-02 0. -1.
       -1    1    3    3    0  502 -0.13439926958E+03  0.14066258533E+04 -0.12841087743E+03  0.14188547523E+04  0.50400001928E-02 0.  1.
</event>
<event>
 5   0  0.7613444E-06  0.2740291E+04  0.7818609E-02  0.8322049E-01
        1   -1    0    0  501    0  0.00000000000E+00  0.00000000000E+00  0.16134579344E+04  0.16134579344E+04  0.50400001928E-02 0. -1.
       -1   -1    0    0    0  501  0.00000000000E+00  0.00000000000E+00 -0.11635248981E+04  0.11635248981E+04  0.50400001928E-02 0.  1.
    10030    2    1    2    0    0  0.00000000000E+00  0.00000000000E+00  0.44993303632E+03  0.27769828325E+04  0.27402908449E+04 0.  0.
        5    1    3    3  502    0  0.11806122997E+04  0.66507112356E+03  0.43044086115E+03  0.14217828338E+04  0.46999998093E+01 0.  1.
       -5    1    3    3    0  502 -0.11806122997E+04 -0.66507112356E+03  0.19492175166E+02  0.13551999987E+04  0.46999998093E+01 0. -1.
</event>
<event>
 5   0  0.7613444E-06  0.2896163E+04  0.7818609E-02  0.8274020E-01
        1   -1    0    0  501    0  0.00000000000E+00  0.00000000000E+00  0.11732061028E+04  0.11732061028E+04  0.50400001928E-02 0. -1.
       -1   -1    0    0    0  501  0.00000000000E+00  0.00000000000E+00 -0.17873584792E+04  0.17873584792E+04  0.50400001928E-02 0.  1.
    10030    2    1    2    0    0  0.00000000000E+00  0.00000000000E+00 -0.61415237641E+03  0.29605645821E+04  0.28961628930E+04 0.  0.
        5    1    3    3  502    0  0.13656972642E+04 -0.66175235330E+02 -0.79455524003E+03  0.15814070630E+04  0.46999998093E+01 0. -1.
       -5    1    3    3    0  502 -0.13656972642E+04  0.66175235330E+02  0.18040286362E+03  0.13791575191E+04  0.46999998093E+01 0.  1.
</event>
<event>
 5   0  0.1832502E-05  0.2791571E+04  0.7818609E-02  0.8305890E-01
        2   -1    0    0  501    0  0.00000000000E+00  0.00000000000E+00  0.92874980580E+03  0.92874980581E+03  0.25500000920E-02 0. -1.
       -2   -1    0    0    0  501  0.00000000000E+00  0.00000000000E+00 -0.20976766677E+04  0.20976766677E+04  0.25500000920E-02 0.  1.
    10030    2    1    2    0    0  0.00000000000E+00  0.00000000000E+00 -0.11689268619E+04  0.30264264735E+04  0.27915707390E+04 0.  0.
        2    1    3    3  502    0 -0.70440466311E+03 -0.44593125693E+03 -0.17980969312E+04  0.19819670001E+04  0.25500000920E-02 0.  1.
       -2    1    3    3    0  502  0.70440466311E+03  0.44593125693E+03  0.62917006938E+03  0.10444594734E+04  0.25500000920E-02 0. -1.
</event>
<event>
 5   0  0.7555871E-06  0.2785976E+04  0.7818609E-02  0.8307636E-01
       -1   -1    0    0    0  501  0.00000000000E+00  0.00000000000E+00  0.14263221332E+04  0.14263221332E+04  0.50400001928E-02 0.  1.
        1   -1    0    0  501    0  0.00000000000E+00  0.00000000000E+00 -0.13604324281E+04  0.13604324281E+04  0.50400001928E-02 0. -1.
    10030    2    1    2    0    0  0.00000000000E+00  0.00000000000E+00  0.65889705105E+02  0.27867545614E+04  0.27859755081E+04 0.  0.
        3    1    3    3  502    0 -0.76246143679E+03 -0.95407880516E+02  0.11951495952E+04  0.14208563163E+04  0.10100000352E+00 0.  1.
       -3    1    3    3    0  502  0.76246143679E+03  0.95407880516E+02 -0.11292598901E+04  0.13658982451E+04  0.10100000352E+00 0. -1.
</event>
<event>
 5   0  0.7613444E-06  0.2758303E+04  0.7818609E-02  0.8316332E-01
        1   -1    0    0  501    0  0.00000000000E+00  0.00000000000E+00  0.13277610867E+04  0.13277610867E+04  0.50400001928E-02 0. -1.
       -1   -1    0    0    0  501  0.00000000000E+00  0.00000000000E+00 -0.14325308086E+04  0.14325308086E+04  0.50400001928E-02 0.  1.
    10030    2    1    2    0    0  0.00000000000E+00  0.00000000000E+00 -0.10476972195E+03  0.27602918953E+04  0.27583028573E+04 0.  0.
        5    1    3    3  502    0  0.12413693134E+04 -0.59710595121E+03  0.14770042136E+02  0.13775970142E+04  0.46999998093E+01 0. -1.
       -5    1    3    3    0  502 -0.12413693134E+04  0.59710595121E+03 -0.11953976409E+03  0.13826948812E+04  0.46999998093E+01 0.  1.
</event>
<event>
 5   0  0.1814230E-05  0.2282313E+04  0.7818609E-02  0.8484928E-01
        2   -1    0    0  501    0  0.00000000000E+00  0.00000000000E+00  0.10035512411E+04  0.10035512411E+04  0.25500000920E-02 0.  1.
       -2   -1    0    0    0  501  0.00000000000E+00  0.00000000000E+00 -0.12976295757E+04  0.12976295757E+04  0.25500000920E-02 0. -1.
    10030    2    1    2    0    0  0.00000000000E+00  0.00000000000E+00 -0.29407833458E+03  0.23011808168E+04  0.22823126615E+04 0.  0.
        5    1    3    3  502    0 -0.89791424383E+03 -0.26889876420E+02 -0.85659179788E+03  0.12412673576E+04  0.46999998093E+01 0. -1.
       -5    1    3    3    0  502  0.89791424383E+03  0.26889876420E+02  0.56251346331E+03  0.10599134593E+04  0.46999998093E+01 0.  1.
</event>
<event>
 5   0  0.1874272E-05  0.2784015E+04  0.7818609E-02  0.8308248E-01
        2   -1    0    0  501    0  0.00000000000E+00  0.00000000000E+00  0.18033429888E+04  0.18033429888E+04  0.25500000920E-02 0. -1.
       -2   -1    0    0    0  501  0.00000000000E+00  0.00000000000E+00 -0.10744957932E+04  0.10744957932E+04  0.25500000920E-02 0.  1.
    10030    2    1    2    0    0  0.00000000000E+00  0.00000000000E+00  0.72884719560E+03  0.28778387821E+04  0.27840146948E+04 0.  0.
        3    1    3    3  502    0  0.11311955052E+04  0.21093654690E+03  0.11741401064E+04  0.16439898106E+04  0.10100000352E+00 0. -1.
       -3    1    3    3    0  502 -0.11311955052E+04 -0.21093654690E+03 -0.44529291081E+03  0.12338489714E+04  0.10100000352E+00 0.  1.
</event>
<event>
 5   0  0.6288000E-06  0.2481151E+04  0.7818609E-02  0.8409731E-01
       -3   -1    0    0    0  501  0.00000000000E+00  0.00000000000E+00  0.63305818094E+03  0.63305818899E+03  0.10100000352E+00 0. -1.
        3   -1    0    0  501    0  0.00000000000E+00  0.00000000000E+00 -0.24311002702E+04  0.24311002723E+04  0.10100000352E+00 0.  1.
    10030    2    1    2    0    0  0.00000000000E+00  0.00000000000E+00 -0.17980420893E+04  0.30641584613E+04  0.24811512894E+04 0.  0.
        4    1    3    3  502    0 -0.99463177201E+03 -0.46661143591E+03 -0.16106147009E+04  0.19496409725E+04  0.12699999809E+01 0.  1.
       -4    1    3    3    0  502  0.99463177201E+03  0.46661143591E+03 -0.18742738839E+03  0.11145174888E+04  0.12699999809E+01 0. -1.
</event>
<event>
 5   0  0.1832502E-05  0.2693845E+04  0.7818609E-02  0.8337005E-01
        2   -1    0    0  501    0  0.00000000000E+00  0.00000000000E+00  0.18790434516E+04  0.18790434516E+04  0.25500000920E-02 0. -1.
       -2   -1    0    0    0  501  0.00000000000E+00  0.00000000000E+00 -0.96549160296E+03  0.96549160296E+03  0.25500000920E-02 0.  1.
    10030    2    1    2    0    0  0.00000000000E+00  0.00000000000E+00  0.91355184866E+03  0.28445350546E+04  0.26938453364E+04 0.  0.
        2    1    3    3  502    0  0.10278222607E+04  0.62152239366E+02  0.13736317033E+04  0.17167252421E+04  0.25500000920E-02 0. -1.
       -2    1    3    3    0  502 -0.10278222607E+04 -0.62152239366E+02 -0.46007985469E+03  0.11278098125E+04  0.25500000920E-02 0.  1.
</event>
<event>
 5   0  0.7388013E-06  0.2817047E+04  0.7818609E-02  0.8297996E-01
       -1   -1    0    0    0  501  0.00000000000E+00  0.00000000000E+00  0.15157763339E+04  0.15157763339E+04  0.50400001928E-02 0.  1.
        1   -1    0    0  501    0  0.00000000000E+00  0.00000000000E+00 -0.13088592473E+04  0.13088592473E+04  0.50400001928E-02 0. -1.
    10030    2    1    2    0    0  0.00000000000E+00  0.00000000000E+00  0.20691708653E+03  0.28246355812E+04  0.28170465892E+04 0.  0.
        1    1    3    3  502    0 -0.81228860791E+03 -0.40071002055E+02 -0.10496479621E+04  0.13278476239E+04  0.50400001928E-02 0. -1.
       -1    1    3    3    0  502  0.81228860791E+03  0.40071002055E+02  0.12565650487E+04  0.14967879574E+04  0.50400001928E-02 0.  1.
</event>
<event>
 5   0  0.1874272E-05  0.2724230E+04  0.7818609E-02  0.8327186E-01
       -2   -1    0    0    0  501  0.00000000000E+00  0.00000000000E+00  0.22653700901E+04  0.22653700901E+04  0.25500000920E-02 0. -1.
        2   -1    0    0  501    0  0.00000000000E+00  0.00000000000E+00 -0.81900829752E+03  0.81900829752E+03  0.25500000920E-02 0.  1.
    10030    2    1    2    0    0  0.00000000000E+00  0.00000000000E+00  0.14463617926E+04  0.30843783877E+04  0.27242297266E+04 0.  0.
        3    1    3    3  502    0 -0.82109598498E+03  0.61436339207E+03 -0.29184051338E+03  0.10662138104E+04  0.10100000352E+00 0.  1.
       -3    1    3    3    0  502  0.82109598498E+03 -0.61436339207E+03  0.17382023060E+04  0.20181645773E+04  0.10100000352E+00 0. -1.
</event>
<event>
 5   0  0.7681342E-06  0.2778820E+04  0.7818609E-02  0.8309874E-01
        1   -1    0    0  501    0  0.00000000000E+00  0.00000000000E+00  0.97307683738E+03  0.97307683739E+03  0.50400001928E-02 0. -1.
       -1   -1    0    0    0  501  0.00000000000E+00  0.00000000000E+00 -0.19838727129E+04  0.19838727129E+04  0.50400001928E-02 0.  1.
    10030    2    1    2    0    0  0.00000000000E+00  0.00000000000E+00 -0.10107958755E+04  0.29569495503E+04  0.27788203146E+04 0.  0.
        2    1    3    3  502    0  0.92003591391E+03 -0.15787730507E+03 -0.16004773920E+04  0.18528138624E+04  0.25500000920E-02 0.  1.
       -2    1    3    3    0  502 -0.92003591391E+03  0.15787730507E+03  0.58968151651E+03  0.11041356879E+04  0.25500000920E-02 0. -1.
</event>
<event>
 5   0  0.7555871E-06  0.2832388E+04  0.7818609E-02  0.8293283E-01
        1   -1    0    0  501    0  0.00000000000E+00  0.00000000000E+00  0.17444968153E+04  0.17444968153E+04  0.50400001928E-02 0.  1.
       -1   -1    0    0    0  501  0.00000000000E+00  0.00000000000E+00 -0.11496756853E+04  0.11496756854E+04  0.50400001928E-02 0. -1.
    10030    2    1    2    0    0  0.00000000000E+00  0.00000000000E+00  0.59482112994E+03  0.28941725006E+04  0.28323880890E+04 0.  0.
        3    1    3    3  502    0  0.72518920633E+03  0.38481384510E+03 -0.88172174195E+03  0.12047465795E+04  0.10100000352E+00 0. -1.
       -3    1    3    3    0  502 -0.72518920633E+03 -0.38481384510E+03  0.14765428719E+04  0.16894259212E+04  0.10100000352E+00 0.  1.
</event>
<event>
 5   0  0.7613444E-06  0.2816311E+04  0.7818609E-02  0.8298222E-01
       -1   -1    0    0    0  501  0.00000000000E+00  0.00000000000E+00  0.90054710100E+03  0.90054710101E+03  0.50400001928E-02 0.  1.
        1   -1    0    0  501    0  0.00000000000E+00  0.00000000000E+00 -0.22018851118E+04  0.22018851118E+04  0.50400001928E-02 0. -1.
    10030    2    1    2    0    0  0.00000000000E+00  0.00000000000E+00 -0.13013380108E+04  0.31024322129E+04  0.28163105328E+04 0.  0.
        5    1    3    3  502    0  0.22152891417E+03  0.11184773188E+04 -0.15609438106E+04  0.19330375687E+04  0.46999998093E+01 0. -1.
       -5    1    3    3    0  502 -0.22152891417E+03 -0.11184773188E+04  0.25960579974E+03  0.11693946441E+04  0.46999998093E+01 0.  1.
</event>
<event>
 5   0  0.7681342E-06  0.2833702E+04  0.7818609E-02  0.8292881E-01
        1   -1    0    0  501    0  0.00000000000E+00  0.00000000000E+00  0.23180117560E+04  0.23180117560E+04  0.50400001928E-02 0.  1.
       -1   -1    0    0    0  501  0.00000000000E+00  0.00000000000E+00 -0.86602975239E+03  0.86602975240E+03  0.50400001928E-02 0. -1.
    10030    2    1    2    0    0  0.00000000000E+00  0.00000000000E+00  0.14519820036E+04  0.31840415084E+04  0.28337022759E+04 0.  0.
        2    1    3    3  502    0  0.11916355817E+04  0.43045960081E+03  0.14385695589E+04  0.19169697972E+04  0.25500000920E-02 0.  1.
       -2    1    3    3    0  502 -0.11916355817E+04 -0.43045960081E+03  0.13412444660E+02  0.12670717112E+04  0.25500000920E-02 0. -1.
</event>
<event>
 5   0  0.1923559E-05  0.2054882E+04  0.7818609E-02  0.8581383E-01
       -2   -1    0    0    0  501  0.00000000000E+00  0.00000000000E+00  0.52544903018E+03  0.52544903019E+03  0.25500000920E-02 0. -1.
        2   -1    0    0  501    0  0.00000000000E+00  0.00000000000E+00 -0.20090145171E+04  0.20090145171E+04  0.25500000920E-02 0.  1.
    10030    2    1    2    0    0  0.00000000000E+00  0.00000000000E+00 -0.14835654869E+04  0.25344635473E+04  0.20548817286E+04 0.  0.
        4    1    3    3  502    0 -0.61590846150E+03 -0.21864082970E+03 -0.17195760214E+04  0.18395897237E+04  0.12699999809E+01 0.  1.
       -4    1    3    3    0  502  0.61590846150E+03  0.21864082970E+03  0.23601053450E+03  0.69487382355E+03  0.12699999809E+01 0. -1.
</event>
<event>
 5   0  0.7509685E-06  0.2784345E+04  0.7818609E-02  0.8308145E-01
        1   -1    0    0  501    0  0.00000000000E+00  0.00000000000E+00  0.15453319108E+04  0.15453319109E+04  0.50400001928E-02 0.  1.
       -1   -1    0    0    0  501  0.00000000000E+00  0.00000000000E+00 -0.12541929046E+04  0.12541929046E+04  0.50400001928E-02 0. -1.
    10030    2    1    2    0    0  0.00000000000E+00  0.00000000000E+00  0.29113900626E+03  0.27995248155E+04  0.27843450345E+04 0.  0.
        4    1    3    3  502    0 -0.13430414322E+04 -0.36251587880E+03  0.20031498356E+03  0.14054557113E+04  0.12699999809E+01 0.  1.
       -4    1    3    3    0  502  0.13430414322E+04  0.36251587880E+03  0.90824022702E+02  0.13940691041E+04  0.12699999809E+01 0. -1.
</event>
<event>
 5   0  0.7613444E-06  0.2894025E+04  0.7818609E-02  0.8274657E-01
       -1   -1    0    0    0  501  0.00000000000E+00  0.00000000000E+00  0.12988326383E+04  0.12988326383E+04  0.50400001928E-02 0.  1.
        1   -1    0    0  501    0  0.00000000000E+00  0.00000000000E+00 -0.16120982282E+04  0.16120982282E+04  0.50400001928E-02 0. -1.
    10030    2    1    2    0    0  0.00000000000E+00  0.00000000000E+00 -0.31326558986E+03  0.29109308665E+04  0.28940254284E+04 0.  0.
        5    1    3    3  502    0 -0.10122687485E+04 -0.74669246313E+03  0.56279778825E+03  0.13780424863E+04  0.46999998093E+01 0.  1.
       -5    1    3    3    0  502  0.10122687485E+04  0.74669246313E+03 -0.87606337811E+03  0.15328883802E+04  0.46999998093E+01 0. -1.
</event>
<event>
 5   0  0.7681342E-06  0.2801706E+04  0.7818609E-02  0.8302739E-01
       -1   -1    0    0    0  501  0.00000000000E+00  0.00000000000E+00  0.12402054885E+04  0.12402054885E+04  0.50400001928E-02 0.  1.
        1   -1    0    0  501    0  0.00000000000E+00  0.00000000000E+00 -0.15823092686E+04  0.15823092686E+04  0.50400001928E-02 0. -1.
    10030    2    1    2    0    0  0.00000000000E+00  0.00000000000E+00 -0.34210378006E+03  0.28225147571E+04  0.28017056515E+04 0.  0.
        2    1    3    3  502    0  0.12705813182E+04  0.57309065272E+03 -0.30088160065E+02  0.13941718258E+04  0.25500000920E-02 0. -1.
       -2    1    3    3    0  502 -0.12705813182E+04 -0.57309065272E+03 -0.31201561999E+03  0.14283429313E+04  0.25500000920E-02 0.  1.
</event>
<event>
 5   0  0.1904553E-05  0.2708231E+04  0.7818609E-02  0.8332339E-01
        2   -1    0    0  501    0  0.00000000000E+00  0.00000000000E+00  0.19297279406E+04  0.19297279406E+04  0.25500000920E-02 0. -1.
       -2   -1    0    0    0  501  0.00000000000E+00  0.00000000000E+00 -0.95020059233E+03  0.95020059233E+03  0.25500000920E-02 0.  1.
    10030    2    1    2    0    0  0.00000000000E+00  0.00000000000E+00  0.97952734823E+03  0.28799285329E+04  0.27082308854E+04 0.  0.
        1    1    3    3  502    0 -0.80316459505E+03  0.71766057682E+03 -0.38294804649E+03  0.11431357210E+04  0.50400001928E-02 0. -1.
       -1    1    3    3    0  502  0.80316459505E+03 -0.71766057682E+03  0.13624753947E+04  0.17367928119E+04  0.50400001928E-02 0.  1.
</event>
<event>
 5   0  0.1874272E-05  0.2100176E+04  0.7818609E-02  0.8561166E-01
        2   -1    0    0  501    0  0.00000000000E+00  0.00000000000E+00  0.72899185391E+03  0.72899185392E+03  0.25500000920E-02 0. -1.
       -2   -1    0    0    0  501  0.00000000000E+00  0.00000000000E+00 -0.15126153890E+04  0.15126153890E+04  0.25500000920E-02 0.  1.
    10030    2    1    2    0    0  0.00000000000E+00  0.00000000000E+00 -0.78362353513E+03  0.22416072430E+04  0.21001755134E+04 0.  0.
        3    1    3    3  502    0 -0.81369306810E+02  0.65344890698E+03  0.48123801991E+03  0.81560191278E+03  0.10100000352E+00 0. -1.
       -3    1    3    3    0  502  0.81369306810E+02 -0.65344890698E+03 -0.12648615550E+04  0.14260053302E+04  0.10100000352E+00 0.  1.
</event>
<event>
 5   0  0.1874272E-05  0.2760938E+04  0.7818609E-02  0.8315499E-01
        2   -1    0    0  501    0  0.00000000000E+00  0.00000000000E+00  0.13399216173E+04  0.13399216173E+04  0.25500000920E-02 0.  1.
       -2   -1    0    0    0  501  0.00000000000E+00  0.00000000000E+00 -0.14222435242E+04  0.14222435242E+04  0.25500000920E-02 0. -1.
    10030    2    1    2    0    0  0.00000000000E+00  0.00000000000E+00 -0.82321906814E+02  0.27621651415E+04  0.27609381327E+04 0.  0.
        3    1    3    3  502    0  0.45262969101E+03 -0.39197135626E+03 -0.12855705099E+04  0.14181702039E+04  0.10100000352E+00 0. -1.
       -3    1    3    3    0  502 -0.45262969101E+03  0.39197135626E+03  0.12032486030E+04  0.13439949376E+04  0.10100000352E+00 0.  1.
</event>
<event>
 5   0  0.7509685E-06  0.2800820E+04  0.7818609E-02  0.8303014E-01
        1   -1    0    0  501    0  0.00000000000E+00  0.00000000000E+00  0.29788530108E+04  0.29788530109E+04  0.50400001928E-02 0.  1.
       -1   -1    0    0    0  501  0.00000000000E+00  0.00000000000E+00 -0.65835697146E+03  0.65835697148E+03  0.50400001928E-02 0. -1.
    10030    2    1    2    0    0  0.00000000000E+00  0.00000000000E+00  0.23204960394E+04  0.36372099823E+04  0.28008203418E+04 0.  0.
        4    1    3    3  502    0  0.10421280813E+04  0.46883005389E+03  0.10899319150E+03  0.11479171076E+04  0.12699999809E+01 0. -1.
       -4    1    3    3    0  502 -0.10421280813E+04 -0.46883005389E+03  0.22115028479E+04  0.24892928747E+04  0.12699999809E+01 0.  1.
</event>
<event>
 5   0  0.1904553E-05  0.2848709E+04  0.7818609E-02  0.8288304E-01
       -2   -1    0    0    0  501  0.00000000000E+00  0.00000000000E+00  0.10747537563E+04  0.10747537563E+04  0.25500000920E-02 0. -1.
        2   -1    0    0  501    0  0.00000000000E+00  0.00000000000E+00 -0.18876752931E+04  0.18876752931E+04  0.25500000920E-02 0.  1.
    10030    2    1    2    0    0  0.00000000000E+00  0.00000000000E+00 -0.81292153681E+03  0.29624290495E+04  0.28487092600E+04 0.  0.
        1    1    3    3  502    0  0.96821002585E+03 -0.94971820838E+03 -0.85902398209E+03  0.16054026072E+04  0.50400001928E-02 0.  1.
       -1    1    3    3    0  502 -0.96821002585E+03  0.94971820838E+03  0.46102445284E+02  0.13570264423E+04  0.50400001928E-02 0. -1.
</event>
<event>
 5   0  0.7681342E-06  0.2821492E+04  0.7818609E-02  0.8296627E-01
        1   -1    0    0  501    0  0.00000000000E+00  0.00000000000E+00  0.15305474571E+04  0.15305474571E+04  0.50400001928E-02 0.  1.
       -1   -1    0    0    0  501  0.00000000000E+00  0.00000000000E+00 -0.13003216867E+04  0.13003216868E+04  0.50400001928E-02 0. -1.
    10030    2    1    2    0    0  0.00000000000E+00  0.00000000000E+00  0.23022577038E+03  0.28308691439E+04  0.28214918402E+04 0.  0.
        2    1    3    3  502    0  0.23782040096E+03 -0.10431078800E+03 -0.12761335798E+04  0.13022888302E+04  0.25500000920E-02 0. -1.
       -2    1    3    3    0  502 -0.23782040096E+03  0.10431078800E+03  0.15063593502E+04  0.15285803137E+04  0.25500000920E-02 0.  1.
</event>
<event>
 5   0  0.7555871E-06  0.2747970E+04  0.7818609E-02  0.8319606E-01
       -1   -1    0    0    0  501  0.00000000000E+00  0.00000000000E+00  0.14931832554E+04  0.14931832554E+04  0.50400001928E-02 0. -1.
        1   -1    0    0  501    0  0.00000000000E+00  0.00000000000E+00 -0.12643020597E+04  0.12643020598E+04  0.50400001928E-02 0.  1.
    10030    2    1    2    0    0  0.00000000000E+00  0.00000000000E+00  0.22888119568E+03  0.27574853152E+04  0.27479699165E+04 0.  0.
        3    1    3    3  502    0  0.35531524036E+03  0.19508837759E+03 -0.12029367356E+04  0.12693956023E+04  0.10100000352E+00 0.  1.
       -3    1    3    3    0  502 -0.35531524036E+03 -0.19508837759E+03  0.14318179313E+04  0.14880897129E+04  0.10100000352E+00 0. -1.
</event>
<event>
 5   0  0.7613444E-06  0.2786905E+04  0.7818609E-02  0.8307345E-01
       -1   -1    0    0    0  501  0.00000000000E+00  0.00000000000E+00  0.75041048901E+03  0.75041048903E+03  0.50400001928E-02 0. -1.
        1   -1    0    0  501    0  0.00000000000E+00  0.00000000000E+00 -0.25875311713E+04  0.25875311713E+04  0.50400001928E-02 0.  1.
    10030    2    1    2    0    0  0.00000000000E+00  0.00000000000E+00 -0.18371206823E+04  0.33379416603E+04  0.27869054750E+04 0.  0.
        5    1    3    3  502    0 -0.23403186363E+03  0.13384064301E+04 -0.54826086871E+03  0.14651671425E+04  0.46999998093E+01 0. -1.
       -5    1    3    3    0  502  0.23403186363E+03 -0.13384064301E+04 -0.12888598136E+04  0.18727745178E+04  0.46999998093E+01 0.  1.
</event>
<event>
 5   0  0.1832502E-05  0.2770343E+04  0.7818609E-02  0.8312535E-01
        2   -1    0    0  501    0  0.00000000000E+00  0.00000000000E+00  0.25418105706E+04  0.25418105706E+04  0.25500000920E-02 0.  1.
       -2   -1    0    0    0  501  0.00000000000E+00  0.00000000000E+00 -0.75485563115E+03  0.75485563116E+03  0.25500000920E-02 0. -1.
    10030    2    1    2    0    0  0.00000000000E+00  0.00000000000E+00  0.17869549395E+04  0.32966662018E+04  0.27703429554E+04 0.  0.
        2    1    3    3  502    0 -0.18199029067E+03 -0.25370893631E+03  0.24993889828E+04  0.25188159872E+04  0.25500000920E-02 0.  1.
       -2    1    3    3    0  502  0.18199029067E+03  0.25370893631E+03 -0.71243404329E+03  0.77785021457E+03  0.25500000920E-02 0. -1.
</event>
<event>
 5   0  0.1904553E-05  0.2871671E+04  0.7818609E-02  0.8281357E-01
        2   -1    0    0  501    0  0.00000000000E+00  0.00000000000E+00  0.23018656016E+04  0.23018656016E+04  0.25500000920E-02 0. -1.
       -2   -1    0    0    0  501  0.00000000000E+00  0.00000000000E+00 -0.89563136787E+03  0.89563136787E+03  0.25500000920E-02 0.  1.
    10030    2    1    2    0    0  0.00000000000E+00  0.00000000000E+00  0.14062342337E+04  0.31974969695E+04  0.28716706200E+04 0.  0.
        1    1    3    3  502    0 -0.13878229238E+04  0.32941362890E+03  0.51996278789E+03  0.15181986391E+04  0.50400001928E-02 0. -1.
       -1    1    3    3    0  502  0.13878229238E+04 -0.32941362890E+03  0.88627144584E+03  0.16792983304E+04  0.50400001928E-02 0.  1.
</event>
<event>
 5   0  0.1814230E-05  0.2951436E+04  0.7818609E-02  0.8257736E-01
        2   -1    0    0  501    0  0.00000000000E+00  0.00000000000E+00  0.17820469385E+04  0.17820469385E+04  0.25500000920E-02 0.  1.
       -2   -1    0    0    0  501  0.00000000000E+00  0.00000000000E+00 -0.12220457700E+04  0.12220457700E+04  0.25500000920E-02 0. -1.
    10030    2    1    2    0    0  0.00000000000E+00  0.00000000000E+00  0.56000116842E+03  0.30040927085E+04  0.29514355308E+04 0.  0.
        5    1    3    3  502    0 -0.11413729076E+04 -0.93475583902E+03  0.24444541825E+03  0.14954184182E+04  0.46999998093E+01 0. -1.
       -5    1    3    3    0  502  0.11413729076E+04  0.93475583902E+03  0.31555575017E+03  0.15086742903E+04  0.46999998093E+01 0.  1.
</event>
<event>
 5   0  0.6288000E-06  0.2645319E+04  0.7818609E-02  0.8352968E-01
       -4   -1    0    0    0  501  0.00000000000E+00  0.00000000000E+00  0.10339808299E+04  0.10339816098E+04  0.12699999809E+01 0.  1.
        4   -1    0    0  501    0  0.00000000000E+00  0.00000000000E+00 -0.16919328401E+04  0.16919333168E+04  0.12699999809E+01 0. -1.
    10030    2    1    2    0    0  0.00000000000E+00  0.00000000000E+00 -0.65795201025E+03  0.27259149266E+04  0.26453187594E+04 0.  0.
        5    1    3    3  502    0 -0.60178171237E+02 -0.10806484316E+04  0.45443908214E+03  0.11738651602E+04  0.46999998093E+01 0.  1.
       -5    1    3    3    0  502  0.60178171237E+02  0.10806484316E+04 -0.11123910924E+04  0.15520497664E+04  0.46999998093E+01 0. -1.
</event>
<event>
 5   0  0.1923559E-05  0.1883994E+04  0.7818609E-02  0.8662865E-01
       -2   -1    0    0    0  501  0.00000000000E+00  0.00000000000E+00  0.47327763956E+03  0.47327763957E+03  0.25500000920E-02 0.  1.
        2   -1    0    0  501    0  0.00000000000E+00  0.00000000000E+00 -0.18749210221E+04  0.18749210221E+04  0.25500000920E-02 0. -1.
    10030    2    1    2    0    0  0.00000000000E+00  0.00000000000E+00 -0.14016433826E+04  0.23481986617E+04  0.18839938383E+04 0.  0.
        4    1    3    3  502    0  0.36496324817E+03 -0.20236809510E+03  0.35177674267E+03  0.54580171126E+03  0.12699999809E+01 0.  1.
       -4    1    3    3    0  502 -0.36496324817E+03  0.20236809510E+03 -0.17534201252E+04  0.18023969504E+04  0.12699999809E+01 0. -1.
</event>
<event>
 5   0  0.1904553E-05  0.2723141E+04  0.7818609E-02  0.8327535E-01
        2   -1    0    0  501    0  0.00000000000E+00  0.00000000000E+00  0.13838300948E+04  0.13838300948E+04  0.25500000920E-02 0. -1.
       -2   -1    0    0    0  501  0.00000000000E+00  0.00000000000E+00 -0.13396686555E+04  0.13396686555E+04  0.25500000920E-02 0.  1.
    10030    2    1    2    0    0  0.00000000000E+00  0.00000000000E+00  0.44161439334E+02  0.27234987503E+04  0.27231406887E+04 0.  0.
        1    1    3    3  502    0 -0.11666709117E+04  0.29059897850E+02 -0.67937325442E+03  0.13503753229E+04  0.50400001928E-02 0.  1.
       -1    1    3    3    0  502  0.11666709117E+04 -0.29059897850E+02  0.72353469375E+03  0.13731234274E+04  0.50400001928E-02 0. -1.
</event>
<event>
 5   0  0.7388013E-06  0.2880876E+04  0.7818609E-02  0.8278590E-01
       -1   -1    0    0    0  501  0.00000000000E+00  0.00000000000E+00  0.10677561466E+04  0.10677561467E+04  0.50400001928E-02 0. -1.
        1   -1    0    0  501    0  0.00000000000E+00  0.00000000000E+00 -0.19431984487E+04  0.19431984487E+04  0.50400001928E-02 0.  1.
    10030    2    1    2    0    0  0.00000000000E+00  0.00000000000E+00 -0.87544230203E+03  0.30109545953E+04  0.28808763165E+04 0.  0.
        1    1    3    3  502    0 -0.11044552356E+04 -0.15012582497E+02 -0.14040295346E+04  0.17864337880E+04  0.50400001928E-02 0.  1.
       -1    1    3    3    0  502  0.11044552356E+04  0.15012582497E+02  0.52858723252E+03  0.12245208073E+04  0.50400001928E-02 0. -1.
</event>
<event>
 5   0  0.7613444E-06  0.2742216E+04  0.7818609E-02  0.8321436E-01
        1   -1    0    0  501    0  0.00000000000E+00  0.00000000000E+00  0.15064287959E+04  0.15064287959E+04  0.50400001928E-02 0. -1.
       -1   -1    0    0    0  501  0.00000000000E+00  0.00000000000E+00 -0.12479425476E+04  0.12479425476E+04  0.50400001928E-02 0.  1.
    10030    2    1    2    0    0  0.00000000000E+00  0.00000000000E+00  0.25848624831E+03  0.27543713435E+04  0.27422155928E+04 0.  0.
        5    1    3    3  502    0  0.28478026122E+03 -0.50080592493E+03  0.13789481420E+04  0.14944652689E+04  0.46999998093E+01 0. -1.
       -5    1    3    3    0  502 -0.28478026122E+03  0.50080592493E+03 -0.11204618937E+04  0.12599060746E+04  0.46999998093E+01 0.  1.
</event>
<event>
 5   0  0.1814230E-05  0.2583243E+04  0.7818609E-02  0.8373915E-01
        2   -1    0    0  501    0  0.00000000000E+00  0.00000000000E+00  0.14014772547E+04  0.14014772547E+04  0.25500000920E-02 0.  1.
       -2   -1    0    0    0  501  0.00000000000E+00  0.00000000000E+00 -0.11903770984E+04  0.11903770984E+04  0.25500000920E-02 0. -1.
    10030    2    1    2    0    0  0.00000000000E+00  0.00000000000E+00  0.21110015630E+03  0.25918543530E+04  0.25832432544E+04 0.  0.
        5    1    3    3  502    0  0.57994804284E+03 -0.11331657444E+04  0.32504862084E+03  0.13138047924E+04  0.46999998093E+01 0.  1.
       -5    1    3    3    0  502 -0.57994804284E+03  0.11331657444E+04 -0.11394846454E+03  0.12780495606E+04  0.46999998093E+01 0. -1.
</event>
<event>
 5   0  0.1814230E-05  0.2005156E+04  0.7818609E-02  0.8604214E-01
        2   -1    0    0  501    0  0.00000000000E+00  0.00000000000E+00  0.17530722623E+04  0.17530722623E+04  0.25500000920E-02 0. -1.
       -2   -1    0    0    0  501  0.00000000000E+00  0.00000000000E+00 -0.57337186498E+03  0.57337186499E+03  0.25500000920E-02 0.  1.
    10030    2    1    2    0    0  0.00000000000E+00  0.00000000000E+00  0.11797003973E+04  0.23264441273E+04  0.20051556673E+04 0.  0.
        5    1    3    3  502    0 -0.98879506788E+03  0.16090665431E+03  0.63528602502E+03  0.11862618013E+04  0.46999998093E+01 0.  1.
       -5    1    3    3    0  502  0.98879506788E+03 -0.16090665431E+03  0.54441437228E+03  0.11401823260E+04  0.46999998093E+01 0. -1.
</event>
<event>
 5   0  0.1814230E-05  0.2768700E+04  0.7818609E-02  0.8313052E-01
        2   -1    0    0  501    0  0.00000000000E+00  0.00000000000E+00  0.80098296182E+03  0.80098296183E+03  0.25500000920E-02 0.  1.
       -2   -1    0    0    0  501  0.00000000000E+00  0.00000000000E+00 -0.23925918439E+04  0.23925918439E+04  0.25500000920E-02 0. -1.
    10030    2    1    2    0    0  0.00000000000E+00  0.00000000000E+00 -0.15916088821E+04  0.31935748058E+04  0.27687002738E+04 0.  0.
        5    1    3    3  502    0  0.59702983771E+03  0.15673173039E+03  0.63345488231E+03  0.88447534750E+03  0.46999998093E+01 0.  1.
       -5    1    3    3    0  502 -0.59702983771E+03 -0.15673173039E+03 -0.22250637644E+04  0.23090994583E+04  0.46999998093E+01 0. -1.
</event>
<event>
 5   0  0.1923559E-05  0.2846981E+04  0.7818609E-02  0.8288829E-01
       -2   -1    0    0    0  501  0.00000000000E+00  0.00000000000E+00  0.81488684668E+03  0.81488684668E+03  0.25500000920E-02 0. -1.
        2   -1    0    0  501    0  0.00000000000E+00  0.00000000000E+00 -0.24866341264E+04  0.24866341264E+04  0.25500000920E-02 0.  1.
    10030    2    1    2    0    0  0.00000000000E+00  0.00000000000E+00 -0.16717472797E+04  0.33015209731E+04  0.28469811676E+04 0.  0.
        4    1    3    3  502    0 -0.29035995806E+03 -0.11752059214E+04  0.32635705431E+02  0.12109849566E+04  0.12699999809E+01 0.  1.
       -4    1    3    3    0  502  0.29035995806E+03  0.11752059214E+04 -0.17043829851E+04  0.20905360164E+04  0.12699999809E+01 0. -1.
</event>
<event>
 5   0  0.1923559E-05  0.2761443E+04  0.7818609E-02  0.8315340E-01
        2   -1    0    0  501    0  0.00000000000E+00  0.00000000000E+00  0.16191334127E+04  0.16191334127E+04  0.25500000920E-02 0. -1.
       -2   -1    0    0    0  501  0.00000000000E+00  0.00000000000E+00 -0.11774151518E+04  0.11774151518E+04  0.25500000920E-02 0.  1.
    10030    2    1    2    0    0  0.00000000000E+00  0.00000000000E+00  0.44171826091E+03  0.27965485645E+04  0.27614432552E+04 0.  0.
        4    1    3    3  502    0  0.12350790147E+02 -0.79083741700E+03  0.13669770839E+04  0.15793050127E+04  0.12699999809E+01 0. -1.
       -4    1    3    3    0  502 -0.12350790147E+02  0.79083741700E+03 -0.92525882300E+03  0.12172435519E+04  0.12699999809E+01 0.  1.
</event>
<event>
 5   0  0.7613444E-06  0.2790046E+04  0.7818609E-02  0.8306365E-01
       -1   -1    0    0    0  501  0.00000000000E+00  0.00000000000E+00  0.17261960310E+04  0.17261960310E+04  0.50400001928E-02 0. -1.
        1   -1    0    0  501    0  0.00000000000E+00  0.00000000000E+00 -0.11273861579E+04  0.11273861579E+04  0.50400001928E-02 0.  1.
    10030    2    1    2    0    0  0.00000000000E+00  0.00000000000E+00  0.59880987315E+03  0.28535821889E+04  0.27900462442E+04 0.  0.
        5    1    3    3  502    0  0.12199931579E+04 -0.20927221047E+03  0.95739761519E+03  0.15648675494E+04  0.46999998093E+01 0. -1.
       -5    1    3    3    0  502 -0.12199931579E+04  0.20927221047E+03 -0.35858774204E+03  0.12887146396E+04  0.46999998093E+01 0.  1.
</event>
<event>
 5   0  0.1874272E-05  0.2679542E+04  0.7818609E-02  0.8341673E-01
       -2   -1    0    0    0  501  0.00000000000E+00  0.00000000000E+00  0.16509813244E+04  0.16509813244E+04  0.25500000920E-02 0. -1.
        2   -1    0    0  501    0  0.00000000000E+00  0.00000000000E+00 -0.10872240181E+04  0.10872240181E+04  0.25500000920E-02 0.  1.
    10030    2    1    2    0    0  0.00000000000E+00  0.00000000000E+00  0.56375730635E+03  0.27382053425E+04  0.26795421618E+04 0.  0.
        3    1    3    3  502    0  0.89436336284E+03  0.99027815575E+03  0.40471804763E+03  0.13943935452E+04  0.10100000352E+00 0. -1.
       -3    1    3    3    0  502 -0.89436336284E+03 -0.99027815575E+03  0.15903925872E+03  0.13438117973E+04  0.10100000352E+00 0.  1.
</event>
<event>
 5   0  0.1832502E-05  0.2852496E+04  0.7818609E-02  0.8287153E-01
        2   -1    0    0  501    0  0.00000000000E+00  0.00000000000E+00  0.14068499938E+04  0.14068499938E+04  0.25500000920E-02 0.  1.
       -2   -1    0    0    0  501  0.00000000000E+00  0.00000000000E+00 -0.14459139525E+04  0.14459139526E+04  0.25500000920E-02 0. -1.
    10030    2    1    2    0    0  0.00000000000E+00  0.00000000000E+00 -0.39063958734E+02  0.28527639464E+04  0.28524964752E+04 0.  0.
        2    1    3    3  502    0  0.10042958026E+04  0.89503766904E+03 -0.49337124233E+03  0.14328704306E+04  0.25500000920E-02 0. -1.
       -2    1    3    3    0  502 -0.10042958026E+04 -0.89503766904E+03  0.45430728360E+03  0.14198935158E+04  0.25500000920E-02 0.  1.
</event>
<event>
 5   0  0.7555871E-06  0.1882052E+04  0.7818609E-02  0.8663842E-01
       -1   -1    0    0    0  501  0.00000000000E+00  0.00000000000E+00  0.57053478730E+03  0.57053478732E+03  0.50400001928E-02 0.  1.
        1   -1    0    0  501    0  0.00000000000E+00  0.00000000000E+00 -0.15521053267E+04  0.15521053267E+04  0.50400001928E-02 0. -1.
    10030    2    1    2    0    0  0.00000000000E+00  0.00000000000E+00 -0.98157053939E+03  0.21226401140E+04  0.18820521592E+04 0.  0.
        3    1    3    3  502    0 -0.18972037995E+03 -0.52294777937E+03 -0.13467961344E+04  0.14571643834E+04  0.10100000352E+00 0. -1.
       -3    1    3    3    0  502  0.18972037995E+03  0.52294777937E+03  0.36522559502E+03  0.66547573057E+03  0.10100000352E+00 0.  1.
</event>
<event>
 5   0  0.1814230E-05  0.2784701E+04  0.7818609E-02  0.8308034E-01
        2   -1    0    0  501    0  0.00000000000E+00  0.00000000000E+00  0.17636921277E+04  0.17636921277E+04  0.25500000920E-02 0.  1.
       -2   -1    0    0    0  501  0.00000000000E+00  0.00000000000E+00 -0.10991940021E+04  0.10991940021E+04  0.25500000920E-02 0. -1.
    10030    2    1    2    0    0  0.00000000000E+00  0.00000000000E+00  0.66449812568E+03  0.28628861298E+04  0.27847009235E+04 0.  0.
        5    1    3    3  502    0 -0.73693858702E+03 -0.50825038904E+03  0.14285957507E+04  0.16859136537E+04  0.46999998093E+01 0.  1.
       -5    1    3    3    0  502  0.73693858702E+03  0.50825038904E+03 -0.76409762498E+03  0.11769724761E+04  0.46999998093E+01 0. -1.
</event>
<event>
 5   0  0.1832502E-05  0.2812075E+04  0.7818609E-02  0.8299529E-01
        2   -1    0    0  501    0  0.00000000000E+00  0.00000000000E+00  0.15094029510E+04  0.15094029510E+04  0.25500000920E-02 0.  1.
       -2   -1    0    0    0  501  0.00000000000E+00  0.00000000000E+00 -0.13097510364E+04  0.13097510364E+04  0.25500000920E-02 0. -1.
    10030    2    1    2    0    0  0.00000000000E+00  0.00000000000E+00  0.19965191467E+03  0.28191539874E+04  0.28120754466E+04 0.  0.
        2    1    3    3  502    0 -0.14679848995E+03 -0.11879581818E+04  0.83934643701E+03  0.14619496844E+04  0.25500000920E-02 0.  1.
       -2    1    3    3    0  502  0.14679848995E+03  0.11879581818E+04 -0.63969452234E+03  0.13572043030E+04  0.25500000920E-02 0. -1.
</event>
<event>
 5   0  0.7388013E-06  0.2876799E+04  0.7818609E-02  0.8279814E-01
       -1   -1    0    0    0  501  0.00000000000E+00  0.00000000000E+00  0.10265922254E+04  0.10265922255E+04  0.50400001928E-02 0. -1.
        1   -1    0    0  501    0  0.00000000000E+00  0.00000000000E+00 -0.20153988330E+04  0.20153988330E+04  0.50400001928E-02 0.  1.
    10030    2    1    2    0    0  0.00000000000E+00  0.00000000000E+00 -0.98880660758E+03  0.30419910585E+04  0.28767987578E+04 0.  0.
        1    1    3    3  502    0 -0.12200816334E+04  0.40691502373E+03 -0.11754470661E+04  0.17423704640E+04  0.50400001928E-02 0.  1.
       -1    1    3    3    0  502  0.12200816334E+04 -0.40691502373E+03  0.18664045854E+03  0.12996205944E+04  0.50400001928E-02 0. -1.
</event>
<event>
 5   0  0.1814230E-05  0.2872328E+04  0.7818609E-02  0.8281159E-01
        2   -1    0    0  501    0  0.00000000000E+00  0.00000000000E+00  0.16406775036E+04  0.16406775036E+04  0.25500000920E-02 0. -1.
       -2   -1    0    0    0  501  0.00000000000E+00  0.00000000000E+00 -0.12571436566E+04  0.12571436566E+04  0.25500000920E-02 0.  1.
    10030    2    1    2    0    0  0.00000000000E+00  0.00000000000E+00  0.38353384702E+03  0.28978211601E+04  0.28723281958E+04 0.  0.
        5    1    3    3  502    0 -0.14318366984E+04 -0.11122927037E+03  0.19591985713E+03  0.14494602312E+04  0.46999998093E+01 0.  1.
       -5    1    3    3    0  502  0.14318366984E+04  0.11122927037E+03  0.18761398989E+03  0.14483609290E+04  0.46999998093E+01 0. -1.
</event>
<event>
 5   0  0.1814230E-05  0.2833564E+04  0.7818609E-02  0.8292923E-01
       -2   -1    0    0    0  501  0.00000000000E+00  0.00000000000E+00  0.17142015249E+04  0.17142015249E+04  0.25500000920E-02 0. -1.
        2   -1    0    0  501    0  0.00000000000E+00  0.00000000000E+00 -0.11709660501E+04  0.11709660501E+04  0.25500000920E-02 0.  1.
    10030    2    1    2    0    0  0.00000000000E+00  0.00000000000E+00  0.54323547471E+03  0.28851675750E+04  0.28335643904E+04 0.  0.
        5    1    3    3  502    0  0.72974726216E+03 -0.81211078471E+03 -0.64770633417E+03  0.12694883137E+04  0.46999998093E+01 0. -1.
       -5    1    3    3    0  502 -0.72974726216E+03  0.81211078471E+03  0.11909418089E+04  0.16156792613E+04  0.46999998093E+01 0.  1.
</event>
<event>
 5   0  0.1874272E-05  0.2753130E+04  0.7818609E-02  0.8317969E-01
       -2   -1    0    0    0  501  0.00000000000E+00  0.00000000000E+00  0.20138728422E+04  0.20138728422E+04  0.25500000920E-02 0. -1.
        2   -1    0    0  501    0  0.00000000000E+00  0.00000000000E+00 -0.94093900063E+03  0.94093900064E+03  0.25500000920E-02 0.  1.
    10030    2    1    2    0    0  0.00000000000E+00  0.00000000000E+00  0.10729338416E+04  0.29548118428E+04  0.27531302182E+04 0.  0.
        3    1    3    3  502    0  0.44384464230E+03 -0.30456574223E+03 -0.82329858083E+03  0.98365589574E+03  0.10100000352E+00 0.  1.
       -3    1    3    3    0  502 -0.44384464230E+03  0.30456574223E+03  0.18962324224E+04  0.19711559471E+04  0.10100000352E+00 0. -1.
</event>
<event>
 5   0  0.7681342E-06  0.2812979E+04  0.7818609E-02  0.8299250E-01
        1   -1    0    0  501    0  0.00000000000E+00  0.00000000000E+00  0.19475686851E+04  0.19475686851E+04  0.50400001928E-02 0.  1.
       -1   -1    0    0    0  501  0.00000000000E+00  0.00000000000E+00 -0.10157344667E+04  0.10157344667E+04  0.50400001928E-02 0. -1.
    10030    2    1    2    0    0  0.00000000000E+00  0.00000000000E+00  0.93183421844E+03  0.29633031518E+04  0.28129789474E+04 0.  0.
        2    1    3    3  502    0 -0.13329596775E+04 -0.42913266003E+03  0.32745372501E+03  0.14381106647E+04  0.25500000920E-02 0.  1.
       -2    1    3    3    0  502  0.13329596775E+04  0.42913266003E+03  0.60438049343E+03  0.15251924871E+04  0.25500000920E-02 0. -1.
</event>
<event>
 5   0  0.7613444E-06  0.2747442E+04  0.7818609E-02  0.8319774E-01
       -1   -1    0    0    0  501  0.00000000000E+00  0.00000000000E+00  0.10820183081E+04  0.10820183081E+04  0.50400001928E-02 0. -1.
        1   -1    0    0  501    0  0.00000000000E+00  0.00000000000E+00 -0.17440636542E+04  0.17440636542E+04  0.50400001928E-02 0.  1.
    10030    2    1    2    0    0  0.00000000000E+00  0.00000000000E+00 -0.66204534617E+03  0.28260819623E+04  0.27474415767E+04 0.  0.
        5    1    3    3  502    0  0.10498578481E+04  0.86465873410E+03 -0.52955089923E+03  0.14595487223E+04  0.46999998093E+01 0.  1.
       -5    1    3    3    0  502 -0.10498578481E+04 -0.86465873410E+03 -0.13249444694E+03  0.13665332401E+04  0.46999998093E+01 0. -1.
</event>
<event>
 5   0  0.1832502E-05  0.2823068E+04  0.7818609E-02  0.8296142E-01
        2   -1    0    0  501    0  0.00000000000E+00  0.00000000000E+00  0.17945213570E+04  0.17945213570E+04  0.25500000920E-02 0. -1.
       -2   -1    0    0    0  501  0.00000000000E+00  0.00000000000E+00 -0.11102837754E+04  0.11102837754E+04  0.25500000920E-02 0.  1.
    10030    2    1    2    0    0  0.00000000000E+00  0.00000000000E+00  0.68423758154E+03  0.29048051324E+04  0.28230677975E+04 0.  0.
        2    1    3    3  502    0  0.50730101718E+03  0.11964983415E+04 -0.22470783978E+03  0.13188844591E+04  0.25500000920E-02 0. -1.
       -2    1    3    3    0  502 -0.50730101718E+03 -0.11964983415E+04  0.90894542133E+03  0.15859206733E+04  0.25500000920E-02 0.  1.
</event>
<event>
 5   0  0.1904553E-05  0.2670773E+04  0.7818609E-02  0.8344551E-01
       -2   -1    0    0    0  501  0.00000000000E+00  0.00000000000E+00  0.79750043812E+03  0.79750043812E+03  0.25500000920E-02 0. -1.
        2   -1    0    0  501    0  0.00000000000E+00  0.00000000000E+00 -0.22360579766E+04  0.22360579766E+04  0.25500000920E-02 0.  1.
    10030    2    1    2    0    0  0.00000000000E+00  0.00000000000E+00 -0.14385575385E+04  0.30335584147E+04  0.26707730836E+04 0.  0.
        1    1    3    3  502    0 -0.10168242670E+04 -0.80698576949E+03 -0.36352543726E+03  0.13480758011E+04  0.50400001928E-02 0. -1.
       -1    1    3    3    0  502  0.10168242670E+04  0.80698576949E+03 -0.10750321012E+04  0.16854826136E+04  0.50400001928E-02 0.  1.
</event>
<event>
 5   0  0.7509685E-06  0.2802186E+04  0.7818609E-02  0.8302590E-01
       -1   -1    0    0    0  501  0.00000000000E+00  0.00000000000E+00  0.13669620135E+04  0.13669620135E+04  0.50400001928E-02 0. -1.
        1   -1    0    0  501    0  0.00000000000E+00  0.00000000000E+00 -0.14360766352E+04  0.14360766352E+04  0.50400001928E-02 0.  1.
    10030    2    1    2    0    0  0.00000000000E+00  0.00000000000E+00 -0.69114621686E+02  0.28030386486E+04  0.28021864383E+04 0.  0.
        4    1    3    3  502    0 -0.13486319239E+04  0.35883731269E+02 -0.41277928100E+03  0.14108451566E+04  0.12699999809E+01 0.  1.
       -4    1    3    3    0  502  0.13486319239E+04 -0.35883731269E+02  0.34366465931E+03  0.13921934920E+04  0.12699999809E+01 0. -1.
</event>
<event>
 5   0  0.7555871E-06  0.2889288E+04  0.7818609E-02  0.8276072E-01
        1   -1    0    0  501    0  0.00000000000E+00  0.00000000000E+00  0.16654179751E+04  0.16654179751E+04  0.50400001928E-02 0.  1.
       -1   -1    0    0    0  501  0.00000000000E+00  0.00000000000E+00 -0.12531364416E+04  0.12531364416E+04  0.50400001928E-02 0. -1.
    10030    2    1    2    0    0  0.00000000000E+00  0.00000000000E+00  0.41228153348E+03  0.29185544167E+04  0.28892877704E+04 0.  0.
        3    1    3    3  502    0  0.33680662577E+03 -0.14006835884E+04  0.31513520879E+03  0.14746740073E+04  0.10100000352E+00 0. -1.
       -3    1    3    3    0  502 -0.33680662577E+03  0.14006835884E+04  0.97146324692E+02  0.14438804093E+04  0.10100000352E+00 0.  1.
</event>
<event>
 5   0  0.1832502E-05  0.2782217E+04  0.7818609E-02  0.8308811E-01
       -2   -1    0    0    0  501  0.00000000000E+00  0.00000000000E+00  0.13829417809E+04  0.13829417809E+04  0.25500000920E-02 0. -1.
        2   -1    0    0  501    0  0.00000000000E+00  0.00000000000E+00 -0.13993232120E+04  0.13993232120E+04  0.25500000920E-02 0.  1.
    10030    2    1    2    0    0  0.00000000000E+00  0.00000000000E+00 -0.16381431099E+02  0.27822649929E+04  0.27822167672E+04 0.  0.
        2    1    3    3  502    0 -0.19215084085E+03  0.10758103942E+04  0.85257537918E+03  0.13860644744E+04  0.25500000920E-02 0. -1.
       -2    1    3    3    0  502  0.19215084085E+03 -0.10758103942E+04 -0.86895681028E+03  0.13962005186E+04  0.25500000920E-02 0.  1.
</event>
<event>
 5   0  0.7555871E-06  0.2693511E+04  0.7818609E-02  0.8337113E-01
        1   -1    0    0  501    0  0.00000000000E+00  0.00000000000E+00  0.20088152815E+04  0.20088152815E+04  0.50400001928E-02 0. -1.
       -1   -1    0    0    0  501  0.00000000000E+00  0.00000000000E+00 -0.90289585568E+03  0.90289585569E+03  0.50400001928E-02 0.  1.
    10030    2    1    2    0    0  0.00000000000E+00  0.00000000000E+00  0.11059194258E+04  0.29117111372E+04  0.26935114572E+04 0.  0.
        3    1    3    3  502    0  0.76459761117E+03  0.64220909625E+03  0.15298889752E+04  0.18269105936E+04  0.10100000352E+00 0. -1.
       -3    1    3    3    0  502 -0.76459761117E+03 -0.64220909625E+03 -0.42396954942E+03  0.10848005436E+04  0.10100000352E+00 0.  1.
</event>
<event>
 5   0  0.7388013E-06  0.2827718E+04  0.7818609E-02  0.8294714E-01
       -1   -1    0    0    0  501  0.00000000000E+00  0.00000000000E+00  0.13596342234E+04  0.13596342234E+04  0.50400001928E-02 0. -1.
        1   -1    0    0  501    0  0.00000000000E+00  0.00000000000E+00 -0.14702460220E+04  0.14702460220E+04  0.50400001928E-02 0.  1.
    10030    2    1    2    0    0  0.00000000000E+00  0.00000000000E+00 -0.11061179858E+03  0.28298802454E+04  0.28277176722E+04 0.  0.
        1    1    3    3  502    0  0.13933229079E+04  0.18358874837E+03 -0.21016031732E+03  0.14209929321E+04  0.50400001928E-02 0.  1.
       -1    1    3    3    0  502 -0.13933229079E+04 -0.18358874837E+03  0.99548518732E+02  0.14088873133E+04  0.50400001928E-02 0. -1.
</event>
<event>
 5   0  0.7681342E-06  0.2802681E+04  0.7818609E-02  0.8302437E-01
        1   -1    0    0  501    0  0.00000000000E+00  0.00000000000E+00  0.11613857327E+04  0.11613857327E+04  0.50400001928E-02 0.  1.
       -1   -1    0    0    0  501  0.00000000000E+00  0.00000000000E+00 -0.16908719203E+04  0.16908719203E+04  0.50400001928E-02 0. -1.
    10030    2    1    2    0    0  0.00000000000E+00  0.00000000000E+00 -0.52948618765E+03  0.28522576530E+04  0.28026805198E+04 0.  0.
        2    1    3    3  502    0  0.10421698947E+04 -0.74917439248E+03 -0.83716423428E+03  0.15323916976E+04  0.25500000920E-02 0. -1.
       -2    1    3    3    0  502 -0.10421698947E+04  0.74917439248E+03  0.30767804663E+03  0.13198659554E+04  0.25500000920E-02 0.  1.
</event>
<event>
 5   0  0.1923559E-05  0.2811388E+04  0.7818609E-02  0.8299742E-01
        2   -1    0    0  501    0  0.00000000000E+00  0.00000000000E+00  0.75341713137E+03  0.75341713137E+03  0.25500000920E-02 0.  1.
       -2   -1    0    0    0  501  0.00000000000E+00  0.00000000000E+00 -0.26226839665E+04  0.26226839665E+04  0.25500000920E-02 0. -1.
    10030    2    1    2    0    0  0.00000000000E+00  0.00000000000E+00 -0.18692668351E+04  0.33761010979E+04  0.28113875795E+04 0.  0.
        4    1    3    3  502    0 -0.85101713265E+03  0.95533950443E+03 -0.23537258136E+03  0.13008864646E+04  0.12699999809E+01 0.  1.
       -4    1    3    3    0  502  0.85101713265E+03 -0.95533950443E+03 -0.16338942537E+04  0.20752146333E+04  0.12699999809E+01 0. -1.
</event>
<event>
 5   0  0.1814230E-05  0.2802082E+04  0.7818609E-02  0.8302622E-01
       -2   -1    0    0    0  501  0.00000000000E+00  0.00000000000E+00  0.10309620786E+04  0.10309620786E+04  0.25500000920E-02 0. -1.
        2   -1    0    0  501    0  0.00000000000E+00  0.00000000000E+00 -0.19039654215E+04  0.19039654215E+04  0.25500000920E-02 0.  1.
    10030    2    1    2    0    0  0.00000000000E+00  0.00000000000E+00 -0.87300334287E+03  0.29349275001E+04  0.28020821890E+04 0.  0.
        5    1    3    3  502    0  0.77074777849E+03  0.59352177197E+03 -0.14925552922E+04  0.17815901948E+04  0.46999998093E+01 0.  1.
       -5    1    3    3    0  502 -0.77074777849E+03 -0.59352177197E+03  0.61955194933E+03  0.11533373053E+04  0.46999998093E+01 0. -1.
</event>
<event>
 5   0  0.1923559E-05  0.1819806E+04  0.7818609E-02  0.8695837E-01
        2   -1    0    0  501    0  0.00000000000E+00  0.00000000000E+00  0.16311854981E+04  0.16311854981E+04  0.25500000920E-02 0.  1.
       -2   -1    0    0    0  501  0.00000000000E+00  0.00000000000E+00 -0.50755936333E+03  0.50755936334E+03  0.25500000920E-02 0. -1.
    10030    2    1    2    0    0  0.00000000000E+00  0.00000000000E+00  0.11236261347E+04  0.21387448614E+04  0.18198060038E+04 0.  0.
        4    1    3    3  502    0 -0.84243792605E+03  0.32045689036E+03  0.41536427206E+03  0.99243305528E+03  0.12699999809E+01 0.  1.
       -4    1    3    3    0  502  0.84243792605E+03 -0.32045689036E+03  0.70826186268E+03  0.11463118061E+04  0.12699999809E+01 0. -1.
</event>
<event>
 5   0  0.1904553E-05  0.2609207E+04  0.7818609E-02  0.8365081E-01
        2   -1    0    0  501    0  0.00000000000E+00  0.00000000000E+00  0.25903636540E+04  0.25903636540E+04  0.25500000920E-02 0. -1.
       -2   -1    0    0    0  501  0.00000000000E+00  0.00000000000E+00 -0.65704686718E+03  0.65704686718E+03  0.25500000920E-02 0.  1.
    10030    2    1    2    0    0  0.00000000000E+00  0.00000000000E+00  0.19333167868E+04  0.32474105212E+04  0.26092070241E+04 0.  0.
        1    1    3    3  502    0  0.40227707576E+03  0.92276479566E+03 -0.66183388709E+02  0.10088121504E+04  0.50400001928E-02 0.  1.
       -1    1    3    3    0  502 -0.40227707576E+03 -0.92276479566E+03  0.19995001755E+04  0.22385983708E+04  0.50400001928E-02 0. -1.
</event>
<event>
 5   0  0.1814230E-05  0.2726734E+04  0.7818609E-02  0.8326382E-01
        2   -1    0    0  501    0  0.00000000000E+00  0.00000000000E+00  0.27430892157E+04  0.27430892157E+04  0.25500000920E-02 0.  1.
       -2   -1    0    0    0  501  0.00000000000E+00  0.00000000000E+00 -0.67761910245E+03  0.67761910246E+03  0.25500000920E-02 0. -1.
    10030    2    1    2    0    0  0.00000000000E+00  0.00000000000E+00  0.20654701133E+04  0.34207083182E+04  0.27267340555E+04 0.  0.
        5    1    3    3  502    0  0.93376683447E+03 -0.83435571107E+03  0.17090968247E+04  0.21187505752E+04  0.46999998093E+01 0.  1.
       -5    1    3    3    0  502 -0.93376683447E+03  0.83435571107E+03  0.35637328861E+03  0.13019577430E+04  0.46999998093E+01 0. -1.
</event>
<event>
 5   0  0.1874272E-05  0.2848780E+04  0.7818609E-02  0.8288282E-01
       -2   -1    0    0    0  501  0.00000000000E+00  0.00000000000E+00  0.87938664488E+03  0.87938664489E+03  0.25500000920E-02 0.  1.
        2   -1    0    0  501    0  0.00000000000E+00  0.00000000000E+00 -0.23071620262E+04  0.23071620262E+04  0.25500000920E-02 0. -1.
    10030    2    1    2    0    0  0.00000000000E+00  0.00000000000E+00 -0.14277753814E+04  0.31865486711E+04  0.28487804222E+04 0.  0.
        3    1    3    3  502    0  0.97700237464E+03  0.26000450898E+03 -0.18362232376E+04  0.20961516580E+04  0.10100000352E+00 0. -1.
       -3    1    3    3    0  502 -0.97700237464E+03 -0.26000450898E+03  0.40844785627E+03  0.10903970131E+04  0.10100000352E+00 0.  1.
</event>
<event>
 5   0  0.1923559E-05  0.2771799E+04  0.7818609E-02  0.8312077E-01
        2   -1    0    0  501    0  0.00000000000E+00  0.00000000000E+00  0.17731150257E+04  0.17731150257E+04  0.25500000920E-02 0.  1.
       -2   -1    0    0    0  501  0.00000000000E+00  0.00000000000E+00 -0.10832447202E+04  0.10832447202E+04  0.25500000920E-02 0. -1.
    10030    2    1    2    0    0  0.00000000000E+00  0.00000000000E+00  0.68987030542E+03  0.28563597459E+04  0.27717990475E+04 0.  0.
        4    1    3    3  502    0 -0.14770233539E+03  0.12608035120E+03 -0.10691538437E+04  0.10866479601E+04  0.12699999809E+01 0. -1.
       -4    1    3    3    0  502  0.14770233539E+03 -0.12608035120E+03  0.17590241491E+04  0.17697117858E+04  0.12699999809E+01 0.  1.
</event>
<event>
 5   0  0.7555871E-06  0.2870613E+04  0.7818609E-02  0.8281675E-01
       -1   -1    0    0    0  501  0.00000000000E+00  0.00000000000E+00  0.83763296387E+03  0.83763296388E+03  0.50400001928E-02 0.  1.
        1   -1    0    0  501    0  0.00000000000E+00  0.00000000000E+00 -0.24594356286E+04  0.24594356286E+04  0.50400001928E-02 0. -1.
    10030    2    1    2    0    0  0.00000000000E+00  0.00000000000E+00 -0.16218026648E+04  0.32970685925E+04  0.28706127256E+04 0.  0.
        3    1    3    3  502    0  0.13027511269E+04  0.42864749262E+03 -0.12971166627E+04  0.18876998751E+04  0.10100000352E+00 0.  1.
       -3    1    3    3    0  502 -0.13027511269E+04 -0.42864749262E+03 -0.32468600210E+03  0.14093687174E+04  0.10100000352E+00 0. -1.
</event>
<event>
 5   0  0.7681342E-06  0.1919324E+04  0.7818609E-02  0.8645297E-01
       -1   -1    0    0    0  501  0.00000000000E+00  0.00000000000E+00  0.26684796688E+04  0.26684796688E+04  0.50400001928E-02 0.  1.
        1   -1    0    0  501    0  0.00000000000E+00  0.00000000000E+00 -0.34512208758E+03  0.34512208762E+03  0.50400001928E-02 0. -1.
    10030    2    1    2    0    0  0.00000000000E+00  0.00000000000E+00  0.23233575812E+04  0.30136017564E+04  0.19193241248E+04 0.  0.
        2    1    3    3  502    0  0.68152807818E+03  0.61197222448E+03  0.71216761055E+03  0.11602470558E+04  0.25500000920E-02 0. -1.
       -2    1    3    3    0  502 -0.68152807818E+03 -0.61197222448E+03  0.16111899707E+04  0.18533547007E+04  0.25500000920E-02 0.  1.
</event>
<event>
 5   0  0.7613444E-06  0.2828801E+04  0.7818609E-02  0.8294382E-01
       -1   -1    0    0    0  501  0.00000000000E+00  0.00000000000E+00  0.99531252156E+03  0.99531252158E+03  0.50400001928E-02 0.  1.
        1   -1    0    0  501    0  0.00000000000E+00  0.00000000000E+00 -0.20099510336E+04  0.20099510336E+04  0.50400001928E-02 0. -1.
    10030    2    1    2    0    0  0.00000000000E+00  0.00000000000E+00 -0.10146385120E+04  0.30052635552E+04  0.28288014646E+04 0.  0.
        5    1    3    3  502    0  0.13316228172E+03  0.39811475685E+03 -0.19422330806E+04  0.19870880661E+04  0.46999998093E+01 0. -1.
       -5    1    3    3    0  502 -0.13316228172E+03 -0.39811475685E+03  0.92759456860E+03  0.10181754891E+04  0.46999998093E+01 0.  1.
</event>
<event>
 5   0  0.1923559E-05  0.2785897E+04  0.7818609E-02  0.8307660E-01
       -2   -1    0    0    0  501  0.00000000000E+00  0.00000000000E+00  0.14721981196E+04  0.14721981196E+04  0.25500000920E-02 0.  1.
        2   -1    0    0  501    0  0.00000000000E+00  0.00000000000E+00 -0.13179653245E+04  0.13179653245E+04  0.25500000920E-02 0. -1.
    10030    2    1    2    0    0  0.00000000000E+00  0.00000000000E+00  0.15423279506E+03  0.27901634441E+04  0.27858973940E+04 0.  0.
        4    1    3    3  502    0  0.30669705628E+03 -0.67264535464E+03 -0.11052801078E+04  0.13297219962E+04  0.12699999809E+01 0. -1.
       -4    1    3    3    0  502 -0.30669705628E+03  0.67264535464E+03  0.12595129029E+04  0.14604414479E+04  0.12699999809E+01 0.  1.
</event>
<event>
 5   0  0.7388013E-06  0.2763496E+04  0.7818609E-02  0.8314692E-01
       -1   -1    0    0    0  501  0.00000000000E+00  0.00000000000E+00  0.11794676940E+04  0.11794676940E+04  0.50400001928E-02 0.  1.
        1   -1    0    0  501    0  0.00000000000E+00  0.00000000000E+00 -0.16187192975E+04  0.16187192975E+04  0.50400001928E-02 0. -1.
    10030    2    1    2    0    0  0.00000000000E+00  0.00000000000E+00 -0.43925160351E+03  0.27981869916E+04  0.27634956972E+04 0.  0.
        1    1    3    3  502    0 -0.76870836557E+03 -0.40574892495E+03 -0.13072054439E+04  0.15698187201E+04  0.50400001928E-02 0. -1.
       -1    1    3    3    0  502  0.76870836557E+03  0.40574892495E+03  0.86795384034E+03  0.12283682715E+04  0.50400001928E-02 0.  1.
</event>
<event>
 5   0  0.7613444E-06  0.2773763E+04  0.7818609E-02  0.8311461E-01
        1   -1    0    0  501    0  0.00000000000E+00  0.00000000000E+00  0.20391248851E+04  0.20391248851E+04  0.50400001928E-02 0. -1.
       -1   -1    0    0    0  501  0.00000000000E+00  0.00000000000E+00 -0.94326734179E+03  0.94326734180E+03  0.50400001928E-02 0.  1.
    10030    2    1    2    0    0  0.00000000000E+00  0.00000000000E+00  0.10958575433E+04  0.29823922269E+04  0.27737627223E+04 0.  0.
        5    1    3    3  502    0  0.37505230420E+03  0.90805493931E+01 -0.88766335390E+03  0.96369860803E+03  0.46999998093E+01 0.  1.
       -5    1    3    3    0  502 -0.37505230420E+03 -0.90805493931E+01  0.19835208972E+04  0.20186936188E+04  0.46999998093E+01 0. -1.
</event>
<event>
 5   0  0.7388013E-06  0.1877322E+04  0.7818609E-02  0.8666228E-01
       -1   -1    0    0    0  501  0.00000000000E+00  0.00000000000E+00  0.53349945065E+03  0.53349945067E+03  0.50400001928E-02 0. -1.
        1   -1    0    0  501    0  0.00000000000E+00  0.00000000000E+00 -0.16515189946E+04  0.16515189946E+04  0.50400001928E-02 0.  1.
    10030    2    1    2    0    0  0.00000000000E+00  0.00000000000E+00 -0.11180195440E+04  0.21850184453E+04  0.18773220037E+04 0.  0.
        1    1    3    3  502    0 -0.34083870099E+03 -0.87451634889E+03 -0.54550591259E+03  0.10855996340E+04  0.50400001928E-02 0. -1.
       -1    1    3    3    0  502  0.34083870099E+03  0.87451634889E+03 -0.57251363139E+03  0.10994188113E+04  0.50400001928E-02 0.  1.
</event>
<event>
 5   0  0.7681342E-06  0.2787088E+04  0.7818609E-02  0.8307288E-01
        1   -1    0    0  501    0  0.00000000000E+00  0.00000000000E+00  0.23049453231E+04  0.23049453231E+04  0.50400001928E-02 0.  1.
       -1   -1    0    0    0  501  0.00000000000E+00  0.00000000000E+00 -0.84252127057E+03  0.84252127058E+03  0.50400001928E-02 0. -1.
    10030    2    1    2    0    0  0.00000000000E+00  0.00000000000E+00  0.14624240525E+04  0.31474665937E+04  0.27870884178E+04 0.  0.
        2    1    3    3  502    0  0.48116585701E+03 -0.11520620833E+04  0.14302840252E+04  0.18985468176E+04  0.25500000920E-02 0.  1.
       -2    1    3    3    0  502 -0.48116585701E+03  0.11520620833E+04  0.32140027318E+02  0.12489197761E+04  0.25500000920E-02 0. -1.
</event>
<event>
 5   0  0.1814230E-05  0.2876448E+04  0.7818609E-02  0.8279919E-01
       -2   -1    0    0    0  501  0.00000000000E+00  0.00000000000E+00  0.15017290852E+04  0.15017290852E+04  0.25500000920E-02 0.  1.
        2   -1    0    0  501    0  0.00000000000E+00  0.00000000000E+00 -0.13774048952E+04  0.13774048952E+04  0.25500000920E-02 0. -1.
    10030    2    1    2    0    0  0.00000000000E+00  0.00000000000E+00  0.12432418992E+03  0.28791339804E+04  0.28764485000E+04 0.  0.
        5    1    3    3  502    0 -0.95438965894E+03  0.45808132401E+03  0.10366051673E+04  0.14816445199E+04  0.46999998093E+01 0. -1.
       -5    1    3    3    0  502  0.95438965894E+03 -0.45808132401E+03 -0.91228097739E+03  0.13974894605E+04  0.46999998093E+01 0.  1.
</event>
<event>
 5   0  0.1923559E-05  0.2727705E+04  0.7818609E-02  0.8326071E-01
       -2   -1    0    0    0  501  0.00000000000E+00  0.00000000000E+00  0.63485445588E+03  0.63485445588E+03  0.25500000920E-02 0.  1.
        2   -1    0    0  501    0  0.00000000000E+00  0.00000000000E+00 -0.29299523990E+04  0.29299523990E+04  0.25500000920E-02 0. -1.
    10030    2    1    2    0    0  0.00000000000E+00  0.00000000000E+00 -0.22950979431E+04  0.35648068549E+04  0.27277047758E+04 0.  0.
        4    1    3    3  502    0 -0.79188821818E+03 -0.21375860072E+03 -0.25715853205E+04  0.26992281050E+04  0.12699999809E+01 0. -1.
       -4    1    3    3    0  502  0.79188821818E+03  0.21375860072E+03  0.27648737737E+03  0.86557874986E+03  0.12699999809E+01 0.  1.
</event>
<event>
 5   0  0.7555871E-06  0.2778083E+04  0.7818609E-02  0.8310105E-01
       -1   -1    0    0    0  501  0.00000000000E+00  0.00000000000E+00  0.14965854877E+04  0.14965854877E+04  0.50400001928E-02 0.  1.
        1   -1    0    0  501    0  0.00000000000E+00  0.00000000000E+00 -0.12892256021E+04  0.12892256021E+04  0.50400001928E-02 0. -1.
    10030    2    1    2    0    0  0.00000000000E+00  0.00000000000E+00  0.20735988564E+03  0.27858110898E+04  0.27780830272E+04 0.  0.
        3    1    3    3  502    0  0.13794699530E+04  0.16026723173E+03  0.75080800638E+02  0.13907767879E+04  0.10100000352E+00 0. -1.
       -3    1    3    3    0  502 -0.13794699530E+04 -0.16026723173E+03  0.13227908500E+03  0.13950343019E+04  0.10100000352E+00 0.  1.
</event>
<event>
 5   0  0.7681342E-06  0.2739455E+04  0.7818609E-02  0.8322316E-01
       -1   -1    0    0    0  501  0.00000000000E+00  0.00000000000E+00  0.86289233593E+03  0.86289233595E+03  0.50400001928E-02 0.  1.
        1   -1    0    0  501    0  0.00000000000E+00  0.00000000000E+00 -0.21742615090E+04  0.21742615090E+04  0.50400001928E-02 0. -1.
    10030    2    1    2    0    0  0.00000000000E+00  0.00000000000E+00 -0.13113691731E+04  0.30371538450E+04  0.27394551228E+04 0.  0.
        2    1    3    3  502    0 -0.13605943093E+04  0.36935098313E+02 -0.82590262227E+03  0.15920729310E+04  0.25500000920E-02 0.  1.
       -2    1    3    3    0  502  0.13605943093E+04 -0.36935098313E+02 -0.48546655081E+03  0.14450809140E+04  0.25500000920E-02 0. -1.
</event>
<event>
 5   0  0.1923559E-05  0.2774338E+04  0.7818609E-02  0.8311280E-01
        2   -1    0    0  501    0  0.00000000000E+00  0.00000000000E+00  0.11824330439E+04  0.11824330439E+04  0.25500000920E-02 0. -1.
       -2   -1    0    0    0  501  0.00000000000E+00  0.00000000000E+00 -0.16273551604E+04  0.16273551604E+04  0.25500000920E-02 0.  1.
    10030    2    1    2    0    0  0.00000000000E+00  0.00000000000E+00 -0.44492211653E+03  0.28097882043E+04  0.27743384911E+04 0.  0.
        4    1    3    3  502    0  0.11875751491E+04 -0.48535006579E+03 -0.75677927926E+03  0.14895019005E+04  0.12699999809E+01 0.  1.
       -4    1    3    3    0  502 -0.11875751491E+04  0.48535006579E+03  0.31185716273E+03  0.13202863038E+04  0.12699999809E+01 0. -1.
</event>
<event>
 5   0  0.7388013E-06  0.2832438E+04  0.7818609E-02  0.8293268E-01
       -1   -1    0    0    0  501  0.00000000000E+00  0.00000000000E+00  0.83800205259E+03  0.83800205261E+03  0.50400001928E-02 0. -1.
        1   -1    0    0  501    0  0.00000000000E+00  0.00000000000E+00 -0.23934031566E+04  0.23934031566E+04  0.50400001928E-02 0.  1.
    10030    2    1    2    0    0  0.00000000000E+00  0.00000000000E+00 -0.15554011040E+04  0.32314052092E+04  0.28324383545E+04 0.  0.
        1    1    3    3  502    0  0.72820206876E+03  0.10258708466E+04 -0.35716233829E+02  0.12585566718E+04  0.50400001928E-02 0. -1.
       -1    1    3    3    0  502 -0.72820206876E+03 -0.10258708466E+04 -0.15196848702E+04  0.19728485374E+04  0.50400001928E-02 0.  1.
</event>
<event>
 5   0  0.1904553E-05  0.2797127E+04  0.7818609E-02  0.8304161E-01
        2   -1    0    0  501    0  0.00000000000E+00  0.00000000000E+00  0.17002035075E+04  0.17002035075E+04  0.25500000920E-02 0. -1.
       -2   -1    0    0    0  501  0.00000000000E+00  0.00000000000E+00 -0.11504384416E+04  0.11504384416E+04  0.25500000920E-02 0.  1.
    10030    2    1    2    0    0  0.00000000000E+00  0.00000000000E+00  0.54976506587E+03  0.28506419491E+04  0.27971267212E+04 0.  0.
        1    1    3    3  502    0  0.84753413213E+03 -0.46641879412E+01  0.14086613335E+04  0.16439776800E+04  0.50400001928E-02 0. -1.
       -1    1    3    3    0  502 -0.84753413213E+03  0.46641879412E+01 -0.85889626764E+03  0.12066642691E+04  0.50400001928E-02 0.  1.
</event>
<event>
 5   0  0.7388013E-06  0.2752278E+04  0.7818609E-02  0.8318239E-01
       -1   -1    0    0    0  501  0.00000000000E+00  0.00000000000E+00  0.11301055386E+04  0.11301055386E+04  0.50400001928E-02 0. -1.
        1   -1    0    0  501    0  0.00000000000E+00  0.00000000000E+00 -0.16757355955E+04  0.16757355955E+04  0.50400001928E-02 0.  1.
    10030    2    1    2    0    0  0.00000000000E+00  0.00000000000E+00 -0.54563005690E+03  0.28058411342E+04  0.27522776588E+04 0.  0.
        1    1    3    3  502    0  0.78148143935E+03 -0.11214351012E+04 -0.43538047024E+03  0.14345334015E+04  0.50400001928E-02 0. -1.
       -1    1    3    3    0  502 -0.78148143935E+03  0.11214351012E+04 -0.11024958666E+03  0.13713077326E+04  0.50400001928E-02 0.  1.
</event>
<event>
 5   0  0.7388013E-06  0.2747517E+04  0.7818609E-02  0.8319750E-01
       -1   -1    0    0    0  501  0.00000000000E+00  0.00000000000E+00  0.15527616722E+04  0.15527616722E+04  0.50400001928E-02 0. -1.
        1   -1    0    0  501    0  0.00000000000E+00  0.00000000000E+00 -0.12153907270E+04  0.12153907270E+04  0.50400001928E-02 0.  1.
    10030    2    1    2    0    0  0.00000000000E+00  0.00000000000E+00  0.33737094512E+03  0.27681523992E+04  0.27475167971E+04 0.  0.
        1    1    3    3  502    0 -0.94144520984E+03 -0.40335172324E+03  0.10910945811E+04  0.14964955999E+04  0.50400001928E-02 0. -1.
       -1    1    3    3    0  502  0.94144520984E+03  0.40335172324E+03 -0.75372363593E+03  0.12716567993E+04  0.50400001928E-02 0.  1.
</event>
<event>
 5   0  0.1874272E-05  0.2840116E+04  0.7818609E-02  0.8290921E-01
       -2   -1    0    0    0  501  0.00000000000E+00  0.00000000000E+00  0.10752506016E+04  0.10752506016E+04  0.25500000920E-02 0. -1.
        2   -1    0    0  501    0  0.00000000000E+00  0.00000000000E+00 -0.18754370553E+04  0.18754370553E+04  0.25500000920E-02 0.  1.
    10030    2    1    2    0    0  0.00000000000E+00  0.00000000000E+00 -0.80018645363E+03  0.29506876569E+04  0.28401160694E+04 0.  0.
        3    1    3    3  502    0 -0.80856086588E+02 -0.12950764302E+04 -0.99944461312E+03  0.16378797916E+04  0.10100000352E+00 0.  1.
       -3    1    3    3    0  502  0.80856086588E+02  0.12950764302E+04  0.19925815949E+03  0.13128078653E+04  0.10100000352E+00 0. -1.
</event>
<event>
 5   0  0.6288000E-06  0.2768057E+04  0.7818609E-02  0.8313255E-01
        3   -1    0    0  501    0  0.00000000000E+00  0.00000000000E+00  0.13464770697E+04  0.13464770735E+04  0.10100000352E+00 0.  1.
       -3   -1    0    0    0  501  0.00000000000E+00  0.00000000000E+00 -0.14226270933E+04  0.14226270969E+04  0.10100000352E+00 0. -1.
    10030    2    1    2    0    0  0.00000000000E+00  0.00000000000E+00 -0.76150023571E+02  0.27691041704E+04  0.27680569142E+04 0.  0.
        4    1    3    3  502    0  0.60747735929E+03 -0.83987914425E+03  0.87939106466E+03  0.13593218811E+04  0.12699999809E+01 0.  1.
       -4    1    3    3    0  502 -0.60747735929E+03  0.83987914425E+03 -0.95554108823E+03  0.14097822893E+04  0.12699999809E+01 0. -1.
</event>
<event>
 5   0  0.1874272E-05  0.2844594E+04  0.7818609E-02  0.8289556E-01
       -2   -1    0    0    0  501  0.00000000000E+00  0.00000000000E+00  0.14901591459E+04  0.14901591459E+04  0.25500000920E-02 0.  1.
        2   -1    0    0  501    0  0.00000000000E+00  0.00000000000E+00 -0.13575250011E+04  0.13575250011E+04  0.25500000920E-02 0. -1.
    10030    2    1    2    0    0  0.00000000000E+00  0.00000000000E+00  0.13263414474E+03  0.28476841470E+04  0.28445936766E+04 0.  0.
        3    1    3    3  502    0  0.11093641129E+04  0.24914644263E+03 -0.78910856443E+03  0.13839996465E+04  0.10100000352E+00 0. -1.
       -3    1    3    3    0  502 -0.11093641129E+04 -0.24914644263E+03  0.92174270917E+03  0.14636845005E+04  0.10100000352E+00 0.  1.
</event>
<event>
 5   0  0.1923559E-05  0.2770653E+04  0.7818609E-02  0.8312438E-01
       -2   -1    0    0    0  501  0.00000000000E+00  0.00000000000E+00  0.13625246849E+04  0.13625246849E+04  0.25500000920E-02 0. -1.
        2   -1    0    0  501    0  0.00000000000E+00  0.00000000000E+00 -0.14085104054E+04  0.14085104054E+04  0.25500000920E-02 0.  1.
    10030    2    1    2    0    0  0.00000000000E+00  0.00000000000E+00 -0.45985720457E+02  0.27710350903E+04  0.27706534943E+04 0.  0.
        4    1    3    3  502    0 -0.49402181746E+03 -0.83394403438E+03  0.96689512943E+03  0.13690902135E+04  0.12699999809E+01 0. -1.
       -4    1    3    3    0  502  0.49402181746E+03  0.83394403438E+03 -0.10128808499E+04  0.14019448768E+04  0.12699999809E+01 0.  1.
</event>
<event>
 5   0  0.1874272E-05  0.2790168E+04  0.7818609E-02  0.8306327E-01
       -2   -1    0    0    0  501  0.00000000000E+00  0.00000000000E+00  0.15599248174E+04  0.15599248174E+04  0.25500000920E-02 0. -1.
        2   -1    0    0  501    0  0.00000000000E+00  0.00000000000E+00 -0.12476618470E+04  0.12476618470E+04  0.25500000920E-02 0.  1.
    10030    2    1    2    0    0  0.00000000000E+00  0.00000000000E+00  0.31226297035E+03  0.28075866645E+04  0.27901675068E+04 0.  0.
        3    1    3    3  502    0  0.11827395772E+04 -0.72750212699E+03  0.20656574757E+02  0.13887256592E+04  0.10100000352E+00 0.  1.
       -3    1    3    3    0  502 -0.11827395772E+04  0.72750212699E+03  0.29160639560E+03  0.14188610053E+04  0.10100000352E+00 0. -1.
</event>
<event>
 5   0  0.1904553E-05  0.2739546E+04  0.7818609E-02  0.8322287E-01
        2   -1    0    0  501    0  0.00000000000E+00  0.00000000000E+00  0.25428225757E+04  0.25428225757E+04  0.25500000920E-02 0.  1.
       -2   -1    0    0    0  501  0.00000000000E+00  0.00000000000E+00 -0.73787207056E+03  0.73787207056E+03  0.25500000920E-02 0. -1.
    10030    2    1    2    0    0  0.00000000000E+00  0.00000000000E+00  0.18049505051E+04  0.32806946462E+04  0.27395457718E+04 0.  0.
        1    1    3    3  502    0 -0.11871290914E+04  0.49875436650E+03  0.14619245784E+04  0.19481413887E+04  0.50400001928E-02 0. -1.
       -1    1    3    3    0  502  0.11871290914E+04 -0.49875436650E+03  0.34302592675E+03  0.13325532575E+04  0.50400001928E-02 0.  1.
</event>
<event>
 5   0  0.7681342E-06  0.2810608E+04  0.7818609E-02  0.8299983E-01
        1   -1    0    0  501    0  0.00000000000E+00  0.00000000000E+00  0.17656413472E+04  0.17656413472E+04  0.50400001928E-02 0.  1.
       -1   -1    0    0    0  501  0.00000000000E+00  0.00000000000E+00 -0.11185050510E+04  0.11185050510E+04  0.50400001928E-02 0. -1.
    10030    2    1    2    0    0  0.00000000000E+00  0.00000000000E+00  0.64713629618E+03  0.28841463981E+04  0.28106075963E+04 0.  0.
        2    1    3    3  502    0  0.83565378450E+03  0.53549510319E+03  0.13444893871E+04  0.16711445076E+04  0.25500000920E-02 0.  1.
       -2    1    3    3    0  502 -0.83565378450E+03 -0.53549510319E+03 -0.69735309095E+03  0.12130018906E+04  0.25500000920E-02 0. -1.
</event>
<event>
 5   0  0.7509685E-06  0.2080132E+04  0.7818609E-02  0.8570046E-01
        1   -1    0    0  501    0  0.00000000000E+00  0.00000000000E+00  0.19535577931E+04  0.19535577931E+04  0.50400001928E-02 0. -1.
       -1   -1    0    0    0  501  0.00000000000E+00  0.00000000000E+00 -0.55372657721E+03  0.55372657723E+03  0.50400001928E-02 0.  1.
    10030    2    1    2    0    0  0.00000000000E+00  0.00000000000E+00  0.13998312159E+04  0.25072843703E+04  0.20801316018E+04 0.  0.
        4    1    3    3  502    0  0.19520630329E+03 -0.91093991639E+03  0.14255644970E+03  0.94246537675E+03  0.12699999809E+01 0.  1.
       -4    1    3    3    0  502 -0.19520630329E+03  0.91093991639E+03  0.12572747662E+04  0.15648189936E+04  0.12699999809E+01 0. -1.
</event>
<event>
 5   0  0.1814230E-05  0.2871597E+04  0.7818609E-02  0.8281379E-01
       -2   -1    0    0    0  501  0.00000000000E+00  0.00000000000E+00  0.13999567778E+04  0.13999567778E+04  0.25500000920E-02 0.  1.
        2   -1    0    0  501    0  0.00000000000E+00  0.00000000000E+00 -0.14725581858E+04  0.14725581858E+04  0.25500000920E-02 0. -1.
    10030    2    1    2    0    0  0.00000000000E+00  0.00000000000E+00 -0.72601407964E+02  0.28725149636E+04  0.28715973346E+04 0.  0.
        5    1    3    3  502    0  0.29344867011E+03 -0.11502390506E+04  0.77162918477E+03  0.14158374498E+04  0.46999998093E+01 0.  1.
       -5    1    3    3    0  502 -0.29344867011E+03  0.11502390506E+04 -0.84423059273E+03  0.14566775138E+04  0.46999998093E+01 0. -1.
</event>
<event>
 5   0  0.7388013E-06  0.2634158E+04  0.7818609E-02  0.8356690E-01
       -1   -1    0    0    0  501  0.00000000000E+00  0.00000000000E+00  0.16679573975E+04  0.16679573975E+04  0.50400001928E-02 0.  1.
        1   -1    0    0  501    0  0.00000000000E+00  0.00000000000E+00 -0.10400127925E+04  0.10400127925E+04  0.50400001928E-02 0. -1.
    10030    2    1    2    0    0  0.00000000000E+00  0.00000000000E+00  0.62794460501E+03  0.27079701900E+04  0.26341579533E+04 0.  0.
        1    1    3    3  502    0  0.10902336039E+04 -0.29113780186E+02  0.10730670098E+04  0.15300097159E+04  0.50400001928E-02 0.  1.
       -1    1    3    3    0  502 -0.10902336039E+04  0.29113780186E+02 -0.44512240476E+03  0.11779604741E+04  0.50400001928E-02 0. -1.
</event>
<event>
 5   0  0.7509685E-06  0.2761684E+04  0.7818609E-02  0.8315263E-01
        1   -1    0    0  501    0  0.00000000000E+00  0.00000000000E+00  0.21022186940E+04  0.21022186940E+04  0.50400001928E-02 0.  1.
       -1   -1    0    0    0  501  0.00000000000E+00  0.00000000000E+00 -0.90700614924E+03  0.90700614926E+03  0.50400001928E-02 0. -1.
    10030    2    1    2    0    0  0.00000000000E+00  0.00000000000E+00  0.11952125448E+04  0.30092248433E+04  0.27616844733E+04 0.  0.
        4    1    3    3  502    0 -0.41015170174E+03  0.10765427143E+04 -0.23191575338E+03  0.11751404868E+04  0.12699999809E+01 0. -1.
       -4    1    3    3    0  502  0.41015170174E+03 -0.10765427143E+04  0.14271282981E+04  0.18340843564E+04  0.12699999809E+01 0.  1.
</event>
<event>
 5   0  0.7613444E-06  0.2735057E+04  0.7818609E-02  0.8323719E-01
       -1   -1    0    0    0  501  0.00000000000E+00  0.00000000000E+00  0.13650847666E+04  0.13650847666E+04  0.50400001928E-02 0. -1.
        1   -1    0    0  501    0  0.00000000000E+00  0.00000000000E+00 -0.13699767995E+04  0.13699767995E+04  0.50400001928E-02 0.  1.
    10030    2    1    2    0    0  0.00000000000E+00  0.00000000000E+00 -0.48920329540E+01  0.27350615661E+04  0.27350571911E+04 0.  0.
        5    1    3    3  502    0 -0.92690728101E+03 -0.79161212212E+03  0.61747876899E+03  0.13664219625E+04  0.46999998093E+01 0. -1.
       -5    1    3    3    0  502  0.92690728101E+03  0.79161212212E+03 -0.62237080194E+03  0.13686396036E+04  0.46999998093E+01 0.  1.
</event>
<event>
 5   0  0.1923559E-05  0.2805619E+04  0.7818609E-02  0.8301526E-01
       -2   -1    0    0    0  501  0.00000000000E+00  0.00000000000E+00  0.92903827480E+03  0.92903827481E+03  0.25500000920E-02 0. -1.
        2   -1    0    0  501    0  0.00000000000E+00  0.00000000000E+00 -0.21181849587E+04  0.21181849587E+04  0.25500000920E-02 0.  1.
    10030    2    1    2    0    0  0.00000000000E+00  0.00000000000E+00 -0.11891466839E+04  0.30472232335E+04  0.28056192898E+04 0.  0.
        4    1    3    3  502    0 -0.88104492691E+00 -0.79492177736E+03  0.66080372393E+03  0.10337139753E+04  0.12699999809E+01 0. -1.
       -4    1    3    3    0  502  0.88104492691E+00  0.79492177736E+03 -0.18499504078E+04  0.20135092582E+04  0.12699999809E+01 0.  1.
</event>
<event>
 5   0  0.7388013E-06  0.2771090E+04  0.7818609E-02  0.8312300E-01
        1   -1    0    0  501    0  0.00000000000E+00  0.00000000000E+00  0.18038223941E+04  0.18038223941E+04  0.50400001928E-02 0. -1.
       -1   -1    0    0    0  501  0.00000000000E+00  0.00000000000E+00 -0.10642596080E+04  0.10642596080E+04  0.50400001928E-02 0.  1.
    10030    2    1    2    0    0  0.00000000000E+00  0.00000000000E+00  0.73956278607E+03  0.28680820021E+04  0.27710902649E+04 0.  0.
        1    1    3    3  502    0 -0.31809099003E+02 -0.76658070639E+03  0.15638865264E+04  0.17419526014E+04  0.50400001928E-02 0. -1.
       -1    1    3    3    0  502  0.31809099003E+02  0.76658070639E+03 -0.82432374033E+03  0.11261294007E+04  0.50400001928E-02 0.  1.
</event>
<event>
 5   0  0.1832502E-05  0.2806511E+04  0.7818609E-02  0.8301250E-01
        2   -1    0    0  501    0  0.00000000000E+00  0.00000000000E+00  0.17288288352E+04  0.17288288352E+04  0.25500000920E-02 0.  1.
       -2   -1    0    0    0  501  0.00000000000E+00  0.00000000000E+00 -0.11389945600E+04  0.11389945600E+04  0.25500000920E-02 0. -1.
    10030    2    1    2    0    0  0.00000000000E+00  0.00000000000E+00  0.58983427520E+03  0.28678233953E+04  0.28065114563E+04 0.  0.
        2    1    3    3  502    0  0.12010170572E+04  0.20577737188E+03  0.10060666313E+04  0.15801760551E+04  0.25500000920E-02 0.  1.
       -2    1    3    3    0  502 -0.12010170572E+04 -0.20577737188E+03 -0.41623235613E+03  0.12876473402E+04  0.25500000920E-02 0. -1.
</event>
<event>
 5   0  0.1814230E-05  0.2791947E+04  0.7818609E-02  0.8305773E-01
       -2   -1    0    0    0  501  0.00000000000E+00  0.00000000000E+00  0.89575863517E+03  0.89575863517E+03  0.25500000920E-02 0.  1.
        2   -1    0    0  501    0  0.00000000000E+00  0.00000000000E+00 -0.21755207120E+04  0.21755207120E+04  0.25500000920E-02 0. -1.
    10030    2    1    2    0    0  0.00000000000E+00  0.00000000000E+00 -0.12797620769E+04  0.30712793472E+04  0.27919466068E+04 0.  0.
        5    1    3    3  502    0 -0.11587050456E+04  0.58338861441E+03 -0.12069986405E+04  0.17719501873E+04  0.46999998093E+01 0. -1.
       -5    1    3    3    0  502  0.11587050456E+04 -0.58338861441E+03 -0.72763436337E+02  0.12993291599E+04  0.46999998093E+01 0.  1.
</event>
<event>
 5   0  0.7555871E-06  0.2647849E+04  0.7818609E-02  0.8352127E-01
       -1   -1    0    0    0  501  0.00000000000E+00  0.00000000000E+00  0.99434539247E+03  0.99434539248E+03  0.50400001928E-02 0. -1.
        1   -1    0    0  501    0  0.00000000000E+00  0.00000000000E+00 -0.17627440543E+04  0.17627440543E+04  0.50400001928E-02 0.  1.
    10030    2    1    2    0    0  0.00000000000E+00  0.00000000000E+00 -0.76839866185E+03  0.27570894468E+04  0.26478492620E+04 0.  0.
        3    1    3    3  502    0  0.88688378179E+03 -0.80378697890E+02  0.63588787665E+03  0.10942472204E+04  0.10100000352E+00 0. -1.
       -3    1    3    3    0  502 -0.88688378179E+03  0.80378697890E+02 -0.14042865385E+04  0.16628422264E+04  0.10100000352E+00 0.  1.
</event>
<event>
 5   0  0.7613444E-06  0.2816981E+04  0.7818609E-02  0.8298016E-01
       -1   -1    0    0    0  501  0.00000000000E+00  0.00000000000E+00  0.21499916050E+04  0.21499916050E+04  0.50400001928E-02 0. -1.
        1   -1    0    0  501    0  0.00000000000E+00  0.00000000000E+00 -0.92272263536E+03  0.92272263537E+03  0.50400001928E-02 0.  1.
    10030    2    1    2    0    0  0.00000000000E+00  0.00000000000E+00  0.12272689697E+04  0.30727142404E+04  0.28169813062E+04 0.  0.
        5    1    3    3  502    0 -0.12946928012E+04 -0.53150186089E+03  0.78644747519E+03  0.16053801415E+04  0.46999998093E+01 0. -1.
       -5    1    3    3    0  502  0.12946928012E+04  0.53150186089E+03  0.44082149446E+03  0.14673340988E+04  0.46999998093E+01 0.  1.
</event>
<event>
 5   0  0.1832502E-05  0.3628833E+04  0.7818609E-02  0.8083919E-01
       -2   -1    0    0    0  501  0.00000000000E+00  0.00000000000E+00  0.13321488142E+04  0.13321488142E+04  0.25500000920E-02 0.  1.
        2   -1    0    0  501    0  0.00000000000E+00  0.00000000000E+00 -0.24712761974E+04  0.24712761974E+04  0.25500000920E-02 0. -1.
    10030    2    1    2    0    0  0.00000000000E+00  0.00000000000E+00 -0.11391273832E+04  0.38034250116E+04  0.36288332317E+04 0.  0.
        2    1    3    3  502    0  0.11941401086E+04 -0.11676829289E+03 -0.19961144105E+04  0.23289650433E+04  0.25500000920E-02 0. -1.
       -2    1    3    3    0  502 -0.11941401086E+04  0.11676829289E+03  0.85698702725E+03  0.14744599683E+04  0.25500000920E-02 0.  1.
</event>
<event>
 5   0  0.7509685E-06  0.2746374E+04  0.7818609E-02  0.8320113E-01
        1   -1    0    0  501    0  0.00000000000E+00  0.00000000000E+00  0.21042857787E+04  0.21042857787E+04  0.50400001928E-02 0.  1.
       -1   -1    0    0    0  501  0.00000000000E+00  0.00000000000E+00 -0.89609643186E+03  0.89609643188E+03  0.50400001928E-02 0. -1.
    10030    2    1    2    0    0  0.00000000000E+00  0.00000000000E+00  0.12081893469E+04  0.30003822106E+04  0.27463743212E+04 0.  0.
        4    1    3    3  502    0 -0.88010376784E+02  0.82694726912E+03  0.17978870221E+04  0.19809055933E+04  0.12699999809E+01 0.  1.
       -4    1    3    3    0  502  0.88010376784E+02 -0.82694726912E+03 -0.58969767520E+03  0.10194766174E+04  0.12699999809E+01 0. -1.
</event>
<event>
 5   0  0.1874272E-05  0.2091559E+04  0.7818609E-02  0.8564971E-01
       -2   -1    0    0    0  501  0.00000000000E+00  0.00000000000E+00  0.18023279022E+04  0.18023279022E+04  0.25500000920E-02 0.  1.
        2   -1    0    0  501    0  0.00000000000E+00  0.00000000000E+00 -0.60680127818E+03  0.60680127818E+03  0.25500000920E-02 0. -1.
    10030    2    1    2    0    0  0.00000000000E+00  0.00000000000E+00  0.11955266241E+04  0.24091291804E+04  0.20915591072E+04 0.  0.
        3    1    3    3  502    0 -0.38329004995E+03  0.78359794053E+03  0.12621608420E+04  0.15342708353E+04  0.10100000352E+00 0.  1.
       -3    1    3    3    0  502  0.38329004995E+03 -0.78359794053E+03 -0.66634217949E+02  0.87485834510E+03  0.10100000352E+00 0. -1.
</event>
<event>
 5   0  0.1814230E-05  0.2790973E+04  0.7818609E-02  0.8306076E-01
       -2   -1    0    0    0  501  0.00000000000E+00  0.00000000000E+00  0.11779298029E+04  0.11779298029E+04  0.25500000920E-02 0.  1.
        2   -1    0    0  501    0  0.00000000000E+00  0.00000000000E+00 -0.16532247418E+04  0.16532247418E+04  0.25500000920E-02 0. -1.
    10030    2    1    2    0    0  0.00000000000E+00  0.00000000000E+00 -0.47529493892E+03  0.28311545447E+04  0.27909730879E+04 0.  0.
        5    1    3    3  502    0  0.19619079780E+01 -0.28261134142E+03 -0.16238822459E+04  0.16482987162E+04  0.46999998093E+01 0. -1.
       -5    1    3    3    0  502 -0.19619079780E+01  0.28261134142E+03  0.11485873070E+04  0.11828558285E+04  0.46999998093E+01 0.  1.
</event>
<event>
 5   0  0.1904553E-05  0.2741792E+04  0.7818609E-02  0.8321571E-01
       -2   -1    0    0    0  501  0.00000000000E+00  0.00000000000E+00  0.95623866966E+03  0.95623866966E+03  0.25500000920E-02 0.  1.
        2   -1    0    0  501    0  0.00000000000E+00  0.00000000000E+00 -0.19653633745E+04  0.19653633745E+04  0.25500000920E-02 0. -1.
    10030    2    1    2    0    0  0.00000000000E+00  0.00000000000E+00 -0.10091247048E+04  0.29216020441E+04  0.27417924492E+04 0.  0.
        1    1    3    3  502    0  0.72351547727E+03  0.22063259449E+03 -0.17228729259E+04  0.18816068948E+04  0.50400001928E-02 0. -1.
       -1    1    3    3    0  502 -0.72351547727E+03 -0.22063259449E+03  0.71374822109E+03  0.10399951494E+04  0.50400001928E-02 0.  1.
</event>
<event>
 5   0  0.7388013E-06  0.3114105E+04  0.7818609E-02  0.8211877E-01
       -1   -1    0    0    0  501  0.00000000000E+00  0.00000000000E+00  0.16569653892E+04  0.16569653892E+04  0.50400001928E-02 0.  1.
        1   -1    0    0  501    0  0.00000000000E+00  0.00000000000E+00 -0.14631644785E+04  0.14631644785E+04  0.50400001928E-02 0. -1.
    10030    2    1    2    0    0  0.00000000000E+00  0.00000000000E+00  0.19380091071E+03  0.31201298677E+04  0.31141052645E+04 0.  0.
        1    1    3    3  502    0 -0.13058004872E+04 -0.51896658874E+03  0.76899747020E+03  0.16018109570E+04  0.50400001928E-02 0. -1.
       -1    1    3    3    0  502  0.13058004872E+04  0.51896658874E+03 -0.57519655949E+03  0.15183189108E+04  0.50400001928E-02 0.  1.
</event>
<event>
 5   0  0.1904553E-05  0.2830968E+04  0.7818609E-02  0.8293718E-01
       -2   -1    0    0    0  501  0.00000000000E+00  0.00000000000E+00  0.15646394096E+04  0.15646394096E+04  0.25500000920E-02 0. -1.
        2   -1    0    0  501    0  0.00000000000E+00  0.00000000000E+00 -0.12805471431E+04  0.12805471431E+04  0.25500000920E-02 0.  1.
    10030    2    1    2    0    0  0.00000000000E+00  0.00000000000E+00  0.28409226648E+03  0.28451865527E+04  0.28309676974E+04 0.  0.
        1    1    3    3  502    0 -0.12827961512E+04  0.58769444649E+03  0.25505554365E+03  0.14338772814E+04  0.50400001928E-02 0. -1.
       -1    1    3    3    0  502  0.12827961512E+04 -0.58769444649E+03  0.29036722826E+02  0.14113092713E+04  0.50400001928E-02 0.  1.
</event>
<event>
 5   0  0.7388013E-06  0.2724910E+04  0.7818609E-02  0.8326967E-01
       -1   -1    0    0    0  501  0.00000000000E+00  0.00000000000E+00  0.93323331068E+03  0.93323331069E+03  0.50400001928E-02 0. -1.
        1   -1    0    0  501    0  0.00000000000E+00  0.00000000000E+00 -0.19890890741E+04  0.19890890741E+04  0.50400001928E-02 0.  1.
    10030    2    1    2    0    0  0.00000000000E+00  0.00000000000E+00 -0.10558557634E+04  0.29223223848E+04  0.27249104073E+04 0.  0.
        1    1    3    3  502    0 -0.55086835590E+03 -0.14433295089E+03  0.79948108261E+03  0.98155893746E+03  0.50400001928E-02 0. -1.
       -1    1    3    3    0  502  0.55086835590E+03  0.14433295089E+03 -0.18553368460E+04  0.19407634473E+04  0.50400001928E-02 0.  1.
</event>
<event>
 5   0  0.1923559E-05  0.2819994E+04  0.7818609E-02  0.8297088E-01
        2   -1    0    0  501    0  0.00000000000E+00  0.00000000000E+00  0.23993083224E+04  0.23993083224E+04  0.25500000920E-02 0.  1.
       -2   -1    0    0    0  501  0.00000000000E+00  0.00000000000E+00 -0.82861041284E+03  0.82861041285E+03  0.25500000920E-02 0. -1.
    10030    2    1    2    0    0  0.00000000000E+00  0.00000000000E+00  0.15706979095E+04  0.32279187352E+04  0.28199942266E+04 0.  0.
        4    1    3    3  502    0  0.11755270982E+04 -0.86236059042E+02  0.16710996639E+04  0.20449636467E+04  0.12699999809E+01 0.  1.
       -4    1    3    3    0  502 -0.11755270982E+04  0.86236059042E+02 -0.10040175442E+03  0.11829550886E+04  0.12699999809E+01 0. -1.
</event>
<event>
 5   0  0.7388013E-06  0.2767951E+04  0.7818609E-02  0.8313288E-01
        1   -1    0    0  501    0  0.00000000000E+00  0.00000000000E+00  0.22819576757E+04  0.22819576757E+04  0.50400001928E-02 0.  1.
       -1   -1    0    0    0  501  0.00000000000E+00  0.00000000000E+00 -0.83936206150E+03  0.83936206151E+03  0.50400001928E-02 0. -1.
    10030    2    1    2    0    0  0.00000000000E+00  0.00000000000E+00  0.14425956142E+04  0.31213197372E+04  0.27679513717E+04 0.  0.
        1    1    3    3  502    0 -0.13639492379E+04  0.22505633824E+03  0.79593537982E+03  0.15951554808E+04  0.50400001928E-02 0. -1.
       -1    1    3    3    0  502  0.13639492379E+04 -0.22505633824E+03  0.64666023440E+03  0.15261642565E+04  0.50400001928E-02 0.  1.
</event>
<event>
 5   0  0.1814230E-05  0.2691770E+04  0.7818609E-02  0.8337680E-01
        2   -1    0    0  501    0  0.00000000000E+00  0.00000000000E+00  0.15459398866E+04  0.15459398866E+04  0.25500000920E-02 0. -1.
       -2   -1    0    0    0  501  0.00000000000E+00  0.00000000000E+00 -0.11717188999E+04  0.11717188999E+04  0.25500000920E-02 0.  1.
    10030    2    1    2    0    0  0.00000000000E+00  0.00000000000E+00  0.37422098662E+03  0.27176587865E+04  0.26917704087E+04 0.  0.
        5    1    3    3  502    0 -0.78713932627E+03 -0.55313188959E+02 -0.91366767777E+03  0.12072524936E+04  0.46999998093E+01 0.  1.
       -5    1    3    3    0  502  0.78713932627E+03  0.55313188959E+02  0.12878886644E+04  0.15104062929E+04  0.46999998093E+01 0. -1.
</event>
<event>
 5   0  0.1814230E-05  0.2776271E+04  0.7818609E-02  0.8310673E-01
        2   -1    0    0  501    0  0.00000000000E+00  0.00000000000E+00  0.15271100638E+04  0.15271100638E+04  0.25500000920E-02 0.  1.
       -2   -1    0    0    0  501  0.00000000000E+00  0.00000000000E+00 -0.12618086669E+04  0.12618086669E+04  0.25500000920E-02 0. -1.
    10030    2    1    2    0    0  0.00000000000E+00  0.00000000000E+00  0.26530139688E+03  0.27889187308E+04  0.27762713945E+04 0.  0.
        5    1    3    3  502    0 -0.10183882481E+04 -0.49308159504E+03 -0.67516094101E+03  0.13176146894E+04  0.46999998093E+01 0. -1.
       -5    1    3    3    0  502  0.10183882481E+04  0.49308159504E+03  0.94046233789E+03  0.14713040414E+04  0.46999998093E+01 0.  1.
</event>
<event>
 5   0  0.1832502E-05  0.2596436E+04  0.7818609E-02  0.8369413E-01
        2   -1    0    0  501    0  0.00000000000E+00  0.00000000000E+00  0.15965619004E+04  0.15965619004E+04  0.25500000920E-02 0.  1.
       -2   -1    0    0    0  501  0.00000000000E+00  0.00000000000E+00 -0.10556244469E+04  0.10556244469E+04  0.25500000920E-02 0. -1.
    10030    2    1    2    0    0  0.00000000000E+00  0.00000000000E+00  0.54093745349E+03  0.26521863474E+04  0.25964358441E+04 0.  0.
        2    1    3    3  502    0 -0.29986000081E+03 -0.11578268238E+04 -0.24523885760E+03  0.12209099358E+04  0.25500000920E-02 0. -1.
       -2    1    3    3    0  502  0.29986000081E+03  0.11578268238E+04  0.78617631109E+03  0.14312764115E+04  0.25500000920E-02 0.  1.
</event>
<event>
 5   0  0.1832502E-05  0.2809509E+04  0.7818609E-02  0.8300322E-01
        2   -1    0    0  501    0  0.00000000000E+00  0.00000000000E+00  0.14206038145E+04  0.14206038145E+04  0.25500000920E-02 0. -1.
       -2   -1    0    0    0  501  0.00000000000E+00  0.00000000000E+00 -0.13890823090E+04  0.13890823090E+04  0.25500000920E-02 0.  1.
    10030    2    1    2    0    0  0.00000000000E+00  0.00000000000E+00  0.31521505500E+02  0.28096861235E+04  0.28095093000E+04 0.  0.
        2    1    3    3  502    0  0.31263862243E+03 -0.90495590841E+03  0.10437590660E+04  0.14163760419E+04  0.25500000920E-02 0. -1.
       -2    1    3    3    0  502 -0.31263862243E+03  0.90495590841E+03 -0.10122375605E+04  0.13933100815E+04  0.25500000920E-02 0.  1.
</event>
<event>
 5   0  0.1904553E-05  0.1788471E+04  0.7818609E-02  0.8712454E-01
        2   -1    0    0  501    0  0.00000000000E+00  0.00000000000E+00  0.13926173099E+04  0.13926173099E+04  0.25500000920E-02 0.  1.
       -2   -1    0    0    0  501  0.00000000000E+00  0.00000000000E+00 -0.57421196022E+03  0.57421196023E+03  0.25500000920E-02 0. -1.
    10030    2    1    2    0    0  0.00000000000E+00  0.00000000000E+00  0.81840534971E+03  0.19668292702E+04  0.17884714316E+04 0.  0.
        1    1    3    3  502    0 -0.39699110030E+03 -0.34160976146E+03  0.12063020638E+04  0.13150908075E+04  0.50400001928E-02 0.  1.
       -1    1    3    3    0  502  0.39699110030E+03  0.34160976146E+03 -0.38789671411E+03  0.65173846264E+03  0.50400001928E-02 0. -1.
</event>
<event>
 5   0  0.7613444E-06  0.2790758E+04  0.7818609E-02  0.8306143E-01
       -1   -1    0    0    0  501  0.00000000000E+00  0.00000000000E+00  0.18752208732E+04  0.18752208732E+04  0.50400001928E-02 0.  1.
        1   -1    0    0  501    0  0.00000000000E+00  0.00000000000E+00 -0.10383214274E+04  0.10383214274E+04  0.50400001928E-02 0. -1.
    10030    2    1    2    0    0  0.00000000000E+00  0.00000000000E+00  0.83689944582E+03  0.29135423007E+04  0.27907576132E+04 0.  0.
        5    1    3    3  502    0 -0.80427180305E+02  0.99822122668E+03 -0.59597245796E+03  0.11653838035E+04  0.46999998093E+01 0. -1.
       -5    1    3    3    0  502  0.80427180305E+02 -0.99822122668E+03  0.14328719038E+04  0.17481584972E+04  0.46999998093E+01 0.  1.
</event>
<event>
 5   0  0.7555871E-06  0.2789026E+04  0.7818609E-02  0.8306684E-01
       -1   -1    0    0    0  501  0.00000000000E+00  0.00000000000E+00  0.92813665233E+03  0.92813665234E+03  0.50400001928E-02 0.  1.
        1   -1    0    0  501    0  0.00000000000E+00  0.00000000000E+00 -0.20952368205E+04  0.20952368205E+04  0.50400001928E-02 0. -1.
    10030    2    1    2    0    0  0.00000000000E+00  0.00000000000E+00 -0.11671001682E+04  0.30233734728E+04  0.27890256997E+04 0.  0.
        3    1    3    3  502    0  0.87372123425E+03 -0.46205802627E+03  0.48286806595E+03  0.11000218153E+04  0.10100000352E+00 0.  1.
       -3    1    3    3    0  502 -0.87372123425E+03  0.46205802627E+03 -0.16499682341E+04  0.19233516576E+04  0.10100000352E+00 0. -1.
</event>
<event>
 5   0  0.1874272E-05  0.3194622E+04  0.7818609E-02  0.8190239E-01
       -2   -1    0    0    0  501  0.00000000000E+00  0.00000000000E+00  0.21052279516E+04  0.21052279516E+04  0.25500000920E-02 0. -1.
        2   -1    0    0  501    0  0.00000000000E+00  0.00000000000E+00 -0.12119364938E+04  0.12119364938E+04  0.25500000920E-02 0.  1.
    10030    2    1    2    0    0  0.00000000000E+00  0.00000000000E+00  0.89329145778E+03  0.33171644455E+04  0.31946220950E+04 0.  0.
        3    1    3    3  502    0 -0.32474420470E+03  0.14416841620E+04 -0.18281783896E+03  0.14890716551E+04  0.10100000352E+00 0.  1.
       -3    1    3    3    0  502  0.32474420470E+03 -0.14416841620E+04  0.10761092967E+04  0.18280927904E+04  0.10100000352E+00 0. -1.
</event>
<event>
 5   0  0.7388013E-06  0.2786537E+04  0.7818609E-02  0.8307460E-01
       -1   -1    0    0    0  501  0.00000000000E+00  0.00000000000E+00  0.82057036519E+03  0.82057036520E+03  0.50400001928E-02 0. -1.
        1   -1    0    0  501    0  0.00000000000E+00  0.00000000000E+00 -0.23656677350E+04  0.23656677350E+04  0.50400001928E-02 0.  1.
    10030    2    1    2    0    0  0.00000000000E+00  0.00000000000E+00 -0.15450973698E+04  0.31862381002E+04  0.27865368020E+04 0.  0.
        1    1    3    3  502    0 -0.38350174556E+03 -0.58238680242E+03  0.60668326080E+03  0.92429029825E+03  0.50400001928E-02 0. -1.
       -1    1    3    3    0  502  0.38350174556E+03  0.58238680242E+03 -0.21517806306E+04  0.22619478019E+04  0.50400001928E-02 0.  1.
</event>
<event>
 5   0  0.1832502E-05  0.2838835E+04  0.7818609E-02  0.8291312E-01
        2   -1    0    0  501    0  0.00000000000E+00  0.00000000000E+00  0.15326920846E+04  0.15326920846E+04  0.25500000920E-02 0.  1.
       -2   -1    0    0    0  501  0.00000000000E+00  0.00000000000E+00 -0.13145147112E+04  0.13145147112E+04  0.25500000920E-02 0. -1.
    10030    2    1    2    0    0  0.00000000000E+00  0.00000000000E+00  0.21817737339E+03  0.28472067959E+04  0.28388351788E+04 0.  0.
        2    1    3    3  502    0 -0.84563916868E+03 -0.14960401981E+03  0.12425804655E+04  0.15104612473E+04  0.25500000920E-02 0.  1.
       -2    1    3    3    0  502  0.84563916868E+03  0.14960401981E+03 -0.10244030921E+04  0.13367455485E+04  0.25500000920E-02 0. -1.
</event>
<event>
 5   0  0.7509685E-06  0.2737767E+04  0.7818609E-02  0.8322854E-01
       -1   -1    0    0    0  501  0.00000000000E+00  0.00000000000E+00  0.16874619029E+04  0.16874619029E+04  0.50400001928E-02 0. -1.
        1   -1    0    0  501    0  0.00000000000E+00  0.00000000000E+00 -0.11104497220E+04  0.11104497220E+04  0.50400001928E-02 0.  1.
    10030    2    1    2    0    0  0.00000000000E+00  0.00000000000E+00  0.57701218093E+03  0.27979116249E+04  0.27377666818E+04 0.  0.
        4    1    3    3  502    0 -0.67493393875E+01  0.12105183940E+04 -0.36462672973E+03  0.12642604956E+04  0.12699999809E+01 0.  1.
       -4    1    3    3    0  502  0.67493393875E+01 -0.12105183940E+04  0.94163891065E+03  0.15336511294E+04  0.12699999809E+01 0. -1.
</event>
<event>
 5   0  0.7388013E-06  0.2782074E+04  0.7818609E-02  0.8308855E-01
       -1   -1    0    0    0  501  0.00000000000E+00  0.00000000000E+00  0.10267635384E+04  0.10267635384E+04  0.50400001928E-02 0. -1.
        1   -1    0    0  501    0  0.00000000000E+00  0.00000000000E+00 -0.18845470842E+04  0.18845470842E+04  0.50400001928E-02 0.  1.
    10030    2    1    2    0    0  0.00000000000E+00  0.00000000000E+00 -0.85778354584E+03  0.29113106226E+04  0.27820742135E+04 0.  0.
        1    1    3    3  502    0  0.87097484652E+03 -0.43663479144E+02  0.70518576473E+03  0.11215126595E+04  0.50400001928E-02 0. -1.
       -1    1    3    3    0  502 -0.87097484652E+03  0.43663479144E+02 -0.15629693106E+04  0.17897979630E+04  0.50400001928E-02 0.  1.
</event>
<event>
 5   0  0.7681342E-06  0.2432021E+04  0.7818609E-02  0.8427612E-01
        1   -1    0    0  501    0  0.00000000000E+00  0.00000000000E+00  0.12951579077E+04  0.12951579077E+04  0.50400001928E-02 0.  1.
       -1   -1    0    0    0  501  0.00000000000E+00  0.00000000000E+00 -0.11416999592E+04  0.11416999592E+04  0.50400001928E-02 0. -1.
    10030    2    1    2    0    0  0.00000000000E+00  0.00000000000E+00  0.15345794848E+03  0.24368578669E+04  0.24320211598E+04 0.  0.
        2    1    3    3  502    0  0.85240065661E+03  0.81228155713E+03  0.38113164736E+03  0.12375982951E+04  0.25500000920E-02 0. -1.
       -2    1    3    3    0  502 -0.85240065661E+03 -0.81228155713E+03 -0.22767369887E+03  0.11992595718E+04  0.25500000920E-02 0.  1.
</event>
<event>
 5   0  0.7613444E-06  0.2757571E+04  0.7818609E-02  0.8316563E-01
        1   -1    0    0  501    0  0.00000000000E+00  0.00000000000E+00  0.12971842110E+04  0.12971842110E+04  0.50400001928E-02 0.  1.
       -1   -1    0    0    0  501  0.00000000000E+00  0.00000000000E+00 -0.14655198779E+04  0.14655198779E+04  0.50400001928E-02 0. -1.
    10030    2    1    2    0    0  0.00000000000E+00  0.00000000000E+00 -0.16833566686E+03  0.27627040889E+04  0.27575708488E+04 0.  0.
        5    1    3    3  502    0 -0.91273051020E+03  0.36942557421E+03  0.88275824501E+03  0.13224358012E+04  0.46999998093E+01 0.  1.
       -5    1    3    3    0  502  0.91273051020E+03 -0.36942557421E+03 -0.10510939119E+04  0.14402682877E+04  0.46999998093E+01 0. -1.
</event>
<event>
 5   0  0.1923559E-05  0.2802633E+04  0.7818609E-02  0.8302452E-01
        2   -1    0    0  501    0  0.00000000000E+00  0.00000000000E+00  0.16935322807E+04  0.16935322807E+04  0.25500000920E-02 0. -1.
       -2   -1    0    0    0  501  0.00000000000E+00  0.00000000000E+00 -0.11595216690E+04  0.11595216690E+04  0.25500000920E-02 0.  1.
    10030    2    1    2    0    0  0.00000000000E+00  0.00000000000E+00  0.53401061178E+03  0.28530539497E+04  0.28026326028E+04 0.  0.
        4    1    3    3  502    0  0.12312095162E+04 -0.38937801294E+03  0.82103327379E+03  0.15302252642E+04  0.12699999809E+01 0. -1.
       -4    1    3    3    0  502 -0.12312095162E+04  0.38937801294E+03 -0.28702266201E+03  0.13228286855E+04  0.12699999809E+01 0.  1.
</event>
<event>
 5   0  0.1923559E-05  0.2832901E+04  0.7818609E-02  0.8293126E-01
       -2   -1    0    0    0  501  0.00000000000E+00  0.00000000000E+00  0.14591547381E+04  0.14591547382E+04  0.25500000920E-02 0.  1.
        2   -1    0    0  501    0  0.00000000000E+00  0.00000000000E+00 -0.13749956550E+04  0.13749956550E+04  0.25500000920E-02 0. -1.
    10030    2    1    2    0    0  0.00000000000E+00  0.00000000000E+00  0.84159083122E+02  0.28341503932E+04  0.28329005807E+04 0.  0.
        4    1    3    3  502    0  0.35644637512E+03 -0.90595766849E+03  0.10713757528E+04  0.14476397798E+04  0.12699999809E+01 0.  1.
       -4    1    3    3    0  502 -0.35644637512E+03  0.90595766849E+03 -0.98721666963E+03  0.13865106134E+04  0.12699999809E+01 0. -1.
</event>
<event>
 5   0  0.7681342E-06  0.2807145E+04  0.7818609E-02  0.8301053E-01
        1   -1    0    0  501    0  0.00000000000E+00  0.00000000000E+00  0.17332856072E+04  0.17332856072E+04  0.50400001928E-02 0. -1.
       -1   -1    0    0    0  501  0.00000000000E+00  0.00000000000E+00 -0.11365790903E+04  0.11365790903E+04  0.50400001928E-02 0.  1.
    10030    2    1    2    0    0  0.00000000000E+00  0.00000000000E+00  0.59670651687E+03  0.28698646976E+04  0.28071452964E+04 0.  0.
        2    1    3    3  502    0  0.12837383536E+04 -0.98251104205E+02 -0.27304283057E+03  0.13161268280E+04  0.25500000920E-02 0.  1.
       -2    1    3    3    0  502 -0.12837383536E+04  0.98251104205E+02  0.86974934744E+03  0.15537378696E+04  0.25500000920E-02 0. -1.
</event>
<event>
 5   0  0.1923559E-05  0.2773978E+04  0.7818609E-02  0.8311393E-01
        2   -1    0    0  501    0  0.00000000000E+00  0.00000000000E+00  0.12006453491E+04  0.12006453491E+04  0.25500000920E-02 0.  1.
       -2   -1    0    0    0  501  0.00000000000E+00  0.00000000000E+00 -0.16022538906E+04  0.16022538906E+04  0.25500000920E-02 0. -1.
    10030    2    1    2    0    0  0.00000000000E+00  0.00000000000E+00 -0.40160854152E+03  0.28028992398E+04  0.27739781412E+04 0.  0.
        4    1    3    3  502    0 -0.24243762060E+03  0.11323225091E+04  0.57057285821E+03  0.12909241899E+04  0.12699999809E+01 0. -1.
       -4    1    3    3    0  502  0.24243762060E+03 -0.11323225091E+04 -0.97218139973E+03  0.15119750499E+04  0.12699999809E+01 0.  1.
</event>
<event>
 5   0  0.1904553E-05  0.2850418E+04  0.7818609E-02  0.8287784E-01
       -2   -1    0    0    0  501  0.00000000000E+00  0.00000000000E+00  0.13012315773E+04  0.13012315773E+04  0.25500000920E-02 0. -1.
        2   -1    0    0  501    0  0.00000000000E+00  0.00000000000E+00 -0.15609986601E+04  0.15609986601E+04  0.25500000920E-02 0.  1.
    10030    2    1    2    0    0  0.00000000000E+00  0.00000000000E+00 -0.25976708279E+03  0.28622302374E+04  0.28504180386E+04 0.  0.
        1    1    3    3  502    0 -0.11359376119E+04 -0.95703606874E+02  0.72906017036E+03  0.13531600684E+04  0.50400001928E-02 0. -1.
       -1    1    3    3    0  502  0.11359376119E+04  0.95703606874E+02 -0.98882725316E+03  0.15090701691E+04  0.50400001928E-02 0.  1.
</event>
<event>
 5   0  0.1923559E-05  0.2148290E+04  0.7818609E-02  0.8540265E-01
       -2   -1    0    0    0  501  0.00000000000E+00  0.00000000000E+00  0.10859953805E+04  0.10859953805E+04  0.25500000920E-02 0.  1.
        2   -1    0    0  501    0  0.00000000000E+00  0.00000000000E+00 -0.10624237797E+04  0.10624237797E+04  0.25500000920E-02 0. -1.
    10030    2    1    2    0    0  0.00000000000E+00  0.00000000000E+00  0.23571600810E+02  0.21484191602E+04  0.21482898472E+04 0.  0.
        4    1    3    3  502    0 -0.37780501886E+03 -0.61329000959E+03 -0.78508362099E+03  0.10654666457E+04  0.12699999809E+01 0. -1.
       -4    1    3    3    0  502  0.37780501886E+03  0.61329000959E+03  0.80865522180E+03  0.10829525146E+04  0.12699999809E+01 0.  1.
</event>
<event>
 5   0  0.7613444E-06  0.2456611E+04  0.7818609E-02  0.8418608E-01
       -1   -1    0    0    0  501  0.00000000000E+00  0.00000000000E+00  0.11303074538E+04  0.11303074538E+04  0.50400001928E-02 0. -1.
        1   -1    0    0  501    0  0.00000000000E+00  0.00000000000E+00 -0.13348003338E+04  0.13348003338E+04  0.50400001928E-02 0.  1.
    10030    2    1    2    0    0  0.00000000000E+00  0.00000000000E+00 -0.20449288000E+03  0.24651077876E+04  0.24566112974E+04 0.  0.
        5    1    3    3  502    0 -0.58546441885E+03 -0.10516970681E+04  0.14329840438E+03  0.12121847348E+04  0.46999998093E+01 0. -1.
       -5    1    3    3    0  502  0.58546441885E+03  0.10516970681E+04 -0.34779128438E+03  0.12529230528E+04  0.46999998093E+01 0.  1.
</event>
<event>
 5   0  0.1814230E-05  0.2740158E+04  0.7818609E-02  0.8322091E-01
        2   -1    0    0  501    0  0.00000000000E+00  0.00000000000E+00  0.17966391558E+04  0.17966391558E+04  0.25500000920E-02 0.  1.
       -2   -1    0    0    0  501  0.00000000000E+00  0.00000000000E+00 -0.10447934730E+04  0.10447934730E+04  0.25500000920E-02 0. -1.
    10030    2    1    2    0    0  0.00000000000E+00  0.00000000000E+00  0.75184568279E+03  0.28414326288E+04  0.27401582898E+04 0.  0.
        5    1    3    3  502    0  0.34851945242E+03  0.97503894939E+03 -0.55441402825E+03  0.11745483244E+04  0.46999998093E+01 0. -1.
       -5    1    3    3    0  502 -0.34851945242E+03 -0.97503894939E+03  0.13062597110E+04  0.16668843044E+04  0.46999998093E+01 0.  1.
</event>
<event>
 5   0  0.7613444E-06  0.2835595E+04  0.7818609E-02  0.8292302E-01
        1   -1    0    0  501    0  0.00000000000E+00  0.00000000000E+00  0.15622814436E+04  0.15622814436E+04  0.50400001928E-02 0.  1.
       -1   -1    0    0    0  501  0.00000000000E+00  0.00000000000E+00 -0.12866761355E+04  0.12866761355E+04  0.50400001928E-02 0. -1.
    10030    2    1    2    0    0  0.00000000000E+00  0.00000000000E+00  0.27560530814E+03  0.28489575791E+04  0.28355953522E+04 0.  0.
        5    1    3    3  502    0 -0.12907339920E+04  0.12748437639E+03  0.71311048674E+03  0.14801334942E+04  0.46999998093E+01 0. -1.
       -5    1    3    3    0  502  0.12907339920E+04 -0.12748437639E+03 -0.43750517861E+03  0.13688240849E+04  0.46999998093E+01 0.  1.
</event>
<event>
 5   0  0.7555871E-06  0.2409512E+04  0.7818609E-02  0.8435951E-01
       -1   -1    0    0    0  501  0.00000000000E+00  0.00000000000E+00  0.13532855226E+04  0.13532855226E+04  0.50400001928E-02 0. -1.
        1   -1    0    0  501    0  0.00000000000E+00  0.00000000000E+00 -0.10725285299E+04  0.10725285299E+04  0.50400001928E-02 0.  1.
    10030    2    1    2    0    0  0.00000000000E+00  0.00000000000E+00  0.28075699265E+03  0.24258140525E+04  0.24095122594E+04 0.  0.
        3    1    3    3  502    0  0.27548950069E+03  0.74834289998E+03  0.10495529187E+04  0.13181323531E+04  0.10100000352E+00 0. -1.
       -3    1    3    3    0  502 -0.27548950069E+03 -0.74834289998E+03 -0.76879592608E+03  0.11076816994E+04  0.10100000352E+00 0.  1.
</event>
<event>
 5   0  0.1874272E-05  0.2797052E+04  0.7818609E-02  0.8304184E-01
        2   -1    0    0  501    0  0.00000000000E+00  0.00000000000E+00  0.85039026691E+03  0.85039026691E+03  0.25500000920E-02 0.  1.
       -2   -1    0    0    0  501  0.00000000000E+00  0.00000000000E+00 -0.22999728187E+04  0.22999728187E+04  0.25500000920E-02 0. -1.
    10030    2    1    2    0    0  0.00000000000E+00  0.00000000000E+00 -0.14495825518E+04  0.31503630856E+04  0.27970516614E+04 0.  0.
        3    1    3    3  502    0 -0.19685446771E+03  0.50723515930E+03  0.72629294798E+03  0.90749140204E+03  0.10100000352E+00 0.  1.
       -3    1    3    3    0  502  0.19685446771E+03 -0.50723515930E+03 -0.21758754997E+04  0.22428716835E+04  0.10100000352E+00 0. -1.
</event>
<event>
 5   0  0.7388013E-06  0.2806189E+04  0.7818609E-02  0.8301350E-01
        1   -1    0    0  501    0  0.00000000000E+00  0.00000000000E+00  0.14930083210E+04  0.14930083210E+04  0.50400001928E-02 0. -1.
       -1   -1    0    0    0  501  0.00000000000E+00  0.00000000000E+00 -0.13185951221E+04  0.13185951222E+04  0.50400001928E-02 0.  1.
    10030    2    1    2    0    0  0.00000000000E+00  0.00000000000E+00  0.17441319887E+03  0.28116034432E+04  0.28061885107E+04 0.  0.
        1    1    3    3  502    0 -0.57862966585E+03 -0.12258179111E+04 -0.27575151962E+03  0.13832862112E+04  0.50400001928E-02 0.  1.
       -1    1    3    3    0  502  0.57862966585E+03  0.12258179111E+04  0.45016471848E+03  0.14283172320E+04  0.50400001928E-02 0. -1.
</event>
<event>
 5   0  0.7509685E-06  0.2707568E+04  0.7818609E-02  0.8332554E-01
        1   -1    0    0  501    0  0.00000000000E+00  0.00000000000E+00  0.14045467659E+04  0.14045467659E+04  0.50400001928E-02 0.  1.
       -1   -1    0    0    0  501  0.00000000000E+00  0.00000000000E+00 -0.13048558031E+04  0.13048558031E+04  0.50400001928E-02 0. -1.
    10030    2    1    2    0    0  0.00000000000E+00  0.00000000000E+00  0.99690962843E+02  0.27094025690E+04  0.27075679110E+04 0.  0.
        4    1    3    3  502    0 -0.73557864084E+03  0.10983367927E+04  0.34212170308E+03  0.13654554258E+04  0.12699999809E+01 0.  1.
       -4    1    3    3    0  502  0.73557864084E+03 -0.10983367927E+04 -0.24243074024E+03  0.13439471432E+04  0.12699999809E+01 0. -1.
</event>
<event>
 5   0  0.7613444E-06  0.2778916E+04  0.7818609E-02  0.8309844E-01
       -1   -1    0    0    0  501  0.00000000000E+00  0.00000000000E+00  0.10552237452E+04  0.10552237452E+04  0.50400001928E-02 0. -1.
        1   -1    0    0  501    0  0.00000000000E+00  0.00000000000E+00 -0.18295587593E+04  0.18295587593E+04  0.50400001928E-02 0.  1.
    10030    2    1    2    0    0  0.00000000000E+00  0.00000000000E+00 -0.77433501407E+03  0.28847825045E+04  0.27789162248E+04 0.  0.
        5    1    3    3  502    0  0.10215728774E+04 -0.76753828347E+03  0.17937592922E+03  0.12903193304E+04  0.46999998093E+01 0. -1.
       -5    1    3    3    0  502 -0.10215728774E+04  0.76753828347E+03 -0.95371094329E+03  0.15944631741E+04  0.46999998093E+01 0.  1.
</event>
<event>
 5   0  0.7388013E-06  0.2619820E+04  0.7818609E-02  0.8361500E-01
       -1   -1    0    0    0  501  0.00000000000E+00  0.00000000000E+00  0.67400274660E+03  0.67400274662E+03  0.50400001928E-02 0. -1.
        1   -1    0    0  501    0  0.00000000000E+00  0.00000000000E+00 -0.25457829054E+04  0.25457829054E+04  0.50400001928E-02 0.  1.
    10030    2    1    2    0    0  0.00000000000E+00  0.00000000000E+00 -0.18717801588E+04  0.32197856520E+04  0.26198203530E+04 0.  0.
        1    1    3    3  502    0  0.30087282866E+02  0.11245807757E+04 -0.17605892814E+04  0.20893208905E+04  0.50400001928E-02 0.  1.
       -1    1    3    3    0  502 -0.30087282866E+02 -0.11245807757E+04 -0.11119087738E+03  0.11304647615E+04  0.50400001928E-02 0. -1.
</event>
<event>
 5   0  0.7388013E-06  0.1771619E+04  0.7818609E-02  0.8721540E-01
        1   -1    0    0  501    0  0.00000000000E+00  0.00000000000E+00  0.68650793573E+03  0.68650793575E+03  0.50400001928E-02 0.  1.
       -1   -1    0    0    0  501  0.00000000000E+00  0.00000000000E+00 -0.11429704186E+04  0.11429704186E+04  0.50400001928E-02 0. -1.
    10030    2    1    2    0    0  0.00000000000E+00  0.00000000000E+00 -0.45646248283E+03  0.18294783543E+04  0.17716187656E+04 0.  0.
        1    1    3    3  502    0 -0.29909800395E+03 -0.47168219503E+03  0.48176572026E+03  0.73759197278E+03  0.50400001928E-02 0.  1.
       -1    1    3    3    0  502  0.29909800395E+03  0.47168219503E+03 -0.93822820309E+03  0.10918863815E+04  0.50400001928E-02 0. -1.
</event>
<event>
 5   0  0.1923559E-05  0.2663478E+04  0.7818609E-02  0.8346953E-01
       -2   -1    0    0    0  501  0.00000000000E+00  0.00000000000E+00  0.11854856289E+04  0.11854856289E+04  0.25500000920E-02 0.  1.
        2   -1    0    0  501    0  0.00000000000E+00  0.00000000000E+00 -0.14960353100E+04  0.14960353100E+04  0.25500000920E-02 0. -1.
    10030    2    1    2    0    0  0.00000000000E+00  0.00000000000E+00 -0.31054968104E+03  0.26815209389E+04  0.26634776968E+04 0.  0.
        4    1    3    3  502    0 -0.78338685361E+03 -0.10738849093E+04 -0.23708407712E+03  0.13502348808E+04  0.12699999809E+01 0. -1.
       -4    1    3    3    0  502  0.78338685361E+03  0.10738849093E+04 -0.73465603917E+02  0.13312860581E+04  0.12699999809E+01 0.  1.
</event>
<event>
 5   0  0.7509685E-06  0.2825141E+04  0.7818609E-02  0.8295505E-01
        1   -1    0    0  501    0  0.00000000000E+00  0.00000000000E+00  0.14352197952E+04  0.14352197952E+04  0.50400001928E-02 0.  1.
       -1   -1    0    0    0  501  0.00000000000E+00  0.00000000000E+00 -0.13902790272E+04  0.13902790272E+04  0.50400001928E-02 0. -1.
    10030    2    1    2    0    0  0.00000000000E+00  0.00000000000E+00  0.44940767970E+02  0.28254988225E+04  0.28251413988E+04 0.  0.
        4    1    3    3  502    0 -0.10069210211E+04  0.15017253084E+03 -0.95689435185E+03  0.13971721960E+04  0.12699999809E+01 0. -1.
       -4    1    3    3    0  502  0.10069210211E+04 -0.15017253084E+03  0.10018351198E+04  0.14283266265E+04  0.12699999809E+01 0.  1.
</event>
<event>
 5   0  0.7388013E-06  0.2415394E+04  0.7818609E-02  0.8433763E-01
        1   -1    0    0  501    0  0.00000000000E+00  0.00000000000E+00  0.76902978017E+03  0.76902978018E+03  0.50400001928E-02 0.  1.
       -1   -1    0    0    0  501  0.00000000000E+00  0.00000000000E+00 -0.18965865216E+04  0.18965865216E+04  0.50400001928E-02 0. -1.
    10030    2    1    2    0    0  0.00000000000E+00  0.00000000000E+00 -0.11275567414E+04  0.26656163018E+04  0.24153935628E+04 0.  0.
        1    1    3    3  502    0  0.94860252495E+03 -0.63370542836E+03 -0.10012006088E+04  0.15178379292E+04  0.50400001928E-02 0. -1.
       -1    1    3    3    0  502 -0.94860252495E+03  0.63370542836E+03 -0.12635613264E+03  0.11477783726E+04  0.50400001928E-02 0.  1.
</event>
<event>
 5   0  0.7555871E-06  0.2773418E+04  0.7818609E-02  0.8311569E-01
       -1   -1    0    0    0  501  0.00000000000E+00  0.00000000000E+00  0.11004521177E+04  0.11004521177E+04  0.50400001928E-02 0.  1.
        1   -1    0    0  501    0  0.00000000000E+00  0.00000000000E+00 -0.17474283480E+04  0.17474283480E+04  0.50400001928E-02 0. -1.
    10030    2    1    2    0    0  0.00000000000E+00  0.00000000000E+00 -0.64697623036E+03  0.28478804657E+04  0.27734175496E+04 0.  0.
        3    1    3    3  502    0  0.10494080478E+04  0.74090651218E+03  0.21279983216E+03  0.13021073263E+04  0.10100000352E+00 0.  1.
       -3    1    3    3    0  502 -0.10494080478E+04 -0.74090651218E+03 -0.85977606252E+03  0.15457731394E+04  0.10100000352E+00 0. -1.
</event>
<event>
 5   0  0.7613444E-06  0.2629351E+04  0.7818609E-02  0.8358299E-01
        1   -1    0    0  501    0  0.00000000000E+00  0.00000000000E+00  0.19753979198E+04  0.19753979198E+04  0.50400001928E-02 0.  1.
       -1   -1    0    0    0  501  0.00000000000E+00  0.00000000000E+00 -0.87494849820E+03  0.87494849821E+03  0.50400001928E-02 0. -1.
    10030    2    1    2    0    0  0.00000000000E+00  0.00000000000E+00  0.11004494216E+04  0.28503464180E+04  0.26293508273E+04 0.  0.
        5    1    3    3  502    0  0.10195211700E+03 -0.77001265001E+03 -0.59960161708E+03  0.98125323161E+03  0.46999998093E+01 0. -1.
       -5    1    3    3    0  502 -0.10195211700E+03  0.77001265001E+03  0.17000510386E+04  0.18690931864E+04  0.46999998093E+01 0.  1.
</event>
<event>
 5   0  0.1923559E-05  0.2796322E+04  0.7818609E-02  0.8304411E-01
        2   -1    0    0  501    0  0.00000000000E+00  0.00000000000E+00  0.83270126574E+03  0.83270126574E+03  0.25500000920E-02 0.  1.
       -2   -1    0    0    0  501  0.00000000000E+00  0.00000000000E+00 -0.23476060789E+04  0.23476060789E+04  0.25500000920E-02 0. -1.
    10030    2    1    2    0    0  0.00000000000E+00  0.00000000000E+00 -0.15149048131E+04  0.31803073446E+04  0.27963222656E+04 0.  0.
        4    1    3    3  502    0  0.74159568116E+03 -0.11805086204E+04 -0.87828772665E+03  0.16477122628E+04  0.12699999809E+01 0. -1.
       -4    1    3    3    0  502 -0.74159568116E+03  0.11805086204E+04 -0.63661708648E+03  0.15325950818E+04  0.12699999809E+01 0.  1.
</event>
<event>
 5   0  0.7681342E-06  0.2758810E+04  0.7818609E-02  0.8316172E-01
       -1   -1    0    0    0  501  0.00000000000E+00  0.00000000000E+00  0.10726155800E+04  0.10726155800E+04  0.50400001928E-02 0.  1.
        1   -1    0    0  501    0  0.00000000000E+00  0.00000000000E+00 -0.17739418572E+04  0.17739418572E+04  0.50400001928E-02 0. -1.
    10030    2    1    2    0    0  0.00000000000E+00  0.00000000000E+00 -0.70132627719E+03  0.28465574371E+04  0.27588096520E+04 0.  0.
        2    1    3    3  502    0 -0.13102349808E+04  0.41871875716E+03 -0.45747663842E+03  0.14495951080E+04  0.25500000920E-02 0. -1.
       -2    1    3    3    0  502  0.13102349808E+04 -0.41871875716E+03 -0.24384963878E+03  0.13969623291E+04  0.25500000920E-02 0.  1.
</event>
<event>
 5   0  0.7509685E-06  0.2801964E+04  0.7818609E-02  0.8302659E-01
       -1   -1    0    0    0  501  0.00000000000E+00  0.00000000000E+00  0.79216916150E+03  0.79216916152E+03  0.50400001928E-02 0.  1.
        1   -1    0    0  501    0  0.00000000000E+00  0.00000000000E+00 -0.24776906390E+04  0.24776906390E+04  0.50400001928E-02 0. -1.
    10030    2    1    2    0    0  0.00000000000E+00  0.00000000000E+00 -0.16855214775E+04  0.32698598005E+04  0.28019636800E+04 0.  0.
        4    1    3    3  502    0  0.28638412525E+01 -0.12430356669E+04 -0.15968942579E+04  0.20236646843E+04  0.12699999809E+01 0. -1.
       -4    1    3    3    0  502 -0.28638412525E+01  0.12430356669E+04 -0.88627219607E+02  0.12461951162E+04  0.12699999809E+01 0.  1.
</event>
<event>
 5   0  0.1923559E-05  0.2834074E+04  0.7818609E-02  0.8292767E-01
       -2   -1    0    0    0  501  0.00000000000E+00  0.00000000000E+00  0.11018703384E+04  0.11018703384E+04  0.25500000920E-02 0.  1.
        2   -1    0    0  501    0  0.00000000000E+00  0.00000000000E+00 -0.18223509473E+04  0.18223509473E+04  0.25500000920E-02 0. -1.
    10030    2    1    2    0    0  0.00000000000E+00  0.00000000000E+00 -0.72048060888E+03  0.29242212857E+04  0.28340744203E+04 0.  0.
        4    1    3    3  502    0 -0.57935472996E+03  0.11467431383E+04 -0.97701752183E+03  0.16140745271E+04  0.12699999809E+01 0. -1.
       -4    1    3    3    0  502  0.57935472996E+03 -0.11467431383E+04  0.25653691295E+03  0.13101467585E+04  0.12699999809E+01 0.  1.
</event>
<event>
 5   0  0.1814230E-05  0.2839219E+04  0.7818609E-02  0.8291195E-01
        2   -1    0    0  501    0  0.00000000000E+00  0.00000000000E+00  0.24603945733E+04  0.24603945733E+04  0.25500000920E-02 0. -1.
       -2   -1    0    0    0  501  0.00000000000E+00  0.00000000000E+00 -0.81909268064E+03  0.81909268065E+03  0.25500000920E-02 0.  1.
    10030    2    1    2    0    0  0.00000000000E+00  0.00000000000E+00  0.16413018926E+04  0.32794872539E+04  0.28392190380E+04 0.  0.
        5    1    3    3  502    0  0.89632231328E+02  0.49940934323E+02  0.24560968820E+04  0.24582436856E+04  0.46999998093E+01 0. -1.
       -5    1    3    3    0  502 -0.89632231328E+02 -0.49940934323E+02 -0.81479498939E+03  0.82124356834E+03  0.46999998093E+01 0.  1.
</event>
<event>
 5   0  0.7509685E-06  0.1877026E+04  0.7818609E-02  0.8666377E-01
       -1   -1    0    0    0  501  0.00000000000E+00  0.00000000000E+00  0.86152823984E+03  0.86152823985E+03  0.50400001928E-02 0. -1.
        1   -1    0    0  501    0  0.00000000000E+00  0.00000000000E+00 -0.10223765416E+04  0.10223765417E+04  0.50400001928E-02 0.  1.
    10030    2    1    2    0    0  0.00000000000E+00  0.00000000000E+00 -0.16084830181E+03  0.18839047815E+04  0.18770255858E+04 0.  0.
        4    1    3    3  502    0 -0.51706029340E+03 -0.68875445612E+03  0.29386429653E+03  0.90999554148E+03  0.12699999809E+01 0. -1.
       -4    1    3    3    0  502  0.51706029340E+03  0.68875445612E+03 -0.45471259833E+03  0.97390924003E+03  0.12699999809E+01 0.  1.
</event>
<event>
 5   0  0.1923559E-05  0.2883789E+04  0.7818609E-02  0.8277717E-01
       -2   -1    0    0    0  501  0.00000000000E+00  0.00000000000E+00  0.90479945716E+03  0.90479945716E+03  0.25500000920E-02 0.  1.
        2   -1    0    0  501    0  0.00000000000E+00  0.00000000000E+00 -0.22978134483E+04  0.22978134483E+04  0.25500000920E-02 0. -1.
    10030    2    1    2    0    0  0.00000000000E+00  0.00000000000E+00 -0.13930139911E+04  0.32026129054E+04  0.28837894241E+04 0.  0.
        4    1    3    3  502    0  0.34994044052E+03  0.29249268195E+03  0.82258271927E+03  0.94056059020E+03  0.12699999809E+01 0.  1.
       -4    1    3    3    0  502 -0.34994044052E+03 -0.29249268195E+03 -0.22155967104E+04  0.22620523152E+04  0.12699999809E+01 0. -1.
</event>
<event>
 5   0  0.1874272E-05  0.2746700E+04  0.7818609E-02  0.8320010E-01
        2   -1    0    0  501    0  0.00000000000E+00  0.00000000000E+00  0.20834653723E+04  0.20834653723E+04  0.25500000920E-02 0. -1.
       -2   -1    0    0    0  501  0.00000000000E+00  0.00000000000E+00 -0.90526574807E+03  0.90526574807E+03  0.25500000920E-02 0.  1.
    10030    2    1    2    0    0  0.00000000000E+00  0.00000000000E+00  0.11781996243E+04  0.29887311204E+04  0.27466997207E+04 0.  0.
        3    1    3    3  502    0  0.91282272902E+02  0.65578596599E+03 -0.72012814582E+03  0.97824958121E+03  0.10100000352E+00 0.  1.
       -3    1    3    3    0  502 -0.91282272902E+02 -0.65578596599E+03  0.18983277701E+04  0.20104815392E+04  0.10100000352E+00 0. -1.
</event>
<event>
 5   0  0.7613444E-06  0.2863072E+04  0.7818609E-02  0.8283950E-01
       -1   -1    0    0    0  501  0.00000000000E+00  0.00000000000E+00  0.11283836620E+04  0.11283836620E+04  0.50400001928E-02 0.  1.
        1   -1    0    0  501    0  0.00000000000E+00  0.00000000000E+00 -0.18161335960E+04  0.18161335960E+04  0.50400001928E-02 0. -1.
    10030    2    1    2    0    0  0.00000000000E+00  0.00000000000E+00 -0.68774993407E+03  0.29445172580E+04  0.28630721107E+04 0.  0.
        5    1    3    3  502    0 -0.46127826312E+03 -0.13550987004E+04 -0.35853759901E+03  0.14756833752E+04  0.46999998093E+01 0. -1.
       -5    1    3    3    0  502  0.46127826312E+03  0.13550987004E+04 -0.32921233505E+03  0.14688338828E+04  0.46999998093E+01 0.  1.
</event>
<event>
 5   0  0.1832502E-05  0.2889976E+04  0.7818609E-02  0.8275866E-01
       -2   -1    0    0    0  501  0.00000000000E+00  0.00000000000E+00  0.18702172880E+04  0.18702172880E+04  0.25500000920E-02 0. -1.
        2   -1    0    0  501    0  0.00000000000E+00  0.00000000000E+00 -0.11164430159E+04  0.11164430159E+04  0.25500000920E-02 0.  1.
    10030    2    1    2    0    0  0.00000000000E+00  0.00000000000E+00  0.75377427211E+03  0.29866603038E+04  0.28899764908E+04 0.  0.
        2    1    3    3  502    0  0.82911211353E+03 -0.11415199924E+04  0.69957709518E+03  0.15747707459E+04  0.25500000920E-02 0. -1.
       -2    1    3    3    0  502 -0.82911211353E+03  0.11415199924E+04  0.54197176934E+02  0.14118895580E+04  0.25500000920E-02 0.  1.
</event>
<event>
 5   0  0.6288000E-06  0.2693419E+04  0.7818609E-02  0.8337143E-01
        3   -1    0    0  501    0  0.00000000000E+00  0.00000000000E+00  0.12001074445E+04  0.12001074488E+04  0.10100000352E+00 0. -1.
       -3   -1    0    0    0  501  0.00000000000E+00  0.00000000000E+00 -0.15112202344E+04  0.15112202377E+04  0.10100000352E+00 0.  1.
    10030    2    1    2    0    0  0.00000000000E+00  0.00000000000E+00 -0.31111278983E+03  0.27113276865E+04  0.26934191385E+04 0.  0.
        3    1    3    3  502    0 -0.12867855380E+04  0.70166883801E+02 -0.54916290140E+03  0.14008284388E+04  0.10100000352E+00 0.  1.
       -3    1    3    3    0  502  0.12867855380E+04 -0.70166883801E+02  0.23805011158E+03  0.13104992477E+04  0.10100000352E+00 0. -1.
</event>
<event>
 5   0  0.1832502E-05  0.2863238E+04  0.7818609E-02  0.8283900E-01
       -2   -1    0    0    0  501  0.00000000000E+00  0.00000000000E+00  0.14328191422E+04  0.14328191422E+04  0.25500000920E-02 0. -1.
        2   -1    0    0  501    0  0.00000000000E+00  0.00000000000E+00 -0.14304201585E+04  0.14304201585E+04  0.25500000920E-02 0.  1.
    10030    2    1    2    0    0  0.00000000000E+00  0.00000000000E+00  0.23989837483E+01  0.28632393007E+04  0.28632382957E+04 0.  0.
        2    1    3    3  502    0 -0.11614429099E+04 -0.61314899073E+03  0.57096461408E+03  0.14320970318E+04  0.25500000920E-02 0.  1.
       -2    1    3    3    0  502  0.11614429099E+04  0.61314899073E+03 -0.56856563033E+03  0.14311422689E+04  0.25500000920E-02 0. -1.
</event>
<event>
 5   0  0.7555871E-06  0.2780560E+04  0.7818609E-02  0.8309329E-01
        1   -1    0    0  501    0  0.00000000000E+00  0.00000000000E+00  0.13630233186E+04  0.13630233186E+04  0.50400001928E-02 0. -1.
       -1   -1    0    0    0  501  0.00000000000E+00  0.00000000000E+00 -0.14180819769E+04  0.14180819769E+04  0.50400001928E-02 0.  1.
    10030    2    1    2    0    0  0.00000000000E+00  0.00000000000E+00 -0.55058658336E+02  0.27811052955E+04  0.27805602329E+04 0.  0.
        3    1    3    3  502    0  0.37802405904E+02 -0.94704898473E+03 -0.10448560355E+04  0.14106930731E+04  0.10100000352E+00 0.  1.
       -3    1    3    3    0  502 -0.37802405904E+02  0.94704898473E+03  0.98979737716E+03  0.13704122224E+04  0.10100000352E+00 0. -1.
</event>
<event>
 5   0  0.1874272E-05  0.2787396E+04  0.7818609E-02  0.8307192E-01
        2   -1    0    0  501    0  0.00000000000E+00  0.00000000000E+00  0.27650655498E+04  0.27650655498E+04  0.25500000920E-02 0.  1.
       -2   -1    0    0    0  501  0.00000000000E+00  0.00000000000E+00 -0.70247663885E+03  0.70247663885E+03  0.25500000920E-02 0. -1.
    10030    2    1    2    0    0  0.00000000000E+00  0.00000000000E+00  0.20625889109E+04  0.34675421886E+04  0.27873958840E+04 0.  0.
        3    1    3    3  502    0 -0.10232996753E+04  0.93555323514E+03  0.85540098235E+03  0.16291448468E+04  0.10100000352E+00 0.  1.
       -3    1    3    3    0  502  0.10232996753E+04 -0.93555323514E+03  0.12071879286E+04  0.18383973418E+04  0.10100000352E+00 0. -1.
</event>
<event>
 5   0  0.7509685E-06  0.2811578E+04  0.7818609E-02  0.8299683E-01
       -1   -1    0    0    0  501  0.00000000000E+00  0.00000000000E+00  0.10096422387E+04  0.10096422387E+04  0.50400001928E-02 0. -1.
        1   -1    0    0  501    0  0.00000000000E+00  0.00000000000E+00 -0.19573698599E+04  0.19573698600E+04  0.50400001928E-02 0.  1.
    10030    2    1    2    0    0  0.00000000000E+00  0.00000000000E+00 -0.94772762124E+03  0.29670120987E+04  0.28115784089E+04 0.  0.
        4    1    3    3  502    0 -0.68559751984E+03 -0.46235503746E+02 -0.17680647106E+04  0.18969017146E+04  0.12699999809E+01 0.  1.
       -4    1    3    3    0  502  0.68559751984E+03  0.46235503746E+02  0.82033708937E+03  0.10701103841E+04  0.12699999809E+01 0. -1.
</event>
<event>
 5   0  0.7388013E-06  0.2823530E+04  0.7818609E-02  0.8296000E-01
       -1   -1    0    0    0  501  0.00000000000E+00  0.00000000000E+00  0.27377678923E+04  0.27377678923E+04  0.50400001928E-02 0. -1.
        1   -1    0    0  501    0  0.00000000000E+00  0.00000000000E+00 -0.72799458937E+03  0.72799458939E+03  0.50400001928E-02 0.  1.
    10030    2    1    2    0    0  0.00000000000E+00  0.00000000000E+00  0.20097733029E+04  0.34657624817E+04  0.28235298565E+04 0.  0.
        1    1    3    3  502    0 -0.17574571458E+03  0.12019200470E+04  0.18879582838E+04  0.22449687831E+04  0.50400001928E-02 0. -1.
       -1    1    3    3    0  502  0.17574571458E+03 -0.12019200470E+04  0.12181501906E+03  0.12207936986E+04  0.50400001928E-02 0.  1.
</event>
<event>
 5   0  0.1832502E-05  0.2791473E+04  0.7818609E-02  0.8305920E-01
       -2   -1    0    0    0  501  0.00000000000E+00  0.00000000000E+00  0.12948191596E+04  0.12948191596E+04  0.25500000920E-02 0. -1.
        2   -1    0    0  501    0  0.00000000000E+00  0.00000000000E+00 -0.15045196101E+04  0.15045196101E+04  0.25500000920E-02 0.  1.
    10030    2    1    2    0    0  0.00000000000E+00  0.00000000000E+00 -0.20970045054E+03  0.27993387697E+04  0.27914733150E+04 0.  0.
        2    1    3    3  502    0  0.10509552940E+04 -0.77811881374E+02  0.81288909223E+03  0.13309208823E+04  0.25500000920E-02 0. -1.
       -2    1    3    3    0  502 -0.10509552940E+04  0.77811881374E+02 -0.10225895428E+04  0.14684178873E+04  0.25500000920E-02 0.  1.
</event>
<event>
 5   0  0.7613444E-06  0.2784956E+04  0.7818609E-02  0.8307954E-01
        1   -1    0    0  501    0  0.00000000000E+00  0.00000000000E+00  0.14867280931E+04  0.14867280931E+04  0.50400001928E-02 0.  1.
       -1   -1    0    0    0  501  0.00000000000E+00  0.00000000000E+00 -0.13042027597E+04  0.13042027597E+04  0.50400001928E-02 0. -1.
    10030    2    1    2    0    0  0.00000000000E+00  0.00000000000E+00  0.18252533344E+03  0.27909308528E+04  0.27849559293E+04 0.  0.
        5    1    3    3  502    0 -0.91402340645E+03 -0.15226858910E+03 -0.95036532528E+03  0.13273435321E+04  0.46999998093E+01 0. -1.
       -5    1    3    3    0  502  0.91402340645E+03  0.15226858910E+03  0.11328906587E+04  0.14635873207E+04  0.46999998093E+01 0.  1.
</event>
<event>
 5   0  0.1923559E-05  0.2266770E+04  0.7818609E-02  0.8491140E-01
       -2   -1    0    0    0  501  0.00000000000E+00  0.00000000000E+00  0.74379708206E+03  0.74379708207E+03  0.25500000920E-02 0. -1.
        2   -1    0    0  501    0  0.00000000000E+00  0.00000000000E+00 -0.17270325728E+04  0.17270325728E+04  0.25500000920E-02 0.  1.
    10030    2    1    2    0    0  0.00000000000E+00  0.00000000000E+00 -0.98323549073E+03  0.24708296549E+04  0.22667702030E+04 0.  0.
        4    1    3    3  502    0 -0.75479997678E+03 -0.36403665831E+03  0.34017304094E+03  0.90441417736E+03  0.12699999809E+01 0. -1.
       -4    1    3    3    0  502  0.75479997678E+03  0.36403665831E+03 -0.13234085317E+04  0.15664154775E+04  0.12699999809E+01 0.  1.
</event>
<event>
 5   0  0.1874272E-05  0.2510868E+04  0.7818609E-02  0.8399124E-01
       -2   -1    0    0    0  501  0.00000000000E+00  0.00000000000E+00  0.14813661714E+04  0.14813661714E+04  0.25500000920E-02 0. -1.
        2   -1    0    0  501    0  0.00000000000E+00  0.00000000000E+00 -0.10639598893E+04  0.10639598893E+04  0.25500000920E-02 0.  1.
    10030    2    1    2    0    0  0.00000000000E+00  0.00000000000E+00  0.41740628215E+03  0.25453260607E+04  0.25108677287E+04 0.  0.
        3    1    3    3  502    0 -0.72202193188E+03 -0.45670374041E+03  0.11412298587E+04  0.14255874498E+04  0.10100000352E+00 0. -1.
       -3    1    3    3    0  502  0.72202193188E+03  0.45670374041E+03 -0.72382357651E+03  0.11197386109E+04  0.10100000352E+00 0.  1.
</event>
<event>
 5   0  0.1814230E-05  0.2773768E+04  0.7818609E-02  0.8311459E-01
       -2   -1    0    0    0  501  0.00000000000E+00  0.00000000000E+00  0.65543191799E+03  0.65543191800E+03  0.25500000920E-02 0.  1.
        2   -1    0    0  501    0  0.00000000000E+00  0.00000000000E+00 -0.29346246746E+04  0.29346246746E+04  0.25500000920E-02 0. -1.
    10030    2    1    2    0    0  0.00000000000E+00  0.00000000000E+00 -0.22791927566E+04  0.35900565926E+04  0.27737676032E+04 0.  0.
        5    1    3    3  502    0 -0.38887637352E+03 -0.84224173150E+03  0.19473237233E+03  0.94791284145E+03  0.46999998093E+01 0.  1.
       -5    1    3    3    0  502  0.38887637352E+03  0.84224173150E+03 -0.24739251290E+04  0.26421437512E+04  0.46999998093E+01 0. -1.
</event>
<event>
 5   0  0.7509685E-06  0.2719694E+04  0.7818609E-02  0.8328643E-01
        1   -1    0    0  501    0  0.00000000000E+00  0.00000000000E+00  0.17389998432E+04  0.17389998432E+04  0.50400001928E-02 0. -1.
       -1   -1    0    0    0  501  0.00000000000E+00  0.00000000000E+00 -0.10633603932E+04  0.10633603932E+04  0.50400001928E-02 0.  1.
    10030    2    1    2    0    0  0.00000000000E+00  0.00000000000E+00  0.67563944998E+03  0.28023602364E+04  0.27196937747E+04 0.  0.
        4    1    3    3  502    0  0.14735846708E+03 -0.12788795373E+04  0.78923945879E+03  0.15100158691E+04  0.12699999809E+01 0. -1.
       -4    1    3    3    0  502 -0.14735846708E+03  0.12788795373E+04 -0.11360000881E+03  0.12923443673E+04  0.12699999809E+01 0.  1.
</event>
<event>
 5   0  0.7555871E-06  0.2735812E+04  0.7818609E-02  0.8323478E-01
       -1   -1    0    0    0  501  0.00000000000E+00  0.00000000000E+00  0.12697299904E+04  0.12697299904E+04  0.50400001928E-02 0.  1.
        1   -1    0    0  501    0  0.00000000000E+00  0.00000000000E+00 -0.14736729214E+04  0.14736729214E+04  0.50400001928E-02 0. -1.
    10030    2    1    2    0    0  0.00000000000E+00  0.00000000000E+00 -0.20394293104E+03  0.27434029119E+04  0.27358119120E+04 0.  0.
        3    1    3    3  502    0  0.78329348943E+02  0.13464299801E+04  0.12704241661E+03  0.13546767010E+04  0.10100000352E+00 0.  1.
       -3    1    3    3    0  502 -0.78329348943E+02 -0.13464299801E+04 -0.33098534766E+03  0.13887262109E+04  0.10100000352E+00 0. -1.
</event>
<event>
 5   0  0.7613444E-06  0.2588325E+04  0.7818609E-02  0.8372178E-01
       -1   -1    0    0    0  501  0.00000000000E+00  0.00000000000E+00  0.77745312475E+03  0.77745312477E+03  0.50400001928E-02 0.  1.
        1   -1    0    0  501    0  0.00000000000E+00  0.00000000000E+00 -0.21542868549E+04  0.21542868549E+04  0.50400001928E-02 0. -1.
    10030    2    1    2    0    0  0.00000000000E+00  0.00000000000E+00 -0.13768337302E+04  0.29317399797E+04  0.25883253636E+04 0.  0.
        5    1    3    3  502    0  0.37294340420E+03  0.16155039696E+03  0.70328005381E+03  0.81228704137E+03  0.46999998093E+01 0.  1.
       -5    1    3    3    0  502 -0.37294340420E+03 -0.16155039696E+03 -0.20801137840E+04  0.21194529383E+04  0.46999998093E+01 0. -1.
</event>
<event>
 5   0  0.1923559E-05  0.2760552E+04  0.7818609E-02  0.8315621E-01
        2   -1    0    0  501    0  0.00000000000E+00  0.00000000000E+00  0.22314228462E+04  0.22314228462E+04  0.25500000920E-02 0.  1.
       -2   -1    0    0    0  501  0.00000000000E+00  0.00000000000E+00 -0.85378772417E+03  0.85378772417E+03  0.25500000920E-02 0. -1.
    10030    2    1    2    0    0  0.00000000000E+00  0.00000000000E+00  0.13776351220E+04  0.30852105703E+04  0.27605517083E+04 0.  0.
        4    1    3    3  502    0  0.63434986963E+02  0.47887845795E+03 -0.75623134445E+03  0.89734944938E+03  0.12699999809E+01 0. -1.
       -4    1    3    3    0  502 -0.63434986963E+02 -0.47887845795E+03  0.21338664664E+04  0.21878611210E+04  0.12699999809E+01 0.  1.
</event>
<event>
 5   0  0.1904553E-05  0.2744011E+04  0.7818609E-02  0.8320865E-01
       -2   -1    0    0    0  501  0.00000000000E+00  0.00000000000E+00  0.13920707651E+04  0.13920707652E+04  0.25500000920E-02 0. -1.
        2   -1    0    0  501    0  0.00000000000E+00  0.00000000000E+00 -0.13522293610E+04  0.13522293610E+04  0.25500000920E-02 0.  1.
    10030    2    1    2    0    0  0.00000000000E+00  0.00000000000E+00  0.39841404159E+02  0.27443001261E+04  0.27440109047E+04 0.  0.
        1    1    3    3  502    0  0.78337049531E+03  0.10302449203E+04  0.47529828080E+03  0.13787611775E+04  0.50400001928E-02 0.  1.
       -1    1    3    3    0  502 -0.78337049531E+03 -0.10302449203E+04 -0.43545687665E+03  0.13655389486E+04  0.50400001928E-02 0. -1.
</event>
<event>
 5   0  0.1814230E-05  0.2800323E+04  0.7818609E-02  0.8303168E-01
        2   -1    0    0  501    0  0.00000000000E+00  0.00000000000E+00  0.22977900019E+04  0.22977900019E+04  0.25500000920E-02 0.  1.
       -2   -1    0    0    0  501  0.00000000000E+00  0.00000000000E+00 -0.85319040580E+03  0.85319040580E+03  0.25500000920E-02 0. -1.
    10030    2    1    2    0    0  0.00000000000E+00  0.00000000000E+00  0.14445995961E+04  0.31509804077E+04  0.28003231129E+04 0.  0.
        5    1    3    3  502    0 -0.13848839533E+04  0.18607270399E+03  0.82233485044E+03  0.16213523095E+04  0.46999998093E+01 0.  1.
       -5    1    3    3    0  502  0.13848839533E+04 -0.18607270399E+03  0.62226474568E+03  0.15296280982E+04  0.46999998093E+01 0. -1.
</event>
<event>
 5   0  0.1923559E-05  0.2836400E+04  0.7818609E-02  0.8292056E-01
        2   -1    0    0  501    0  0.00000000000E+00  0.00000000000E+00  0.28278730059E+04  0.28278730059E+04  0.25500000920E-02 0.  1.
       -2   -1    0    0    0  501  0.00000000000E+00  0.00000000000E+00 -0.71123838413E+03  0.71123838414E+03  0.25500000920E-02 0. -1.
    10030    2    1    2    0    0  0.00000000000E+00  0.00000000000E+00  0.21166346217E+04  0.35391113900E+04  0.28364004141E+04 0.  0.
        4    1    3    3  502    0 -0.14150830108E+03  0.23405642470E+02  0.28187991147E+04  0.28224461882E+04  0.12699999809E+01 0.  1.
       -4    1    3    3    0  502  0.14150830108E+03 -0.23405642470E+02 -0.70216449297E+03  0.71666520179E+03  0.12699999809E+01 0. -1.
</event>
<event>
 5   0  0.1832502E-05  0.2802271E+04  0.7818609E-02  0.8302564E-01
        2   -1    0    0  501    0  0.00000000000E+00  0.00000000000E+00  0.17362210173E+04  0.17362210173E+04  0.25500000920E-02 0.  1.
       -2   -1    0    0    0  501  0.00000000000E+00  0.00000000000E+00 -0.11307208427E+04  0.11307208427E+04  0.25500000920E-02 0. -1.
    10030    2    1    2    0    0  0.00000000000E+00  0.00000000000E+00  0.60550017463E+03  0.28669418600E+04  0.28022714300E+04 0.  0.
        2    1    3    3  502    0 -0.13257659852E+04  0.12083809524E+02  0.76639721894E+03  0.15313935364E+04  0.25500000920E-02 0.  1.
       -2    1    3    3    0  502  0.13257659852E+04 -0.12083809524E+02 -0.16089704432E+03  0.13355483237E+04  0.25500000920E-02 0. -1.
</event>
<event>
 5   0  0.1814230E-05  0.2848326E+04  0.7818609E-02  0.8288420E-01
        2   -1    0    0  501    0  0.00000000000E+00  0.00000000000E+00  0.17549291015E+04  0.17549291015E+04  0.25500000920E-02 0.  1.
       -2   -1    0    0    0  501  0.00000000000E+00  0.00000000000E+00 -0.11557390518E+04  0.11557390518E+04  0.25500000920E-02 0. -1.
    10030    2    1    2    0    0  0.00000000000E+00  0.00000000000E+00  0.59919004969E+03  0.29106681532E+04  0.28483258912E+04 0.  0.
        5    1    3    3  502    0  0.56959150884E+03 -0.12933703848E+04  0.47944883991E+03  0.14923587770E+04  0.46999998093E+01 0.  1.
       -5    1    3    3    0  502 -0.56959150884E+03  0.12933703848E+04  0.11974120978E+03  0.14183093762E+04  0.46999998093E+01 0. -1.
</event>
<event>
 5   0  0.1814230E-05  0.2797963E+04  0.7818609E-02  0.8303901E-01
        2   -1    0    0  501    0  0.00000000000E+00  0.00000000000E+00  0.22469345448E+04  0.22469345448E+04  0.25500000920E-02 0. -1.
       -2   -1    0    0    0  501  0.00000000000E+00  0.00000000000E+00 -0.87103088882E+03  0.87103088882E+03  0.25500000920E-02 0.  1.
    10030    2    1    2    0    0  0.00000000000E+00  0.00000000000E+00  0.13759036560E+04  0.31179654336E+04  0.27979631118E+04 0.  0.
        5    1    3    3  502    0  0.37460710861E+03  0.76842116563E+02  0.21875524077E+04  0.22207302455E+04  0.46999998093E+01 0. -1.
       -5    1    3    3    0  502 -0.37460710861E+03 -0.76842116563E+02 -0.81164875172E+03  0.89723518816E+03  0.46999998093E+01 0.  1.
</event>
<event>
 5   0  0.7681342E-06  0.2819354E+04  0.7818609E-02  0.8297285E-01
        1   -1    0    0  501    0  0.00000000000E+00  0.00000000000E+00  0.75174729040E+03  0.75174729042E+03  0.50400001928E-02 0. -1.
       -1   -1    0    0    0  501  0.00000000000E+00  0.00000000000E+00 -0.26434271816E+04  0.26434271817E+04  0.50400001928E-02 0.  1.
    10030    2    1    2    0    0  0.00000000000E+00  0.00000000000E+00 -0.18916798912E+04  0.33951744721E+04  0.28193539836E+04 0.  0.
        2    1    3    3  502    0 -0.32480083010E+03  0.96484473986E+03 -0.21200609089E+04  0.23518246551E+04  0.25500000920E-02 0.  1.
       -2    1    3    3    0  502  0.32480083010E+03 -0.96484473986E+03  0.22838101761E+03  0.10433498169E+04  0.25500000920E-02 0. -1.
</event>
<event>
 5   0  0.7681342E-06  0.2778053E+04  0.7818609E-02  0.8310115E-01
        1   -1    0    0  501    0  0.00000000000E+00  0.00000000000E+00  0.14413582199E+04  0.14413582199E+04  0.50400001928E-02 0. -1.
       -1   -1    0    0    0  501  0.00000000000E+00  0.00000000000E+00 -0.13385945789E+04  0.13385945789E+04  0.50400001928E-02 0.  1.
    10030    2    1    2    0    0  0.00000000000E+00  0.00000000000E+00  0.10276364096E+03  0.27799527988E+04  0.27780527709E+04 0.  0.
        2    1    3    3  502    0  0.11466368583E+03  0.13814372099E+04  0.14019934878E+03  0.13932596252E+04  0.25500000920E-02 0.  1.
       -2    1    3    3    0  502 -0.11466368583E+03 -0.13814372099E+04 -0.37435707816E+02  0.13866931737E+04  0.25500000920E-02 0. -1.
</event>
<event>
 5   0  0.7681342E-06  0.2854869E+04  0.7818609E-02  0.8286433E-01
        1   -1    0    0  501    0  0.00000000000E+00  0.00000000000E+00  0.16603700309E+04  0.16603700309E+04  0.50400001928E-02 0. -1.
       -1   -1    0    0    0  501  0.00000000000E+00  0.00000000000E+00 -0.12271780002E+04  0.12271780002E+04  0.50400001928E-02 0.  1.
    10030    2    1    2    0    0  0.00000000000E+00  0.00000000000E+00  0.43319203069E+03  0.28875480310E+04  0.28548692257E+04 0.  0.
        2    1    3    3  502    0  0.56192491242E+03 -0.84376943324E+03  0.12330184723E+04  0.15962584429E+04  0.25500000920E-02 0. -1.
       -2    1    3    3    0  502 -0.56192491242E+03  0.84376943324E+03 -0.79982644158E+03  0.12912895881E+04  0.25500000920E-02 0.  1.
</event>
<event>
 5   0  0.7613444E-06  0.2745374E+04  0.7818609E-02  0.8320431E-01
        1   -1    0    0  501    0  0.00000000000E+00  0.00000000000E+00  0.14733850052E+04  0.14733850052E+04  0.50400001928E-02 0. -1.
       -1   -1    0    0    0  501  0.00000000000E+00  0.00000000000E+00 -0.12788712371E+04  0.12788712371E+04  0.50400001928E-02 0.  1.
    10030    2    1    2    0    0  0.00000000000E+00  0.00000000000E+00  0.19451376809E+03  0.27522562422E+04  0.27453740760E+04 0.  0.
        5    1    3    3  502    0  0.11385649916E+04 -0.76172753358E+03  0.93527616725E+01  0.13699155593E+04  0.46999998093E+01 0.  1.
       -5    1    3    3    0  502 -0.11385649916E+04  0.76172753358E+03  0.18516100641E+03  0.13823406829E+04  0.46999998093E+01 0. -1.
</event>
<event>
 5   0  0.1874272E-05  0.2803623E+04  0.7818609E-02  0.8302144E-01
        2   -1    0    0  501    0  0.00000000000E+00  0.00000000000E+00  0.17192855844E+04  0.17192855844E+04  0.25500000920E-02 0.  1.
       -2   -1    0    0    0  501  0.00000000000E+00  0.00000000000E+00 -0.11429605111E+04  0.11429605111E+04  0.25500000920E-02 0. -1.
    10030    2    1    2    0    0  0.00000000000E+00  0.00000000000E+00  0.57632507335E+03  0.28622460956E+04  0.28036230348E+04 0.  0.
        3    1    3    3  502    0  0.14876322868E+03  0.13687038987E+04  0.18838379145E+02  0.13768935163E+04  0.10100000352E+00 0.  1.
       -3    1    3    3    0  502 -0.14876322868E+03 -0.13687038987E+04  0.55748669420E+03  0.14853525793E+04  0.10100000352E+00 0. -1.
</event>
<event>
 5   0  0.7555871E-06  0.2742932E+04  0.7818609E-02  0.8321208E-01
       -1   -1    0    0    0  501  0.00000000000E+00  0.00000000000E+00  0.72063032308E+03  0.72063032309E+03  0.50400001928E-02 0.  1.
        1   -1    0    0  501    0  0.00000000000E+00  0.00000000000E+00 -0.26101024665E+04  0.26101024665E+04  0.50400001928E-02 0. -1.
    10030    2    1    2    0    0  0.00000000000E+00  0.00000000000E+00 -0.18894721434E+04  0.33307327896E+04  0.27429319960E+04 0.  0.
        3    1    3    3  502    0  0.26129693000E+03  0.24864930998E+02 -0.25793184001E+04  0.25926391515E+04  0.10100000352E+00 0. -1.
       -3    1    3    3    0  502 -0.26129693000E+03 -0.24864930998E+02  0.68984625674E+03  0.73809363807E+03  0.10100000352E+00 0.  1.
</event>
<event>
 5   0  0.7681342E-06  0.2079488E+04  0.7818609E-02  0.8570333E-01
        1   -1    0    0  501    0  0.00000000000E+00  0.00000000000E+00  0.30222389740E+04  0.30222389740E+04  0.50400001928E-02 0.  1.
       -1   -1    0    0    0  501  0.00000000000E+00  0.00000000000E+00 -0.35770416680E+03  0.35770416683E+03  0.50400001928E-02 0. -1.
    10030    2    1    2    0    0  0.00000000000E+00  0.00000000000E+00  0.26645348072E+04  0.33799431408E+04  0.20794878928E+04 0.  0.
        2    1    3    3  502    0 -0.53611171809E+03 -0.82322331545E+02  0.27740699840E+04  0.28265981350E+04  0.25500000920E-02 0.  1.
       -2    1    3    3    0  502  0.53611171809E+03  0.82322331545E+02 -0.10953517680E+03  0.55334500585E+03  0.25500000920E-02 0. -1.
</event>
<event>
 5   0  0.7613444E-06  0.2808408E+04  0.7818609E-02  0.8300663E-01
       -1   -1    0    0    0  501  0.00000000000E+00  0.00000000000E+00  0.12399591936E+04  0.12399591936E+04  0.50400001928E-02 0. -1.
        1   -1    0    0  501    0  0.00000000000E+00  0.00000000000E+00 -0.15902046171E+04  0.15902046171E+04  0.50400001928E-02 0.  1.
    10030    2    1    2    0    0  0.00000000000E+00  0.00000000000E+00 -0.35024542347E+03  0.28301638108E+04  0.28084079723E+04 0.  0.
        5    1    3    3  502    0 -0.47666328060E+03  0.67817590453E+03  0.96707548902E+03  0.12737297720E+04  0.46999998093E+01 0. -1.
       -5    1    3    3    0  502  0.47666328060E+03 -0.67817590453E+03 -0.13173209125E+04  0.15564340388E+04  0.46999998093E+01 0.  1.
</event>
<event>
 5   0  0.1832502E-05  0.1990999E+04  0.7818609E-02  0.8610841E-01
       -2   -1    0    0    0  501  0.00000000000E+00  0.00000000000E+00  0.84830718995E+03  0.84830718996E+03  0.25500000920E-02 0.  1.
        2   -1    0    0  501    0  0.00000000000E+00  0.00000000000E+00 -0.11682315038E+04  0.11682315038E+04  0.25500000920E-02 0. -1.
    10030    2    1    2    0    0  0.00000000000E+00  0.00000000000E+00 -0.31992431382E+03  0.20165386937E+04  0.19909989294E+04 0.  0.
        2    1    3    3  502    0 -0.45280181894E+03 -0.30224821694E+03  0.68417707900E+03  0.87434646869E+03  0.25500000920E-02 0.  1.
       -2    1    3    3    0  502  0.45280181894E+03  0.30224821694E+03 -0.10041013928E+04  0.11421922250E+04  0.25500000920E-02 0. -1.
</event>
<event>
 5   0  0.1923559E-05  0.2753157E+04  0.7818609E-02  0.8317961E-01
        2   -1    0    0  501    0  0.00000000000E+00  0.00000000000E+00  0.12001623797E+04  0.12001623797E+04  0.25500000920E-02 0.  1.
       -2   -1    0    0    0  501  0.00000000000E+00  0.00000000000E+00 -0.15789267400E+04  0.15789267400E+04  0.25500000920E-02 0. -1.
    10030    2    1    2    0    0  0.00000000000E+00  0.00000000000E+00 -0.37876436026E+03  0.27790891197E+04  0.27531570777E+04 0.  0.
        4    1    3    3  502    0 -0.22388200706E+03  0.13486656951E+04 -0.35197245252E+03  0.14117041229E+04  0.12699999809E+01 0. -1.
       -4    1    3    3    0  502  0.22388200706E+03 -0.13486656951E+04 -0.26791907746E+02  0.13673849968E+04  0.12699999809E+01 0.  1.
</event>
<event>
 5   0  0.7555871E-06  0.2953113E+04  0.7818609E-02  0.8257248E-01
       -1   -1    0    0    0  501  0.00000000000E+00  0.00000000000E+00  0.96039715633E+03  0.96039715635E+03  0.50400001928E-02 0.  1.
        1   -1    0    0  501    0  0.00000000000E+00  0.00000000000E+00 -0.22701230789E+04  0.22701230789E+04  0.50400001928E-02 0. -1.
    10030    2    1    2    0    0  0.00000000000E+00  0.00000000000E+00 -0.13097259226E+04  0.32305202353E+04  0.29531134415E+04 0.  0.
        3    1    3    3  502    0  0.31762700195E+03  0.64838381370E+02  0.92098700029E+03  0.97637492439E+03  0.10100000352E+00 0.  1.
       -3    1    3    3    0  502 -0.31762700195E+03 -0.64838381370E+02 -0.22307129229E+04  0.22541453109E+04  0.10100000352E+00 0. -1.
</event>
<event>
 5   0  0.1832502E-05  0.2915370E+04  0.7818609E-02  0.8268319E-01
       -2   -1    0    0    0  501  0.00000000000E+00  0.00000000000E+00  0.12295146969E+04  0.12295146969E+04  0.25500000920E-02 0. -1.
        2   -1    0    0  501    0  0.00000000000E+00  0.00000000000E+00 -0.17281984484E+04  0.17281984484E+04  0.25500000920E-02 0.  1.
    10030    2    1    2    0    0  0.00000000000E+00  0.00000000000E+00 -0.49868375146E+03  0.29577131453E+04  0.29153698849E+04 0.  0.
        2    1    3    3  502    0  0.14199987206E+04 -0.19547090531E+03 -0.51821977363E+03  0.15241905967E+04  0.25500000920E-02 0.  1.
       -2    1    3    3    0  502 -0.14199987206E+04  0.19547090531E+03  0.19536022180E+02  0.14335225486E+04  0.25500000920E-02 0. -1.
</event>
<event>
 5   0  0.7613444E-06  0.2823941E+04  0.7818609E-02  0.8295874E-01
       -1   -1    0    0    0  501  0.00000000000E+00  0.00000000000E+00  0.14538355855E+04  0.14538355855E+04  0.50400001928E-02 0. -1.
        1   -1    0    0  501    0  0.00000000000E+00  0.00000000000E+00 -0.13713109422E+04  0.13713109422E+04  0.50400001928E-02 0.  1.
    10030    2    1    2    0    0  0.00000000000E+00  0.00000000000E+00  0.82524643239E+02  0.28251465277E+04  0.28239409672E+04 0.  0.
        5    1    3    3  502    0 -0.41940885111E+03  0.31408621898E+03  0.13529607288E+04  0.14508889555E+04  0.46999998093E+01 0. -1.
       -5    1    3    3    0  502  0.41940885111E+03 -0.31408621898E+03 -0.12704360856E+04  0.13742575723E+04  0.46999998093E+01 0.  1.
</event>
<event>
 5   0  0.7509685E-06  0.2797120E+04  0.7818609E-02  0.8304163E-01
        1   -1    0    0  501    0  0.00000000000E+00  0.00000000000E+00  0.60533614156E+03  0.60533614158E+03  0.50400001928E-02 0.  1.
       -1   -1    0    0    0  501  0.00000000000E+00  0.00000000000E+00 -0.32312132389E+04  0.32312132390E+04  0.50400001928E-02 0. -1.
    10030    2    1    2    0    0  0.00000000000E+00  0.00000000000E+00 -0.26258770974E+04  0.38365493805E+04  0.27971200580E+04 0.  0.
        4    1    3    3  502    0  0.63913689082E+03  0.49807069299E+03  0.25057197523E+03  0.84814993256E+03  0.12699999809E+01 0.  1.
       -4    1    3    3    0  502 -0.63913689082E+03 -0.49807069299E+03 -0.28764490726E+04  0.29883994480E+04  0.12699999809E+01 0. -1.
</event>
<event>
 5   0  0.7681342E-06  0.2996564E+04  0.7818609E-02  0.8244713E-01
        1   -1    0    0  501    0  0.00000000000E+00  0.00000000000E+00  0.15283379152E+04  0.15283379152E+04  0.50400001928E-02 0. -1.
       -1   -1    0    0    0  501  0.00000000000E+00  0.00000000000E+00 -0.14688168829E+04  0.14688168829E+04  0.50400001928E-02 0.  1.
    10030    2    1    2    0    0  0.00000000000E+00  0.00000000000E+00  0.59521032362E+02  0.29971547981E+04  0.29965637204E+04 0.  0.
        2    1    3    3  502    0 -0.13722318885E+04 -0.45073553666E+02 -0.57018823721E+03  0.14866629096E+04  0.25500000920E-02 0.  1.
       -2    1    3    3    0  502  0.13722318885E+04  0.45073553666E+02  0.62970926957E+03  0.15104918885E+04  0.25500000920E-02 0. -1.
</event>
<event>
 5   0  0.7613444E-06  0.2853112E+04  0.7818609E-02  0.8286966E-01
       -1   -1    0    0    0  501  0.00000000000E+00  0.00000000000E+00  0.13590490762E+04  0.13590490762E+04  0.50400001928E-02 0.  1.
        1   -1    0    0  501    0  0.00000000000E+00  0.00000000000E+00 -0.14974158212E+04  0.14974158212E+04  0.50400001928E-02 0. -1.
    10030    2    1    2    0    0  0.00000000000E+00  0.00000000000E+00 -0.13836674501E+03  0.28564648974E+04  0.28531116967E+04 0.  0.
        5    1    3    3  502    0 -0.13730117913E+04  0.12093376525E+03  0.29901664231E+03  0.14103968934E+04  0.46999998093E+01 0.  1.
       -5    1    3    3    0  502  0.13730117913E+04 -0.12093376525E+03 -0.43738338732E+03  0.14460680040E+04  0.46999998093E+01 0. -1.
</event>
<event>
 5   0  0.7388013E-06  0.2955968E+04  0.7818609E-02  0.8256418E-01
       -1   -1    0    0    0  501  0.00000000000E+00  0.00000000000E+00  0.10539326205E+04  0.10539326205E+04  0.50400001928E-02 0.  1.
        1   -1    0    0  501    0  0.00000000000E+00  0.00000000000E+00 -0.20726524833E+04  0.20726524834E+04  0.50400001928E-02 0. -1.
    10030    2    1    2    0    0  0.00000000000E+00  0.00000000000E+00 -0.10187198629E+04  0.31265851038E+04  0.29559675662E+04 0.  0.
        1    1    3    3  502    0  0.67140793638E+03  0.15736399651E+03 -0.18920564968E+04  0.20138097803E+04  0.50400001928E-02 0. -1.
       -1    1    3    3    0  502 -0.67140793638E+03 -0.15736399651E+03  0.87333663388E+03  0.11127753235E+04  0.50400001928E-02 0.  1.
</event>
<event>
 5   0  0.1874272E-05  0.2854400E+04  0.7818609E-02  0.8286576E-01
       -2   -1    0    0    0  501  0.00000000000E+00  0.00000000000E+00  0.14661109546E+04  0.14661109546E+04  0.25500000920E-02 0.  1.
        2   -1    0    0  501    0  0.00000000000E+00  0.00000000000E+00 -0.13893213276E+04  0.13893213276E+04  0.25500000920E-02 0. -1.
    10030    2    1    2    0    0  0.00000000000E+00  0.00000000000E+00  0.76789626952E+02  0.28554322822E+04  0.28543995641E+04 0.  0.
        3    1    3    3  502    0 -0.22004917361E+03  0.13778916124E+04 -0.26153406291E+03  0.14196503128E+04  0.10100000352E+00 0. -1.
       -3    1    3    3    0  502  0.22004917361E+03 -0.13778916124E+04  0.33832368986E+03  0.14357819694E+04  0.10100000352E+00 0.  1.
</event>
<event>
 5   0  0.1874272E-05  0.2733418E+04  0.7818609E-02  0.8324243E-01
        2   -1    0    0  501    0  0.00000000000E+00  0.00000000000E+00  0.19450286951E+04  0.19450286951E+04  0.25500000920E-02 0.  1.
       -2   -1    0    0    0  501  0.00000000000E+00  0.00000000000E+00 -0.96034260184E+03  0.96034260184E+03  0.25500000920E-02 0. -1.
    10030    2    1    2    0    0  0.00000000000E+00  0.00000000000E+00  0.98468609326E+03  0.29053712969E+04  0.27334183125E+04 0.  0.
        3    1    3    3  502    0  0.33195009107E+03 -0.13188752123E+04  0.63601741672E+03  0.15013796499E+04  0.10100000352E+00 0.  1.
       -3    1    3    3    0  502 -0.33195009107E+03  0.13188752123E+04  0.34866867653E+03  0.14039916470E+04  0.10100000352E+00 0. -1.
</event>
<event>
 5   0  0.7613444E-06  0.2751827E+04  0.7818609E-02  0.8318382E-01
       -1   -1    0    0    0  501  0.00000000000E+00  0.00000000000E+00  0.11312806799E+04  0.11312806799E+04  0.50400001928E-02 0. -1.
        1   -1    0    0  501    0  0.00000000000E+00  0.00000000000E+00 -0.16734463852E+04  0.16734463852E+04  0.50400001928E-02 0.  1.
    10030    2    1    2    0    0  0.00000000000E+00  0.00000000000E+00 -0.54216570532E+03  0.28047270652E+04  0.27518267129E+04 0.  0.
        5    1    3    3  502    0  0.62666875169E+03  0.70886638180E+03 -0.12892410325E+04  0.15991778517E+04  0.46999998093E+01 0.  1.
       -5    1    3    3    0  502 -0.62666875169E+03 -0.70886638180E+03  0.74707532716E+03  0.12055492134E+04  0.46999998093E+01 0. -1.
</event>
<event>
 5   0  0.7555871E-06  0.3018148E+04  0.7818609E-02  0.8238568E-01
       -1   -1    0    0    0  501  0.00000000000E+00  0.00000000000E+00  0.13726873062E+04  0.13726873063E+04  0.50400001928E-02 0.  1.
        1   -1    0    0  501    0  0.00000000000E+00  0.00000000000E+00 -0.16590115135E+04  0.16590115136E+04  0.50400001928E-02 0. -1.
    10030    2    1    2    0    0  0.00000000000E+00  0.00000000000E+00 -0.28632420730E+03  0.30316988198E+04  0.30181478066E+04 0.  0.
        3    1    3    3  502    0  0.19774892715E+03  0.72227652574E+03 -0.14592032881E+04  0.16401409281E+04  0.10100000352E+00 0. -1.
       -3    1    3    3    0  502 -0.19774892715E+03 -0.72227652574E+03  0.11728790808E+04  0.13915578918E+04  0.10100000352E+00 0.  1.
</event>
<event>
 5   0  0.7555871E-06  0.2791092E+04  0.7818609E-02  0.8306039E-01
        1   -1    0    0  501    0  0.00000000000E+00  0.00000000000E+00  0.17040735632E+04  0.17040735632E+04  0.50400001928E-02 0. -1.
       -1   -1    0    0    0  501  0.00000000000E+00  0.00000000000E+00 -0.11428785481E+04  0.11428785481E+04  0.50400001928E-02 0.  1.
    10030    2    1    2    0    0  0.00000000000E+00  0.00000000000E+00  0.56119501511E+03  0.28469521113E+04  0.27910923452E+04 0.  0.
        3    1    3    3  502    0  0.80412511371E+03  0.69512248628E+03 -0.64178845516E+03  0.12416540987E+04  0.10100000352E+00 0.  1.
       -3    1    3    3    0  502 -0.80412511371E+03 -0.69512248628E+03  0.12029834703E+04  0.16052980126E+04  0.10100000352E+00 0. -1.
</event>
<event>
 5   0  0.1832502E-05  0.2846856E+04  0.7818609E-02  0.8288867E-01
        2   -1    0    0  501    0  0.00000000000E+00  0.00000000000E+00  0.13892623995E+04  0.13892623995E+04  0.25500000920E-02 0. -1.
       -2   -1    0    0    0  501  0.00000000000E+00  0.00000000000E+00 -0.14584338873E+04  0.14584338873E+04  0.25500000920E-02 0.  1.
    10030    2    1    2    0    0  0.00000000000E+00  0.00000000000E+00 -0.69171487778E+02  0.28476962867E+04  0.28468560636E+04 0.  0.
        2    1    3    3  502    0 -0.97752007084E+03  0.14405611409E+03  0.99033840308E+03  0.13989523957E+04  0.25500000920E-02 0. -1.
       -2    1    3    3    0  502  0.97752007084E+03 -0.14405611409E+03 -0.10595098909E+04  0.14487438910E+04  0.25500000920E-02 0.  1.
</event>
<event>
 5   0  0.1832502E-05  0.2777668E+04  0.7818609E-02  0.8310235E-01
        2   -1    0    0  501    0  0.00000000000E+00  0.00000000000E+00  0.18709011392E+04  0.18709011392E+04  0.25500000920E-02 0.  1.
       -2   -1    0    0    0  501  0.00000000000E+00  0.00000000000E+00 -0.10309787788E+04  0.10309787788E+04  0.25500000920E-02 0. -1.
    10030    2    1    2    0    0  0.00000000000E+00  0.00000000000E+00  0.83992236035E+03  0.29018799180E+04  0.27776676344E+04 0.  0.
        2    1    3    3  502    0  0.47993195734E+03  0.99453628849E+03 -0.45997578851E+03  0.11962503245E+04  0.25500000920E-02 0. -1.
       -2    1    3    3    0  502 -0.47993195734E+03 -0.99453628849E+03  0.12998981489E+04  0.17056295935E+04  0.25500000920E-02 0.  1.
</event>
<event>
 5   0  0.7509685E-06  0.2782377E+04  0.7818609E-02  0.8308760E-01
       -1   -1    0    0    0  501  0.00000000000E+00  0.00000000000E+00  0.99497754763E+03  0.99497754764E+03  0.50400001928E-02 0.  1.
        1   -1    0    0  501    0  0.00000000000E+00  0.00000000000E+00 -0.19451752428E+04  0.19451752428E+04  0.50400001928E-02 0. -1.
    10030    2    1    2    0    0  0.00000000000E+00  0.00000000000E+00 -0.95019769516E+03  0.29401527904E+04  0.27823771799E+04 0.  0.
        4    1    3    3  502    0 -0.47744376785E+03  0.11096518606E+04  0.25404641786E+03  0.12344314475E+04  0.12699999809E+01 0.  1.
       -4    1    3    3    0  502  0.47744376785E+03 -0.11096518606E+04 -0.12042441130E+04  0.17057213430E+04  0.12699999809E+01 0. -1.
</event>
<event>
 5   0  0.1904553E-05  0.3044325E+04  0.7818609E-02  0.8231186E-01
        2   -1    0    0  501    0  0.00000000000E+00  0.00000000000E+00  0.17943901519E+04  0.17943901519E+04  0.25500000920E-02 0. -1.
       -2   -1    0    0    0  501  0.00000000000E+00  0.00000000000E+00 -0.12912346572E+04  0.12912346572E+04  0.25500000920E-02 0.  1.
    10030    2    1    2    0    0  0.00000000000E+00  0.00000000000E+00  0.50315549465E+03  0.30856248091E+04  0.30443250501E+04 0.  0.
        1    1    3    3  502    0 -0.57698692972E+03 -0.13611441204E+04 -0.11576345773E+03  0.14829121389E+04  0.50400001928E-02 0.  1.
       -1    1    3    3    0  502  0.57698692972E+03  0.13611441204E+04  0.61891895237E+03  0.16027126702E+04  0.50400001928E-02 0. -1.
</event>
<event>
 5   0  0.1814230E-05  0.2783210E+04  0.7818609E-02  0.8308500E-01
       -2   -1    0    0    0  501  0.00000000000E+00  0.00000000000E+00  0.10619767671E+04  0.10619767671E+04  0.25500000920E-02 0.  1.
        2   -1    0    0  501    0  0.00000000000E+00  0.00000000000E+00 -0.18235469538E+04  0.18235469538E+04  0.25500000920E-02 0. -1.
    10030    2    1    2    0    0  0.00000000000E+00  0.00000000000E+00 -0.76157018664E+03  0.28855237209E+04  0.27832100163E+04 0.  0.
        5    1    3    3  502    0 -0.34620493814E+03 -0.12222277154E+04 -0.96986607760E+03  0.15982367615E+04  0.46999998093E+01 0.  1.
       -5    1    3    3    0  502  0.34620493814E+03  0.12222277154E+04  0.20829589096E+03  0.12872869593E+04  0.46999998093E+01 0. -1.
</event>
<event>
 5   0  0.1814230E-05  0.2817683E+04  0.7818609E-02  0.8297799E-01
       -2   -1    0    0    0  501  0.00000000000E+00  0.00000000000E+00  0.20329567136E+04  0.20329567136E+04  0.25500000920E-02 0. -1.
        2   -1    0    0  501    0  0.00000000000E+00  0.00000000000E+00 -0.97632906266E+03  0.97632906266E+03  0.25500000920E-02 0.  1.
    10030    2    1    2    0    0  0.00000000000E+00  0.00000000000E+00  0.10566276509E+04  0.30092857762E+04  0.28176832488E+04 0.  0.
        5    1    3    3  502    0  0.47298679238E+02 -0.11025727316E+04 -0.40696937575E+03  0.11762440037E+04  0.46999998093E+01 0. -1.
       -5    1    3    3    0  502 -0.47298679238E+02  0.11025727316E+04  0.14635970267E+04  0.18330417725E+04  0.46999998093E+01 0.  1.
</event>
<event>
 5   0  0.1832502E-05  0.2787958E+04  0.7818609E-02  0.8307017E-01
        2   -1    0    0  501    0  0.00000000000E+00  0.00000000000E+00  0.11817151096E+04  0.11817151096E+04  0.25500000920E-02 0. -1.
       -2   -1    0    0    0  501  0.00000000000E+00  0.00000000000E+00 -0.16443707663E+04  0.16443707663E+04  0.25500000920E-02 0.  1.
    10030    2    1    2    0    0  0.00000000000E+00  0.00000000000E+00 -0.46265565669E+03  0.28260858759E+04  0.27879582352E+04 0.  0.
        2    1    3    3  502    0 -0.14999319921E+03  0.92319827281E+03 -0.12790905319E+04  0.15845711090E+04  0.25500000920E-02 0.  1.
       -2    1    3    3    0  502  0.14999319921E+03 -0.92319827281E+03  0.81643487526E+03  0.12415147668E+04  0.25500000920E-02 0. -1.
</event>
<event>
 5   0  0.6288000E-06  0.2775842E+04  0.7818609E-02  0.8310808E-01
       -3   -1    0    0    0  501  0.00000000000E+00  0.00000000000E+00  0.16819486366E+04  0.16819486396E+04  0.10100000352E+00 0. -1.
        3   -1    0    0  501    0  0.00000000000E+00  0.00000000000E+00 -0.11452937821E+04  0.11452937866E+04  0.10100000352E+00 0.  1.
    10030    2    1    2    0    0  0.00000000000E+00  0.00000000000E+00  0.53665485447E+03  0.28272424262E+04  0.27758424493E+04 0.  0.
        4    1    3    3  502    0  0.13140903235E+04 -0.13422734898E+03 -0.16555760510E+03  0.13312630443E+04  0.12699999809E+01 0.  1.
       -4    1    3    3    0  502 -0.13140903235E+04  0.13422734898E+03  0.70221245957E+03  0.14959793818E+04  0.12699999809E+01 0. -1.
</event>
<event>
 5   0  0.1874272E-05  0.2625725E+04  0.7818609E-02  0.8359515E-01
       -2   -1    0    0    0  501  0.00000000000E+00  0.00000000000E+00  0.11859169317E+04  0.11859169317E+04  0.25500000920E-02 0. -1.
        2   -1    0    0  501    0  0.00000000000E+00  0.00000000000E+00 -0.14533965021E+04  0.14533965021E+04  0.25500000920E-02 0.  1.
    10030    2    1    2    0    0  0.00000000000E+00  0.00000000000E+00 -0.26747957040E+03  0.26393134337E+04  0.26257246773E+04 0.  0.
        3    1    3    3  502    0  0.62260420731E+03 -0.86354320820E+03  0.63852310435E+03  0.12413922170E+04  0.10100000352E+00 0. -1.
       -3    1    3    3    0  502 -0.62260420731E+03  0.86354320820E+03 -0.90600267475E+03  0.13979212167E+04  0.10100000352E+00 0.  1.
</event>
<event>
 5   0  0.7555871E-06  0.2162945E+04  0.7818609E-02  0.8534011E-01
        1   -1    0    0  501    0  0.00000000000E+00  0.00000000000E+00  0.19663787488E+04  0.19663787488E+04  0.50400001928E-02 0.  1.
       -1   -1    0    0    0  501  0.00000000000E+00  0.00000000000E+00 -0.59479037905E+03  0.59479037907E+03  0.50400001928E-02 0. -1.
    10030    2    1    2    0    0  0.00000000000E+00  0.00000000000E+00  0.13715883698E+04  0.25611691279E+04  0.21629453635E+04 0.  0.
        3    1    3    3  502    0  0.87543252231E+03  0.51981298186E+03  0.25396578092E+03  0.10493265771E+04  0.10100000352E+00 0. -1.
       -3    1    3    3    0  502 -0.87543252231E+03 -0.51981298186E+03  0.11176225889E+04  0.15118425508E+04  0.10100000352E+00 0.  1.
</event>
<event>
 5   0  0.1923559E-05  0.2812357E+04  0.7818609E-02  0.8299442E-01
       -2   -1    0    0    0  501  0.00000000000E+00  0.00000000000E+00  0.12640121908E+04  0.12640121908E+04  0.25500000920E-02 0. -1.
        2   -1    0    0  501    0  0.00000000000E+00  0.00000000000E+00 -0.15643341009E+04  0.15643341009E+04  0.25500000920E-02 0.  1.
    10030    2    1    2    0    0  0.00000000000E+00  0.00000000000E+00 -0.30032191010E+03  0.28283462916E+04  0.28123565733E+04 0.  0.
        4    1    3    3  502    0 -0.64583589356E+03 -0.68146032793E+03 -0.12029381833E+04  0.15259600472E+04  0.12699999809E+01 0.  1.
       -4    1    3    3    0  502  0.64583589356E+03  0.68146032793E+03  0.90261627323E+03  0.13023862444E+04  0.12699999809E+01 0. -1.
</event>
<event>
 5   0  0.7681342E-06  0.2697028E+04  0.7818609E-02  0.8335970E-01
       -1   -1    0    0    0  501  0.00000000000E+00  0.00000000000E+00  0.10672421268E+04  0.10672421268E+04  0.50400001928E-02 0.  1.
        1   -1    0    0  501    0  0.00000000000E+00  0.00000000000E+00 -0.17039156504E+04  0.17039156504E+04  0.50400001928E-02 0. -1.
    10030    2    1    2    0    0  0.00000000000E+00  0.00000000000E+00 -0.63667352360E+03  0.27711577773E+04  0.26970284112E+04 0.  0.
        2    1    3    3  502    0 -0.10881227657E+04 -0.76498002942E+03 -0.54644078948E+03  0.14379857910E+04  0.25500000920E-02 0. -1.
       -2    1    3    3    0  502  0.10881227657E+04  0.76498002942E+03 -0.90232734114E+02  0.13331719863E+04  0.25500000920E-02 0.  1.
</event>
<event>
 5   0  0.7388013E-06  0.2813084E+04  0.7818609E-02  0.8299218E-01
        1   -1    0    0  501    0  0.00000000000E+00  0.00000000000E+00  0.16744164546E+04  0.16744164546E+04  0.50400001928E-02 0. -1.
       -1   -1    0    0    0  501  0.00000000000E+00  0.00000000000E+00 -0.11815227125E+04  0.11815227125E+04  0.50400001928E-02 0.  1.
    10030    2    1    2    0    0  0.00000000000E+00  0.00000000000E+00  0.49289374212E+03  0.28559391671E+04  0.28130844788E+04 0.  0.
        1    1    3    3  502    0 -0.59408558203E+03  0.12745011740E+04  0.27965836998E+03  0.14337014073E+04  0.50400001928E-02 0.  1.
       -1    1    3    3    0  502  0.59408558203E+03 -0.12745011740E+04  0.21323537214E+03  0.14222377598E+04  0.50400001928E-02 0. -1.
</event>
<event>
 5   0  0.1814230E-05  0.2712765E+04  0.7818609E-02  0.8330875E-01
       -2   -1    0    0    0  501  0.00000000000E+00  0.00000000000E+00  0.88314383967E+03  0.88314383967E+03  0.25500000920E-02 0. -1.
        2   -1    0    0  501    0  0.00000000000E+00  0.00000000000E+00 -0.20832095735E+04  0.20832095735E+04  0.25500000920E-02 0.  1.
    10030    2    1    2    0    0  0.00000000000E+00  0.00000000000E+00 -0.12000657339E+04  0.29663534132E+04  0.27127651587E+04 0.  0.
        5    1    3    3  502    0  0.62448104893E+03  0.96308670233E+03 -0.13902480284E+04  0.18028655655E+04  0.46999998093E+01 0.  1.
       -5    1    3    3    0  502 -0.62448104893E+03 -0.96308670233E+03  0.19018229454E+03  0.11634878477E+04  0.46999998093E+01 0. -1.
</event>
<event>
 5   0  0.7613444E-06  0.2823299E+04  0.7818609E-02  0.8296071E-01
       -1   -1    0    0    0  501  0.00000000000E+00  0.00000000000E+00  0.11053401160E+04  0.11053401160E+04  0.50400001928E-02 0.  1.
        1   -1    0    0  501    0  0.00000000000E+00  0.00000000000E+00 -0.18028430167E+04  0.18028430167E+04  0.50400001928E-02 0. -1.
    10030    2    1    2    0    0  0.00000000000E+00  0.00000000000E+00 -0.69750290062E+03  0.29081831327E+04  0.28232992822E+04 0.  0.
        5    1    3    3  502    0 -0.55248745172E+03  0.26957316152E+03 -0.16577132327E+04  0.17680348768E+04  0.46999998093E+01 0. -1.
       -5    1    3    3    0  502  0.55248745172E+03 -0.26957316152E+03  0.96021033206E+03  0.11401482559E+04  0.46999998093E+01 0.  1.
</event>
<event>
 5   0  0.1874272E-05  0.2786641E+04  0.7818609E-02  0.8307428E-01
        2   -1    0    0  501    0  0.00000000000E+00  0.00000000000E+00  0.16710984310E+04  0.16710984310E+04  0.25500000920E-02 0. -1.
       -2   -1    0    0    0  501  0.00000000000E+00  0.00000000000E+00 -0.11617164418E+04  0.11617164418E+04  0.25500000920E-02 0.  1.
    10030    2    1    2    0    0  0.00000000000E+00  0.00000000000E+00  0.50938198918E+03  0.28328148728E+04  0.27866413642E+04 0.  0.
        3    1    3    3  502    0  0.10876550310E+02  0.15351930756E+03  0.16624310574E+04  0.16695399091E+04  0.10100000352E+00 0. -1.
       -3    1    3    3    0  502 -0.10876550310E+02 -0.15351930756E+03 -0.11530490682E+04  0.11632749637E+04  0.10100000352E+00 0.  1.
</event>
<event>
 5   0  0.1904553E-05  0.2719168E+04  0.7818609E-02  0.8328812E-01
       -2   -1    0    0    0  501  0.00000000000E+00  0.00000000000E+00  0.11774258934E+04  0.11774258934E+04  0.25500000920E-02 0.  1.
        2   -1    0    0  501    0  0.00000000000E+00  0.00000000000E+00 -0.15699230243E+04  0.15699230243E+04  0.25500000920E-02 0. -1.
    10030    2    1    2    0    0  0.00000000000E+00  0.00000000000E+00 -0.39249713082E+03  0.27473489177E+04  0.27191675340E+04 0.  0.
        1    1    3    3  502    0 -0.70327314798E+03  0.56158808566E+03 -0.12258752516E+04  0.15207709989E+04  0.50400001928E-02 0. -1.
       -1    1    3    3    0  502  0.70327314798E+03 -0.56158808566E+03  0.83337812077E+03  0.12265779188E+04  0.50400001928E-02 0.  1.
</event>
<event>
 5   0  0.7681342E-06  0.2656734E+04  0.7818609E-02  0.8349181E-01
        1   -1    0    0  501    0  0.00000000000E+00  0.00000000000E+00  0.25578526424E+04  0.25578526424E+04  0.50400001928E-02 0.  1.
       -1   -1    0    0    0  501  0.00000000000E+00  0.00000000000E+00 -0.68985961844E+03  0.68985961846E+03  0.50400001928E-02 0. -1.
    10030    2    1    2    0    0  0.00000000000E+00  0.00000000000E+00  0.18679930240E+04  0.32477122609E+04  0.26567342720E+04 0.  0.
        2    1    3    3  502    0 -0.50706606612E+03  0.11532032648E+04  0.41887617097E+03  0.13275733547E+04  0.25500000920E-02 0. -1.
       -2    1    3    3    0  502  0.50706606612E+03 -0.11532032648E+04  0.14491168530E+04  0.19201389062E+04  0.25500000920E-02 0.  1.
</event>
<event>
 5   0  0.7681342E-06  0.2815346E+04  0.7818609E-02  0.8298520E-01
       -1   -1    0    0    0  501  0.00000000000E+00  0.00000000000E+00  0.79920420169E+03  0.79920420171E+03  0.50400001928E-02 0.  1.
        1   -1    0    0  501    0  0.00000000000E+00  0.00000000000E+00 -0.24793961420E+04  0.24793961420E+04  0.50400001928E-02 0. -1.
    10030    2    1    2    0    0  0.00000000000E+00  0.00000000000E+00 -0.16801919403E+04  0.32786003437E+04  0.28153463832E+04 0.  0.
        2    1    3    3  502    0  0.10951366844E+04 -0.68107561883E+03 -0.18302422135E+03  0.13025690852E+04  0.25500000920E-02 0.  1.
       -2    1    3    3    0  502 -0.10951366844E+04  0.68107561883E+03 -0.14971677190E+04  0.19760312586E+04  0.25500000920E-02 0. -1.
</event>
<event>
 5   0  0.1874272E-05  0.2843071E+04  0.7818609E-02  0.8290020E-01
        2   -1    0    0  501    0  0.00000000000E+00  0.00000000000E+00  0.15491076808E+04  0.15491076809E+04  0.25500000920E-02 0.  1.
       -2   -1    0    0    0  501  0.00000000000E+00  0.00000000000E+00 -0.13044691332E+04  0.13044691332E+04  0.25500000920E-02 0. -1.
    10030    2    1    2    0    0  0.00000000000E+00  0.00000000000E+00  0.24463854766E+03  0.28535768140E+04  0.28430709830E+04 0.  0.
        3    1    3    3  502    0  0.91480228886E+03 -0.43938803951E+03 -0.87676749220E+03  0.13411362058E+04  0.10100000352E+00 0. -1.
       -3    1    3    3    0  502 -0.91480228886E+03  0.43938803951E+03  0.11214060399E+04  0.15124406082E+04  0.10100000352E+00 0.  1.
</event>
<event>
 5   0  0.1874272E-05  0.2780785E+04  0.7818609E-02  0.8309259E-01
        2   -1    0    0  501    0  0.00000000000E+00  0.00000000000E+00  0.17710220117E+04  0.17710220117E+04  0.25500000920E-02 0. -1.
       -2   -1    0    0    0  501  0.00000000000E+00  0.00000000000E+00 -0.10915680512E+04  0.10915680512E+04  0.25500000920E-02 0.  1.
    10030    2    1    2    0    0  0.00000000000E+00  0.00000000000E+00  0.67945396055E+03  0.28625900629E+04  0.27807848143E+04 0.  0.
        3    1    3    3  502    0  0.30456792051E+03  0.12855518024E+04  0.78581787583E+03  0.15371775431E+04  0.10100000352E+00 0. -1.
       -3    1    3    3    0  502 -0.30456792051E+03 -0.12855518024E+04 -0.10636391529E+03  0.13254125198E+04  0.10100000352E+00 0.  1.
</event>
<event>
 5   0  0.7509685E-06  0.1760142E+04  0.7818609E-02  0.8727788E-01
        1   -1    0    0  501    0  0.00000000000E+00  0.00000000000E+00  0.14968283225E+04  0.14968283225E+04  0.50400001928E-02 0.  1.
       -1   -1    0    0    0  501  0.00000000000E+00  0.00000000000E+00 -0.51744399280E+03  0.51744399282E+03  0.50400001928E-02 0. -1.
    10030    2    1    2    0    0  0.00000000000E+00  0.00000000000E+00  0.97938432965E+03  0.20142723153E+04  0.17601418394E+04 0.  0.
        4    1    3    3  502    0 -0.45102524637E+02  0.87655089603E+03  0.56339152255E+03  0.10429704366E+04  0.12699999809E+01 0. -1.
       -4    1    3    3    0  502  0.45102524637E+02 -0.87655089603E+03  0.41599280710E+03  0.97130187868E+03  0.12699999809E+01 0.  1.
</event>
<event>
 5   0  0.7509685E-06  0.2620292E+04  0.7818609E-02  0.8361341E-01
       -1   -1    0    0    0  501  0.00000000000E+00  0.00000000000E+00  0.91572652989E+03  0.91572652990E+03  0.50400001928E-02 0. -1.
        1   -1    0    0  501    0  0.00000000000E+00  0.00000000000E+00 -0.18744493761E+04  0.18744493761E+04  0.50400001928E-02 0.  1.
    10030    2    1    2    0    0  0.00000000000E+00  0.00000000000E+00 -0.95872284621E+03  0.27901759060E+04  0.26202923674E+04 0.  0.
        4    1    3    3  502    0  0.53498192718E+03  0.11325319215E+04 -0.88852261162E+03  0.15356784363E+04  0.12699999809E+01 0.  1.
       -4    1    3    3    0  502 -0.53498192718E+03 -0.11325319215E+04 -0.70200234592E+02  0.12544974697E+04  0.12699999809E+01 0. -1.
</event>
<event>
 5   0  0.7388013E-06  0.2796721E+04  0.7818609E-02  0.8304287E-01
        1   -1    0    0  501    0  0.00000000000E+00  0.00000000000E+00  0.12578382578E+04  0.12578382578E+04  0.50400001928E-02 0.  1.
       -1   -1    0    0    0  501  0.00000000000E+00  0.00000000000E+00 -0.15545814032E+04  0.15545814032E+04  0.50400001928E-02 0. -1.
    10030    2    1    2    0    0  0.00000000000E+00  0.00000000000E+00 -0.29674314541E+03  0.28124196611E+04  0.27967209113E+04 0.  0.
        1    1    3    3  502    0  0.93181605797E+02 -0.94123071624E+02 -0.15482596521E+04  0.15539143846E+04  0.50400001928E-02 0. -1.
       -1    1    3    3    0  502 -0.93181605797E+02  0.94123071624E+02  0.12515165067E+04  0.12585052765E+04  0.50400001928E-02 0.  1.
</event>
<event>
 5   0  0.7388013E-06  0.2775889E+04  0.7818609E-02  0.8310793E-01
       -1   -1    0    0    0  501  0.00000000000E+00  0.00000000000E+00  0.27298385939E+04  0.27298385939E+04  0.50400001928E-02 0. -1.
        1   -1    0    0  501    0  0.00000000000E+00  0.00000000000E+00 -0.70567910096E+03  0.70567910098E+03  0.50400001928E-02 0.  1.
    10030    2    1    2    0    0  0.00000000000E+00  0.00000000000E+00  0.20241594930E+04  0.34355176949E+04  0.27758890790E+04 0.  0.
        1    1    3    3  502    0  0.34580310475E+03 -0.13066765988E+03 -0.64363148616E+03  0.74223669715E+03  0.50400001928E-02 0.  1.
       -1    1    3    3    0  502 -0.34580310475E+03  0.13066765988E+03  0.26677909791E+04  0.26932809978E+04  0.50400001928E-02 0. -1.
</event>
<event>
 5   0  0.7681342E-06  0.2785481E+04  0.7818609E-02  0.8307790E-01
        1   -1    0    0  501    0  0.00000000000E+00  0.00000000000E+00  0.18884622461E+04  0.18884622461E+04  0.50400001928E-02 0.  1.
       -1   -1    0    0    0  501  0.00000000000E+00  0.00000000000E+00 -0.10271455521E+04  0.10271455521E+04  0.50400001928E-02 0. -1.
    10030    2    1    2    0    0  0.00000000000E+00  0.00000000000E+00  0.86131669397E+03  0.29156077982E+04  0.27854806382E+04 0.  0.
        2    1    3    3  502    0 -0.12836203256E+04 -0.15427314783E+03  0.97277677620E+03  0.16179542641E+04  0.25500000920E-02 0.  1.
       -2    1    3    3    0  502  0.12836203256E+04  0.15427314783E+03 -0.11146008224E+03  0.12976535341E+04  0.25500000920E-02 0. -1.
</event>
<event>
 5   0  0.7613444E-06  0.2855789E+04  0.7818609E-02  0.8286154E-01
       -1   -1    0    0    0  501  0.00000000000E+00  0.00000000000E+00  0.94122638344E+03  0.94122638345E+03  0.50400001928E-02 0. -1.
        1   -1    0    0  501    0  0.00000000000E+00  0.00000000000E+00 -0.21661982634E+04  0.21661982634E+04  0.50400001928E-02 0.  1.
    10030    2    1    2    0    0  0.00000000000E+00  0.00000000000E+00 -0.12249718799E+04  0.31074246468E+04  0.28557891780E+04 0.  0.
        5    1    3    3  502    0 -0.13730853524E+04 -0.33711294084E+03 -0.82970674387E+03  0.16393425178E+04  0.46999998093E+01 0.  1.
       -5    1    3    3    0  502  0.13730853524E+04  0.33711294084E+03 -0.39526513607E+03  0.14680821290E+04  0.46999998093E+01 0. -1.
</event>
<event>
 5   0  0.7681342E-06  0.2616571E+04  0.7818609E-02  0.8362594E-01
       -1   -1    0    0    0  501  0.00000000000E+00  0.00000000000E+00  0.16359205277E+04  0.16359205277E+04  0.50400001928E-02 0.  1.
        1   -1    0    0  501    0  0.00000000000E+00  0.00000000000E+00 -0.10462676168E+04  0.10462676168E+04  0.50400001928E-02 0. -1.
    10030    2    1    2    0    0  0.00000000000E+00  0.00000000000E+00  0.58965291098E+03  0.26821881445E+04  0.26165707877E+04 0.  0.
        2    1    3    3  502    0 -0.66772930551E+03 -0.69361794170E+03 -0.61318773472E+03  0.11414760061E+04  0.25500000920E-02 0. -1.
       -2    1    3    3    0  502  0.66772930551E+03  0.69361794170E+03  0.12028406457E+04  0.15407121384E+04  0.25500000920E-02 0.  1.
</event>
<event>
 5   0  0.1904553E-05  0.2822058E+04  0.7818609E-02  0.8296453E-01
       -2   -1    0    0    0  501  0.00000000000E+00  0.00000000000E+00  0.15152447214E+04  0.15152447214E+04  0.25500000920E-02 0.  1.
        2   -1    0    0  501    0  0.00000000000E+00  0.00000000000E+00 -0.13139811186E+04  0.13139811186E+04  0.25500000920E-02 0. -1.
    10030    2    1    2    0    0  0.00000000000E+00  0.00000000000E+00  0.20126360280E+03  0.28292258400E+04  0.28220580816E+04 0.  0.
        1    1    3    3  502    0 -0.76298822408E+02  0.67381225646E+03 -0.11399109659E+04  0.13263640064E+04  0.50400001928E-02 0. -1.
       -1    1    3    3    0  502  0.76298822408E+02 -0.67381225646E+03  0.13411745687E+04  0.15028618336E+04  0.50400001928E-02 0.  1.
</event>
<event>
 5   0  0.1904553E-05  0.2841567E+04  0.7818609E-02  0.8290478E-01
       -2   -1    0    0    0  501  0.00000000000E+00  0.00000000000E+00  0.11830964718E+04  0.11830964718E+04  0.25500000920E-02 0. -1.
        2   -1    0    0  501    0  0.00000000000E+00  0.00000000000E+00 -0.17062225616E+04  0.17062225616E+04  0.25500000920E-02 0.  1.
    10030    2    1    2    0    0  0.00000000000E+00  0.00000000000E+00 -0.52312608977E+03  0.28893190334E+04  0.28415670978E+04 0.  0.
        1    1    3    3  502    0 -0.34211642149E+03 -0.13685627361E+04 -0.43357529645E+03  0.14758032207E+04  0.50400001928E-02 0.  1.
       -1    1    3    3    0  502  0.34211642149E+03  0.13685627361E+04 -0.89550793317E+02  0.14135158128E+04  0.50400001928E-02 0. -1.
</event>
<event>
 5   0  0.1832502E-05  0.2801154E+04  0.7818609E-02  0.8302910E-01
       -2   -1    0    0    0  501  0.00000000000E+00  0.00000000000E+00  0.94627582577E+03  0.94627582578E+03  0.25500000920E-02 0.  1.
        2   -1    0    0  501    0  0.00000000000E+00  0.00000000000E+00 -0.20729855095E+04  0.20729855095E+04  0.25500000920E-02 0. -1.
    10030    2    1    2    0    0  0.00000000000E+00  0.00000000000E+00 -0.11267096837E+04  0.30192613353E+04  0.28011541013E+04 0.  0.
        2    1    3    3  502    0  0.56149664826E+03  0.12773551401E+04 -0.43266447781E+03  0.14608604280E+04  0.25500000920E-02 0. -1.
       -2    1    3    3    0  502 -0.56149664826E+03 -0.12773551401E+04 -0.69404520590E+03  0.15584009072E+04  0.25500000920E-02 0.  1.
</event>
<event>
 5   0  0.7509685E-06  0.2788432E+04  0.7818609E-02  0.8306869E-01
        1   -1    0    0  501    0  0.00000000000E+00  0.00000000000E+00  0.11544660199E+04  0.11544660199E+04  0.50400001928E-02 0. -1.
       -1   -1    0    0    0  501  0.00000000000E+00  0.00000000000E+00 -0.16837551132E+04  0.16837551132E+04  0.50400001928E-02 0.  1.
    10030    2    1    2    0    0  0.00000000000E+00  0.00000000000E+00 -0.52928909337E+03  0.28382211331E+04  0.27884318633E+04 0.  0.
        4    1    3    3  502    0 -0.25090418886E+03 -0.44475808952E+02 -0.16598515732E+04  0.16792974327E+04  0.12699999809E+01 0.  1.
       -4    1    3    3    0  502  0.25090418886E+03  0.44475808952E+02  0.11305624799E+04  0.11589237004E+04  0.12699999809E+01 0. -1.
</event>
<event>
 5   0  0.7509685E-06  0.2861897E+04  0.7818609E-02  0.8284305E-01
       -1   -1    0    0    0  501  0.00000000000E+00  0.00000000000E+00  0.17132447134E+04  0.17132447134E+04  0.50400001928E-02 0.  1.
        1   -1    0    0  501    0  0.00000000000E+00  0.00000000000E+00 -0.11951669088E+04  0.11951669088E+04  0.50400001928E-02 0. -1.
    10030    2    1    2    0    0  0.00000000000E+00  0.00000000000E+00  0.51807780459E+03  0.29084116222E+04  0.28618968452E+04 0.  0.
        4    1    3    3  502    0 -0.47079527739E+03  0.76954981978E+03  0.13878379907E+04  0.16552797406E+04  0.12699999809E+01 0.  1.
       -4    1    3    3    0  502  0.47079527739E+03 -0.76954981978E+03 -0.86976018610E+03  0.12531318816E+04  0.12699999809E+01 0. -1.
</event>
<event>
 5   0  0.7388013E-06  0.2728591E+04  0.7818609E-02  0.8325787E-01
        1   -1    0    0  501    0  0.00000000000E+00  0.00000000000E+00  0.19959142954E+04  0.19959142954E+04  0.50400001928E-02 0. -1.
       -1   -1    0    0    0  501  0.00000000000E+00  0.00000000000E+00 -0.93255618869E+03  0.93255618871E+03  0.50400001928E-02 0.  1.
    10030    2    1    2    0    0  0.00000000000E+00  0.00000000000E+00  0.10633581067E+04  0.29284704841E+04  0.27285910124E+04 0.  0.
        1    1    3    3  502    0  0.82481793245E+03  0.29240729546E+03  0.16549997414E+04  0.18721246732E+04  0.50400001928E-02 0. -1.
       -1    1    3    3    0  502 -0.82481793245E+03 -0.29240729546E+03 -0.59164163472E+03  0.10563458108E+04  0.50400001928E-02 0.  1.
</event>
<event>
 5   0  0.7681342E-06  0.2826909E+04  0.7818609E-02  0.8294963E-01
        1   -1    0    0  501    0  0.00000000000E+00  0.00000000000E+00  0.11706592404E+04  0.11706592404E+04  0.50400001928E-02 0.  1.
       -1   -1    0    0    0  501  0.00000000000E+00  0.00000000000E+00 -0.17066056774E+04  0.17066056774E+04  0.50400001928E-02 0. -1.
    10030    2    1    2    0    0  0.00000000000E+00  0.00000000000E+00 -0.53594643701E+03  0.28772649178E+04  0.28269090583E+04 0.  0.
        2    1    3    3  502    0  0.74533872725E+03  0.23376688650E+03 -0.14669539319E+04  0.16619658883E+04  0.25500000920E-02 0. -1.
       -2    1    3    3    0  502 -0.74533872725E+03 -0.23376688650E+03  0.93100749491E+03  0.12152990295E+04  0.25500000920E-02 0.  1.
</event>
<event>
 5   0  0.7681342E-06  0.2792182E+04  0.7818609E-02  0.8305700E-01
        1   -1    0    0  501    0  0.00000000000E+00  0.00000000000E+00  0.18771569608E+04  0.18771569608E+04  0.50400001928E-02 0. -1.
       -1   -1    0    0    0  501  0.00000000000E+00  0.00000000000E+00 -0.10383092487E+04  0.10383092487E+04  0.50400001928E-02 0.  1.
    10030    2    1    2    0    0  0.00000000000E+00  0.00000000000E+00  0.83884771212E+03  0.29154662095E+04  0.27921815368E+04 0.  0.
        2    1    3    3  502    0  0.13727004403E+03  0.20663298451E+02  0.18699329115E+04  0.18750784331E+04  0.25500000920E-02 0. -1.
       -2    1    3    3    0  502 -0.13727004403E+03 -0.20663298451E+02 -0.10310851994E+04  0.10403877764E+04  0.25500000920E-02 0.  1.
</event>
<event>
 5   0  0.1874272E-05  0.2377162E+04  0.7818609E-02  0.8448104E-01
        2   -1    0    0  501    0  0.00000000000E+00  0.00000000000E+00  0.18861573452E+04  0.18861573452E+04  0.25500000920E-02 0. -1.
       -2   -1    0    0    0  501  0.00000000000E+00  0.00000000000E+00 -0.74899633654E+03  0.74899633655E+03  0.25500000920E-02 0.  1.
    10030    2    1    2    0    0  0.00000000000E+00  0.00000000000E+00  0.11371610086E+04  0.26351536817E+04  0.23771621246E+04 0.  0.
        3    1    3    3  502    0  0.82178645952E+03 -0.47378262312E+03 -0.22533228491E+03  0.97497569603E+03  0.10100000352E+00 0. -1.
       -3    1    3    3    0  502 -0.82178645952E+03  0.47378262312E+03  0.13624932935E+04  0.16601779857E+04  0.10100000352E+00 0.  1.
</event>
<event>
 5   0  0.1904553E-05  0.2748723E+04  0.7818609E-02  0.8319367E-01
       -2   -1    0    0    0  501  0.00000000000E+00  0.00000000000E+00  0.13773310966E+04  0.13773310966E+04  0.25500000920E-02 0.  1.
        2   -1    0    0  501    0  0.00000000000E+00  0.00000000000E+00 -0.13713979077E+04  0.13713979077E+04  0.25500000920E-02 0. -1.
    10030    2    1    2    0    0  0.00000000000E+00  0.00000000000E+00  0.59331889511E+01  0.27487290043E+04  0.27487226008E+04 0.  0.
        1    1    3    3  502    0  0.47566081977E+03 -0.12783838263E+04 -0.16541004695E+03  0.13740010576E+04  0.50400001928E-02 0. -1.
       -1    1    3    3    0  502 -0.47566081977E+03  0.12783838263E+04  0.17134323590E+03  0.13747279466E+04  0.50400001928E-02 0.  1.
</event>
<event>
 5   0  0.1874272E-05  0.2783131E+04  0.7818609E-02  0.8308525E-01
        2   -1    0    0  501    0  0.00000000000E+00  0.00000000000E+00  0.19434257964E+04  0.19434257964E+04  0.25500000920E-02 0. -1.
       -2   -1    0    0    0  501  0.00000000000E+00  0.00000000000E+00 -0.99641257410E+03  0.99641257410E+03  0.25500000920E-02 0.  1.
    10030    2    1    2    0    0  0.00000000000E+00  0.00000000000E+00  0.94701322233E+03  0.29398383705E+04  0.27831305398E+04 0.  0.
        3    1    3    3  502    0  0.10399624942E+04  0.60958651680E+03 -0.26086271656E+03  0.12333560223E+04  0.10100000352E+00 0.  1.
       -3    1    3    3    0  502 -0.10399624942E+04 -0.60958651680E+03  0.12078759389E+04  0.17064823482E+04  0.10100000352E+00 0. -1.
</event>
<event>
 5   0  0.7388013E-06  0.2753156E+04  0.7818609E-02  0.8317961E-01
        1   -1    0    0  501    0  0.00000000000E+00  0.00000000000E+00  0.16973717048E+04  0.16973717048E+04  0.50400001928E-02 0. -1.
       -1   -1    0    0    0  501  0.00000000000E+00  0.00000000000E+00 -0.11164122471E+04  0.11164122471E+04  0.50400001928E-02 0.  1.
    10030    2    1    2    0    0  0.00000000000E+00  0.00000000000E+00  0.58095945766E+03  0.28137839520E+04  0.27531556870E+04 0.  0.
        1    1    3    3  502    0  0.57001555320E+03  0.10230952461E+04  0.10298222703E+04  0.15595433697E+04  0.50400001928E-02 0. -1.
       -1    1    3    3    0  502 -0.57001555320E+03 -0.10230952461E+04 -0.44886281268E+03  0.12542405822E+04  0.50400001928E-02 0.  1.
</event>
<event>
 5   0  0.1832502E-05  0.2798903E+04  0.7818609E-02  0.8303609E-01
       -2   -1    0    0    0  501  0.00000000000E+00  0.00000000000E+00  0.12486092863E+04  0.12486092863E+04  0.25500000920E-02 0.  1.
        2   -1    0    0  501    0  0.00000000000E+00  0.00000000000E+00 -0.15685172073E+04  0.15685172073E+04  0.25500000920E-02 0. -1.
    10030    2    1    2    0    0  0.00000000000E+00  0.00000000000E+00 -0.31990792101E+03  0.28171264937E+04  0.27989034645E+04 0.  0.
        2    1    3    3  502    0  0.15650757887E+03 -0.25580407619E+03 -0.15357974211E+04  0.15648016061E+04  0.25500000920E-02 0. -1.
       -2    1    3    3    0  502 -0.15650757887E+03  0.25580407619E+03  0.12158895001E+04  0.12523248876E+04  0.25500000920E-02 0.  1.
</event>
<event>
 5   0  0.1832502E-05  0.2638836E+04  0.7818609E-02  0.8355128E-01
       -2   -1    0    0    0  501  0.00000000000E+00  0.00000000000E+00  0.12938956457E+04  0.12938956457E+04  0.25500000920E-02 0.  1.
        2   -1    0    0  501    0  0.00000000000E+00  0.00000000000E+00 -0.13454437178E+04  0.13454437178E+04  0.25500000920E-02 0. -1.
    10030    2    1    2    0    0  0.00000000000E+00  0.00000000000E+00 -0.51548072141E+02  0.26393393635E+04  0.26388359312E+04 0.  0.
        2    1    3    3  502    0  0.76862392582E+03  0.26794855445E+03  0.10128289036E+04  0.12993850681E+04  0.25500000920E-02 0.  1.
       -2    1    3    3    0  502 -0.76862392582E+03 -0.26794855445E+03 -0.10643769757E+04  0.13399542954E+04  0.25500000920E-02 0. -1.
</event>
<event>
 5   0  0.7388013E-06  0.2713024E+04  0.7818609E-02  0.8330792E-01
        1   -1    0    0  501    0  0.00000000000E+00  0.00000000000E+00  0.14102781894E+04  0.14102781894E+04  0.50400001928E-02 0.  1.
       -1   -1    0    0    0  501  0.00000000000E+00  0.00000000000E+00 -0.13047951470E+04  0.13047951470E+04  0.50400001928E-02 0. -1.
    10030    2    1    2    0    0  0.00000000000E+00  0.00000000000E+00  0.10548304234E+03  0.27150733364E+04  0.27130235071E+04 0.  0.
        1    1    3    3  502    0 -0.22887201225E+03  0.94800245649E+03 -0.89085638591E+03  0.13208770404E+04  0.50400001928E-02 0. -1.
       -1    1    3    3    0  502  0.22887201225E+03 -0.94800245649E+03  0.99633942825E+03  0.13941962960E+04  0.50400001928E-02 0.  1.
</event>
<event>
 5   0  0.7509685E-06  0.1812169E+04  0.7818609E-02  0.8699855E-01
       -1   -1    0    0    0  501  0.00000000000E+00  0.00000000000E+00  0.17109711910E+04  0.17109711910E+04  0.50400001928E-02 0.  1.
        1   -1    0    0  501    0  0.00000000000E+00  0.00000000000E+00 -0.47983784387E+03  0.47983784389E+03  0.50400001928E-02 0. -1.
    10030    2    1    2    0    0  0.00000000000E+00  0.00000000000E+00  0.12311333471E+04  0.21908090349E+04  0.18121685653E+04 0.  0.
        4    1    3    3  502    0  0.65513493583E+02 -0.89563162845E+03  0.46979456598E+03  0.10134873353E+04  0.12699999809E+01 0. -1.
       -4    1    3    3    0  502 -0.65513493583E+02  0.89563162845E+03  0.76133878113E+03  0.11773216996E+04  0.12699999809E+01 0.  1.
</event>
<event>
 5   0  0.7613444E-06  0.2848519E+04  0.7818609E-02  0.8288361E-01
       -1   -1    0    0    0  501  0.00000000000E+00  0.00000000000E+00  0.10825355053E+04  0.10825355053E+04  0.50400001928E-02 0.  1.
        1   -1    0    0  501    0  0.00000000000E+00  0.00000000000E+00 -0.18738554386E+04  0.18738554386E+04  0.50400001928E-02 0. -1.
    10030    2    1    2    0    0  0.00000000000E+00  0.00000000000E+00 -0.79131993332E+03  0.29563909438E+04  0.28485189443E+04 0.  0.
        5    1    3    3  502    0  0.43530797638E+03  0.10440345291E+04  0.50255707175E+03  0.12377749523E+04  0.46999998093E+01 0.  1.
       -5    1    3    3    0  502 -0.43530797638E+03 -0.10440345291E+04 -0.12938770051E+04  0.17186159915E+04  0.46999998093E+01 0. -1.
</event>
<event>
 5   0  0.1923559E-05  0.2768748E+04  0.7818609E-02  0.8313037E-01
        2   -1    0    0  501    0  0.00000000000E+00  0.00000000000E+00  0.12396402052E+04  0.12396402052E+04  0.25500000920E-02 0.  1.
       -2   -1    0    0    0  501  0.00000000000E+00  0.00000000000E+00 -0.15460065798E+04  0.15460065798E+04  0.25500000920E-02 0. -1.
    10030    2    1    2    0    0  0.00000000000E+00  0.00000000000E+00 -0.30636637465E+03  0.27856467850E+04  0.27687483915E+04 0.  0.
        4    1    3    3  502    0 -0.13064805828E+03 -0.12135118737E+04 -0.81047770740E+03  0.14651128659E+04  0.12699999809E+01 0. -1.
       -4    1    3    3    0  502  0.13064805828E+03  0.12135118737E+04  0.50411133275E+03  0.13205339191E+04  0.12699999809E+01 0.  1.
</event>
<event>
 5   0  0.7613444E-06  0.2773557E+04  0.7818609E-02  0.8311525E-01
        1   -1    0    0  501    0  0.00000000000E+00  0.00000000000E+00  0.18009883580E+04  0.18009883580E+04  0.50400001928E-02 0.  1.
       -1   -1    0    0    0  501  0.00000000000E+00  0.00000000000E+00 -0.10678325715E+04  0.10678325716E+04  0.50400001928E-02 0. -1.
    10030    2    1    2    0    0  0.00000000000E+00  0.00000000000E+00  0.73315578643E+03  0.28688209295E+04  0.27735565829E+04 0.  0.
        5    1    3    3  502    0 -0.33428339299E+03  0.65134312901E+03 -0.85164386377E+03  0.11230817509E+04  0.46999998093E+01 0. -1.
       -5    1    3    3    0  502  0.33428339299E+03 -0.65134312901E+03  0.15847996502E+04  0.17457391786E+04  0.46999998093E+01 0.  1.
</event>
<event>
 5   0  0.1904553E-05  0.2953905E+04  0.7818609E-02  0.8257017E-01
       -2   -1    0    0    0  501  0.00000000000E+00  0.00000000000E+00  0.11485805337E+04  0.11485805337E+04  0.25500000920E-02 0.  1.
        2   -1    0    0  501    0  0.00000000000E+00  0.00000000000E+00 -0.18992042189E+04  0.18992042189E+04  0.25500000920E-02 0. -1.
    10030    2    1    2    0    0  0.00000000000E+00  0.00000000000E+00 -0.75062368519E+03  0.30477847526E+04  0.29539052086E+04 0.  0.
        1    1    3    3  502    0 -0.37426723448E+03 -0.29217387996E+03 -0.18183118370E+04  0.18792816382E+04  0.50400001928E-02 0. -1.
       -1    1    3    3    0  502  0.37426723448E+03  0.29217387996E+03  0.10676881518E+04  0.11685031145E+04  0.50400001928E-02 0.  1.
</event>
<event>
 5   0  0.7613444E-06  0.2818685E+04  0.7818609E-02  0.8297491E-01
       -1   -1    0    0    0  501  0.00000000000E+00  0.00000000000E+00  0.99237817486E+03  0.99237817487E+03  0.50400001928E-02 0.  1.
        1   -1    0    0  501    0  0.00000000000E+00  0.00000000000E+00 -0.20015011916E+04  0.20015011916E+04  0.50400001928E-02 0. -1.
    10030    2    1    2    0    0  0.00000000000E+00  0.00000000000E+00 -0.10091230168E+04  0.29938793665E+04  0.28186848703E+04 0.  0.
        5    1    3    3  502    0  0.33452606427E+03 -0.70072712028E+03  0.74467773846E+03  0.10758685835E+04  0.46999998093E+01 0.  1.
       -5    1    3    3    0  502 -0.33452606427E+03  0.70072712028E+03 -0.17538007552E+04  0.19180107830E+04  0.46999998093E+01 0. -1.
</event>
<event>
 5   0  0.7555871E-06  0.2806824E+04  0.7818609E-02  0.8301153E-01
        1   -1    0    0  501    0  0.00000000000E+00  0.00000000000E+00  0.12674930550E+04  0.12674930550E+04  0.50400001928E-02 0. -1.
       -1   -1    0    0    0  501  0.00000000000E+00  0.00000000000E+00 -0.15539063131E+04  0.15539063131E+04  0.50400001928E-02 0.  1.
    10030    2    1    2    0    0  0.00000000000E+00  0.00000000000E+00 -0.28641325817E+03  0.28213993681E+04  0.28068241555E+04 0.  0.
        3    1    3    3  502    0 -0.10514553111E+04  0.92722970442E+02 -0.10728929196E+04  0.15050764258E+04  0.10100000352E+00 0.  1.
       -3    1    3    3    0  502  0.10514553111E+04 -0.92722970442E+02  0.78647966139E+03  0.13163229423E+04  0.10100000352E+00 0. -1.
</event>
<event>
 5   0  0.7555871E-06  0.2380241E+04  0.7818609E-02  0.8446938E-01
       -1   -1    0    0    0  501  0.00000000000E+00  0.00000000000E+00  0.30897476263E+04  0.30897476263E+04  0.50400001928E-02 0. -1.
        1   -1    0    0  501    0  0.00000000000E+00  0.00000000000E+00 -0.45841496250E+03  0.45841496253E+03  0.50400001928E-02 0.  1.
    10030    2    1    2    0    0  0.00000000000E+00  0.00000000000E+00  0.26313326638E+04  0.35481625888E+04  0.23802407797E+04 0.  0.
        3    1    3    3  502    0 -0.99871381674E+03  0.64594012851E+03  0.13774636118E+04  0.18199104234E+04  0.10100000352E+00 0. -1.
       -3    1    3    3    0  502  0.99871381674E+03 -0.64594012851E+03  0.12538690520E+04  0.17282521654E+04  0.10100000352E+00 0.  1.
</event>
<event>
 5   0  0.6288000E-06  0.2755514E+04  0.7818609E-02  0.8317214E-01
        3   -1    0    0  501    0  0.00000000000E+00  0.00000000000E+00  0.13464963848E+04  0.13464963886E+04  0.10100000352E+00 0. -1.
       -3   -1    0    0    0  501  0.00000000000E+00  0.00000000000E+00 -0.14097437925E+04  0.14097437961E+04  0.10100000352E+00 0.  1.
    10030    2    1    2    0    0  0.00000000000E+00  0.00000000000E+00 -0.63247407650E+02  0.27562401847E+04  0.27555144204E+04 0.  0.
        2    1    3    3  502    0 -0.35683544594E+03  0.12432603702E+04 -0.50628746335E+03  0.13890121955E+04  0.25500000920E-02 0.  1.
       -2    1    3    3    0  502  0.35683544594E+03 -0.12432603702E+04  0.44304005570E+03  0.13672279892E+04  0.25500000920E-02 0. -1.
</event>
<event>
 5   0  0.1923559E-05  0.2434837E+04  0.7818609E-02  0.8426575E-01
        2   -1    0    0  501    0  0.00000000000E+00  0.00000000000E+00  0.80146726771E+03  0.80146726772E+03  0.25500000920E-02 0.  1.
       -2   -1    0    0    0  501  0.00000000000E+00  0.00000000000E+00 -0.18492423429E+04  0.18492423429E+04  0.25500000920E-02 0. -1.
    10030    2    1    2    0    0  0.00000000000E+00  0.00000000000E+00 -0.10477750752E+04  0.26507096106E+04  0.24348365103E+04 0.  0.
        4    1    3    3  502    0  0.41179445108E+03 -0.91352172174E+03 -0.12765675427E+04  0.16228748904E+04  0.12699999809E+01 0. -1.
       -4    1    3    3    0  502 -0.41179445108E+03  0.91352172174E+03  0.22879246746E+03  0.10278347202E+04  0.12699999809E+01 0.  1.
</event>
<event>
 5   0  0.1874272E-05  0.2816099E+04  0.7818609E-02  0.8298288E-01
        2   -1    0    0  501    0  0.00000000000E+00  0.00000000000E+00  0.10395786037E+04  0.10395786037E+04  0.25500000920E-02 0.  1.
       -2   -1    0    0    0  501  0.00000000000E+00  0.00000000000E+00 -0.19071220759E+04  0.19071220759E+04  0.25500000920E-02 0. -1.
    10030    2    1    2    0    0  0.00000000000E+00  0.00000000000E+00 -0.86754347222E+03  0.29467006797E+04  0.28160989364E+04 0.  0.
        3    1    3    3  502    0 -0.52065902675E+03 -0.24036316572E+03  0.91184731424E+03  0.10771842035E+04  0.10100000352E+00 0.  1.
       -3    1    3    3    0  502  0.52065902675E+03  0.24036316572E+03 -0.17793907865E+04  0.18695164762E+04  0.10100000352E+00 0. -1.
</event>
<event>
 5   0  0.1832502E-05  0.2452465E+04  0.7818609E-02  0.8420118E-01
        2   -1    0    0  501    0  0.00000000000E+00  0.00000000000E+00  0.10430456790E+04  0.10430456790E+04  0.25500000920E-02 0.  1.
       -2   -1    0    0    0  501  0.00000000000E+00  0.00000000000E+00 -0.14415922880E+04  0.14415922880E+04  0.25500000920E-02 0. -1.
    10030    2    1    2    0    0  0.00000000000E+00  0.00000000000E+00 -0.39854660900E+03  0.24846379670E+04  0.24524653774E+04 0.  0.
        2    1    3    3  502    0  0.47852261879E+02  0.11804494397E+04  0.13351088100E+03  0.11889389698E+04  0.25500000920E-02 0.  1.
       -2    1    3    3    0  502 -0.47852261879E+02 -0.11804494397E+04 -0.53205749000E+03  0.12956989972E+04  0.25500000920E-02 0. -1.
</event>
<event>
 5   0  0.1904553E-05  0.2752101E+04  0.7818609E-02  0.8318295E-01
        2   -1    0    0  501    0  0.00000000000E+00  0.00000000000E+00  0.23173386520E+04  0.23173386520E+04  0.25500000920E-02 0. -1.
       -2   -1    0    0    0  501  0.00000000000E+00  0.00000000000E+00 -0.81710747086E+03  0.81710747086E+03  0.25500000920E-02 0.  1.
    10030    2    1    2    0    0  0.00000000000E+00  0.00000000000E+00  0.15002311812E+04  0.31344461229E+04  0.27521008158E+04 0.  0.
        1    1    3    3  502    0 -0.93520587579E+03 -0.93280138432E+03  0.11894324819E+04  0.17774920764E+04  0.50400001928E-02 0.  1.
       -1    1    3    3    0  502  0.93520587579E+03  0.93280138432E+03  0.31079869923E+03  0.13569540464E+04  0.50400001928E-02 0. -1.
</event>
<event>
 5   0  0.1814230E-05  0.2768725E+04  0.7818609E-02  0.8313044E-01
        2   -1    0    0  501    0  0.00000000000E+00  0.00000000000E+00  0.12396651690E+04  0.12396651690E+04  0.25500000920E-02 0. -1.
       -2   -1    0    0    0  501  0.00000000000E+00  0.00000000000E+00 -0.15459496862E+04  0.15459496862E+04  0.25500000920E-02 0.  1.
    10030    2    1    2    0    0  0.00000000000E+00  0.00000000000E+00 -0.30628451722E+03  0.27856148553E+04  0.27687253234E+04 0.  0.
        5    1    3    3  502    0  0.85097042283E+03 -0.87586074727E+03 -0.80915901768E+03  0.14649379219E+04  0.46999998093E+01 0.  1.
       -5    1    3    3    0  502 -0.85097042283E+03  0.87586074727E+03  0.50287450045E+03  0.13206769334E+04  0.46999998093E+01 0. -1.
</event>
<event>
 5   0  0.1874272E-05  0.2804410E+04  0.7818609E-02  0.8301901E-01
        2   -1    0    0  501    0  0.00000000000E+00  0.00000000000E+00  0.13959489027E+04  0.13959489027E+04  0.25500000920E-02 0. -1.
       -2   -1    0    0    0  501  0.00000000000E+00  0.00000000000E+00 -0.14084891449E+04  0.14084891449E+04  0.25500000920E-02 0.  1.
    10030    2    1    2    0    0  0.00000000000E+00  0.00000000000E+00 -0.12540242197E+02  0.28044380476E+04  0.28044100102E+04 0.  0.
        3    1    3    3  502    0  0.14627503236E+03 -0.13489390183E+04  0.34749322966E+03  0.14006371461E+04  0.10100000352E+00 0. -1.
       -3    1    3    3    0  502 -0.14627503236E+03  0.13489390183E+04 -0.36003347186E+03  0.14038009015E+04  0.10100000352E+00 0.  1.
</event>
<event>
 5   0  0.7555871E-06  0.2834392E+04  0.7818609E-02  0.8292670E-01
       -1   -1    0    0    0  501  0.00000000000E+00  0.00000000000E+00  0.23838391272E+04  0.23838391272E+04  0.50400001928E-02 0.  1.
        1   -1    0    0  501    0  0.00000000000E+00  0.00000000000E+00 -0.84252522257E+03  0.84252522258E+03  0.50400001928E-02 0. -1.
    10030    2    1    2    0    0  0.00000000000E+00  0.00000000000E+00  0.15413139047E+04  0.32263643498E+04  0.28343920627E+04 0.  0.
        3    1    3    3  502    0  0.31297095654E+03  0.13821951194E+04  0.77693442521E+03  0.16161810787E+04  0.10100000352E+00 0.  1.
       -3    1    3    3    0  502 -0.31297095654E+03 -0.13821951194E+04  0.76437947946E+03  0.16101832711E+04  0.10100000352E+00 0. -1.
</event>
<event>
 5   0  0.7555871E-06  0.2734675E+04  0.7818609E-02  0.8323841E-01
       -1   -1    0    0    0  501  0.00000000000E+00  0.00000000000E+00  0.99500059804E+03  0.99500059805E+03  0.50400001928E-02 0.  1.
        1   -1    0    0  501    0  0.00000000000E+00  0.00000000000E+00 -0.18790050594E+04  0.18790050594E+04  0.50400001928E-02 0. -1.
    10030    2    1    2    0    0  0.00000000000E+00  0.00000000000E+00 -0.88400446133E+03  0.28740056574E+04  0.27346745019E+04 0.  0.
        3    1    3    3  502    0  0.88926098618E+03  0.39549865976E+03  0.56735114220E+03  0.11265396665E+04  0.10100000352E+00 0.  1.
       -3    1    3    3    0  502 -0.88926098618E+03 -0.39549865976E+03 -0.14513556035E+04  0.17474659910E+04  0.10100000352E+00 0. -1.
</event>
<event>
 5   0  0.7613444E-06  0.3109086E+04  0.7818609E-02  0.8213249E-01
        1   -1    0    0  501    0  0.00000000000E+00  0.00000000000E+00  0.17246920512E+04  0.17246920512E+04  0.50400001928E-02 0. -1.
       -1   -1    0    0    0  501  0.00000000000E+00  0.00000000000E+00 -0.14011799793E+04  0.14011799793E+04  0.50400001928E-02 0.  1.
    10030    2    1    2    0    0  0.00000000000E+00  0.00000000000E+00  0.32351207195E+03  0.31258720305E+04  0.31090860217E+04 0.  0.
        5    1    3    3  502    0  0.63079107795E+03  0.75142645337E+03 -0.10505912625E+04  0.14374641525E+04  0.46999998093E+01 0.  1.
       -5    1    3    3    0  502 -0.63079107795E+03 -0.75142645337E+03  0.13741033345E+04  0.16884078780E+04  0.46999998093E+01 0. -1.
</event>
<event>
 5   0  0.7555871E-06  0.2116053E+04  0.7818609E-02  0.8554205E-01
        1   -1    0    0  501    0  0.00000000000E+00  0.00000000000E+00  0.11608588164E+04  0.11608588164E+04  0.50400001928E-02 0. -1.
       -1   -1    0    0    0  501  0.00000000000E+00  0.00000000000E+00 -0.96430333593E+03  0.96430333594E+03  0.50400001928E-02 0.  1.
    10030    2    1    2    0    0  0.00000000000E+00  0.00000000000E+00  0.19655548051E+03  0.21251621524E+04  0.21160529570E+04 0.  0.
        3    1    3    3  502    0 -0.50121705963E+02  0.45532209532E+03  0.10561074177E+04  0.11511703974E+04  0.10100000352E+00 0. -1.
       -3    1    3    3    0  502  0.50121705963E+02 -0.45532209532E+03 -0.85955193719E+03  0.97399175500E+03  0.10100000352E+00 0.  1.
</event>
<event>
 5   0  0.1832502E-05  0.2853892E+04  0.7818609E-02  0.8286730E-01
       -2   -1    0    0    0  501  0.00000000000E+00  0.00000000000E+00  0.15158094345E+04  0.15158094345E+04  0.25500000920E-02 0. -1.
        2   -1    0    0  501    0  0.00000000000E+00  0.00000000000E+00 -0.13432923842E+04  0.13432923842E+04  0.25500000920E-02 0.  1.
    10030    2    1    2    0    0  0.00000000000E+00  0.00000000000E+00  0.17251705023E+03  0.28591018187E+04  0.28538922680E+04 0.  0.
        2    1    3    3  502    0  0.33113744841E+03  0.13402469778E+04 -0.27531760111E+03  0.14077335518E+04  0.25500000920E-02 0.  1.
       -2    1    3    3    0  502 -0.33113744841E+03 -0.13402469778E+04  0.44783465134E+03  0.14513682669E+04  0.25500000920E-02 0. -1.
</event>
<event>
 5   0  0.1874272E-05  0.2747234E+04  0.7818609E-02  0.8319840E-01
        2   -1    0    0  501    0  0.00000000000E+00  0.00000000000E+00  0.83112800478E+03  0.83112800479E+03  0.25500000920E-02 0. -1.
       -2   -1    0    0    0  501  0.00000000000E+00  0.00000000000E+00 -0.22701965436E+04  0.22701965436E+04  0.25500000920E-02 0.  1.
    10030    2    1    2    0    0  0.00000000000E+00  0.00000000000E+00 -0.14390685388E+04  0.31013245483E+04  0.27472341900E+04 0.  0.
        3    1    3    3  502    0  0.13414700376E+03 -0.13444121518E+04 -0.43984181021E+03  0.14208801078E+04  0.10100000352E+00 0.  1.
       -3    1    3    3    0  502 -0.13414700376E+03  0.13444121518E+04 -0.99922672857E+03  0.16804444406E+04  0.10100000352E+00 0. -1.
</event>
<event>
 5   0  0.7555871E-06  0.2848454E+04  0.7818609E-02  0.8288381E-01
        1   -1    0    0  501    0  0.00000000000E+00  0.00000000000E+00  0.16097845941E+04  0.16097845941E+04  0.50400001928E-02 0. -1.
       -1   -1    0    0    0  501  0.00000000000E+00  0.00000000000E+00 -0.12600584945E+04  0.12600584945E+04  0.50400001928E-02 0.  1.
    10030    2    1    2    0    0  0.00000000000E+00  0.00000000000E+00  0.34972609961E+03  0.28698430886E+04  0.28484541437E+04 0.  0.
        3    1    3    3  502    0  0.13289792550E+04 -0.21137470325E+03  0.64479618221E+03  0.14921887455E+04  0.10100000352E+00 0. -1.
       -3    1    3    3    0  502 -0.13289792550E+04  0.21137470325E+03 -0.29507008259E+03  0.13776543432E+04  0.10100000352E+00 0.  1.
</event>
<event>
 5   0  0.7681342E-06  0.1786205E+04  0.7818609E-02  0.8713670E-01
       -1   -1    0    0    0  501  0.00000000000E+00  0.00000000000E+00  0.10256098027E+04  0.10256098028E+04  0.50400001928E-02 0. -1.
        1   -1    0    0  501    0  0.00000000000E+00  0.00000000000E+00 -0.77771488366E+03  0.77771488367E+03  0.50400001928E-02 0.  1.
    10030    2    1    2    0    0  0.00000000000E+00  0.00000000000E+00  0.24789491909E+03  0.18033246864E+04  0.17862049249E+04 0.  0.
        2    1    3    3  502    0  0.88552001152E+03  0.77300134342E+02  0.36450749204E+02  0.88963456469E+03  0.25500000920E-02 0. -1.
       -2    1    3    3    0  502 -0.88552001152E+03 -0.77300134342E+02  0.21144416988E+03  0.91369012174E+03  0.25500000920E-02 0.  1.
</event>
<event>
 5   0  0.1832502E-05  0.2796595E+04  0.7818609E-02  0.8304326E-01
        2   -1    0    0  501    0  0.00000000000E+00  0.00000000000E+00  0.12706389185E+04  0.12706389185E+04  0.25500000920E-02 0.  1.
       -2   -1    0    0    0  501  0.00000000000E+00  0.00000000000E+00 -0.15387818318E+04  0.15387818318E+04  0.25500000920E-02 0. -1.
    10030    2    1    2    0    0  0.00000000000E+00  0.00000000000E+00 -0.26814291331E+03  0.28094207503E+04  0.27965951316E+04 0.  0.
        2    1    3    3  502    0  0.53737407607E+03  0.11323750937E+04 -0.75674620257E+03  0.14641410675E+04  0.25500000920E-02 0. -1.
       -2    1    3    3    0  502 -0.53737407607E+03 -0.11323750937E+04  0.48860328926E+03  0.13452796827E+04  0.25500000920E-02 0.  1.
</event>
<event>
 5   0  0.7509685E-06  0.2895795E+04  0.7818609E-02  0.8274130E-01
        1   -1    0    0  501    0  0.00000000000E+00  0.00000000000E+00  0.23144684919E+04  0.23144684919E+04  0.50400001928E-02 0. -1.
       -1   -1    0    0    0  501  0.00000000000E+00  0.00000000000E+00 -0.90578320086E+03  0.90578320087E+03  0.50400001928E-02 0.  1.
    10030    2    1    2    0    0  0.00000000000E+00  0.00000000000E+00  0.14086852911E+04  0.32202516928E+04  0.28957946605E+04 0.  0.
        4    1    3    3  502    0  0.43473956188E+03 -0.76237906047E+03 -0.57628852578E+03  0.10499192333E+04  0.12699999809E+01 0.  1.
       -4    1    3    3    0  502 -0.43473956188E+03  0.76237906047E+03  0.19849738169E+04  0.21703324596E+04  0.12699999809E+01 0. -1.
</event>
<event>
 5   0  0.1904553E-05  0.2704360E+04  0.7818609E-02  0.8333592E-01
        2   -1    0    0  501    0  0.00000000000E+00  0.00000000000E+00  0.13879796669E+04  0.13879796669E+04  0.25500000920E-02 0.  1.
       -2   -1    0    0    0  501  0.00000000000E+00  0.00000000000E+00 -0.13173037919E+04  0.13173037919E+04  0.25500000920E-02 0. -1.
    10030    2    1    2    0    0  0.00000000000E+00  0.00000000000E+00  0.70675875055E+02  0.27052834588E+04  0.27043600931E+04 0.  0.
        1    1    3    3  502    0  0.85817231581E+02 -0.58465640672E+02 -0.13133093311E+04  0.13174081477E+04  0.50400001928E-02 0. -1.
       -1    1    3    3    0  502 -0.85817231581E+02  0.58465640672E+02  0.13839852062E+04  0.13878753111E+04  0.50400001928E-02 0.  1.
</event>
<event>
 5   0  0.7509685E-06  0.2788444E+04  0.7818609E-02  0.8306865E-01
        1   -1    0    0  501    0  0.00000000000E+00  0.00000000000E+00  0.19061857678E+04  0.19061857678E+04  0.50400001928E-02 0.  1.
       -1   -1    0    0    0  501  0.00000000000E+00  0.00000000000E+00 -0.10197618208E+04  0.10197618209E+04  0.50400001928E-02 0. -1.
    10030    2    1    2    0    0  0.00000000000E+00  0.00000000000E+00  0.88642394691E+03  0.29259475886E+04  0.27884443473E+04 0.  0.
        4    1    3    3  502    0 -0.12446800350E+04 -0.50312452414E+02  0.11002639535E+04  0.16620295162E+04  0.12699999809E+01 0.  1.
       -4    1    3    3    0  502  0.12446800350E+04  0.50312452414E+02 -0.21384000659E+03  0.12639180724E+04  0.12699999809E+01 0. -1.
</event>
<event>
 5   0  0.7555871E-06  0.2877109E+04  0.7818609E-02  0.8279721E-01
       -1   -1    0    0    0  501  0.00000000000E+00  0.00000000000E+00  0.15257473766E+04  0.15257473766E+04  0.50400001928E-02 0. -1.
        1   -1    0    0  501    0  0.00000000000E+00  0.00000000000E+00 -0.13563440547E+04  0.13563440547E+04  0.50400001928E-02 0.  1.
    10030    2    1    2    0    0  0.00000000000E+00  0.00000000000E+00  0.16940332192E+03  0.28820914313E+04  0.28771085369E+04 0.  0.
        3    1    3    3  502    0  0.85836381288E+03 -0.15911820647E+03  0.12300678108E+04  0.15083679486E+04  0.10100000352E+00 0. -1.
       -3    1    3    3    0  502 -0.85836381288E+03  0.15911820647E+03 -0.10606644889E+04  0.13737234827E+04  0.10100000352E+00 0.  1.
</event>
<event>
 5   0  0.7681342E-06  0.2786935E+04  0.7818609E-02  0.8307336E-01
        1   -1    0    0  501    0  0.00000000000E+00  0.00000000000E+00  0.14961301262E+04  0.14961301262E+04  0.50400001928E-02 0.  1.
       -1   -1    0    0    0  501  0.00000000000E+00  0.00000000000E+00 -0.12978491370E+04  0.12978491370E+04  0.50400001928E-02 0. -1.
    10030    2    1    2    0    0  0.00000000000E+00  0.00000000000E+00  0.19828098922E+03  0.27939792633E+04  0.27869346553E+04 0.  0.
        2    1    3    3  502    0 -0.58956880067E+03 -0.10925210857E+04 -0.53535541446E+03  0.13519612099E+04  0.25500000920E-02 0. -1.
       -2    1    3    3    0  502  0.58956880067E+03  0.10925210857E+04  0.73363640368E+03  0.14420180533E+04  0.25500000920E-02 0.  1.
</event>
<event>
 5   0  0.1904553E-05  0.2787312E+04  0.7818609E-02  0.8307218E-01
        2   -1    0    0  501    0  0.00000000000E+00  0.00000000000E+00  0.13189614768E+04  0.13189614768E+04  0.25500000920E-02 0. -1.
       -2   -1    0    0    0  501  0.00000000000E+00  0.00000000000E+00 -0.14725810883E+04  0.14725810883E+04  0.25500000920E-02 0.  1.
    10030    2    1    2    0    0  0.00000000000E+00  0.00000000000E+00 -0.15361961157E+03  0.27915425651E+04  0.27873124883E+04 0.  0.
        1    1    3    3  502    0  0.63452224049E+03 -0.50267908085E+03 -0.12129797873E+04  0.14582951335E+04  0.50400001928E-02 0.  1.
       -1    1    3    3    0  502 -0.63452224049E+03  0.50267908085E+03  0.10593601757E+04  0.13332474316E+04  0.50400001928E-02 0. -1.
</event>
<event>
 5   0  0.1814230E-05  0.2728596E+04  0.7818609E-02  0.8325786E-01
        2   -1    0    0  501    0  0.00000000000E+00  0.00000000000E+00  0.16607951987E+04  0.16607951987E+04  0.25500000920E-02 0. -1.
       -2   -1    0    0    0  501  0.00000000000E+00  0.00000000000E+00 -0.11207335854E+04  0.11207335854E+04  0.25500000920E-02 0.  1.
    10030    2    1    2    0    0  0.00000000000E+00  0.00000000000E+00  0.54006161329E+03  0.27815287842E+04  0.27285959450E+04 0.  0.
        5    1    3    3  502    0 -0.11931873426E+04 -0.66139906769E+03  0.25787870639E+03  0.13884049404E+04  0.46999998093E+01 0.  1.
       -5    1    3    3    0  502  0.11931873426E+04  0.66139906769E+03  0.28218290690E+03  0.13931238438E+04  0.46999998093E+01 0. -1.
</event>
<event>
 5   0  0.7613444E-06  0.2891172E+04  0.7818609E-02  0.8275509E-01
       -1   -1    0    0    0  501  0.00000000000E+00  0.00000000000E+00  0.12184801787E+04  0.12184801787E+04  0.50400001928E-02 0. -1.
        1   -1    0    0  501    0  0.00000000000E+00  0.00000000000E+00 -0.17150203374E+04  0.17150203374E+04  0.50400001928E-02 0.  1.
    10030    2    1    2    0    0  0.00000000000E+00  0.00000000000E+00 -0.49654015869E+03  0.29335005162E+04  0.28911715876E+04 0.  0.
        5    1    3    3  502    0  0.27140519823E+03 -0.59189452510E+03  0.10612441156E+04  0.12450948050E+04  0.46999998093E+01 0. -1.
       -5    1    3    3    0  502 -0.27140519823E+03  0.59189452510E+03 -0.15577842743E+04  0.16884057112E+04  0.46999998093E+01 0.  1.
</event>
<event>
 5   0  0.1923559E-05  0.2815048E+04  0.7818609E-02  0.8298612E-01
       -2   -1    0    0    0  501  0.00000000000E+00  0.00000000000E+00  0.82953817463E+03  0.82953817463E+03  0.25500000920E-02 0. -1.
        2   -1    0    0  501    0  0.00000000000E+00  0.00000000000E+00 -0.23882258326E+04  0.23882258326E+04  0.25500000920E-02 0.  1.
    10030    2    1    2    0    0  0.00000000000E+00  0.00000000000E+00 -0.15586876580E+04  0.32177640073E+04  0.28150484883E+04 0.  0.
        4    1    3    3  502    0  0.56431710461E+03  0.11549871510E+04 -0.14346599227E+04  0.19263176841E+04  0.12699999809E+01 0. -1.
       -4    1    3    3    0  502 -0.56431710461E+03 -0.11549871510E+04 -0.12402773530E+03  0.12914463231E+04  0.12699999809E+01 0.  1.
</event>
<event>
 5   0  0.7388013E-06  0.2671574E+04  0.7818609E-02  0.8344288E-01
        1   -1    0    0  501    0  0.00000000000E+00  0.00000000000E+00  0.16947550248E+04  0.16947550248E+04  0.50400001928E-02 0.  1.
       -1   -1    0    0    0  501  0.00000000000E+00  0.00000000000E+00 -0.10528522980E+04  0.10528522980E+04  0.50400001928E-02 0. -1.
    10030    2    1    2    0    0  0.00000000000E+00  0.00000000000E+00  0.64190272680E+03  0.27476073227E+04  0.26715738600E+04 0.  0.
        1    1    3    3  502    0  0.96094170314E+03  0.93842185403E+02  0.12703217263E+04  0.15955978820E+04  0.50400001928E-02 0. -1.
       -1    1    3    3    0  502 -0.96094170314E+03 -0.93842185403E+02 -0.62841899953E+03  0.11520094408E+04  0.50400001928E-02 0.  1.
</event>
<event>
 5   0  0.7613444E-06  0.2399270E+04  0.7818609E-02  0.8439777E-01
       -1   -1    0    0    0  501  0.00000000000E+00  0.00000000000E+00  0.10524113261E+04  0.10524113261E+04  0.50400001928E-02 0. -1.
        1   -1    0    0  501    0  0.00000000000E+00  0.00000000000E+00 -0.13674541346E+04  0.13674541346E+04  0.50400001928E-02 0.  1.
    10030    2    1    2    0    0  0.00000000000E+00  0.00000000000E+00 -0.31504280850E+03  0.24198654606E+04  0.23992700716E+04 0.  0.
        5    1    3    3  502    0 -0.39701643876E+03  0.11319336355E+04 -0.14303422011E+03  0.12080466407E+04  0.46999998093E+01 0.  1.
       -5    1    3    3    0  502  0.39701643876E+03 -0.11319336355E+04 -0.17200858839E+03  0.12118188200E+04  0.46999998093E+01 0. -1.
</event>
<event>
 5   0  0.7681342E-06  0.2839993E+04  0.7818609E-02  0.8290959E-01
       -1   -1    0    0    0  501  0.00000000000E+00  0.00000000000E+00  0.12135959342E+04  0.12135959342E+04  0.50400001928E-02 0. -1.
        1   -1    0    0  501    0  0.00000000000E+00  0.00000000000E+00 -0.16615002067E+04  0.16615002067E+04  0.50400001928E-02 0.  1.
    10030    2    1    2    0    0  0.00000000000E+00  0.00000000000E+00 -0.44790427252E+03  0.28750961410E+04  0.28399928842E+04 0.  0.
        2    1    3    3  502    0 -0.51844272269E+03 -0.98602790532E+03 -0.11153789602E+04  0.15764212989E+04  0.25500000920E-02 0. -1.
       -2    1    3    3    0  502  0.51844272269E+03  0.98602790532E+03  0.66747468765E+03  0.12986748421E+04  0.25500000920E-02 0.  1.
</event>
<event>
 5   0  0.7681342E-06  0.2133869E+04  0.7818609E-02  0.8546469E-01
        1   -1    0    0  501    0  0.00000000000E+00  0.00000000000E+00  0.16552081771E+04  0.16552081771E+04  0.50400001928E-02 0. -1.
       -1   -1    0    0    0  501  0.00000000000E+00  0.00000000000E+00 -0.68773796337E+03  0.68773796339E+03  0.50400001928E-02 0.  1.
    10030    2    1    2    0    0  0.00000000000E+00  0.00000000000E+00  0.96747021373E+03  0.23429461405E+04  0.21338692563E+04 0.  0.
        2    1    3    3  502    0 -0.91220902390E+03 -0.54327686852E+02  0.10883949925E+04  0.14211546223E+04  0.25500000920E-02 0. -1.
       -2    1    3    3    0  502  0.91220902390E+03  0.54327686852E+02 -0.12092477878E+03  0.92179151817E+03  0.25500000920E-02 0.  1.
</event>
<event>
 5   0  0.6288000E-06  0.2964503E+04  0.7818609E-02  0.8253941E-01
       -3   -1    0    0    0  501  0.00000000000E+00  0.00000000000E+00  0.25704526132E+04  0.25704526152E+04  0.10100000352E+00 0. -1.
        3   -1    0    0  501    0  0.00000000000E+00  0.00000000000E+00 -0.85474005157E+03  0.85474005754E+03  0.10100000352E+00 0.  1.
    10030    2    1    2    0    0  0.00000000000E+00  0.00000000000E+00  0.17157125616E+04  0.34251926727E+04  0.29645025301E+04 0.  0.
        4    1    3    3  502    0  0.12865914230E+03 -0.59540144792E+03 -0.70343844421E+03  0.93052851475E+03  0.12699999809E+01 0.  1.
       -4    1    3    3    0  502 -0.12865914230E+03  0.59540144792E+03  0.24191510058E+04  0.24946641579E+04  0.12699999809E+01 0. -1.
</event>
<event>
 5   0  0.6288000E-06  0.2810614E+04  0.7818609E-02  0.8299981E-01
       -3   -1    0    0    0  501  0.00000000000E+00  0.00000000000E+00  0.10422713619E+04  0.10422713668E+04  0.10100000352E+00 0. -1.
        3   -1    0    0  501    0  0.00000000000E+00  0.00000000000E+00 -0.18947925391E+04  0.18947925418E+04  0.10100000352E+00 0.  1.
    10030    2    1    2    0    0  0.00000000000E+00  0.00000000000E+00 -0.85252117721E+03  0.29370639087E+04  0.28106141759E+04 0.  0.
        2    1    3    3  502    0  0.46971515627E+03  0.36779541262E+03  0.90337675363E+03  0.10825873418E+04  0.25500000920E-02 0. -1.
       -2    1    3    3    0  502 -0.46971515627E+03 -0.36779541262E+03 -0.17558979308E+04  0.18544765669E+04  0.25500000920E-02 0.  1.
</event>
<event>
 5   0  0.7681342E-06  0.2878620E+04  0.7818609E-02  0.8279267E-01
       -1   -1    0    0    0  501  0.00000000000E+00  0.00000000000E+00  0.72526855432E+03  0.72526855434E+03  0.50400001928E-02 0. -1.
        1   -1    0    0  501    0  0.00000000000E+00  0.00000000000E+00 -0.28563387277E+04  0.28563387277E+04  0.50400001928E-02 0.  1.
    10030    2    1    2    0    0  0.00000000000E+00  0.00000000000E+00 -0.21310701734E+04  0.35816072820E+04  0.28786195718E+04 0.  0.
        2    1    3    3  502    0 -0.23188001911E+03  0.65022608560E+03 -0.26369138860E+04  0.27257800990E+04  0.25500000920E-02 0.  1.
       -2    1    3    3    0  502  0.23188001911E+03 -0.65022608560E+03  0.50584371264E+03  0.85582718307E+03  0.25500000920E-02 0. -1.
</event>
<event>
 5   0  0.7681342E-06  0.2766308E+04  0.7818609E-02  0.8313805E-01
        1   -1    0    0  501    0  0.00000000000E+00  0.00000000000E+00  0.15523913532E+04  0.15523913532E+04  0.50400001928E-02 0. -1.
       -1   -1    0    0    0  501  0.00000000000E+00  0.00000000000E+00 -0.12323664862E+04  0.12323664862E+04  0.50400001928E-02 0.  1.
    10030    2    1    2    0    0  0.00000000000E+00  0.00000000000E+00  0.32002486707E+03  0.27847578394E+04  0.27663080647E+04 0.  0.
        2    1    3    3  502    0 -0.97306430104E+03  0.97998737500E+03  0.23724234065E+03  0.14012541944E+04  0.25500000920E-02 0.  1.
       -2    1    3    3    0  502  0.97306430104E+03 -0.97998737500E+03  0.82782526416E+02  0.13835036450E+04  0.25500000920E-02 0. -1.
</event>
<event>
 5   0  0.7681342E-06  0.2815678E+04  0.7818609E-02  0.8298418E-01
        1   -1    0    0  501    0  0.00000000000E+00  0.00000000000E+00  0.11773466551E+04  0.11773466551E+04  0.50400001928E-02 0. -1.
       -1   -1    0    0    0  501  0.00000000000E+00  0.00000000000E+00 -0.16834548893E+04  0.16834548894E+04  0.50400001928E-02 0.  1.
    10030    2    1    2    0    0  0.00000000000E+00  0.00000000000E+00 -0.50610823426E+03  0.28608015444E+04  0.28156775263E+04 0.  0.
        2    1    3    3  502    0 -0.11406266538E+04  0.78946759384E+03 -0.89503305665E+01  0.13872160443E+04  0.25500000920E-02 0. -1.
       -2    1    3    3    0  502  0.11406266538E+04 -0.78946759384E+03 -0.49715790370E+03  0.14735855002E+04  0.25500000920E-02 0.  1.
</event>
<event>
 5   0  0.1904553E-05  0.2800705E+04  0.7818609E-02  0.8303049E-01
       -2   -1    0    0    0  501  0.00000000000E+00  0.00000000000E+00  0.11115874096E+04  0.11115874096E+04  0.25500000920E-02 0.  1.
        2   -1    0    0  501    0  0.00000000000E+00  0.00000000000E+00 -0.17641322793E+04  0.17641322793E+04  0.25500000920E-02 0. -1.
    10030    2    1    2    0    0  0.00000000000E+00  0.00000000000E+00 -0.65254486971E+03  0.28757196889E+04  0.28007050759E+04 0.  0.
        1    1    3    3  502    0  0.23466437173E+03  0.13800866186E+04 -0.28952577670E+03  0.14295214645E+04  0.50400001928E-02 0. -1.
       -1    1    3    3    0  502 -0.23466437173E+03 -0.13800866186E+04 -0.36301909301E+03  0.14461982243E+04  0.50400001928E-02 0.  1.
</event>
<event>
 5   0  0.7613444E-06  0.2847086E+04  0.7818609E-02  0.8288797E-01
       -1   -1    0    0    0  501  0.00000000000E+00  0.00000000000E+00  0.35932223862E+04  0.35932223862E+04  0.50400001928E-02 0.  1.
        1   -1    0    0  501    0  0.00000000000E+00  0.00000000000E+00 -0.56397145682E+03  0.56397145684E+03  0.50400001928E-02 0. -1.
    10030    2    1    2    0    0  0.00000000000E+00  0.00000000000E+00  0.30292509294E+04  0.41571938431E+04  0.28470861342E+04 0.  0.
        5    1    3    3  502    0  0.44355174596E+03 -0.94458578503E+03  0.10085503003E+03  0.10484151295E+04  0.46999998093E+01 0. -1.
       -5    1    3    3    0  502 -0.44355174596E+03  0.94458578503E+03  0.29283958994E+04  0.31087787136E+04  0.46999998093E+01 0.  1.
</event>
<event>
 5   0  0.7681342E-06  0.2789255E+04  0.7818609E-02  0.8306612E-01
        1   -1    0    0  501    0  0.00000000000E+00  0.00000000000E+00  0.25299428294E+04  0.25299428294E+04  0.50400001928E-02 0.  1.
       -1   -1    0    0    0  501  0.00000000000E+00  0.00000000000E+00 -0.76878673319E+03  0.76878673321E+03  0.50400001928E-02 0. -1.
    10030    2    1    2    0    0  0.00000000000E+00  0.00000000000E+00  0.17611560962E+04  0.32987295626E+04  0.27892554440E+04 0.  0.
        2    1    3    3  502    0  0.91073844858E+03  0.67273950691E+03 -0.82370844514E+02  0.11352567648E+04  0.25500000920E-02 0.  1.
       -2    1    3    3    0  502 -0.91073844858E+03 -0.67273950691E+03  0.18435269407E+04  0.21634727978E+04  0.25500000920E-02 0. -1.
</event>
<event>
 5   0  0.7388013E-06  0.2834606E+04  0.7818609E-02  0.8292604E-01
        1   -1    0    0  501    0  0.00000000000E+00  0.00000000000E+00  0.13683380985E+04  0.13683380986E+04  0.50400001928E-02 0.  1.
       -1   -1    0    0    0  501  0.00000000000E+00  0.00000000000E+00 -0.14680205117E+04  0.14680205117E+04  0.50400001928E-02 0. -1.
    10030    2    1    2    0    0  0.00000000000E+00  0.00000000000E+00 -0.99682413191E+02  0.28363586103E+04  0.28346064247E+04 0.  0.
        1    1    3    3  502    0  0.53267661920E+03 -0.99680881571E+03 -0.90557519926E+03  0.14482536509E+04  0.50400001928E-02 0. -1.
       -1    1    3    3    0  502 -0.53267661920E+03  0.99680881571E+03  0.80589278607E+03  0.13881049594E+04  0.50400001928E-02 0.  1.
</event>
<event>
 5   0  0.1814230E-05  0.2479254E+04  0.7818609E-02  0.8410414E-01
        2   -1    0    0  501    0  0.00000000000E+00  0.00000000000E+00  0.12541182306E+04  0.12541182306E+04  0.25500000920E-02 0.  1.
       -2   -1    0    0    0  501  0.00000000000E+00  0.00000000000E+00 -0.12253027901E+04  0.12253027901E+04  0.25500000920E-02 0. -1.
    10030    2    1    2    0    0  0.00000000000E+00  0.00000000000E+00  0.28815440573E+02  0.24794210207E+04  0.24792535708E+04 0.  0.
        5    1    3    3  502    0  0.53537385061E+01  0.99216726815E+03 -0.72876286882E+03  0.12310734988E+04  0.46999998093E+01 0. -1.
       -5    1    3    3    0  502 -0.53537385061E+01 -0.99216726815E+03  0.75757830939E+03  0.12483475219E+04  0.46999998093E+01 0.  1.
</event>
<event>
 5   0  0.1814230E-05  0.2786406E+04  0.7818609E-02  0.8307501E-01
       -2   -1    0    0    0  501  0.00000000000E+00  0.00000000000E+00  0.12414075391E+04  0.12414075391E+04  0.25500000920E-02 0. -1.
        2   -1    0    0  501    0  0.00000000000E+00  0.00000000000E+00 -0.15635596130E+04  0.15635596130E+04  0.25500000920E-02 0.  1.
    10030    2    1    2    0    0  0.00000000000E+00  0.00000000000E+00 -0.32215207393E+03  0.28049671521E+04  0.27864060661E+04 0.  0.
        5    1    3    3  502    0 -0.93662762660E+03 -0.10534219520E+03  0.87173309952E+03  0.12838648589E+04  0.46999998093E+01 0. -1.
       -5    1    3    3    0  502  0.93662762660E+03  0.10534219520E+03 -0.11938851734E+04  0.15211022932E+04  0.46999998093E+01 0.  1.
</event>
<event>
 5   0  0.1923559E-05  0.2788780E+04  0.7818609E-02  0.8306760E-01
       -2   -1    0    0    0  501  0.00000000000E+00  0.00000000000E+00  0.17940608993E+04  0.17940608993E+04  0.25500000920E-02 0. -1.
        2   -1    0    0  501    0  0.00000000000E+00  0.00000000000E+00 -0.10837555444E+04  0.10837555444E+04  0.25500000920E-02 0.  1.
    10030    2    1    2    0    0  0.00000000000E+00  0.00000000000E+00  0.71030535490E+03  0.28778164438E+04  0.27887799818E+04 0.  0.
        4    1    3    3  502    0  0.58915326439E+03 -0.11011350819E+04 -0.28490960136E+03  0.12809274497E+04  0.12699999809E+01 0. -1.
       -4    1    3    3    0  502 -0.58915326439E+03  0.11011350819E+04  0.99521495625E+03  0.15968889941E+04  0.12699999809E+01 0.  1.
</event>
<event>
 5   0  0.7613444E-06  0.2812912E+04  0.7818609E-02  0.8299271E-01
       -1   -1    0    0    0  501  0.00000000000E+00  0.00000000000E+00  0.23215358519E+04  0.23215358519E+04  0.50400001928E-02 0.  1.
        1   -1    0    0  501    0  0.00000000000E+00  0.00000000000E+00 -0.85207292564E+03  0.85207292565E+03  0.50400001928E-02 0. -1.
    10030    2    1    2    0    0  0.00000000000E+00  0.00000000000E+00  0.14694629262E+04  0.31736087775E+04  0.28129115488E+04 0.  0.
        5    1    3    3  502    0 -0.87972549353E+03  0.42283047482E+03  0.18771954770E+04  0.21157947687E+04  0.46999998093E+01 0.  1.
       -5    1    3    3    0  502  0.87972549353E+03 -0.42283047482E+03 -0.40773255073E+03  0.10578140089E+04  0.46999998093E+01 0. -1.
</event>
<event>
 5   0  0.1832502E-05  0.2838142E+04  0.7818609E-02  0.8291524E-01
       -2   -1    0    0    0  501  0.00000000000E+00  0.00000000000E+00  0.87925815595E+03  0.87925815596E+03  0.25500000920E-02 0.  1.
        2   -1    0    0  501    0  0.00000000000E+00  0.00000000000E+00 -0.22902975504E+04  0.22902975504E+04  0.25500000920E-02 0. -1.
    10030    2    1    2    0    0  0.00000000000E+00  0.00000000000E+00 -0.14110393944E+04  0.31695557063E+04  0.28381422098E+04 0.  0.
        2    1    3    3  502    0  0.27396319584E+03 -0.84723705949E+03 -0.19394869403E+04  0.21341218473E+04  0.25500000920E-02 0. -1.
       -2    1    3    3    0  502 -0.27396319584E+03  0.84723705949E+03  0.52844754587E+03  0.10354338590E+04  0.25500000920E-02 0.  1.
</event>
<event>
 5   0  0.7681342E-06  0.2756529E+04  0.7818609E-02  0.8316893E-01
       -1   -1    0    0    0  501  0.00000000000E+00  0.00000000000E+00  0.84187023761E+03  0.84187023762E+03  0.50400001928E-02 0.  1.
        1   -1    0    0  501    0  0.00000000000E+00  0.00000000000E+00 -0.22564207954E+04  0.22564207954E+04  0.50400001928E-02 0. -1.
    10030    2    1    2    0    0  0.00000000000E+00  0.00000000000E+00 -0.14145505578E+04  0.30982910331E+04  0.27565293477E+04 0.  0.
        2    1    3    3  502    0  0.14693364638E+03 -0.88311056626E+03  0.47057040306E+03  0.10113902674E+04  0.25500000920E-02 0.  1.
       -2    1    3    3    0  502 -0.14693364638E+03  0.88311056626E+03 -0.18851209609E+04  0.20869007657E+04  0.25500000920E-02 0. -1.
</event>
<event>
 5   0  0.1832502E-05  0.2651800E+04  0.7818609E-02  0.8350816E-01
       -2   -1    0    0    0  501  0.00000000000E+00  0.00000000000E+00  0.67588562852E+03  0.67588562852E+03  0.25500000920E-02 0. -1.
        2   -1    0    0  501    0  0.00000000000E+00  0.00000000000E+00 -0.26010483241E+04  0.26010483241E+04  0.25500000920E-02 0.  1.
    10030    2    1    2    0    0  0.00000000000E+00  0.00000000000E+00 -0.19251626956E+04  0.32769339526E+04  0.26518002801E+04 0.  0.
        2    1    3    3  502    0  0.94120710035E+03  0.93304206557E+03 -0.10115902074E+04  0.16672591429E+04  0.25500000920E-02 0. -1.
       -2    1    3    3    0  502 -0.94120710035E+03 -0.93304206557E+03 -0.91357248814E+03  0.16096748097E+04  0.25500000920E-02 0.  1.
</event>
<event>
 5   0  0.7613444E-06  0.2739240E+04  0.7818609E-02  0.8322384E-01
       -1   -1    0    0    0  501  0.00000000000E+00  0.00000000000E+00  0.16296938724E+04  0.16296938724E+04  0.50400001928E-02 0. -1.
        1   -1    0    0  501    0  0.00000000000E+00  0.00000000000E+00 -0.11510495078E+04  0.11510495078E+04  0.50400001928E-02 0.  1.
    10030    2    1    2    0    0  0.00000000000E+00  0.00000000000E+00  0.47864436459E+03  0.27807433802E+04  0.27392395512E+04 0.  0.
        5    1    3    3  502    0 -0.30350018096E+03 -0.43572127850E+03 -0.10422924641E+04  0.11697696624E+04  0.46999998093E+01 0.  1.
       -5    1    3    3    0  502  0.30350018096E+03  0.43572127850E+03  0.15209368287E+04  0.16109737178E+04  0.46999998093E+01 0. -1.
</event>
<event>
 5   0  0.1923559E-05  0.2784317E+04  0.7818609E-02  0.8308154E-01
       -2   -1    0    0    0  501  0.00000000000E+00  0.00000000000E+00  0.12112659645E+04  0.12112659645E+04  0.25500000920E-02 0. -1.
        2   -1    0    0  501    0  0.00000000000E+00  0.00000000000E+00 -0.16000656689E+04  0.16000656689E+04  0.25500000920E-02 0.  1.
    10030    2    1    2    0    0  0.00000000000E+00  0.00000000000E+00 -0.38879970439E+03  0.28113316333E+04  0.27843168538E+04 0.  0.
        4    1    3    3  502    0 -0.22290052467E+03  0.13166672950E+04 -0.59167134851E+03  0.14606074104E+04  0.12699999809E+01 0.  1.
       -4    1    3    3    0  502  0.22290052467E+03 -0.13166672950E+04  0.20287164411E+03  0.13507242230E+04  0.12699999809E+01 0. -1.
</event>
<event>
 5   0  0.7388013E-06  0.2761976E+04  0.7818609E-02  0.8315172E-01
       -1   -1    0    0    0  501  0.00000000000E+00  0.00000000000E+00  0.85533039294E+03  0.85533039296E+03  0.50400001928E-02 0. -1.
        1   -1    0    0  501    0  0.00000000000E+00  0.00000000000E+00 -0.22296967876E+04  0.22296967876E+04  0.50400001928E-02 0.  1.
    10030    2    1    2    0    0  0.00000000000E+00  0.00000000000E+00 -0.13743663947E+04  0.30850271806E+04  0.27619756911E+04 0.  0.
        1    1    3    3  502    0  0.13708609340E+04  0.16337414843E+03 -0.72549712323E+03  0.15595822802E+04  0.50400001928E-02 0. -1.
       -1    1    3    3    0  502 -0.13708609340E+04 -0.16337414843E+03 -0.64886927143E+03  0.15254449004E+04  0.50400001928E-02 0.  1.
</event>
<event>
 5   0  0.7613444E-06  0.2817364E+04  0.7818609E-02  0.8297898E-01
        1   -1    0    0  501    0  0.00000000000E+00  0.00000000000E+00  0.17351004094E+04  0.17351004094E+04  0.50400001928E-02 0.  1.
       -1   -1    0    0    0  501  0.00000000000E+00  0.00000000000E+00 -0.11436716263E+04  0.11436716263E+04  0.50400001928E-02 0. -1.
    10030    2    1    2    0    0  0.00000000000E+00  0.00000000000E+00  0.59142878307E+03  0.28787720357E+04  0.28173640922E+04 0.  0.
        5    1    3    3  502    0 -0.37473866696E+02  0.12503416486E+04 -0.36617338761E+03  0.13034046067E+04  0.46999998093E+01 0. -1.
       -5    1    3    3    0  502  0.37473866696E+02 -0.12503416486E+04  0.95760217068E+03  0.15753674290E+04  0.46999998093E+01 0.  1.
</event>
<event>
 5   0  0.7388013E-06  0.2782304E+04  0.7818609E-02  0.8308783E-01
        1   -1    0    0  501    0  0.00000000000E+00  0.00000000000E+00  0.94141249526E+03  0.94141249527E+03  0.50400001928E-02 0.  1.
       -1   -1    0    0    0  501  0.00000000000E+00  0.00000000000E+00 -0.20557445226E+04  0.20557445226E+04  0.50400001928E-02 0. -1.
    10030    2    1    2    0    0  0.00000000000E+00  0.00000000000E+00 -0.11143320273E+04  0.29971570178E+04  0.27823037797E+04 0.  0.
        1    1    3    3  502    0  0.10690014458E+04  0.87278805672E+03 -0.36817429807E+03  0.14283120797E+04  0.50400001928E-02 0.  1.
       -1    1    3    3    0  502 -0.10690014458E+04 -0.87278805672E+03 -0.74615772923E+03  0.15688449382E+04  0.50400001928E-02 0. -1.
</event>
<event>
 5   0  0.1832502E-05  0.2736027E+04  0.7818609E-02  0.8323409E-01
       -2   -1    0    0    0  501  0.00000000000E+00  0.00000000000E+00  0.87518071209E+03  0.87518071209E+03  0.25500000920E-02 0.  1.
        2   -1    0    0  501    0  0.00000000000E+00  0.00000000000E+00 -0.21383711820E+04  0.21383711820E+04  0.25500000920E-02 0. -1.
    10030    2    1    2    0    0  0.00000000000E+00  0.00000000000E+00 -0.12631904699E+04  0.30135518941E+04  0.27360272029E+04 0.  0.
        2    1    3    3  502    0 -0.51086480811E+03 -0.77319099157E+03  0.47678511038E+03  0.10421761862E+04  0.25500000920E-02 0.  1.
       -2    1    3    3    0  502  0.51086480811E+03  0.77319099157E+03 -0.17399755803E+04  0.19713757079E+04  0.25500000920E-02 0. -1.
</event>
<event>
 5   0  0.1874272E-05  0.2782300E+04  0.7818609E-02  0.8308785E-01
        2   -1    0    0  501    0  0.00000000000E+00  0.00000000000E+00  0.18241490847E+04  0.18241490847E+04  0.25500000920E-02 0. -1.
       -2   -1    0    0    0  501  0.00000000000E+00  0.00000000000E+00 -0.10609324426E+04  0.10609324426E+04  0.25500000920E-02 0.  1.
    10030    2    1    2    0    0  0.00000000000E+00  0.00000000000E+00  0.76321664211E+03  0.28850815273E+04  0.27823004468E+04 0.  0.
        3    1    3    3  502    0  0.50382886466E+02  0.22894599016E+03  0.18035204072E+04  0.18186919945E+04  0.10100000352E+00 0. -1.
       -3    1    3    3    0  502 -0.50382886466E+02 -0.22894599016E+03 -0.10403037651E+04  0.10663895327E+04  0.10100000352E+00 0.  1.
</event>
<event>
 5   0  0.7613444E-06  0.2806657E+04  0.7818609E-02  0.8301205E-01
       -1   -1    0    0    0  501  0.00000000000E+00  0.00000000000E+00  0.96449381950E+03  0.96449381952E+03  0.50400001928E-02 0. -1.
        1   -1    0    0  501    0  0.00000000000E+00  0.00000000000E+00 -0.20418284610E+04  0.20418284610E+04  0.50400001928E-02 0.  1.
    10030    2    1    2    0    0  0.00000000000E+00  0.00000000000E+00 -0.10773346415E+04  0.30063222805E+04  0.28066570372E+04 0.  0.
        5    1    3    3  502    0  0.13323376902E+04 -0.29643663621E+03 -0.18941914292E+03  0.13780058424E+04  0.46999998093E+01 0.  1.
       -5    1    3    3    0  502 -0.13323376902E+04  0.29643663621E+03 -0.88791549859E+03  0.16283164381E+04  0.46999998093E+01 0. -1.
</event>
<event>
 5   0  0.1814230E-05  0.2840779E+04  0.7818609E-02  0.8290719E-01
        2   -1    0    0  501    0  0.00000000000E+00  0.00000000000E+00  0.78731865667E+03  0.78731865667E+03  0.25500000920E-02 0.  1.
       -2   -1    0    0    0  501  0.00000000000E+00  0.00000000000E+00 -0.25625021056E+04  0.25625021056E+04  0.25500000920E-02 0. -1.
    10030    2    1    2    0    0  0.00000000000E+00  0.00000000000E+00 -0.17751834490E+04  0.33498207623E+04  0.28407785662E+04 0.  0.
        5    1    3    3  502    0 -0.62138942631E+03 -0.12411113425E+04 -0.53187169095E+03  0.14864022905E+04  0.46999998093E+01 0. -1.
       -5    1    3    3    0  502  0.62138942631E+03  0.12411113425E+04 -0.12433117580E+04  0.18634184718E+04  0.46999998093E+01 0.  1.
</event>
<event>
 5   0  0.1814230E-05  0.2506556E+04  0.7818609E-02  0.8400653E-01
        2   -1    0    0  501    0  0.00000000000E+00  0.00000000000E+00  0.28248561215E+04  0.28248561215E+04  0.25500000920E-02 0.  1.
       -2   -1    0    0    0  501  0.00000000000E+00  0.00000000000E+00 -0.55603056000E+03  0.55603056000E+03  0.25500000920E-02 0. -1.
    10030    2    1    2    0    0  0.00000000000E+00  0.00000000000E+00  0.22688255615E+04  0.33808866815E+04  0.25065564675E+04 0.  0.
        5    1    3    3  502    0  0.19781072477E+02  0.79625443325E+03 -0.17071820227E+03  0.81460371218E+03  0.46999998093E+01 0. -1.
       -5    1    3    3    0  502 -0.19781072477E+02 -0.79625443325E+03  0.24395437638E+04  0.25662829693E+04  0.46999998093E+01 0.  1.
</event>
<event>
 5   0  0.1814230E-05  0.2770655E+04  0.7818609E-02  0.8312437E-01
        2   -1    0    0  501    0  0.00000000000E+00  0.00000000000E+00  0.21747130152E+04  0.21747130152E+04  0.25500000920E-02 0.  1.
       -2   -1    0    0    0  501  0.00000000000E+00  0.00000000000E+00 -0.88247591526E+03  0.88247591527E+03  0.25500000920E-02 0. -1.
    10030    2    1    2    0    0  0.00000000000E+00  0.00000000000E+00  0.12922370999E+04  0.30571889304E+04  0.27706546941E+04 0.  0.
        5    1    3    3  502    0 -0.27515778587E+03 -0.11968085872E+04  0.13535521855E+04  0.18276181796E+04  0.46999998093E+01 0.  1.
       -5    1    3    3    0  502  0.27515778587E+03  0.11968085872E+04 -0.61315085649E+02  0.12295707508E+04  0.46999998093E+01 0. -1.
</event>
<event>
 5   0  0.7388013E-06  0.2793244E+04  0.7818609E-02  0.8305369E-01
        1   -1    0    0  501    0  0.00000000000E+00  0.00000000000E+00  0.21217281899E+04  0.21217281899E+04  0.50400001928E-02 0.  1.
       -1   -1    0    0    0  501  0.00000000000E+00  0.00000000000E+00 -0.91932283231E+03  0.91932283232E+03  0.50400001928E-02 0. -1.
    10030    2    1    2    0    0  0.00000000000E+00  0.00000000000E+00  0.12024053576E+04  0.30410510222E+04  0.27932441132E+04 0.  0.
        1    1    3    3  502    0  0.53913903531E+03  0.86642229203E+03 -0.43690704216E+03  0.11100658769E+04  0.50400001928E-02 0. -1.
       -1    1    3    3    0  502 -0.53913903531E+03 -0.86642229203E+03  0.16393123998E+04  0.19309851454E+04  0.50400001928E-02 0.  1.
</event>
<event>
 5   0  0.1923559E-05  0.2784046E+04  0.7818609E-02  0.8308239E-01
       -2   -1    0    0    0  501  0.00000000000E+00  0.00000000000E+00  0.99408783873E+03  0.99408783874E+03  0.25500000920E-02 0. -1.
        2   -1    0    0  501    0  0.00000000000E+00  0.00000000000E+00 -0.19492525332E+04  0.19492525332E+04  0.25500000920E-02 0.  1.
    10030    2    1    2    0    0  0.00000000000E+00  0.00000000000E+00 -0.95516469450E+03  0.29433403720E+04  0.27840461475E+04 0.  0.
        4    1    3    3  502    0 -0.32902567535E+03  0.62363785585E+03  0.79131767577E+03  0.10598902524E+04  0.12699999809E+01 0. -1.
       -4    1    3    3    0  502  0.32902567535E+03 -0.62363785585E+03 -0.17464823703E+04  0.18834501196E+04  0.12699999809E+01 0.  1.
</event>
<event>
 5   0  0.7388013E-06  0.2728849E+04  0.7818609E-02  0.8325705E-01
        1   -1    0    0  501    0  0.00000000000E+00  0.00000000000E+00  0.12981517559E+04  0.12981517559E+04  0.50400001928E-02 0. -1.
       -1   -1    0    0    0  501  0.00000000000E+00  0.00000000000E+00 -0.14340800831E+04  0.14340800831E+04  0.50400001928E-02 0.  1.
    10030    2    1    2    0    0  0.00000000000E+00  0.00000000000E+00 -0.13592832719E+03  0.27322318390E+04  0.27288485322E+04 0.  0.
        1    1    3    3  502    0 -0.66475219718E+03 -0.10065170117E+04 -0.70647074631E+03  0.13978815736E+04  0.50400001928E-02 0.  1.
       -1    1    3    3    0  502  0.66475219718E+03  0.10065170117E+04  0.57054241912E+03  0.13343502653E+04  0.50400001928E-02 0. -1.
</event>
<event>
 5   0  0.7555871E-06  0.2825535E+04  0.7818609E-02  0.8295384E-01
       -1   -1    0    0    0  501  0.00000000000E+00  0.00000000000E+00  0.16474297888E+04  0.16474297888E+04  0.50400001928E-02 0.  1.
        1   -1    0    0  501    0  0.00000000000E+00  0.00000000000E+00 -0.12115305931E+04  0.12115305931E+04  0.50400001928E-02 0. -1.
    10030    2    1    2    0    0  0.00000000000E+00  0.00000000000E+00  0.43589919563E+03  0.28589603819E+04  0.28255347028E+04 0.  0.
        3    1    3    3  502    0  0.73173484298E+02 -0.11366474121E+04 -0.62775489308E+03  0.13005375481E+04  0.10100000352E+00 0. -1.
       -3    1    3    3    0  502 -0.73173484298E+02  0.11366474121E+04  0.10636540887E+04  0.15584228338E+04  0.10100000352E+00 0.  1.
</event>
<event>
 5   0  0.7681342E-06  0.2745025E+04  0.7818609E-02  0.8320542E-01
        1   -1    0    0  501    0  0.00000000000E+00  0.00000000000E+00  0.11072694627E+04  0.11072694627E+04  0.50400001928E-02 0. -1.
       -1   -1    0    0    0  501  0.00000000000E+00  0.00000000000E+00 -0.17012932591E+04  0.17012932591E+04  0.50400001928E-02 0.  1.
    10030    2    1    2    0    0  0.00000000000E+00  0.00000000000E+00 -0.59402379636E+03  0.28085627218E+04  0.27450246432E+04 0.  0.
        2    1    3    3  502    0 -0.35102660815E+03  0.10122657176E+04  0.58068364002E+03  0.12186447605E+04  0.25500000920E-02 0. -1.
       -2    1    3    3    0  502  0.35102660815E+03 -0.10122657176E+04 -0.11747074364E+04  0.15899179613E+04  0.25500000920E-02 0.  1.
</event>
<event>
 5   0  0.1923559E-05  0.2079664E+04  0.7818609E-02  0.8570255E-01
        2   -1    0    0  501    0  0.00000000000E+00  0.00000000000E+00  0.86531815210E+03  0.86531815210E+03  0.25500000920E-02 0. -1.
       -2   -1    0    0    0  501  0.00000000000E+00  0.00000000000E+00 -0.12495412265E+04  0.12495412265E+04  0.25500000920E-02 0.  1.
    10030    2    1    2    0    0  0.00000000000E+00  0.00000000000E+00 -0.38422307441E+03  0.21148593786E+04  0.20796641124E+04 0.  0.
        4    1    3    3  502    0  0.22598791254E+03 -0.12801860613E+03  0.83179957197E+03  0.87140773519E+03  0.12699999809E+01 0. -1.
       -4    1    3    3    0  502 -0.22598791254E+03  0.12801860613E+03 -0.12160226464E+04  0.12434516434E+04  0.12699999809E+01 0.  1.
</event>
<event>
 5   0  0.7509685E-06  0.2764388E+04  0.7818609E-02  0.8314410E-01
       -1   -1    0    0    0  501  0.00000000000E+00  0.00000000000E+00  0.16530289665E+04  0.16530289665E+04  0.50400001928E-02 0. -1.
        1   -1    0    0  501    0  0.00000000000E+00  0.00000000000E+00 -0.11557332639E+04  0.11557332639E+04  0.50400001928E-02 0.  1.
    10030    2    1    2    0    0  0.00000000000E+00  0.00000000000E+00  0.49729570259E+03  0.28087622304E+04  0.27643882236E+04 0.  0.
        4    1    3    3  502    0  0.42094091787E+02 -0.13616743244E+04  0.11382688846E+02  0.13623729507E+04  0.12699999809E+01 0. -1.
       -4    1    3    3    0  502 -0.42094091787E+02  0.13616743244E+04  0.48591301374E+03  0.14463892796E+04  0.12699999809E+01 0.  1.
</event>
<event>
 5   0  0.7555871E-06  0.2908142E+04  0.7818609E-02  0.8270459E-01
       -1   -1    0    0    0  501  0.00000000000E+00  0.00000000000E+00  0.12441141998E+04  0.12441141998E+04  0.50400001928E-02 0. -1.
        1   -1    0    0  501    0  0.00000000000E+00  0.00000000000E+00 -0.16994595481E+04  0.16994595481E+04  0.50400001928E-02 0.  1.
    10030    2    1    2    0    0  0.00000000000E+00  0.00000000000E+00 -0.45534534825E+03  0.29435737479E+04  0.29081415067E+04 0.  0.
        3    1    3    3  502    0 -0.11005232210E+04  0.61166801472E+03 -0.96388081233E+03  0.15856718926E+04  0.10100000352E+00 0.  1.
       -3    1    3    3    0  502  0.11005232210E+04 -0.61166801472E+03  0.50853546408E+03  0.13579018553E+04  0.10100000352E+00 0. -1.
</event>
<event>
 5   0  0.1904553E-05  0.2767436E+04  0.7818609E-02  0.8313450E-01
        2   -1    0    0  501    0  0.00000000000E+00  0.00000000000E+00  0.17687190005E+04  0.17687190005E+04  0.25500000920E-02 0.  1.
       -2   -1    0    0    0  501  0.00000000000E+00  0.00000000000E+00 -0.10825209251E+04  0.10825209251E+04  0.25500000920E-02 0. -1.
    10030    2    1    2    0    0  0.00000000000E+00  0.00000000000E+00  0.68619807544E+03  0.28512399256E+04  0.27674358736E+04 0.  0.
        1    1    3    3  502    0 -0.91386809527E+03  0.12207651519E+03 -0.71994939220E+03  0.11697797649E+04  0.50400001928E-02 0. -1.
       -1    1    3    3    0  502  0.91386809527E+03 -0.12207651519E+03  0.14061474676E+04  0.16814601607E+04  0.50400001928E-02 0.  1.
</event>
<event>
 5   0  0.1814230E-05  0.2774527E+04  0.7818609E-02  0.8311221E-01
        2   -1    0    0  501    0  0.00000000000E+00  0.00000000000E+00  0.11053648567E+04  0.11053648567E+04  0.25500000920E-02 0.  1.
       -2   -1    0    0    0  501  0.00000000000E+00  0.00000000000E+00 -0.17410534753E+04  0.17410534753E+04  0.25500000920E-02 0. -1.
    10030    2    1    2    0    0  0.00000000000E+00  0.00000000000E+00 -0.63568861854E+03  0.28464183320E+04  0.27745265004E+04 0.  0.
        5    1    3    3  502    0  0.92691871655E+03 -0.44708233327E+03  0.63653802045E+03  0.12100676267E+04  0.46999998093E+01 0.  1.
       -5    1    3    3    0  502 -0.92691871655E+03  0.44708233327E+03 -0.12722266390E+04  0.16363507053E+04  0.46999998093E+01 0. -1.
</event>
<event>
 5   0  0.7509685E-06  0.2801376E+04  0.7818609E-02  0.8302841E-01
        1   -1    0    0  501    0  0.00000000000E+00  0.00000000000E+00  0.16680028370E+04  0.16680028370E+04  0.50400001928E-02 0.  1.
       -1   -1    0    0    0  501  0.00000000000E+00  0.00000000000E+00 -0.11762133851E+04  0.11762133851E+04  0.50400001928E-02 0. -1.
    10030    2    1    2    0    0  0.00000000000E+00  0.00000000000E+00  0.49178945186E+03  0.28442162222E+04  0.28013762784E+04 0.  0.
        4    1    3    3  502    0 -0.47273673019E+03 -0.10679749972E+04  0.10309430191E+04  0.15578497143E+04  0.12699999809E+01 0.  1.
       -4    1    3    3    0  502  0.47273673019E+03  0.10679749972E+04 -0.53915356724E+03  0.12863665079E+04  0.12699999809E+01 0. -1.
</event>
<event>
 5   0  0.1923559E-05  0.2690728E+04  0.7818609E-02  0.8338020E-01
       -2   -1    0    0    0  501  0.00000000000E+00  0.00000000000E+00  0.18084005380E+04  0.18084005380E+04  0.25500000920E-02 0. -1.
        2   -1    0    0  501    0  0.00000000000E+00  0.00000000000E+00 -0.10008865567E+04  0.10008865567E+04  0.25500000920E-02 0.  1.
    10030    2    1    2    0    0  0.00000000000E+00  0.00000000000E+00  0.80751398131E+03  0.28092870947E+04  0.26907276247E+04 0.  0.
        4    1    3    3  502    0 -0.34296780168E+03  0.37259550551E+03  0.17050907723E+04  0.17787047193E+04  0.12699999809E+01 0. -1.
       -4    1    3    3    0  502  0.34296780168E+03 -0.37259550551E+03 -0.89757679101E+03  0.10305823754E+04  0.12699999809E+01 0.  1.
</event>
<event>
 5   0  0.1832502E-05  0.2784974E+04  0.7818609E-02  0.8307949E-01
        2   -1    0    0  501    0  0.00000000000E+00  0.00000000000E+00  0.13718393701E+04  0.13718393701E+04  0.25500000920E-02 0.  1.
       -2   -1    0    0    0  501  0.00000000000E+00  0.00000000000E+00 -0.14134451442E+04  0.14134451442E+04  0.25500000920E-02 0. -1.
    10030    2    1    2    0    0  0.00000000000E+00  0.00000000000E+00 -0.41605774100E+02  0.27852845143E+04  0.27849737494E+04 0.  0.
        2    1    3    3  502    0  0.10057858094E+04  0.39044874470E+03  0.85961595655E+03  0.13794908152E+04  0.25500000920E-02 0.  1.
       -2    1    3    3    0  502 -0.10057858094E+04 -0.39044874470E+03 -0.90122173065E+03  0.14057936991E+04  0.25500000920E-02 0. -1.
</event>
<event>
 5   0  0.7388013E-06  0.2747475E+04  0.7818609E-02  0.8319763E-01
        1   -1    0    0  501    0  0.00000000000E+00  0.00000000000E+00  0.12025755064E+04  0.12025755065E+04  0.50400001928E-02 0.  1.
       -1   -1    0    0    0  501  0.00000000000E+00  0.00000000000E+00 -0.15692603300E+04  0.15692603300E+04  0.50400001928E-02 0. -1.
    10030    2    1    2    0    0  0.00000000000E+00  0.00000000000E+00 -0.36668482354E+03  0.27718358364E+04  0.27474745029E+04 0.  0.
        1    1    3    3  502    0  0.11515563865E+04 -0.43520347593E+03 -0.79839536229E+03  0.14672829759E+04  0.50400001928E-02 0. -1.
       -1    1    3    3    0  502 -0.11515563865E+04  0.43520347593E+03  0.43171053875E+03  0.13045528606E+04  0.50400001928E-02 0.  1.
</event>
<event>
 5   0  0.1832502E-05  0.2711531E+04  0.7818609E-02  0.8331273E-01
       -2   -1    0    0    0  501  0.00000000000E+00  0.00000000000E+00  0.14382858598E+04  0.14382858598E+04  0.25500000920E-02 0.  1.
        2   -1    0    0  501    0  0.00000000000E+00  0.00000000000E+00 -0.12779793199E+04  0.12779793200E+04  0.25500000920E-02 0. -1.
    10030    2    1    2    0    0  0.00000000000E+00  0.00000000000E+00  0.16030653986E+03  0.27162651798E+04  0.27115306268E+04 0.  0.
        2    1    3    3  502    0  0.12980877903E+04  0.49947357090E+02 -0.30856156068E+03  0.13351917040E+04  0.25500000920E-02 0. -1.
       -2    1    3    3    0  502 -0.12980877903E+04 -0.49947357090E+02  0.46886810054E+03  0.13810734758E+04  0.25500000920E-02 0.  1.
</event>
<event>
 5   0  0.7681342E-06  0.2758733E+04  0.7818609E-02  0.8316196E-01
       -1   -1    0    0    0  501  0.00000000000E+00  0.00000000000E+00  0.80551167818E+03  0.80551167820E+03  0.50400001928E-02 0.  1.
        1   -1    0    0  501    0  0.00000000000E+00  0.00000000000E+00 -0.23620417629E+04  0.23620417629E+04  0.50400001928E-02 0. -1.
    10030    2    1    2    0    0  0.00000000000E+00  0.00000000000E+00 -0.15565300847E+04  0.31675534411E+04  0.27587332052E+04 0.  0.
        2    1    3    3  502    0 -0.31448548631E+03  0.13377465295E+04 -0.64151297129E+03  0.15165769979E+04  0.25500000920E-02 0.  1.
       -2    1    3    3    0  502  0.31448548631E+03 -0.13377465295E+04 -0.91501711341E+03  0.16509764432E+04  0.25500000920E-02 0. -1.
</event>
<event>
 5   0  0.7388013E-06  0.2789666E+04  0.7818609E-02  0.8306484E-01
       -1   -1    0    0    0  501  0.00000000000E+00  0.00000000000E+00  0.14254561134E+04  0.14254561134E+04  0.50400001928E-02 0. -1.
        1   -1    0    0  501    0  0.00000000000E+00  0.00000000000E+00 -0.13648673586E+04  0.13648673586E+04  0.50400001928E-02 0.  1.
    10030    2    1    2    0    0  0.00000000000E+00  0.00000000000E+00  0.60588754756E+02  0.27903234720E+04  0.27896655859E+04 0.  0.
        1    1    3    3  502    0 -0.10574906552E+04  0.51390387423E+03 -0.72033236108E+03  0.13788627155E+04  0.50400001928E-02 0.  1.
       -1    1    3    3    0  502  0.10574906552E+04 -0.51390387423E+03  0.78092111584E+03  0.14114607565E+04  0.50400001928E-02 0. -1.
</event>
<event>
 5   0  0.1904553E-05  0.2946092E+04  0.7818609E-02  0.8259294E-01
       -2   -1    0    0    0  501  0.00000000000E+00  0.00000000000E+00  0.10076153092E+04  0.10076153092E+04  0.25500000920E-02 0. -1.
        2   -1    0    0  501    0  0.00000000000E+00  0.00000000000E+00 -0.21534653148E+04  0.21534653148E+04  0.25500000920E-02 0.  1.
    10030    2    1    2    0    0  0.00000000000E+00  0.00000000000E+00 -0.11458500056E+04  0.31610806240E+04  0.29460920686E+04 0.  0.
        1    1    3    3  502    0  0.86088320950E+03 -0.61386494378E+03 -0.16733982492E+04  0.19794473396E+04  0.50400001928E-02 0.  1.
       -1    1    3    3    0  502 -0.86088320950E+03  0.61386494378E+03  0.52754824364E+03  0.11816332845E+04  0.50400001928E-02 0. -1.
</event>
<event>
 5   0  0.1832502E-05  0.2835453E+04  0.7818609E-02  0.8292345E-01
        2   -1    0    0  501    0  0.00000000000E+00  0.00000000000E+00  0.16988534501E+04  0.16988534501E+04  0.25500000920E-02 0.  1.
       -2   -1    0    0    0  501  0.00000000000E+00  0.00000000000E+00 -0.11831208226E+04  0.11831208226E+04  0.25500000920E-02 0. -1.
    10030    2    1    2    0    0  0.00000000000E+00  0.00000000000E+00  0.51573262750E+03  0.28819742728E+04  0.28354533263E+04 0.  0.
        2    1    3    3  502    0 -0.34244822736E+03 -0.59598610703E+03 -0.10024284894E+04  0.12154559245E+04  0.25500000920E-02 0. -1.
       -2    1    3    3    0  502  0.34244822736E+03  0.59598610703E+03  0.15181611169E+04  0.16665183482E+04  0.25500000920E-02 0.  1.
</event>
<event>
 5   0  0.7388013E-06  0.2694855E+04  0.7818609E-02  0.8336676E-01
        1   -1    0    0  501    0  0.00000000000E+00  0.00000000000E+00  0.14012166861E+04  0.14012166861E+04  0.50400001928E-02 0. -1.
       -1   -1    0    0    0  501  0.00000000000E+00  0.00000000000E+00 -0.12957029747E+04  0.12957029747E+04  0.50400001928E-02 0.  1.
    10030    2    1    2    0    0  0.00000000000E+00  0.00000000000E+00  0.10551371141E+03  0.26969196608E+04  0.26948548223E+04 0.  0.
        1    1    3    3  502    0 -0.29731716611E+03  0.11280017948E+04 -0.62212999410E+03  0.13220557008E+04  0.50400001928E-02 0.  1.
       -1    1    3    3    0  502  0.29731716611E+03 -0.11280017948E+04  0.72764370550E+03  0.13748639600E+04  0.50400001928E-02 0. -1.
</event>
<event>
 5   0  0.7681342E-06  0.2901119E+04  0.7818609E-02  0.8272545E-01
       -1   -1    0    0    0  501  0.00000000000E+00  0.00000000000E+00  0.12365710837E+04  0.12365710837E+04  0.50400001928E-02 0. -1.
        1   -1    0    0  501    0  0.00000000000E+00  0.00000000000E+00 -0.17015786026E+04  0.17015786026E+04  0.50400001928E-02 0.  1.
    10030    2    1    2    0    0  0.00000000000E+00  0.00000000000E+00 -0.46500751887E+03  0.29381496863E+04  0.29011190232E+04 0.  0.
        2    1    3    3  502    0  0.24285196353E+03 -0.12729714736E+04  0.42749649945E+03  0.13646196194E+04  0.25500000920E-02 0. -1.
       -2    1    3    3    0  502 -0.24285196353E+03  0.12729714736E+04 -0.89250401832E+03  0.15735300669E+04  0.25500000920E-02 0.  1.
</event>
<event>
 5   0  0.1904553E-05  0.2761461E+04  0.7818609E-02  0.8315334E-01
       -2   -1    0    0    0  501  0.00000000000E+00  0.00000000000E+00  0.11291195523E+04  0.11291195523E+04  0.25500000920E-02 0.  1.
        2   -1    0    0  501    0  0.00000000000E+00  0.00000000000E+00 -0.16884095549E+04  0.16884095549E+04  0.25500000920E-02 0. -1.
    10030    2    1    2    0    0  0.00000000000E+00  0.00000000000E+00 -0.55929000265E+03  0.28175291072E+04  0.27614606575E+04 0.  0.
        1    1    3    3  502    0 -0.77360584061E+03 -0.29328554744E+03 -0.14075003301E+04  0.16326480295E+04  0.50400001928E-02 0. -1.
       -1    1    3    3    0  502  0.77360584061E+03  0.29328554744E+03  0.84821032741E+03  0.11848810778E+04  0.50400001928E-02 0.  1.
</event>
<event>
 5   0  0.7681342E-06  0.2793876E+04  0.7818609E-02  0.8305172E-01
        1   -1    0    0  501    0  0.00000000000E+00  0.00000000000E+00  0.10196404695E+04  0.10196404695E+04  0.50400001928E-02 0. -1.
       -1   -1    0    0    0  501  0.00000000000E+00  0.00000000000E+00 -0.19138469891E+04  0.19138469891E+04  0.50400001928E-02 0.  1.
    10030    2    1    2    0    0  0.00000000000E+00  0.00000000000E+00 -0.89420651955E+03  0.29334874586E+04  0.27938760477E+04 0.  0.
        2    1    3    3  502    0  0.13375287150E+03  0.58985929295E+03 -0.17692375438E+04  0.18697661090E+04  0.25500000920E-02 0.  1.
       -2    1    3    3    0  502 -0.13375287150E+03 -0.58985929295E+03  0.87503102424E+03  0.10637213496E+04  0.25500000920E-02 0. -1.
</event>
<event>
 5   0  0.7555871E-06  0.2206550E+04  0.7818609E-02  0.8515707E-01
        1   -1    0    0  501    0  0.00000000000E+00  0.00000000000E+00  0.14804495955E+04  0.14804495955E+04  0.50400001928E-02 0.  1.
       -1   -1    0    0    0  501  0.00000000000E+00  0.00000000000E+00 -0.82219338488E+03  0.82219338490E+03  0.50400001928E-02 0. -1.
    10030    2    1    2    0    0  0.00000000000E+00  0.00000000000E+00  0.65825621064E+03  0.23026429804E+04  0.22065501255E+04 0.  0.
        3    1    3    3  502    0  0.33609928438E+03 -0.89892026308E+03  0.89706754243E+03  0.13136782537E+04  0.10100000352E+00 0.  1.
       -3    1    3    3    0  502 -0.33609928438E+03  0.89892026308E+03 -0.23881133179E+03  0.98896472674E+03  0.10100000352E+00 0. -1.
</event>
<event>
 5   0  0.1923559E-05  0.2820439E+04  0.7818609E-02  0.8296951E-01
       -2   -1    0    0    0  501  0.00000000000E+00  0.00000000000E+00  0.98095966773E+03  0.98095966773E+03  0.25500000920E-02 0.  1.
        2   -1    0    0  501    0  0.00000000000E+00  0.00000000000E+00 -0.20273195524E+04  0.20273195524E+04  0.25500000920E-02 0. -1.
    10030    2    1    2    0    0  0.00000000000E+00  0.00000000000E+00 -0.10463598847E+04  0.30082792201E+04  0.28204387705E+04 0.  0.
        4    1    3    3  502    0 -0.63141921374E+03  0.31448845300E+03  0.77926187658E+03  0.10511155482E+04  0.12699999809E+01 0.  1.
       -4    1    3    3    0  502  0.63141921374E+03 -0.31448845300E+03 -0.18256217612E+04  0.19571636719E+04  0.12699999809E+01 0. -1.
</event>
<event>
 5   0  0.1923559E-05  0.2817012E+04  0.7818609E-02  0.8298006E-01
        2   -1    0    0  501    0  0.00000000000E+00  0.00000000000E+00  0.20047046628E+04  0.20047046628E+04  0.25500000920E-02 0.  1.
       -2   -1    0    0    0  501  0.00000000000E+00  0.00000000000E+00 -0.98961692872E+03  0.98961692872E+03  0.25500000920E-02 0. -1.
    10030    2    1    2    0    0  0.00000000000E+00  0.00000000000E+00  0.10150877341E+04  0.29943215916E+04  0.28170123688E+04 0.  0.
        4    1    3    3  502    0 -0.52988668444E+03  0.12962023980E+04  0.66863312608E+03  0.15517707386E+04  0.12699999809E+01 0. -1.
       -4    1    3    3    0  502  0.52988668444E+03 -0.12962023980E+04  0.34645460804E+03  0.14425508529E+04  0.12699999809E+01 0.  1.
</event>
<event>
 5   0  0.1923559E-05  0.2798103E+04  0.7818609E-02  0.8303857E-01
       -2   -1    0    0    0  501  0.00000000000E+00  0.00000000000E+00  0.13872098376E+04  0.13872098376E+04  0.25500000920E-02 0. -1.
        2   -1    0    0  501    0  0.00000000000E+00  0.00000000000E+00 -0.14109947061E+04  0.14109947061E+04  0.25500000920E-02 0.  1.
    10030    2    1    2    0    0  0.00000000000E+00  0.00000000000E+00 -0.23784868462E+02  0.27982045437E+04  0.27981034556E+04 0.  0.
        4    1    3    3  502    0  0.11025063959E+04 -0.85304349451E+03 -0.13081084857E+03  0.14001130839E+04  0.12699999809E+01 0.  1.
       -4    1    3    3    0  502 -0.11025063959E+04  0.85304349451E+03  0.10702598011E+03  0.13980914598E+04  0.12699999809E+01 0. -1.
</event>
<event>
 5   0  0.1874272E-05  0.2818903E+04  0.7818609E-02  0.8297424E-01
        2   -1    0    0  501    0  0.00000000000E+00  0.00000000000E+00  0.17243231665E+04  0.17243231665E+04  0.25500000920E-02 0. -1.
       -2   -1    0    0    0  501  0.00000000000E+00  0.00000000000E+00 -0.11520772163E+04  0.11520772163E+04  0.25500000920E-02 0.  1.
    10030    2    1    2    0    0  0.00000000000E+00  0.00000000000E+00  0.57224595020E+03  0.28764003828E+04  0.28189029310E+04 0.  0.
        3    1    3    3  502    0  0.68276298338E+03 -0.36778969727E+03  0.14870392756E+04  0.16771166836E+04  0.10100000352E+00 0. -1.
       -3    1    3    3    0  502 -0.68276298338E+03  0.36778969727E+03 -0.91479332539E+03  0.11992836992E+04  0.10100000352E+00 0.  1.
</event>
<event>
 5   0  0.7388013E-06  0.2247949E+04  0.7818609E-02  0.8498732E-01
       -1   -1    0    0    0  501  0.00000000000E+00  0.00000000000E+00  0.12483102149E+04  0.12483102149E+04  0.50400001928E-02 0. -1.
        1   -1    0    0  501    0  0.00000000000E+00  0.00000000000E+00 -0.10120226536E+04  0.10120226536E+04  0.50400001928E-02 0.  1.
    10030    2    1    2    0    0  0.00000000000E+00  0.00000000000E+00  0.23628756134E+03  0.22603328685E+04  0.22479485904E+04 0.  0.
        1    1    3    3  502    0  0.50737347460E+03 -0.16115422832E+03 -0.87721870190E+03  0.10261146033E+04  0.50400001928E-02 0.  1.
       -1    1    3    3    0  502 -0.50737347460E+03  0.16115422832E+03  0.11135062632E+04  0.12342182653E+04  0.50400001928E-02 0. -1.
</event>
<event>
 5   0  0.1832502E-05  0.2790724E+04  0.7818609E-02  0.8306154E-01
        2   -1    0    0  501    0  0.00000000000E+00  0.00000000000E+00  0.19821220863E+04  0.19821220863E+04  0.25500000920E-02 0.  1.
       -2   -1    0    0    0  501  0.00000000000E+00  0.00000000000E+00 -0.98229829140E+03  0.98229829140E+03  0.25500000920E-02 0. -1.
    10030    2    1    2    0    0  0.00000000000E+00  0.00000000000E+00  0.99982379488E+03  0.29644203777E+04  0.27907240198E+04 0.  0.
        2    1    3    3  502    0  0.33088685052E+03  0.59668941667E+03 -0.79301897683E+03  0.10461374028E+04  0.25500000920E-02 0. -1.
       -2    1    3    3    0  502 -0.33088685052E+03 -0.59668941667E+03  0.17928427717E+04  0.19182829749E+04  0.25500000920E-02 0.  1.
</event>
<event>
 5   0  0.1904553E-05  0.2169380E+04  0.7818609E-02  0.8531282E-01
       -2   -1    0    0    0  501  0.00000000000E+00  0.00000000000E+00  0.13808696289E+04  0.13808696289E+04  0.25500000920E-02 0.  1.
        2   -1    0    0  501    0  0.00000000000E+00  0.00000000000E+00 -0.85203749055E+03  0.85203749056E+03  0.25500000920E-02 0. -1.
    10030    2    1    2    0    0  0.00000000000E+00  0.00000000000E+00  0.52883213838E+03  0.22329071195E+04  0.21693802741E+04 0.  0.
        1    1    3    3  502    0  0.91485878355E+03 -0.51538682136E+03  0.54434051882E+03  0.11827496649E+04  0.50400001928E-02 0.  1.
       -1    1    3    3    0  502 -0.91485878355E+03  0.51538682136E+03 -0.15508380446E+02  0.10501574546E+04  0.50400001928E-02 0. -1.
</event>
<event>
 5   0  0.7681342E-06  0.2252535E+04  0.7818609E-02  0.8496875E-01
        1   -1    0    0  501    0  0.00000000000E+00  0.00000000000E+00  0.99878647769E+03  0.99878647771E+03  0.50400001928E-02 0.  1.
       -1   -1    0    0    0  501  0.00000000000E+00  0.00000000000E+00 -0.12700196912E+04  0.12700196912E+04  0.50400001928E-02 0. -1.
    10030    2    1    2    0    0  0.00000000000E+00  0.00000000000E+00 -0.27123321346E+03  0.22688061689E+04  0.22525350110E+04 0.  0.
        2    1    3    3  502    0 -0.77679803790E+03 -0.80475142004E+03 -0.26862524189E+03  0.11503041165E+04  0.25500000920E-02 0. -1.
       -2    1    3    3    0  502  0.77679803790E+03  0.80475142004E+03 -0.26079715723E+01  0.11185020524E+04  0.25500000920E-02 0.  1.
</event>
<event>
 5   0  0.7681342E-06  0.2778864E+04  0.7818609E-02  0.8309860E-01
       -1   -1    0    0    0  501  0.00000000000E+00  0.00000000000E+00  0.12651837592E+04  0.12651837592E+04  0.50400001928E-02 0.  1.
        1   -1    0    0  501    0  0.00000000000E+00  0.00000000000E+00 -0.15258820200E+04  0.15258820200E+04  0.50400001928E-02 0. -1.
    10030    2    1    2    0    0  0.00000000000E+00  0.00000000000E+00 -0.26069826081E+03  0.27910657793E+04  0.27788639047E+04 0.  0.
        2    1    3    3  502    0 -0.32175879272E+03 -0.12602967660E+04 -0.62100669741E+03  0.14413625420E+04  0.25500000920E-02 0.  1.
       -2    1    3    3    0  502  0.32175879272E+03  0.12602967660E+04  0.36030843660E+03  0.13497032373E+04  0.25500000920E-02 0. -1.
</event>
<event>
 5   0  0.1904553E-05  0.2801683E+04  0.7818609E-02  0.8302746E-01
        2   -1    0    0  501    0  0.00000000000E+00  0.00000000000E+00  0.11786358361E+04  0.11786358361E+04  0.25500000920E-02 0.  1.
       -2   -1    0    0    0  501  0.00000000000E+00  0.00000000000E+00 -0.16649385859E+04  0.16649385859E+04  0.25500000920E-02 0. -1.
    10030    2    1    2    0    0  0.00000000000E+00  0.00000000000E+00 -0.48630274987E+03  0.28435744220E+04  0.28016825532E+04 0.  0.
        1    1    3    3  502    0 -0.90905693406E+03  0.73208504508E+03  0.54304260932E+03  0.12873337944E+04  0.50400001928E-02 0.  1.
       -1    1    3    3    0  502  0.90905693406E+03 -0.73208504508E+03 -0.10293453592E+04  0.15562406276E+04  0.50400001928E-02 0. -1.
</event>
<event>
 5   0  0.1923559E-05  0.2898634E+04  0.7818609E-02  0.8273284E-01
       -2   -1    0    0    0  501  0.00000000000E+00  0.00000000000E+00  0.10552027381E+04  0.10552027381E+04  0.25500000920E-02 0. -1.
        2   -1    0    0  501    0  0.00000000000E+00  0.00000000000E+00 -0.19906320164E+04  0.19906320164E+04  0.25500000920E-02 0.  1.
    10030    2    1    2    0    0  0.00000000000E+00  0.00000000000E+00 -0.93542927824E+03  0.30458347545E+04  0.28986344056E+04 0.  0.
        4    1    3    3  502    0  0.10167921112E+04 -0.15524695873E+03 -0.15406202938E+04  0.18524255230E+04  0.12699999809E+01 0.  1.
       -4    1    3    3    0  502 -0.10167921112E+04  0.15524695873E+03  0.60519101560E+03  0.11934092315E+04  0.12699999809E+01 0. -1.
</event>
<event>
 5   0  0.1923559E-05  0.2804777E+04  0.7818609E-02  0.8301787E-01
       -2   -1    0    0    0  501  0.00000000000E+00  0.00000000000E+00  0.13312926415E+04  0.13312926415E+04  0.25500000920E-02 0.  1.
        2   -1    0    0  501    0  0.00000000000E+00  0.00000000000E+00 -0.14772813691E+04  0.14772813691E+04  0.25500000920E-02 0. -1.
    10030    2    1    2    0    0  0.00000000000E+00  0.00000000000E+00 -0.14598872760E+03  0.28085740106E+04  0.28047772219E+04 0.  0.
        4    1    3    3  502    0  0.45350990322E+03  0.61101759855E+03  0.11065979263E+04  0.13429721968E+04  0.12699999809E+01 0.  1.
       -4    1    3    3    0  502 -0.45350990322E+03 -0.61101759855E+03 -0.12525866539E+04  0.14656018138E+04  0.12699999809E+01 0. -1.
</event>
<event>
 5   0  0.7555871E-06  0.2889315E+04  0.7818609E-02  0.8276064E-01
       -1   -1    0    0    0  501  0.00000000000E+00  0.00000000000E+00  0.15933108396E+04  0.15933108396E+04  0.50400001928E-02 0.  1.
        1   -1    0    0  501    0  0.00000000000E+00  0.00000000000E+00 -0.13098735292E+04  0.13098735292E+04  0.50400001928E-02 0. -1.
    10030    2    1    2    0    0  0.00000000000E+00  0.00000000000E+00  0.28343731045E+03  0.29031843688E+04  0.28893152771E+04 0.  0.
        3    1    3    3  502    0 -0.10755833021E+04 -0.37149557580E+03 -0.75258015015E+03  0.13642819705E+04  0.10100000352E+00 0. -1.
       -3    1    3    3    0  502  0.10755833021E+04  0.37149557580E+03  0.10360174606E+04  0.15389023983E+04  0.10100000352E+00 0.  1.
</event>
<event>
 5   0  0.7613444E-06  0.2424199E+04  0.7818609E-02  0.8430499E-01
        1   -1    0    0  501    0  0.00000000000E+00  0.00000000000E+00  0.26182994780E+04  0.26182994780E+04  0.50400001928E-02 0.  1.
       -1   -1    0    0    0  501  0.00000000000E+00  0.00000000000E+00 -0.56112171555E+03  0.56112171558E+03  0.50400001928E-02 0. -1.
    10030    2    1    2    0    0  0.00000000000E+00  0.00000000000E+00  0.20571777624E+04  0.31794211936E+04  0.24241985851E+04 0.  0.
        5    1    3    3  502    0  0.10645157492E+04  0.51081835635E+02  0.27134413238E+03  0.10997512730E+04  0.46999998093E+01 0. -1.
       -5    1    3    3    0  502 -0.10645157492E+04 -0.51081835635E+02  0.17858336301E+04  0.20796699206E+04  0.46999998093E+01 0.  1.
</event>
<event>
 5   0  0.1832502E-05  0.2816422E+04  0.7818609E-02  0.8298188E-01
        2   -1    0    0  501    0  0.00000000000E+00  0.00000000000E+00  0.25366053893E+04  0.25366053893E+04  0.25500000920E-02 0.  1.
       -2   -1    0    0    0  501  0.00000000000E+00  0.00000000000E+00 -0.78177641975E+03  0.78177641975E+03  0.25500000920E-02 0. -1.
    10030    2    1    2    0    0  0.00000000000E+00  0.00000000000E+00  0.17548289696E+04  0.33183818091E+04  0.28164220420E+04 0.  0.
        2    1    3    3  502    0  0.61081392708E+03  0.12407340548E+04  0.56447704497E+03  0.14937031106E+04  0.25500000920E-02 0.  1.
       -2    1    3    3    0  502 -0.61081392708E+03 -0.12407340548E+04  0.11903519246E+04  0.18246786985E+04  0.25500000920E-02 0. -1.
</event>
<event>
 5   0  0.7681342E-06  0.2727451E+04  0.7818609E-02  0.8326153E-01
       -1   -1    0    0    0  501  0.00000000000E+00  0.00000000000E+00  0.94543561758E+03  0.94543561759E+03  0.50400001928E-02 0.  1.
        1   -1    0    0  501    0  0.00000000000E+00  0.00000000000E+00 -0.19670792970E+04  0.19670792970E+04  0.50400001928E-02 0. -1.
    10030    2    1    2    0    0  0.00000000000E+00  0.00000000000E+00 -0.10216436794E+04  0.29125149145E+04  0.27274506998E+04 0.  0.
        2    1    3    3  502    0  0.75925679939E+03 -0.59957872045E+03 -0.15371726564E+04  0.18162778711E+04  0.25500000920E-02 0. -1.
       -2    1    3    3    0  502 -0.75925679939E+03  0.59957872045E+03  0.51552897698E+03  0.10962370435E+04  0.25500000920E-02 0.  1.
</event>
<event>
 5   0  0.7681342E-06  0.2694522E+04  0.7818609E-02  0.8336785E-01
       -1   -1    0    0    0  501  0.00000000000E+00  0.00000000000E+00  0.11468490745E+04  0.11468490745E+04  0.50400001928E-02 0. -1.
        1   -1    0    0  501    0  0.00000000000E+00  0.00000000000E+00 -0.15826950733E+04  0.15826950733E+04  0.50400001928E-02 0.  1.
    10030    2    1    2    0    0  0.00000000000E+00  0.00000000000E+00 -0.43584599873E+03  0.27295441478E+04  0.26945221321E+04 0.  0.
        2    1    3    3  502    0 -0.66373562462E+03  0.11114702854E+04 -0.59586909712E+03  0.14251214530E+04  0.25500000920E-02 0. -1.
       -2    1    3    3    0  502  0.66373562462E+03 -0.11114702854E+04  0.16002309838E+03  0.13044226948E+04  0.25500000920E-02 0.  1.
</event>
<event>
 5   0  0.7388013E-06  0.2774052E+04  0.7818609E-02  0.8311370E-01
        1   -1    0    0  501    0  0.00000000000E+00  0.00000000000E+00  0.13794390601E+04  0.13794390601E+04  0.50400001928E-02 0. -1.
       -1   -1    0    0    0  501  0.00000000000E+00  0.00000000000E+00 -0.13946548457E+04  0.13946548457E+04  0.50400001928E-02 0.  1.
    10030    2    1    2    0    0  0.00000000000E+00  0.00000000000E+00 -0.15215785633E+02  0.27740939058E+04  0.27740521766E+04 0.  0.
        1    1    3    3  502    0 -0.31348537199E+03 -0.12574548416E+04 -0.50195894681E+03  0.13897584472E+04  0.50400001928E-02 0.  1.
       -1    1    3    3    0  502  0.31348537199E+03  0.12574548416E+04  0.48674316118E+03  0.13843354587E+04  0.50400001928E-02 0. -1.
</event>
<event>
 5   0  0.1832502E-05  0.2855160E+04  0.7818609E-02  0.8286345E-01
       -2   -1    0    0    0  501  0.00000000000E+00  0.00000000000E+00  0.12332238633E+04  0.12332238633E+04  0.25500000920E-02 0.  1.
        2   -1    0    0  501    0  0.00000000000E+00  0.00000000000E+00 -0.16525668139E+04  0.16525668139E+04  0.25500000920E-02 0. -1.
    10030    2    1    2    0    0  0.00000000000E+00  0.00000000000E+00 -0.41934295059E+03  0.28857906772E+04  0.28551601220E+04 0.  0.
        2    1    3    3  502    0 -0.43599844153E+02 -0.19095783573E+03 -0.16389207583E+04  0.16505838644E+04  0.25500000920E-02 0. -1.
       -2    1    3    3    0  502  0.43599844153E+02  0.19095783573E+03  0.12195778077E+04  0.12352068128E+04  0.25500000920E-02 0.  1.
</event>
<event>
 5   0  0.1923559E-05  0.3115935E+04  0.7818609E-02  0.8211378E-01
        2   -1    0    0  501    0  0.00000000000E+00  0.00000000000E+00  0.21769087650E+04  0.21769087650E+04  0.25500000920E-02 0. -1.
       -2   -1    0    0    0  501  0.00000000000E+00  0.00000000000E+00 -0.11150044939E+04  0.11150044939E+04  0.25500000920E-02 0.  1.
    10030    2    1    2    0    0  0.00000000000E+00  0.00000000000E+00  0.10619042711E+04  0.32919132589E+04  0.31159352084E+04 0.  0.
        4    1    3    3  502    0  0.92007584279E+03  0.42750365476E+03 -0.71817811884E+03  0.12430126124E+04  0.12699999809E+01 0.  1.
       -4    1    3    3    0  502 -0.92007584279E+03 -0.42750365476E+03  0.17800823899E+04  0.20489006465E+04  0.12699999809E+01 0. -1.
</event>
<event>
 5   0  0.7555871E-06  0.2836667E+04  0.7818609E-02  0.8291974E-01
        1   -1    0    0  501    0  0.00000000000E+00  0.00000000000E+00  0.16538676726E+04  0.16538676726E+04  0.50400001928E-02 0. -1.
       -1   -1    0    0    0  501  0.00000000000E+00  0.00000000000E+00 -0.12163425155E+04  0.12163425155E+04  0.50400001928E-02 0.  1.
    10030    2    1    2    0    0  0.00000000000E+00  0.00000000000E+00  0.43752515711E+03  0.28702101881E+04  0.28366667518E+04 0.  0.
        3    1    3    3  502    0  0.80305628227E+03  0.11684084658E+04  0.25913197856E+03  0.14412588692E+04  0.10100000352E+00 0. -1.
       -3    1    3    3    0  502 -0.80305628227E+03 -0.11684084658E+04  0.17839317855E+03  0.14289513189E+04  0.10100000352E+00 0.  1.
</event>
<event>
 5   0  0.1904553E-05  0.2804320E+04  0.7818609E-02  0.8301929E-01
        2   -1    0    0  501    0  0.00000000000E+00  0.00000000000E+00  0.17059320252E+04  0.17059320252E+04  0.25500000920E-02 0.  1.
       -2   -1    0    0    0  501  0.00000000000E+00  0.00000000000E+00 -0.11524797969E+04  0.11524797969E+04  0.25500000920E-02 0. -1.
    10030    2    1    2    0    0  0.00000000000E+00  0.00000000000E+00  0.55345222832E+03  0.28584118221E+04  0.28043196636E+04 0.  0.
        1    1    3    3  502    0 -0.13741317278E+04 -0.26564204221E+03  0.18994580843E+03  0.14124033100E+04  0.50400001928E-02 0.  1.
       -1    1    3    3    0  502  0.13741317278E+04  0.26564204221E+03  0.36350641989E+03  0.14460085121E+04  0.50400001928E-02 0. -1.
</event>
<event>
 5   0  0.7681342E-06  0.2691457E+04  0.7818609E-02  0.8337782E-01
        1   -1    0    0  501    0  0.00000000000E+00  0.00000000000E+00  0.10559045272E+04  0.10559045272E+04  0.50400001928E-02 0. -1.
       -1   -1    0    0    0  501  0.00000000000E+00  0.00000000000E+00 -0.17151030643E+04  0.17151030643E+04  0.50400001928E-02 0.  1.
    10030    2    1    2    0    0  0.00000000000E+00  0.00000000000E+00 -0.65919853708E+03  0.27710075915E+04  0.26914569216E+04 0.  0.
        2    1    3    3  502    0 -0.26332995084E+03 -0.15150151934E+02 -0.16882291470E+04  0.17087099937E+04  0.25500000920E-02 0.  1.
       -2    1    3    3    0  502  0.26332995084E+03  0.15150151934E+02  0.10290306099E+04  0.10622975977E+04  0.25500000920E-02 0. -1.
</event>
<event>
 5   0  0.7388013E-06  0.2768872E+04  0.7818609E-02  0.8312998E-01
        1   -1    0    0  501    0  0.00000000000E+00  0.00000000000E+00  0.10403692172E+04  0.10403692172E+04  0.50400001928E-02 0. -1.
       -1   -1    0    0    0  501  0.00000000000E+00  0.00000000000E+00 -0.18422908523E+04  0.18422908523E+04  0.50400001928E-02 0.  1.
    10030    2    1    2    0    0  0.00000000000E+00  0.00000000000E+00 -0.80192163507E+03  0.28826600695E+04  0.27688717499E+04 0.  0.
        1    1    3    3  502    0 -0.83785738741E+03  0.36126244217E+03 -0.14849743550E+04  0.17428896663E+04  0.50400001928E-02 0.  1.
       -1    1    3    3    0  502  0.83785738741E+03 -0.36126244217E+03  0.68305271994E+03  0.11397704032E+04  0.50400001928E-02 0. -1.
</event>
<event>
 5   0  0.7555871E-06  0.2673758E+04  0.7818609E-02  0.8343570E-01
       -1   -1    0    0    0  501  0.00000000000E+00  0.00000000000E+00  0.10543108418E+04  0.10543108418E+04  0.50400001928E-02 0. -1.
        1   -1    0    0  501    0  0.00000000000E+00  0.00000000000E+00 -0.16951793490E+04  0.16951793490E+04  0.50400001928E-02 0.  1.
    10030    2    1    2    0    0  0.00000000000E+00  0.00000000000E+00 -0.64086850725E+03  0.27494901908E+04  0.26737583784E+04 0.  0.
        3    1    3    3  502    0 -0.22382199483E+03 -0.89224063571E+03 -0.13179914908E+04  0.16072620251E+04  0.10100000352E+00 0.  1.
       -3    1    3    3    0  502  0.22382199483E+03  0.89224063571E+03  0.67712298357E+03  0.11422281657E+04  0.10100000352E+00 0. -1.
</event>
<event>
 5   0  0.7388013E-06  0.2731114E+04  0.7818609E-02  0.8324980E-01
        1   -1    0    0  501    0  0.00000000000E+00  0.00000000000E+00  0.11668738923E+04  0.11668738923E+04  0.50400001928E-02 0. -1.
       -1   -1    0    0    0  501  0.00000000000E+00  0.00000000000E+00 -0.15980693077E+04  0.15980693077E+04  0.50400001928E-02 0.  1.
    10030    2    1    2    0    0  0.00000000000E+00  0.00000000000E+00 -0.43119541535E+03  0.27649432000E+04  0.27311135848E+04 0.  0.
        1    1    3    3  502    0 -0.11195022836E+04  0.27047609554E+03  0.52718146785E+03  0.12666345097E+04  0.50400001928E-02 0. -1.
       -1    1    3    3    0  502  0.11195022836E+04 -0.27047609554E+03 -0.95837688320E+03  0.14983086903E+04  0.50400001928E-02 0.  1.
</event>
<event>
 5   0  0.7388013E-06  0.2784090E+04  0.7818609E-02  0.8308225E-01
        1   -1    0    0  501    0  0.00000000000E+00  0.00000000000E+00  0.20360417388E+04  0.20360417388E+04  0.50400001928E-02 0.  1.
       -1   -1    0    0    0  501  0.00000000000E+00  0.00000000000E+00 -0.95174344336E+03  0.95174344338E+03  0.50400001928E-02 0. -1.
    10030    2    1    2    0    0  0.00000000000E+00  0.00000000000E+00  0.10842982954E+04  0.29877851821E+04  0.27840900670E+04 0.  0.
        1    1    3    3  502    0  0.11720176405E+04 -0.66939247525E+03  0.17652021084E+03  0.13612020498E+04  0.50400001928E-02 0.  1.
       -1    1    3    3    0  502 -0.11720176405E+04  0.66939247525E+03  0.90777808455E+03  0.16265831323E+04  0.50400001928E-02 0. -1.
</event>
<event>
 5   0  0.7681342E-06  0.2844656E+04  0.7818609E-02  0.8289537E-01
       -1   -1    0    0    0  501  0.00000000000E+00  0.00000000000E+00  0.13262172697E+04  0.13262172698E+04  0.50400001928E-02 0. -1.
        1   -1    0    0  501    0  0.00000000000E+00  0.00000000000E+00 -0.15254037971E+04  0.15254037971E+04  0.50400001928E-02 0.  1.
    10030    2    1    2    0    0  0.00000000000E+00  0.00000000000E+00 -0.19918652732E+03  0.28516210668E+04  0.28446559434E+04 0.  0.
        2    1    3    3  502    0 -0.11243582856E+04  0.76184274797E+03  0.32385186382E+03  0.13962327731E+04  0.25500000920E-02 0. -1.
       -2    1    3    3    0  502  0.11243582856E+04 -0.76184274797E+03 -0.52303839115E+03  0.14553882937E+04  0.25500000920E-02 0.  1.
</event>
<event>
 5   0  0.7388013E-06  0.2450447E+04  0.7818609E-02  0.8420855E-01
       -1   -1    0    0    0  501  0.00000000000E+00  0.00000000000E+00  0.11193099924E+04  0.11193099924E+04  0.50400001928E-02 0.  1.
        1   -1    0    0  501    0  0.00000000000E+00  0.00000000000E+00 -0.13411590937E+04  0.13411590937E+04  0.50400001928E-02 0. -1.
    10030    2    1    2    0    0  0.00000000000E+00  0.00000000000E+00 -0.22184910129E+03  0.24604690861E+04  0.24504471224E+04 0.  0.
        1    1    3    3  502    0  0.78131876209E+03 -0.66732166062E+03  0.55918456085E+03  0.11698139082E+04  0.50400001928E-02 0.  1.
       -1    1    3    3    0  502 -0.78131876209E+03  0.66732166062E+03 -0.78103366214E+03  0.12906551779E+04  0.50400001928E-02 0. -1.
</event>
<event>
 5   0  0.1832502E-05  0.2839079E+04  0.7818609E-02  0.8291237E-01
       -2   -1    0    0    0  501  0.00000000000E+00  0.00000000000E+00  0.13300444211E+04  0.13300444211E+04  0.25500000920E-02 0.  1.
        2   -1    0    0  501    0  0.00000000000E+00  0.00000000000E+00 -0.15150567824E+04  0.15150567824E+04  0.25500000920E-02 0. -1.
    10030    2    1    2    0    0  0.00000000000E+00  0.00000000000E+00 -0.18501236126E+03  0.28451012035E+04  0.28390793022E+04 0.  0.
        2    1    3    3  502    0 -0.12734555058E+04  0.41869296852E+03  0.37549626448E+03  0.13921171545E+04  0.25500000920E-02 0.  1.
       -2    1    3    3    0  502  0.12734555058E+04 -0.41869296852E+03 -0.56050862574E+03  0.14529840490E+04  0.25500000920E-02 0. -1.
</event>
<event>
 5   0  0.7681342E-06  0.2823843E+04  0.7818609E-02  0.8295904E-01
       -1   -1    0    0    0  501  0.00000000000E+00  0.00000000000E+00  0.88582432963E+03  0.88582432965E+03  0.50400001928E-02 0.  1.
        1   -1    0    0  501    0  0.00000000000E+00  0.00000000000E+00 -0.22504711819E+04  0.22504711819E+04  0.50400001928E-02 0. -1.
    10030    2    1    2    0    0  0.00000000000E+00  0.00000000000E+00 -0.13646468523E+04  0.31362955116E+04  0.28238428611E+04 0.  0.
        2    1    3    3  502    0  0.62389369349E+03 -0.10617988592E+04  0.84636714679E+02  0.12344324735E+04  0.25500000920E-02 0.  1.
       -2    1    3    3    0  502 -0.62389369349E+03  0.10617988592E+04 -0.14492835669E+04  0.19018630381E+04  0.25500000920E-02 0. -1.
</event>
<event>
 5   0  0.7613444E-06  0.2798469E+04  0.7818609E-02  0.8303744E-01
        1   -1    0    0  501    0  0.00000000000E+00  0.00000000000E+00  0.12454475901E+04  0.12454475902E+04  0.50400001928E-02 0. -1.
       -1   -1    0    0    0  501  0.00000000000E+00  0.00000000000E+00 -0.15720112878E+04  0.15720112879E+04  0.50400001928E-02 0.  1.
    10030    2    1    2    0    0  0.00000000000E+00  0.00000000000E+00 -0.32656369770E+03  0.28174588780E+04  0.27984693460E+04 0.  0.
        5    1    3    3  502    0  0.15340261808E+03 -0.10403492611E+04 -0.10925710137E+04  0.15164407204E+04  0.46999998093E+01 0.  1.
       -5    1    3    3    0  502 -0.15340261808E+03  0.10403492611E+04  0.76600731605E+03  0.13010181576E+04  0.46999998093E+01 0. -1.
</event>
<event>
 5   0  0.1904553E-05  0.2768149E+04  0.7818609E-02  0.8313226E-01
        2   -1    0    0  501    0  0.00000000000E+00  0.00000000000E+00  0.23260369346E+04  0.23260369346E+04  0.25500000920E-02 0.  1.
       -2   -1    0    0    0  501  0.00000000000E+00  0.00000000000E+00 -0.82357332252E+03  0.82357332252E+03  0.25500000920E-02 0. -1.
    10030    2    1    2    0    0  0.00000000000E+00  0.00000000000E+00  0.15024636121E+04  0.31496102571E+04  0.27681488158E+04 0.  0.
        1    1    3    3  502    0 -0.52074784303E+03 -0.54840079240E+03 -0.56770819692E+03  0.94562907210E+03  0.50400001928E-02 0. -1.
       -1    1    3    3    0  502  0.52074784303E+03  0.54840079240E+03  0.20701718090E+04  0.22039811850E+04  0.50400001928E-02 0.  1.
</event>
<event>
 5   0  0.1904553E-05  0.2877977E+04  0.7818609E-02  0.8279460E-01
        2   -1    0    0  501    0  0.00000000000E+00  0.00000000000E+00  0.17183623591E+04  0.17183623591E+04  0.25500000920E-02 0. -1.
       -2   -1    0    0    0  501  0.00000000000E+00  0.00000000000E+00 -0.12050355836E+04  0.12050355836E+04  0.25500000920E-02 0.  1.
    10030    2    1    2    0    0  0.00000000000E+00  0.00000000000E+00  0.51332677546E+03  0.29233979427E+04  0.28779769201E+04 0.  0.
        1    1    3    3  502    0 -0.74978302234E+03  0.23491121446E+03 -0.96790413966E+03  0.12466740885E+04  0.50400001928E-02 0.  1.
       -1    1    3    3    0  502  0.74978302234E+03 -0.23491121446E+03  0.14812309151E+04  0.16767238542E+04  0.50400001928E-02 0. -1.
</event>
<event>
 5   0  0.1832502E-05  0.2861099E+04  0.7818609E-02  0.8284547E-01
       -2   -1    0    0    0  501  0.00000000000E+00  0.00000000000E+00  0.10209725218E+04  0.10209725218E+04  0.25500000920E-02 0.  1.
        2   -1    0    0  501    0  0.00000000000E+00  0.00000000000E+00 -0.20044338023E+04  0.20044338023E+04  0.25500000920E-02 0. -1.
    10030    2    1    2    0    0  0.00000000000E+00  0.00000000000E+00 -0.98346128053E+03  0.30254063241E+04  0.28610989734E+04 0.  0.
        2    1    3    3  502    0 -0.61489229809E+02 -0.51139610596E+03 -0.19029772018E+04  0.19714535585E+04  0.25500000920E-02 0. -1.
       -2    1    3    3    0  502  0.61489229809E+02  0.51139610596E+03  0.91951592130E+03  0.10539527656E+04  0.25500000920E-02 0.  1.
</event>
<event>
 5   0  0.1814230E-05  0.2827444E+04  0.7818609E-02  0.8294798E-01
        2   -1    0    0  501    0  0.00000000000E+00  0.00000000000E+00  0.18902575273E+04  0.18902575273E+04  0.25500000920E-02 0. -1.
       -2   -1    0    0    0  501  0.00000000000E+00  0.00000000000E+00 -0.10573217881E+04  0.10573217881E+04  0.25500000920E-02 0.  1.
    10030    2    1    2    0    0  0.00000000000E+00  0.00000000000E+00  0.83293573922E+03  0.29475793154E+04  0.28274444070E+04 0.  0.
        5    1    3    3  502    0 -0.28876191673E+03 -0.34375542639E+03 -0.98102613104E+03  0.10788816420E+04  0.46999998093E+01 0.  1.
       -5    1    3    3    0  502  0.28876191673E+03  0.34375542639E+03  0.18139618703E+04  0.18686976734E+04  0.46999998093E+01 0. -1.
</event>
<event>
 5   0  0.7509685E-06  0.2771426E+04  0.7818609E-02  0.8312195E-01
        1   -1    0    0  501    0  0.00000000000E+00  0.00000000000E+00  0.22275387577E+04  0.22275387577E+04  0.50400001928E-02 0. -1.
       -1   -1    0    0    0  501  0.00000000000E+00  0.00000000000E+00 -0.86202818582E+03  0.86202818584E+03  0.50400001928E-02 0.  1.
    10030    2    1    2    0    0  0.00000000000E+00  0.00000000000E+00  0.13655105719E+04  0.30895669436E+04  0.27714264877E+04 0.  0.
        4    1    3    3  502    0 -0.72848591183E+03  0.72063693968E+03  0.17226786965E+04  0.20044033593E+04  0.12699999809E+01 0. -1.
       -4    1    3    3    0  502  0.72848591183E+03 -0.72063693968E+03 -0.35716812455E+03  0.10851635843E+04  0.12699999809E+01 0.  1.
</event>
<event>
 5   0  0.1904553E-05  0.2268601E+04  0.7818609E-02  0.8490405E-01
        2   -1    0    0  501    0  0.00000000000E+00  0.00000000000E+00  0.44339542855E+03  0.44339542856E+03  0.25500000920E-02 0. -1.
       -2   -1    0    0    0  501  0.00000000000E+00  0.00000000000E+00 -0.29017844003E+04  0.29017844003E+04  0.25500000920E-02 0.  1.
    10030    2    1    2    0    0  0.00000000000E+00  0.00000000000E+00 -0.24583889718E+04  0.33451798289E+04  0.22686012763E+04 0.  0.
        1    1    3    3  502    0  0.63356285272E+03 -0.91235640427E+03 -0.89023306844E+03  0.14234855155E+04  0.50400001928E-02 0. -1.
       -1    1    3    3    0  502 -0.63356285272E+03  0.91235640427E+03 -0.15681559033E+04  0.19216943134E+04  0.50400001928E-02 0.  1.
</event>
<event>
 5   0  0.7388013E-06  0.2826832E+04  0.7818609E-02  0.8294986E-01
       -1   -1    0    0    0  501  0.00000000000E+00  0.00000000000E+00  0.11903567540E+04  0.11903567540E+04  0.50400001928E-02 0.  1.
        1   -1    0    0  501    0  0.00000000000E+00  0.00000000000E+00 -0.16782737252E+04  0.16782737253E+04  0.50400001928E-02 0. -1.
    10030    2    1    2    0    0  0.00000000000E+00  0.00000000000E+00 -0.48791697125E+03  0.28686304793E+04  0.28268317700E+04 0.  0.
        1    1    3    3  502    0 -0.11319986977E+04 -0.21083173434E+02  0.61464852379E+03  0.12882772837E+04  0.50400001928E-02 0.  1.
       -1    1    3    3    0  502  0.11319986977E+04  0.21083173434E+02 -0.11025654950E+04  0.15803531956E+04  0.50400001928E-02 0. -1.
</event>
<event>
 5   0  0.7681342E-06  0.2792965E+04  0.7818609E-02  0.8305456E-01
       -1   -1    0    0    0  501  0.00000000000E+00  0.00000000000E+00  0.14060465371E+04  0.14060465371E+04  0.50400001928E-02 0.  1.
        1   -1    0    0  501    0  0.00000000000E+00  0.00000000000E+00 -0.13869833586E+04  0.13869833586E+04  0.50400001928E-02 0. -1.
    10030    2    1    2    0    0  0.00000000000E+00  0.00000000000E+00  0.19063178549E+02  0.27930298957E+04  0.27929648393E+04 0.  0.
        2    1    3    3  502    0  0.19170222565E+03  0.19487226344E+03  0.13790298828E+04  0.14058621412E+04  0.25500000920E-02 0.  1.
       -2    1    3    3    0  502 -0.19170222565E+03 -0.19487226344E+03 -0.13599667043E+04  0.13871677545E+04  0.25500000920E-02 0. -1.
</event>
<event>
 5   0  0.7555871E-06  0.2825767E+04  0.7818609E-02  0.8295313E-01
       -1   -1    0    0    0  501  0.00000000000E+00  0.00000000000E+00  0.80893132645E+03  0.80893132647E+03  0.50400001928E-02 0.  1.
        1   -1    0    0  501    0  0.00000000000E+00  0.00000000000E+00 -0.24677494444E+04  0.24677494444E+04  0.50400001928E-02 0. -1.
    10030    2    1    2    0    0  0.00000000000E+00  0.00000000000E+00 -0.16588181179E+04  0.32766807709E+04  0.28257670332E+04 0.  0.
        3    1    3    3  502    0  0.43473038988E+03 -0.12509009148E+04 -0.25839045679E+03  0.13492624834E+04  0.10100000352E+00 0. -1.
       -3    1    3    3    0  502 -0.43473038988E+03  0.12509009148E+04 -0.14004276611E+04  0.19274182875E+04  0.10100000352E+00 0.  1.
</event>
<event>
 5   0  0.7613444E-06  0.2675950E+04  0.7818609E-02  0.8342851E-01
       -1   -1    0    0    0  501  0.00000000000E+00  0.00000000000E+00  0.18562542914E+04  0.18562542914E+04  0.50400001928E-02 0. -1.
        1   -1    0    0  501    0  0.00000000000E+00  0.00000000000E+00 -0.96440308355E+03  0.96440308356E+03  0.50400001928E-02 0.  1.
    10030    2    1    2    0    0  0.00000000000E+00  0.00000000000E+00  0.89185120784E+03  0.28206573750E+04  0.26759501957E+04 0.  0.
        5    1    3    3  502    0 -0.80181542216E+03  0.81758745094E+03  0.11752966198E+04  0.16409452903E+04  0.46999998093E+01 0. -1.
       -5    1    3    3    0  502  0.80181542216E+03 -0.81758745094E+03 -0.28344541197E+03  0.11797120847E+04  0.46999998093E+01 0.  1.
</event>
<event>
 5   0  0.7681342E-06  0.2875471E+04  0.7818609E-02  0.8280213E-01
       -1   -1    0    0    0  501  0.00000000000E+00  0.00000000000E+00  0.83321034266E+03  0.83321034267E+03  0.50400001928E-02 0.  1.
        1   -1    0    0  501    0  0.00000000000E+00  0.00000000000E+00 -0.24808654843E+04  0.24808654843E+04  0.50400001928E-02 0. -1.
    10030    2    1    2    0    0  0.00000000000E+00  0.00000000000E+00 -0.16476551417E+04  0.33140758270E+04  0.28754705913E+04 0.  0.
        2    1    3    3  502    0 -0.10056637069E+03 -0.90965962761E+03 -0.21017831389E+04  0.22923975650E+04  0.25500000920E-02 0. -1.
       -2    1    3    3    0  502  0.10056637069E+03  0.90965962761E+03  0.45412799729E+03  0.10216782620E+04  0.25500000920E-02 0.  1.
</event>
<event>
 5   0  0.1904553E-05  0.2780814E+04  0.7818609E-02  0.8309250E-01
        2   -1    0    0  501    0  0.00000000000E+00  0.00000000000E+00  0.25097597164E+04  0.25097597164E+04  0.25500000920E-02 0.  1.
       -2   -1    0    0    0  501  0.00000000000E+00  0.00000000000E+00 -0.77028527126E+03  0.77028527126E+03  0.25500000920E-02 0. -1.
    10030    2    1    2    0    0  0.00000000000E+00  0.00000000000E+00  0.17394744451E+04  0.32800449876E+04  0.27808135097E+04 0.  0.
        1    1    3    3  502    0 -0.81452728518E+02 -0.15650550088E+03 -0.75702802234E+03  0.77731585950E+03  0.50400001928E-02 0. -1.
       -1    1    3    3    0  502  0.81452728518E+02  0.15650550088E+03  0.24965024674E+04  0.25027291281E+04  0.50400001928E-02 0.  1.
</event>
<event>
 5   0  0.1874272E-05  0.2096005E+04  0.7818609E-02  0.8563005E-01
       -2   -1    0    0    0  501  0.00000000000E+00  0.00000000000E+00  0.50997783476E+03  0.50997783477E+03  0.25500000920E-02 0. -1.
        2   -1    0    0  501    0  0.00000000000E+00  0.00000000000E+00 -0.21536408818E+04  0.21536408818E+04  0.25500000920E-02 0.  1.
    10030    2    1    2    0    0  0.00000000000E+00  0.00000000000E+00 -0.16436630471E+04  0.26636187166E+04  0.20960048796E+04 0.  0.
        3    1    3    3  502    0  0.28572933390E+03 -0.35946415726E+03 -0.20189924681E+04  0.20705521798E+04  0.10100000352E+00 0.  1.
       -3    1    3    3    0  502 -0.28572933390E+03  0.35946415726E+03  0.37532942106E+03  0.59306653684E+03  0.10100000352E+00 0. -1.
</event>
<event>
 5   0  0.7388013E-06  0.2807913E+04  0.7818609E-02  0.8300816E-01
        1   -1    0    0  501    0  0.00000000000E+00  0.00000000000E+00  0.10856648186E+04  0.10856648186E+04  0.50400001928E-02 0. -1.
       -1   -1    0    0    0  501  0.00000000000E+00  0.00000000000E+00 -0.18155637985E+04  0.18155637985E+04  0.50400001928E-02 0.  1.
    10030    2    1    2    0    0  0.00000000000E+00  0.00000000000E+00 -0.72989897990E+03  0.29012286171E+04  0.28079129203E+04 0.  0.
        1    1    3    3  502    0  0.17791694742E+03  0.10997854982E+04 -0.12476905323E+04  0.16726966989E+04  0.50400001928E-02 0.  1.
       -1    1    3    3    0  502 -0.17791694742E+03 -0.10997854982E+04  0.51779155239E+03  0.12285319182E+04  0.50400001928E-02 0. -1.
</event>
<event>
 5   0  0.7681342E-06  0.2669170E+04  0.7818609E-02  0.8345078E-01
        1   -1    0    0  501    0  0.00000000000E+00  0.00000000000E+00  0.19912217833E+04  0.19912217833E+04  0.50400001928E-02 0. -1.
       -1   -1    0    0    0  501  0.00000000000E+00  0.00000000000E+00 -0.89448487452E+03  0.89448487453E+03  0.50400001928E-02 0.  1.
    10030    2    1    2    0    0  0.00000000000E+00  0.00000000000E+00  0.10967369088E+04  0.28857066579E+04  0.26691704832E+04 0.  0.
        2    1    3    3  502    0  0.11990782788E+04 -0.23114232828E+03 -0.33737012063E+02  0.12216192863E+04  0.25500000920E-02 0.  1.
       -2    1    3    3    0  502 -0.11990782788E+04  0.23114232828E+03  0.11304739209E+04  0.16640873716E+04  0.25500000920E-02 0. -1.
</event>
<event>
 5   0  0.7388013E-06  0.2784973E+04  0.7818609E-02  0.8307949E-01
        1   -1    0    0  501    0  0.00000000000E+00  0.00000000000E+00  0.13065738684E+04  0.13065738684E+04  0.50400001928E-02 0.  1.
       -1   -1    0    0    0  501  0.00000000000E+00  0.00000000000E+00 -0.14840479828E+04  0.14840479828E+04  0.50400001928E-02 0. -1.
    10030    2    1    2    0    0  0.00000000000E+00  0.00000000000E+00 -0.17747411444E+03  0.27906218513E+04  0.27849727567E+04 0.  0.
        1    1    3    3  502    0 -0.13400224573E+04 -0.78645538189E+02 -0.45985706538E+03  0.14189129034E+04  0.50400001928E-02 0. -1.
       -1    1    3    3    0  502  0.13400224573E+04  0.78645538189E+02  0.28238295094E+03  0.13717089479E+04  0.50400001928E-02 0.  1.
</event>
<event>
 5   0  0.7509685E-06  0.2813666E+04  0.7818609E-02  0.8299038E-01
       -1   -1    0    0    0  501  0.00000000000E+00  0.00000000000E+00  0.14268799820E+04  0.14268799820E+04  0.50400001928E-02 0. -1.
        1   -1    0    0  501    0  0.00000000000E+00  0.00000000000E+00 -0.13870672828E+04  0.13870672829E+04  0.50400001928E-02 0.  1.
    10030    2    1    2    0    0  0.00000000000E+00  0.00000000000E+00  0.39812699182E+02  0.28139472649E+04  0.28136656089E+04 0.  0.
        4    1    3    3  502    0 -0.12261842974E+04  0.59560514684E+03  0.36765296898E+03  0.14118936719E+04  0.12699999809E+01 0. -1.
       -4    1    3    3    0  502  0.12261842974E+04 -0.59560514684E+03 -0.32784026979E+03  0.14020535930E+04  0.12699999809E+01 0.  1.
</event>
<event>
 5   0  0.7555871E-06  0.2772811E+04  0.7818609E-02  0.8311760E-01
        1   -1    0    0  501    0  0.00000000000E+00  0.00000000000E+00  0.27859550606E+04  0.27859550606E+04  0.50400001928E-02 0. -1.
       -1   -1    0    0    0  501  0.00000000000E+00  0.00000000000E+00 -0.68993201059E+03  0.68993201061E+03  0.50400001928E-02 0.  1.
    10030    2    1    2    0    0  0.00000000000E+00  0.00000000000E+00  0.20960230500E+04  0.34758870712E+04  0.27728105427E+04 0.  0.
        3    1    3    3  502    0 -0.98856849373E+03 -0.32738732690E+03  0.21953242139E+04  0.24297939301E+04  0.10100000352E+00 0. -1.
       -3    1    3    3    0  502  0.98856849373E+03  0.32738732690E+03 -0.99301163813E+02  0.10460931411E+04  0.10100000352E+00 0.  1.
</event>
<event>
 5   0  0.1904553E-05  0.2868069E+04  0.7818609E-02  0.8282442E-01
        2   -1    0    0  501    0  0.00000000000E+00  0.00000000000E+00  0.16958828576E+04  0.16958828576E+04  0.25500000920E-02 0.  1.
       -2   -1    0    0    0  501  0.00000000000E+00  0.00000000000E+00 -0.12126165335E+04  0.12126165335E+04  0.25500000920E-02 0. -1.
    10030    2    1    2    0    0  0.00000000000E+00  0.00000000000E+00  0.48326632410E+03  0.29084993910E+04  0.28680694496E+04 0.  0.
        1    1    3    3  502    0  0.12100224297E+04  0.44979563284E+03 -0.39165792628E+03  0.13490242114E+04  0.50400001928E-02 0. -1.
       -1    1    3    3    0  502 -0.12100224297E+04 -0.44979563284E+03  0.87492425037E+03  0.15594751796E+04  0.50400001928E-02 0.  1.
</event>
<event>
 5   0  0.7613444E-06  0.2792831E+04  0.7818609E-02  0.8305498E-01
       -1   -1    0    0    0  501  0.00000000000E+00  0.00000000000E+00  0.87367503635E+03  0.87367503636E+03  0.50400001928E-02 0. -1.
        1   -1    0    0  501    0  0.00000000000E+00  0.00000000000E+00 -0.22319236410E+04  0.22319236410E+04  0.50400001928E-02 0.  1.
    10030    2    1    2    0    0  0.00000000000E+00  0.00000000000E+00 -0.13582486047E+04  0.31055986774E+04  0.27928307992E+04 0.  0.
        5    1    3    3  502    0 -0.14214505293E+03 -0.35185048470E+03 -0.21734785306E+04  0.22063623893E+04  0.46999998093E+01 0.  1.
       -5    1    3    3    0  502  0.14214505293E+03  0.35185048470E+03  0.81522992597E+03  0.89923628811E+03  0.46999998093E+01 0. -1.
</event>
<event>
 5   0  0.1832502E-05  0.2373877E+04  0.7818609E-02  0.8449349E-01
        2   -1    0    0  501    0  0.00000000000E+00  0.00000000000E+00  0.10630577751E+04  0.10630577751E+04  0.25500000920E-02 0. -1.
       -2   -1    0    0    0  501  0.00000000000E+00  0.00000000000E+00 -0.13252555763E+04  0.13252555763E+04  0.25500000920E-02 0.  1.
    10030    2    1    2    0    0  0.00000000000E+00  0.00000000000E+00 -0.26219780126E+03  0.23883133514E+04  0.23738772036E+04 0.  0.
        2    1    3    3  502    0  0.79670581287E+03 -0.47995682161E+03  0.61076207177E+03  0.11127124567E+04  0.25500000920E-02 0. -1.
       -2    1    3    3    0  502 -0.79670581287E+03  0.47995682161E+03 -0.87295987302E+03  0.12756008948E+04  0.25500000920E-02 0.  1.
</event>
<event>
 5   0  0.7509685E-06  0.2339082E+04  0.7818609E-02  0.8462669E-01
       -1   -1    0    0    0  501  0.00000000000E+00  0.00000000000E+00  0.11717295496E+04  0.11717295496E+04  0.50400001928E-02 0.  1.
        1   -1    0    0  501    0  0.00000000000E+00  0.00000000000E+00 -0.11673561600E+04  0.11673561600E+04  0.50400001928E-02 0. -1.
    10030    2    1    2    0    0  0.00000000000E+00  0.00000000000E+00  0.43733895951E+01  0.23390857097E+04  0.23390816212E+04 0.  0.
        4    1    3    3  502    0 -0.49548156190E+03 -0.90876453331E+03 -0.54230405442E+03  0.11685248202E+04  0.12699999809E+01 0.  1.
       -4    1    3    3    0  502  0.49548156190E+03  0.90876453331E+03  0.54667744401E+03  0.11705608894E+04  0.12699999809E+01 0. -1.
</event>
<event>
 5   0  0.1874272E-05  0.2779169E+04  0.7818609E-02  0.8309765E-01
       -2   -1    0    0    0  501  0.00000000000E+00  0.00000000000E+00  0.12703628639E+04  0.12703628639E+04  0.25500000920E-02 0.  1.
        2   -1    0    0  501    0  0.00000000000E+00  0.00000000000E+00 -0.15199949407E+04  0.15199949407E+04  0.25500000920E-02 0. -1.
    10030    2    1    2    0    0  0.00000000000E+00  0.00000000000E+00 -0.24963207681E+03  0.27903578046E+04  0.27791690312E+04 0.  0.
        3    1    3    3  502    0  0.97631123103E+02 -0.40304464313E+03 -0.14564165092E+04  0.15143070623E+04  0.10100000352E+00 0. -1.
       -3    1    3    3    0  502 -0.97631123103E+02  0.40304464313E+03  0.12067844324E+04  0.12760507423E+04  0.10100000352E+00 0.  1.
</event>
<event>
 5   0  0.7388013E-06  0.2804721E+04  0.7818609E-02  0.8301804E-01
        1   -1    0    0  501    0  0.00000000000E+00  0.00000000000E+00  0.12466792123E+04  0.12466792123E+04  0.50400001928E-02 0.  1.
       -1   -1    0    0    0  501  0.00000000000E+00  0.00000000000E+00 -0.15774828370E+04  0.15774828370E+04  0.50400001928E-02 0. -1.
    10030    2    1    2    0    0  0.00000000000E+00  0.00000000000E+00 -0.33080362470E+03  0.28241620494E+04  0.28047210633E+04 0.  0.
        1    1    3    3  502    0 -0.10163587008E+03  0.22096143141E+03  0.12252800787E+04  0.12491857650E+04  0.50400001928E-02 0.  1.
       -1    1    3    3    0  502  0.10163587008E+03 -0.22096143141E+03 -0.15560837034E+04  0.15749762844E+04  0.50400001928E-02 0. -1.
</event>
<event>
 5   0  0.1874272E-05  0.2889247E+04  0.7818609E-02  0.8276084E-01
       -2   -1    0    0    0  501  0.00000000000E+00  0.00000000000E+00  0.12171346236E+04  0.12171346236E+04  0.25500000920E-02 0. -1.
        2   -1    0    0  501    0  0.00000000000E+00  0.00000000000E+00 -0.17146317156E+04  0.17146317156E+04  0.25500000920E-02 0.  1.
    10030    2    1    2    0    0  0.00000000000E+00  0.00000000000E+00 -0.49749709198E+03  0.29317663392E+04  0.28892473953E+04 0.  0.
        3    1    3    3  502    0 -0.12289123552E+04  0.74925927582E+03 -0.37435459427E+03  0.14871975025E+04  0.10100000352E+00 0.  1.
       -3    1    3    3    0  502  0.12289123552E+04 -0.74925927582E+03 -0.12314249771E+03  0.14445688367E+04  0.10100000352E+00 0. -1.
</event>
<event>
 5   0  0.7613444E-06  0.2757264E+04  0.7818609E-02  0.8316660E-01
       -1   -1    0    0    0  501  0.00000000000E+00  0.00000000000E+00  0.75805838111E+03  0.75805838113E+03  0.50400001928E-02 0.  1.
        1   -1    0    0  501    0  0.00000000000E+00  0.00000000000E+00 -0.25072290833E+04  0.25072290833E+04  0.50400001928E-02 0. -1.
    10030    2    1    2    0    0  0.00000000000E+00  0.00000000000E+00 -0.17491707022E+04  0.32652874644E+04  0.27572638756E+04 0.  0.
        5    1    3    3  502    0 -0.89985226202E+03 -0.38112052006E+03  0.27701217287E+03  0.10157483833E+04  0.46999998093E+01 0.  1.
       -5    1    3    3    0  502  0.89985226202E+03  0.38112052006E+03 -0.20261828750E+04  0.22495390811E+04  0.46999998093E+01 0. -1.
</event>
<event>
 5   0  0.7613444E-06  0.2783313E+04  0.7818609E-02  0.8308468E-01
       -1   -1    0    0    0  501  0.00000000000E+00  0.00000000000E+00  0.14771146657E+04  0.14771146657E+04  0.50400001928E-02 0.  1.
        1   -1    0    0  501    0  0.00000000000E+00  0.00000000000E+00 -0.13111429236E+04  0.13111429236E+04  0.50400001928E-02 0. -1.
    10030    2    1    2    0    0  0.00000000000E+00  0.00000000000E+00  0.16597174206E+03  0.27882575893E+04  0.27833134508E+04 0.  0.
        5    1    3    3  502    0  0.35684289351E+03  0.13378681700E+04 -0.56754785339E+02  0.13858106966E+04  0.46999998093E+01 0.  1.
       -5    1    3    3    0  502 -0.35684289351E+03 -0.13378681700E+04  0.22272652739E+03  0.14024468928E+04  0.46999998093E+01 0. -1.
</event>
<event>
 5   0  0.7555871E-06  0.2804476E+04  0.7818609E-02  0.8301880E-01
       -1   -1    0    0    0  501  0.00000000000E+00  0.00000000000E+00  0.12965893964E+04  0.12965893964E+04  0.50400001928E-02 0.  1.
        1   -1    0    0  501    0  0.00000000000E+00  0.00000000000E+00 -0.15164955092E+04  0.15164955092E+04  0.50400001928E-02 0. -1.
    10030    2    1    2    0    0  0.00000000000E+00  0.00000000000E+00 -0.21990611282E+03  0.28130849057E+04  0.28044764196E+04 0.  0.
        3    1    3    3  502    0  0.87177946338E+02 -0.12076103209E+04 -0.81947804969E+03  0.14620078541E+04  0.10100000352E+00 0. -1.
       -3    1    3    3    0  502 -0.87177946338E+02  0.12076103209E+04  0.59957193687E+03  0.13510770515E+04  0.10100000352E+00 0.  1.
</event>
<event>
 5   0  0.1814230E-05  0.2807187E+04  0.7818609E-02  0.8301040E-01
        2   -1    0    0  501    0  0.00000000000E+00  0.00000000000E+00  0.16718581856E+04  0.16718581856E+04  0.25500000920E-02 0.  1.
       -2   -1    0    0    0  501  0.00000000000E+00  0.00000000000E+00 -0.11783745798E+04  0.11783745798E+04  0.25500000920E-02 0. -1.
    10030    2    1    2    0    0  0.00000000000E+00  0.00000000000E+00  0.49348360583E+03  0.28502327655E+04  0.28071873376E+04 0.  0.
        5    1    3    3  502    0  0.10957550942E+04 -0.44677972941E+03 -0.51965833624E+03  0.12924233940E+04  0.46999998093E+01 0.  1.
       -5    1    3    3    0  502 -0.10957550942E+04  0.44677972941E+03  0.10131419421E+04  0.15578093714E+04  0.46999998093E+01 0. -1.
</event>
<event>
 5   0  0.1904553E-05  0.2783741E+04  0.7818609E-02  0.8308334E-01
        2   -1    0    0  501    0  0.00000000000E+00  0.00000000000E+00  0.16066092280E+04  0.16066092280E+04  0.25500000920E-02 0. -1.
       -2   -1    0    0    0  501  0.00000000000E+00  0.00000000000E+00 -0.12058340754E+04  0.12058340754E+04  0.25500000920E-02 0.  1.
    10030    2    1    2    0    0  0.00000000000E+00  0.00000000000E+00  0.40077515267E+03  0.28124433034E+04  0.27837414772E+04 0.  0.
        1    1    3    3  502    0 -0.10035780031E+04 -0.60467809599E+03 -0.55869102867E+03  0.12980524156E+04  0.50400001928E-02 0. -1.
       -1    1    3    3    0  502  0.10035780031E+04  0.60467809599E+03  0.95946618134E+03  0.15143908878E+04  0.50400001928E-02 0.  1.
</event>
<event>
 5   0  0.1904553E-05  0.2785699E+04  0.7818609E-02  0.8307722E-01
        2   -1    0    0  501    0  0.00000000000E+00  0.00000000000E+00  0.20204920199E+04  0.20204920199E+04  0.25500000920E-02 0. -1.
       -2   -1    0    0    0  501  0.00000000000E+00  0.00000000000E+00 -0.96017696565E+03  0.96017696566E+03  0.25500000920E-02 0.  1.
    10030    2    1    2    0    0  0.00000000000E+00  0.00000000000E+00  0.10603150542E+04  0.29806689855E+04  0.27856991200E+04 0.  0.
        1    1    3    3  502    0 -0.72099316943E+03 -0.43233203233E+03  0.17184182782E+04  0.19130351579E+04  0.50400001928E-02 0. -1.
       -1    1    3    3    0  502  0.72099316943E+03  0.43233203233E+03 -0.65810322394E+03  0.10676338276E+04  0.50400001928E-02 0.  1.
</event>
<event>
 5   0  0.7681342E-06  0.2828208E+04  0.7818609E-02  0.8294564E-01
        1   -1    0    0  501    0  0.00000000000E+00  0.00000000000E+00  0.12311627461E+04  0.12311627462E+04  0.50400001928E-02 0.  1.
       -1   -1    0    0    0  501  0.00000000000E+00  0.00000000000E+00 -0.16242291313E+04  0.16242291313E+04  0.50400001928E-02 0. -1.
    10030    2    1    2    0    0  0.00000000000E+00  0.00000000000E+00 -0.39306638515E+03  0.28553918775E+04  0.28282081944E+04 0.  0.
        2    1    3    3  502    0 -0.65851146104E+03 -0.12110175890E+04 -0.51498437360E+03  0.14715331632E+04  0.25500000920E-02 0. -1.
       -2    1    3    3    0  502  0.65851146104E+03  0.12110175890E+04  0.12191798845E+03  0.13838587143E+04  0.25500000920E-02 0.  1.
</event>
<event>
 5   0  0.6288000E-06  0.2766541E+04  0.7818609E-02  0.8313732E-01
        4   -1    0    0  501    0  0.00000000000E+00  0.00000000000E+00  0.18836966154E+04  0.18836970435E+04  0.12699999809E+01 0.  1.
       -4   -1    0    0    0  501  0.00000000000E+00  0.00000000000E+00 -0.10157871714E+04  0.10157879653E+04  0.12699999809E+01 0. -1.
    10030    2    1    2    0    0  0.00000000000E+00  0.00000000000E+00  0.86790944400E+03  0.28994850088E+04  0.27665405316E+04 0.  0.
        3    1    3    3  502    0 -0.10293135501E+04 -0.28667506000E+03  0.13546737398E+04  0.17253434226E+04  0.10100000352E+00 0. -1.
       -3    1    3    3    0  502  0.10293135501E+04  0.28667506000E+03 -0.48676429582E+03  0.11741415861E+04  0.10100000352E+00 0.  1.
</event>
<event>
 5   0  0.1832502E-05  0.2772840E+04  0.7818609E-02  0.8311750E-01
       -2   -1    0    0    0  501  0.00000000000E+00  0.00000000000E+00  0.11149867455E+04  0.11149867455E+04  0.25500000920E-02 0. -1.
        2   -1    0    0  501    0  0.00000000000E+00  0.00000000000E+00 -0.17239315352E+04  0.17239315352E+04  0.25500000920E-02 0.  1.
    10030    2    1    2    0    0  0.00000000000E+00  0.00000000000E+00 -0.60894478966E+03  0.28389182806E+04  0.27728402852E+04 0.  0.
        2    1    3    3  502    0 -0.34386864839E+03 -0.11210323138E+04  0.45288655446E+03  0.12570064945E+04  0.25500000920E-02 0. -1.
       -2    1    3    3    0  502  0.34386864839E+03  0.11210323138E+04 -0.10618313441E+04  0.15819117862E+04  0.25500000920E-02 0.  1.
</event>
<event>
 5   0  0.7613444E-06  0.2685208E+04  0.7818609E-02  0.8339820E-01
       -1   -1    0    0    0  501  0.00000000000E+00  0.00000000000E+00  0.14062986862E+04  0.14062986862E+04  0.50400001928E-02 0. -1.
        1   -1    0    0  501    0  0.00000000000E+00  0.00000000000E+00 -0.12817943017E+04  0.12817943017E+04  0.50400001928E-02 0.  1.
    10030    2    1    2    0    0  0.00000000000E+00  0.00000000000E+00  0.12450438450E+03  0.26880929878E+04  0.26852081054E+04 0.  0.
        5    1    3    3  502    0  0.34462606890E+03  0.10502693042E+04 -0.70062349409E+03  0.13087123860E+04  0.46999998093E+01 0.  1.
       -5    1    3    3    0  502 -0.34462606890E+03 -0.10502693042E+04  0.82512787860E+03  0.13793806019E+04  0.46999998093E+01 0. -1.
</event>
<event>
 5   0  0.7509685E-06  0.3378467E+04  0.7818609E-02  0.8143211E-01
        1   -1    0    0  501    0  0.00000000000E+00  0.00000000000E+00  0.22177929793E+04  0.22177929793E+04  0.50400001928E-02 0.  1.
       -1   -1    0    0    0  501  0.00000000000E+00  0.00000000000E+00 -0.12866442268E+04  0.12866442268E+04  0.50400001928E-02 0. -1.
    10030    2    1    2    0    0  0.00000000000E+00  0.00000000000E+00  0.93114875255E+03  0.35044372061E+04  0.33784674236E+04 0.  0.
        4    1    3    3  502    0  0.74168637593E+03  0.10156833524E+04 -0.70421464711E+03  0.14413990546E+04  0.12699999809E+01 0. -1.
       -4    1    3    3    0  502 -0.74168637593E+03 -0.10156833524E+04  0.16353633997E+04  0.20630381515E+04  0.12699999809E+01 0.  1.
</event>
<event>
 5   0  0.7555871E-06  0.2673295E+04  0.7818609E-02  0.8343722E-01
       -1   -1    0    0    0  501  0.00000000000E+00  0.00000000000E+00  0.84009368308E+03  0.84009368310E+03  0.50400001928E-02 0. -1.
        1   -1    0    0  501    0  0.00000000000E+00  0.00000000000E+00 -0.21266987943E+04  0.21266987943E+04  0.50400001928E-02 0.  1.
    10030    2    1    2    0    0  0.00000000000E+00  0.00000000000E+00 -0.12866051112E+04  0.29667924774E+04  0.26732947634E+04 0.  0.
        3    1    3    3  502    0 -0.66721333562E+03 -0.76766764688E+03 -0.16057773492E+04  0.19007914554E+04  0.10100000352E+00 0.  1.
       -3    1    3    3    0  502  0.66721333562E+03  0.76766764688E+03  0.31917223800E+03  0.10660010221E+04  0.10100000352E+00 0. -1.
</event>
<event>
 5   0  0.7613444E-06  0.2798453E+04  0.7818609E-02  0.8303749E-01
       -1   -1    0    0    0  501  0.00000000000E+00  0.00000000000E+00  0.15406677656E+04  0.15406677656E+04  0.50400001928E-02 0. -1.
        1   -1    0    0  501    0  0.00000000000E+00  0.00000000000E+00 -0.12707706367E+04  0.12707706367E+04  0.50400001928E-02 0.  1.
    10030    2    1    2    0    0  0.00000000000E+00  0.00000000000E+00  0.26989712883E+03  0.28114384023E+04  0.27984533996E+04 0.  0.
        5    1    3    3  502    0  0.10015245529E+04 -0.69748683247E+03 -0.55253211178E+03  0.13397212905E+04  0.46999998093E+01 0.  1.
       -5    1    3    3    0  502 -0.10015245529E+04  0.69748683247E+03  0.82242924061E+03  0.14717171119E+04  0.46999998093E+01 0. -1.
</event>
<event>
 5   0  0.1832502E-05  0.2821748E+04  0.7818609E-02  0.8296548E-01
       -2   -1    0    0    0  501  0.00000000000E+00  0.00000000000E+00  0.11614994662E+04  0.11614994662E+04  0.25500000920E-02 0. -1.
        2   -1    0    0  501    0  0.00000000000E+00  0.00000000000E+00 -0.17137893936E+04  0.17137893936E+04  0.25500000920E-02 0.  1.
    10030    2    1    2    0    0  0.00000000000E+00  0.00000000000E+00 -0.55228992738E+03  0.28752888598E+04  0.28217480155E+04 0.  0.
        2    1    3    3  502    0  0.98298949371E+02  0.14041088093E+04 -0.17745039878E+03  0.14186870253E+04  0.25500000920E-02 0. -1.
       -2    1    3    3    0  502 -0.98298949371E+02 -0.14041088093E+04 -0.37483952860E+03  0.14566018344E+04  0.25500000920E-02 0.  1.
</event>
<event>
 5   0  0.1832502E-05  0.2809755E+04  0.7818609E-02  0.8300246E-01
        2   -1    0    0  501    0  0.00000000000E+00  0.00000000000E+00  0.13074301634E+04  0.13074301634E+04  0.25500000920E-02 0.  1.
       -2   -1    0    0    0  501  0.00000000000E+00  0.00000000000E+00 -0.15095876247E+04  0.15095876247E+04  0.25500000920E-02 0. -1.
    10030    2    1    2    0    0  0.00000000000E+00  0.00000000000E+00 -0.20215746128E+03  0.28170177881E+04  0.28097547187E+04 0.  0.
        2    1    3    3  502    0  0.49540150186E+03 -0.64487520574E+03  0.10474801158E+04  0.13260849415E+04  0.25500000920E-02 0.  1.
       -2    1    3    3    0  502 -0.49540150186E+03  0.64487520574E+03 -0.12496375771E+04  0.14909328466E+04  0.25500000920E-02 0. -1.
</event>
<event>
 5   0  0.7509685E-06  0.1873323E+04  0.7818609E-02  0.8668250E-01
        1   -1    0    0  501    0  0.00000000000E+00  0.00000000000E+00  0.22696058140E+04  0.22696058140E+04  0.50400001928E-02 0.  1.
       -1   -1    0    0    0  501  0.00000000000E+00  0.00000000000E+00 -0.38655829258E+03  0.38655829261E+03  0.50400001928E-02 0. -1.
    10030    2    1    2    0    0  0.00000000000E+00  0.00000000000E+00  0.18830475214E+04  0.26561641066E+04  0.18733231951E+04 0.  0.
        4    1    3    3  502    0  0.87298810041E+03 -0.39022990474E+01  0.46025567540E+03  0.98689429578E+03  0.12699999809E+01 0. -1.
       -4    1    3    3    0  502 -0.87298810041E+03  0.39022990474E+01  0.14227918460E+04  0.16692698108E+04  0.12699999809E+01 0.  1.
</event>
<event>
 5   0  0.7388013E-06  0.2790830E+04  0.7818609E-02  0.8306121E-01
        1   -1    0    0  501    0  0.00000000000E+00  0.00000000000E+00  0.26898379998E+04  0.26898379998E+04  0.50400001928E-02 0. -1.
       -1   -1    0    0    0  501  0.00000000000E+00  0.00000000000E+00 -0.72390325421E+03  0.72390325422E+03  0.50400001928E-02 0.  1.
    10030    2    1    2    0    0  0.00000000000E+00  0.00000000000E+00  0.19659347456E+04  0.34137412541E+04  0.27908296124E+04 0.  0.
        1    1    3    3  502    0  0.12057076549E+04 -0.90855337574E+02  0.18350000670E+04  0.21975465610E+04  0.50400001928E-02 0. -1.
       -1    1    3    3    0  502 -0.12057076549E+04  0.90855337574E+02  0.13093467859E+03  0.12161946931E+04  0.50400001928E-02 0.  1.
</event>
<event>
 5   0  0.7388013E-06  0.2621868E+04  0.7818609E-02  0.8360811E-01
        1   -1    0    0  501    0  0.00000000000E+00  0.00000000000E+00  0.17493134020E+04  0.17493134020E+04  0.50400001928E-02 0.  1.
       -1   -1    0    0    0  501  0.00000000000E+00  0.00000000000E+00 -0.98241263486E+03  0.98241263488E+03  0.50400001928E-02 0. -1.
    10030    2    1    2    0    0  0.00000000000E+00  0.00000000000E+00  0.76690076712E+03  0.27317260369E+04  0.26218677224E+04 0.  0.
        1    1    3    3  502    0 -0.13019796442E+04 -0.13413495971E+03  0.46004537954E+03  0.13873661854E+04  0.50400001928E-02 0. -1.
       -1    1    3    3    0  502  0.13019796442E+04  0.13413495971E+03  0.30685538758E+03  0.13443598514E+04  0.50400001928E-02 0.  1.
</event>
<event>
 5   0  0.7613444E-06  0.2749818E+04  0.7818609E-02  0.8319019E-01
        1   -1    0    0  501    0  0.00000000000E+00  0.00000000000E+00  0.18984378753E+04  0.18984378754E+04  0.50400001928E-02 0.  1.
       -1   -1    0    0    0  501  0.00000000000E+00  0.00000000000E+00 -0.99575260167E+03  0.99575260168E+03  0.50400001928E-02 0. -1.
    10030    2    1    2    0    0  0.00000000000E+00  0.00000000000E+00  0.90268527368E+03  0.28941904770E+04  0.27498177783E+04 0.  0.
        5    1    3    3  502    0 -0.38621973128E+03 -0.51312774110E+02 -0.93642657176E+03  0.10142561293E+04  0.46999998093E+01 0. -1.
       -5    1    3    3    0  502  0.38621973128E+03  0.51312774110E+02  0.18391118454E+04  0.18799343477E+04  0.46999998093E+01 0.  1.
</event>
<event>
 5   0  0.1923559E-05  0.2766352E+04  0.7818609E-02  0.8313791E-01
       -2   -1    0    0    0  501  0.00000000000E+00  0.00000000000E+00  0.12178794769E+04  0.12178794770E+04  0.25500000920E-02 0. -1.
        2   -1    0    0  501    0  0.00000000000E+00  0.00000000000E+00 -0.15709079311E+04  0.15709079311E+04  0.25500000920E-02 0.  1.
    10030    2    1    2    0    0  0.00000000000E+00  0.00000000000E+00 -0.35302845415E+03  0.27887874081E+04  0.27663524934E+04 0.  0.
        4    1    3    3  502    0  0.25578114821E+03 -0.26586344327E+03 -0.15203922733E+04  0.15645132290E+04  0.12699999809E+01 0.  1.
       -4    1    3    3    0  502 -0.25578114821E+03  0.26586344327E+03  0.11673638191E+04  0.12242741790E+04  0.12699999809E+01 0. -1.
</event>
<event>
 5   0  0.1874272E-05  0.2774530E+04  0.7818609E-02  0.8311220E-01
       -2   -1    0    0    0  501  0.00000000000E+00  0.00000000000E+00  0.11860515350E+04  0.11860515350E+04  0.25500000920E-02 0. -1.
        2   -1    0    0  501    0  0.00000000000E+00  0.00000000000E+00 -0.16226145140E+04  0.16226145140E+04  0.25500000920E-02 0.  1.
    10030    2    1    2    0    0  0.00000000000E+00  0.00000000000E+00 -0.43656297908E+03  0.28086660490E+04  0.27745301837E+04 0.  0.
        3    1    3    3  502    0 -0.12888020597E+03  0.73561582653E+03 -0.14017517920E+04  0.15882848763E+04  0.10100000352E+00 0.  1.
       -3    1    3    3    0  502  0.12888020597E+03 -0.73561582653E+03  0.96518881297E+03  0.12203811727E+04  0.10100000352E+00 0. -1.
</event>
<event>
 5   0  0.1904553E-05  0.2815658E+04  0.7818609E-02  0.8298424E-01
       -2   -1    0    0    0  501  0.00000000000E+00  0.00000000000E+00  0.16938640642E+04  0.16938640642E+04  0.25500000920E-02 0.  1.
        2   -1    0    0  501    0  0.00000000000E+00  0.00000000000E+00 -0.11700953654E+04  0.11700953654E+04  0.25500000920E-02 0. -1.
    10030    2    1    2    0    0  0.00000000000E+00  0.00000000000E+00  0.52376869882E+03  0.28639594297E+04  0.28156579986E+04 0.  0.
        1    1    3    3  502    0  0.12838195637E+04 -0.34489617044E+03 -0.20957140765E+03  0.13457586022E+04  0.50400001928E-02 0. -1.
       -1    1    3    3    0  502 -0.12838195637E+04  0.34489617044E+03  0.73334010647E+03  0.15182008274E+04  0.50400001928E-02 0.  1.
</event>
<event>
 5   0  0.1874272E-05  0.2769148E+04  0.7818609E-02  0.8312911E-01
       -2   -1    0    0    0  501  0.00000000000E+00  0.00000000000E+00  0.19837273813E+04  0.19837273813E+04  0.25500000920E-02 0. -1.
        2   -1    0    0  501    0  0.00000000000E+00  0.00000000000E+00 -0.96638551461E+03  0.96638551462E+03  0.25500000920E-02 0.  1.
    10030    2    1    2    0    0  0.00000000000E+00  0.00000000000E+00  0.10173418667E+04  0.29501128959E+04  0.27691481768E+04 0.  0.
        3    1    3    3  502    0 -0.63149441473E+02 -0.84501999078E+03  0.16752167684E+04  0.18773379739E+04  0.10100000352E+00 0. -1.
       -3    1    3    3    0  502  0.63149441473E+02  0.84501999078E+03 -0.65787490175E+03  0.10727749220E+04  0.10100000352E+00 0.  1.
</event>
<event>
 5   0  0.1814230E-05  0.2774863E+04  0.7818609E-02  0.8311115E-01
       -2   -1    0    0    0  501  0.00000000000E+00  0.00000000000E+00  0.90391595124E+03  0.90391595124E+03  0.25500000920E-02 0.  1.
        2   -1    0    0  501    0  0.00000000000E+00  0.00000000000E+00 -0.21295851714E+04  0.21295851714E+04  0.25500000920E-02 0. -1.
    10030    2    1    2    0    0  0.00000000000E+00  0.00000000000E+00 -0.12256692202E+04  0.30335011227E+04  0.27748628838E+04 0.  0.
        5    1    3    3  502    0 -0.86423839878E+03  0.31322603819E+03 -0.17488899858E+04  0.19757674036E+04  0.46999998093E+01 0. -1.
       -5    1    3    3    0  502  0.86423839878E+03 -0.31322603819E+03  0.52322076556E+03  0.10577337191E+04  0.46999998093E+01 0.  1.
</event>
<event>
 5   0  0.6288000E-06  0.2819121E+04  0.7818609E-02  0.8297357E-01
        4   -1    0    0  501    0  0.00000000000E+00  0.00000000000E+00  0.16627336418E+04  0.16627341268E+04  0.12699999809E+01 0.  1.
       -4   -1    0    0    0  501  0.00000000000E+00  0.00000000000E+00 -0.11949350975E+04  0.11949357724E+04  0.12699999809E+01 0. -1.
    10030    2    1    2    0    0  0.00000000000E+00  0.00000000000E+00  0.46779854430E+03  0.28576698992E+04  0.28191207450E+04 0.  0.
        4    1    3    3  502    0  0.10421310227E+02  0.13824789369E+04 -0.44634738401E+02  0.13832391288E+04  0.12699999809E+01 0. -1.
       -4    1    3    3    0  502 -0.10421310227E+02 -0.13824789369E+04  0.51243328270E+03  0.14744307704E+04  0.12699999809E+01 0.  1.
</event>
<event>
 5   0  0.7555871E-06  0.2738662E+04  0.7818609E-02  0.8322568E-01
       -1   -1    0    0    0  501  0.00000000000E+00  0.00000000000E+00  0.13081214284E+04  0.13081214284E+04  0.50400001928E-02 0. -1.
        1   -1    0    0  501    0  0.00000000000E+00  0.00000000000E+00 -0.14334050784E+04  0.14334050784E+04  0.50400001928E-02 0.  1.
    10030    2    1    2    0    0  0.00000000000E+00  0.00000000000E+00 -0.12528365001E+03  0.27415265069E+04  0.27386623733E+04 0.  0.
        3    1    3    3  502    0 -0.40790367810E+03  0.67058698416E+03 -0.11858650014E+04  0.14220928681E+04  0.10100000352E+00 0.  1.
       -3    1    3    3    0  502  0.40790367810E+03 -0.67058698416E+03  0.10605813514E+04  0.13194336387E+04  0.10100000352E+00 0. -1.
</event>
<event>
 5   0  0.1904553E-05  0.2851937E+04  0.7818609E-02  0.8287323E-01
       -2   -1    0    0    0  501  0.00000000000E+00  0.00000000000E+00  0.15039546707E+04  0.15039546707E+04  0.25500000920E-02 0. -1.
        2   -1    0    0  501    0  0.00000000000E+00  0.00000000000E+00 -0.13520263328E+04  0.13520263328E+04  0.25500000920E-02 0.  1.
    10030    2    1    2    0    0  0.00000000000E+00  0.00000000000E+00  0.15192833795E+03  0.28559810035E+04  0.28519371088E+04 0.  0.
        1    1    3    3  502    0 -0.91005029175E+03  0.47806163666E+03  0.10656224435E+04  0.14806369082E+04  0.50400001928E-02 0. -1.
       -1    1    3    3    0  502  0.91005029175E+03 -0.47806163666E+03 -0.91369410551E+03  0.13753440953E+04  0.50400001928E-02 0.  1.
</event>
<event>
 5   0  0.7555871E-06  0.2799379E+04  0.7818609E-02  0.8303461E-01
       -1   -1    0    0    0  501  0.00000000000E+00  0.00000000000E+00  0.14044016737E+04  0.14044016737E+04  0.50400001928E-02 0. -1.
        1   -1    0    0  501    0  0.00000000000E+00  0.00000000000E+00 -0.13949929425E+04  0.13949929425E+04  0.50400001928E-02 0.  1.
    10030    2    1    2    0    0  0.00000000000E+00  0.00000000000E+00  0.94087311929E+01  0.27993946161E+04  0.27993788048E+04 0.  0.
        3    1    3    3  502    0  0.21416889913E+03 -0.13533333077E+04  0.29062739247E+03  0.14006582919E+04  0.10100000352E+00 0. -1.
       -3    1    3    3    0  502 -0.21416889913E+03  0.13533333077E+04 -0.28121866128E+03  0.13987363243E+04  0.10100000352E+00 0.  1.
</event>
<event>
 5   0  0.7681342E-06  0.2785234E+04  0.7818609E-02  0.8307867E-01
        1   -1    0    0  501    0  0.00000000000E+00  0.00000000000E+00  0.15123483591E+04  0.15123483591E+04  0.50400001928E-02 0. -1.
       -1   -1    0    0    0  501  0.00000000000E+00  0.00000000000E+00 -0.12823648814E+04  0.12823648815E+04  0.50400001928E-02 0.  1.
    10030    2    1    2    0    0  0.00000000000E+00  0.00000000000E+00  0.22998347761E+03  0.27947132405E+04  0.27852342265E+04 0.  0.
        2    1    3    3  502    0  0.45356364645E+03 -0.10544534308E+04 -0.67622877239E+03  0.13322452371E+04  0.25500000920E-02 0. -1.
       -2    1    3    3    0  502 -0.45356364645E+03  0.10544534308E+04  0.90621224999E+03  0.14624680034E+04  0.25500000920E-02 0.  1.
</event>
<event>
 5   0  0.7509685E-06  0.3056467E+04  0.7818609E-02  0.8227788E-01
        1   -1    0    0  501    0  0.00000000000E+00  0.00000000000E+00  0.13007140200E+04  0.13007140200E+04  0.50400001928E-02 0. -1.
       -1   -1    0    0    0  501  0.00000000000E+00  0.00000000000E+00 -0.17955498676E+04  0.17955498676E+04  0.50400001928E-02 0.  1.
    10030    2    1    2    0    0  0.00000000000E+00  0.00000000000E+00 -0.49483584763E+03  0.30962638877E+04  0.30564665131E+04 0.  0.
        4    1    3    3  502    0 -0.14950328161E+04 -0.90935011075E+02  0.60018385407E+02  0.14989983712E+04  0.12699999809E+01 0. -1.
       -4    1    3    3    0  502  0.14950328161E+04  0.90935011075E+02 -0.55485423304E+03  0.15972655165E+04  0.12699999809E+01 0.  1.
</event>
<event>
 5   0  0.1923559E-05  0.1731686E+04  0.7818609E-02  0.8743496E-01
        2   -1    0    0  501    0  0.00000000000E+00  0.00000000000E+00  0.86352814370E+03  0.86352814370E+03  0.25500000920E-02 0.  1.
       -2   -1    0    0    0  501  0.00000000000E+00  0.00000000000E+00 -0.86816364812E+03  0.86816364812E+03  0.25500000920E-02 0. -1.
    10030    2    1    2    0    0  0.00000000000E+00  0.00000000000E+00 -0.46355044203E+01  0.17316917918E+04  0.17316855875E+04 0.  0.
        4    1    3    3  502    0 -0.40573774281E+03  0.65935750174E+03  0.38537771669E+03  0.86480808765E+03  0.12699999809E+01 0.  1.
       -4    1    3    3    0  502  0.40573774281E+03 -0.65935750174E+03 -0.39001322111E+03  0.86688370418E+03  0.12699999809E+01 0. -1.
</event>
<event>
 5   0  0.6288000E-06  0.2793536E+04  0.7818609E-02  0.8305278E-01
        3   -1    0    0  501    0  0.00000000000E+00  0.00000000000E+00  0.14599457592E+04  0.14599457627E+04  0.10100000352E+00 0.  1.
       -3   -1    0    0    0  501  0.00000000000E+00  0.00000000000E+00 -0.13363246424E+04  0.13363246462E+04  0.10100000352E+00 0. -1.
    10030    2    1    2    0    0  0.00000000000E+00  0.00000000000E+00  0.12362111679E+03  0.27962704089E+04  0.27935364718E+04 0.  0.
        4    1    3    3  502    0 -0.35581753572E+03  0.48032585971E+02 -0.12893425553E+04  0.13384016907E+04  0.12699999809E+01 0. -1.
       -4    1    3    3    0  502  0.35581753572E+03 -0.48032585971E+02  0.14129636720E+04  0.14578687182E+04  0.12699999809E+01 0.  1.
</event>
<event>
 5   0  0.7613444E-06  0.2897587E+04  0.7818609E-02  0.8273596E-01
        1   -1    0    0  501    0  0.00000000000E+00  0.00000000000E+00  0.19669208352E+04  0.19669208352E+04  0.50400001928E-02 0.  1.
       -1   -1    0    0    0  501  0.00000000000E+00  0.00000000000E+00 -0.10671518681E+04  0.10671518681E+04  0.50400001928E-02 0. -1.
    10030    2    1    2    0    0  0.00000000000E+00  0.00000000000E+00  0.89976896702E+03  0.30340727033E+04  0.28975874404E+04 0.  0.
        5    1    3    3  502    0  0.95428586203E+03 -0.10379247478E+04  0.10097461715E+03  0.14135654395E+04  0.46999998093E+01 0.  1.
       -5    1    3    3    0  502 -0.95428586203E+03  0.10379247478E+04  0.79879434988E+03  0.16205072638E+04  0.46999998093E+01 0. -1.
</event>
<event>
 5   0  0.7613444E-06  0.2779413E+04  0.7818609E-02  0.8309688E-01
       -1   -1    0    0    0  501  0.00000000000E+00  0.00000000000E+00  0.20006718427E+04  0.20006718427E+04  0.50400001928E-02 0. -1.
        1   -1    0    0  501    0  0.00000000000E+00  0.00000000000E+00 -0.96531811714E+03  0.96531811715E+03  0.50400001928E-02 0.  1.
    10030    2    1    2    0    0  0.00000000000E+00  0.00000000000E+00  0.10353537255E+04  0.29659899598E+04  0.27794134462E+04 0.  0.
        5    1    3    3  502    0 -0.37762187392E+03  0.33519177818E+03  0.18993133824E+04  0.19652901115E+04  0.46999998093E+01 0. -1.
       -5    1    3    3    0  502  0.37762187392E+03 -0.33519177818E+03 -0.86395965685E+03  0.10006998483E+04  0.46999998093E+01 0.  1.
</event>
<event>
 5   0  0.1814230E-05  0.2811434E+04  0.7818609E-02  0.8299727E-01
       -2   -1    0    0    0  501  0.00000000000E+00  0.00000000000E+00  0.10576534561E+04  0.10576534561E+04  0.25500000920E-02 0.  1.
        2   -1    0    0  501    0  0.00000000000E+00  0.00000000000E+00 -0.18683248556E+04  0.18683248556E+04  0.25500000920E-02 0. -1.
    10030    2    1    2    0    0  0.00000000000E+00  0.00000000000E+00 -0.81067139951E+03  0.29259783118E+04  0.28114339691E+04 0.  0.
        5    1    3    3  502    0 -0.45660280501E+03  0.12517134685E+04  0.60964970391E+02  0.13337959164E+04  0.46999998093E+01 0.  1.
       -5    1    3    3    0  502  0.45660280501E+03 -0.12517134685E+04 -0.87163636990E+03  0.15921823954E+04  0.46999998093E+01 0. -1.
</event>
<event>
 5   0  0.1904553E-05  0.1947536E+04  0.7818609E-02  0.8631550E-01
        2   -1    0    0  501    0  0.00000000000E+00  0.00000000000E+00  0.59787082102E+03  0.59787082103E+03  0.25500000920E-02 0. -1.
       -2   -1    0    0    0  501  0.00000000000E+00  0.00000000000E+00 -0.15860012654E+04  0.15860012654E+04  0.25500000920E-02 0.  1.
    10030    2    1    2    0    0  0.00000000000E+00  0.00000000000E+00 -0.98813044440E+03  0.21838720865E+04  0.19475357544E+04 0.  0.
        1    1    3    3  502    0  0.85261385033E+03 -0.25952484979E+03 -0.54128936845E+02  0.89287931282E+03  0.50400001928E-02 0.  1.
       -1    1    3    3    0  502 -0.85261385033E+03  0.25952484979E+03 -0.93400150755E+03  0.12909927736E+04  0.50400001928E-02 0. -1.
</event>
<event>
 5   0  0.7681342E-06  0.2790641E+04  0.7818609E-02  0.8306180E-01
        1   -1    0    0  501    0  0.00000000000E+00  0.00000000000E+00  0.16735912754E+04  0.16735912754E+04  0.50400001928E-02 0.  1.
       -1   -1    0    0    0  501  0.00000000000E+00  0.00000000000E+00 -0.11633181611E+04  0.11633181611E+04  0.50400001928E-02 0. -1.
    10030    2    1    2    0    0  0.00000000000E+00  0.00000000000E+00  0.51027311429E+03  0.28369094366E+04  0.27906408762E+04 0.  0.
        2    1    3    3  502    0 -0.93705614181E+03  0.10326814599E+04  0.30508275885E+03  0.14274385101E+04  0.25500000920E-02 0.  1.
       -2    1    3    3    0  502  0.93705614181E+03 -0.10326814599E+04  0.20519035543E+03  0.14094709264E+04  0.25500000920E-02 0. -1.
</event>
<event>
 5   0  0.1814230E-05  0.2807569E+04  0.7818609E-02  0.8300922E-01
        2   -1    0    0  501    0  0.00000000000E+00  0.00000000000E+00  0.18385543113E+04  0.18385543113E+04  0.25500000920E-02 0. -1.
       -2   -1    0    0    0  501  0.00000000000E+00  0.00000000000E+00 -0.10718260445E+04  0.10718260445E+04  0.25500000920E-02 0.  1.
    10030    2    1    2    0    0  0.00000000000E+00  0.00000000000E+00  0.76672826678E+03  0.29103803557E+04  0.28075686243E+04 0.  0.
        5    1    3    3  502    0  0.10361730716E+04 -0.53650629625E+03 -0.42566054169E+03  0.12420558067E+04  0.46999998093E+01 0.  1.
       -5    1    3    3    0  502 -0.10361730716E+04  0.53650629625E+03  0.11923888085E+04  0.16683245490E+04  0.46999998093E+01 0. -1.
</event>
<event>
 5   0  0.1904553E-05  0.2792540E+04  0.7818609E-02  0.8305588E-01
       -2   -1    0    0    0  501  0.00000000000E+00  0.00000000000E+00  0.94954219510E+03  0.94954219510E+03  0.25500000920E-02 0.  1.
        2   -1    0    0  501    0  0.00000000000E+00  0.00000000000E+00 -0.20531683660E+04  0.20531683660E+04  0.25500000920E-02 0. -1.
    10030    2    1    2    0    0  0.00000000000E+00  0.00000000000E+00 -0.11036261709E+04  0.30027105611E+04  0.27925400603E+04 0.  0.
        1    1    3    3  502    0  0.13734155867E+04  0.91313782945E+01 -0.28146182800E+03  0.14019894852E+04  0.50400001928E-02 0.  1.
       -1    1    3    3    0  502 -0.13734155867E+04 -0.91313782945E+01 -0.82216434287E+03  0.16007210759E+04  0.50400001928E-02 0. -1.
</event>
<event>
 5   0  0.1904553E-05  0.1793973E+04  0.7818609E-02  0.8709511E-01
        2   -1    0    0  501    0  0.00000000000E+00  0.00000000000E+00  0.15182896645E+04  0.15182896645E+04  0.25500000920E-02 0. -1.
       -2   -1    0    0    0  501  0.00000000000E+00  0.00000000000E+00 -0.52992855450E+03  0.52992855451E+03  0.25500000920E-02 0.  1.
    10030    2    1    2    0    0  0.00000000000E+00  0.00000000000E+00  0.98836111000E+03  0.20482182190E+04  0.17939732966E+04 0.  0.
        1    1    3    3  502    0  0.55641161448E+03  0.47806579479E+03  0.10835171827E+04  0.13084916026E+04  0.50400001928E-02 0. -1.
       -1    1    3    3    0  502 -0.55641161448E+03 -0.47806579479E+03 -0.95156072652E+02  0.73972661643E+03  0.50400001928E-02 0.  1.
</event>
<event>
 5   0  0.1874272E-05  0.2735886E+04  0.7818609E-02  0.8323454E-01
       -2   -1    0    0    0  501  0.00000000000E+00  0.00000000000E+00  0.11984054609E+04  0.11984054609E+04  0.25500000920E-02 0.  1.
        2   -1    0    0  501    0  0.00000000000E+00  0.00000000000E+00 -0.15614652907E+04  0.15614652907E+04  0.25500000920E-02 0. -1.
    10030    2    1    2    0    0  0.00000000000E+00  0.00000000000E+00 -0.36305982985E+03  0.27598707516E+04  0.27358863510E+04 0.  0.
        3    1    3    3  502    0  0.80023600702E+03  0.10851168406E+04 -0.41466697582E+03  0.14106044576E+04  0.10100000352E+00 0.  1.
       -3    1    3    3    0  502 -0.80023600702E+03 -0.10851168406E+04  0.51607145973E+02  0.13492662941E+04  0.10100000352E+00 0. -1.
</event>
<event>
 5   0  0.7509685E-06  0.2708062E+04  0.7818609E-02  0.8332394E-01
        1   -1    0    0  501    0  0.00000000000E+00  0.00000000000E+00  0.15568837397E+04  0.15568837397E+04  0.50400001928E-02 0. -1.
       -1   -1    0    0    0  501  0.00000000000E+00  0.00000000000E+00 -0.11776085585E+04  0.11776085585E+04  0.50400001928E-02 0.  1.
    10030    2    1    2    0    0  0.00000000000E+00  0.00000000000E+00  0.37927518120E+03  0.27344922982E+04  0.27080617544E+04 0.  0.
        4    1    3    3  502    0  0.25845837324E+03 -0.75694407368E+03 -0.91356059474E+03  0.12142321172E+04  0.12699999809E+01 0.  1.
       -4    1    3    3    0  502 -0.25845837324E+03  0.75694407368E+03  0.12928357759E+04  0.15202601810E+04  0.12699999809E+01 0. -1.
</event>
<event>
 5   0  0.7509685E-06  0.2203690E+04  0.7818609E-02  0.8516894E-01
        1   -1    0    0  501    0  0.00000000000E+00  0.00000000000E+00  0.11479074278E+04  0.11479074278E+04  0.50400001928E-02 0. -1.
       -1   -1    0    0    0  501  0.00000000000E+00  0.00000000000E+00 -0.10576310950E+04  0.10576310950E+04  0.50400001928E-02 0.  1.
    10030    2    1    2    0    0  0.00000000000E+00  0.00000000000E+00  0.90276332794E+02  0.22055385227E+04  0.22036901686E+04 0.  0.
        4    1    3    3  502    0 -0.51853811233E+03  0.41789646838E+03 -0.83340316833E+03  0.10668091142E+04  0.12699999809E+01 0.  1.
       -4    1    3    3    0  502  0.51853811233E+03 -0.41789646838E+03  0.92367950112E+03  0.11387294086E+04  0.12699999809E+01 0. -1.
</event>
<event>
 5   0  0.7388013E-06  0.2879445E+04  0.7818609E-02  0.8279020E-01
       -1   -1    0    0    0  501  0.00000000000E+00  0.00000000000E+00  0.13745198910E+04  0.13745198910E+04  0.50400001928E-02 0.  1.
        1   -1    0    0  501    0  0.00000000000E+00  0.00000000000E+00 -0.15080180732E+04  0.15080180732E+04  0.50400001928E-02 0. -1.
    10030    2    1    2    0    0  0.00000000000E+00  0.00000000000E+00 -0.13349818216E+03  0.28825379642E+04  0.28794449726E+04 0.  0.
        1    1    3    3  502    0 -0.11257074862E+04  0.81094644152E+03 -0.45180412101E+03  0.14591019290E+04  0.50400001928E-02 0. -1.
       -1    1    3    3    0  502  0.11257074862E+04 -0.81094644152E+03  0.31830593885E+03  0.14234360352E+04  0.50400001928E-02 0.  1.
</event>
<event>
 5   0  0.1814230E-05  0.2376029E+04  0.7818609E-02  0.8448533E-01
       -2   -1    0    0    0  501  0.00000000000E+00  0.00000000000E+00  0.78162125951E+03  0.78162125951E+03  0.25500000920E-02 0. -1.
        2   -1    0    0  501    0  0.00000000000E+00  0.00000000000E+00 -0.18057065023E+04  0.18057065023E+04  0.25500000920E-02 0.  1.
    10030    2    1    2    0    0  0.00000000000E+00  0.00000000000E+00 -0.10240852428E+04  0.25873277618E+04  0.23760291165E+04 0.  0.
        5    1    3    3  502    0  0.95235788559E+03  0.51598115184E+03 -0.10434294273E+04  0.15039910742E+04  0.46999998093E+01 0. -1.
       -5    1    3    3    0  502 -0.95235788559E+03 -0.51598115184E+03  0.19344184569E+02  0.10833366876E+04  0.46999998093E+01 0.  1.
</event>
<event>
 5   0  0.7555871E-06  0.2746688E+04  0.7818609E-02  0.8320013E-01
       -1   -1    0    0    0  501  0.00000000000E+00  0.00000000000E+00  0.13915874805E+04  0.13915874805E+04  0.50400001928E-02 0.  1.
        1   -1    0    0  501    0  0.00000000000E+00  0.00000000000E+00 -0.13553396008E+04  0.13553396008E+04  0.50400001928E-02 0. -1.
    10030    2    1    2    0    0  0.00000000000E+00  0.00000000000E+00  0.36247879700E+02  0.27469270812E+04  0.27466879111E+04 0.  0.
        3    1    3    3  502    0  0.10186878982E+04 -0.90478293090E+03  0.19052347393E+03  0.13757384891E+04  0.10100000352E+00 0.  1.
       -3    1    3    3    0  502 -0.10186878982E+04  0.90478293090E+03 -0.15427559423E+03  0.13711885921E+04  0.10100000352E+00 0. -1.
</event>
<event>
 5   0  0.1814230E-05  0.2816697E+04  0.7818609E-02  0.8298103E-01
        2   -1    0    0  501    0  0.00000000000E+00  0.00000000000E+00  0.12073911401E+04  0.12073911401E+04  0.25500000920E-02 0.  1.
       -2   -1    0    0    0  501  0.00000000000E+00  0.00000000000E+00 -0.16427532787E+04  0.16427532787E+04  0.25500000920E-02 0. -1.
    10030    2    1    2    0    0  0.00000000000E+00  0.00000000000E+00 -0.43536213862E+03  0.28501444188E+04  0.28166971823E+04 0.  0.
        5    1    3    3  502    0 -0.13997189678E+03 -0.45923144221E+03  0.11220264254E+04  0.12204306775E+04  0.46999998093E+01 0.  1.
       -5    1    3    3    0  502  0.13997189678E+03  0.45923144221E+03 -0.15573885640E+04  0.16297137413E+04  0.46999998093E+01 0. -1.
</event>
<event>
 5   0  0.1904553E-05  0.2760612E+04  0.7818609E-02  0.8315602E-01
        2   -1    0    0  501    0  0.00000000000E+00  0.00000000000E+00  0.17487608419E+04  0.17487608419E+04  0.25500000920E-02 0.  1.
       -2   -1    0    0    0  501  0.00000000000E+00  0.00000000000E+00 -0.10894828207E+04  0.10894828207E+04  0.25500000920E-02 0. -1.
    10030    2    1    2    0    0  0.00000000000E+00  0.00000000000E+00  0.65927802121E+03  0.28382436626E+04  0.27606121747E+04 0.  0.
        1    1    3    3  502    0 -0.12245929251E+04 -0.48142341267E+03  0.75831565948E+03  0.15186964719E+04  0.50400001928E-02 0.  1.
       -1    1    3    3    0  502  0.12245929251E+04  0.48142341267E+03 -0.99037638263E+02  0.13195471906E+04  0.50400001928E-02 0. -1.
</event>
<event>
 5   0  0.1923559E-05  0.2797244E+04  0.7818609E-02  0.8304125E-01
        2   -1    0    0  501    0  0.00000000000E+00  0.00000000000E+00  0.18387755489E+04  0.18387755489E+04  0.25500000920E-02 0. -1.
       -2   -1    0    0    0  501  0.00000000000E+00  0.00000000000E+00 -0.10638291800E+04  0.10638291800E+04  0.25500000920E-02 0.  1.
    10030    2    1    2    0    0  0.00000000000E+00  0.00000000000E+00  0.77494636892E+03  0.29026047290E+04  0.27972437037E+04 0.  0.
        4    1    3    3  502    0  0.10007511432E+04  0.37921783915E+03  0.13218523679E+04  0.17007658027E+04  0.12699999809E+01 0. -1.
       -4    1    3    3    0  502 -0.10007511432E+04 -0.37921783915E+03 -0.54690599902E+03  0.12018389263E+04  0.12699999809E+01 0.  1.
</event>
<event>
 5   0  0.1814230E-05  0.2768031E+04  0.7818609E-02  0.8313263E-01
        2   -1    0    0  501    0  0.00000000000E+00  0.00000000000E+00  0.17208607134E+04  0.17208607134E+04  0.25500000920E-02 0.  1.
       -2   -1    0    0    0  501  0.00000000000E+00  0.00000000000E+00 -0.11131053088E+04  0.11131053088E+04  0.25500000920E-02 0. -1.
    10030    2    1    2    0    0  0.00000000000E+00  0.00000000000E+00  0.60775540467E+03  0.28339660222E+04  0.27680312106E+04 0.  0.
        5    1    3    3  502    0  0.66472784620E+03  0.58958648836E+03 -0.78253089241E+03  0.11839983211E+04  0.46999998093E+01 0. -1.
       -5    1    3    3    0  502 -0.66472784620E+03 -0.58958648836E+03  0.13902862971E+04  0.16499677011E+04  0.46999998093E+01 0.  1.
</event>
<event>
 5   0  0.7509685E-06  0.2947801E+04  0.7818609E-02  0.8258796E-01
        1   -1    0    0  501    0  0.00000000000E+00  0.00000000000E+00  0.17863159547E+04  0.17863159548E+04  0.50400001928E-02 0. -1.
       -1   -1    0    0    0  501  0.00000000000E+00  0.00000000000E+00 -0.12161245708E+04  0.12161245708E+04  0.50400001928E-02 0.  1.
    10030    2    1    2    0    0  0.00000000000E+00  0.00000000000E+00  0.57019138392E+03  0.30024405256E+04  0.29478010271E+04 0.  0.
        4    1    3    3  502    0 -0.28253094247E+03  0.53408566892E+03  0.16543766176E+04  0.17612594474E+04  0.12699999809E+01 0. -1.
       -4    1    3    3    0  502  0.28253094247E+03 -0.53408566892E+03 -0.10841852337E+04  0.12411810782E+04  0.12699999809E+01 0.  1.
</event>
<event>
 5   0  0.1904553E-05  0.2756968E+04  0.7818609E-02  0.8316754E-01
       -2   -1    0    0    0  501  0.00000000000E+00  0.00000000000E+00  0.12034625823E+04  0.12034625823E+04  0.25500000920E-02 0. -1.
        2   -1    0    0  501    0  0.00000000000E+00  0.00000000000E+00 -0.15789591715E+04  0.15789591715E+04  0.25500000920E-02 0.  1.
    10030    2    1    2    0    0  0.00000000000E+00  0.00000000000E+00 -0.37549658917E+03  0.27824217539E+04  0.27569681043E+04 0.  0.
        1    1    3    3  502    0 -0.67032032471E+03  0.14465212345E+03 -0.13945999149E+04  0.15540793085E+04  0.50400001928E-02 0.  1.
       -1    1    3    3    0  502  0.67032032471E+03 -0.14465212345E+03  0.10191033257E+04  0.12283424453E+04  0.50400001928E-02 0. -1.
</event>
<event>
 5   0  0.7509685E-06  0.2668736E+04  0.7818609E-02  0.8345221E-01
        1   -1    0    0  501    0  0.00000000000E+00  0.00000000000E+00  0.26017407171E+04  0.26017407171E+04  0.50400001928E-02 0. -1.
       -1   -1    0    0    0  501  0.00000000000E+00  0.00000000000E+00 -0.68436390580E+03  0.68436390582E+03  0.50400001928E-02 0.  1.
    10030    2    1    2    0    0  0.00000000000E+00  0.00000000000E+00  0.19173768113E+04  0.32861046229E+04  0.26687356100E+04 0.  0.
        4    1    3    3  502    0 -0.11625114382E+04  0.61223717344E+03  0.12455353631E+04  0.18104218166E+04  0.12699999809E+01 0. -1.
       -4    1    3    3    0  502  0.11625114382E+04 -0.61223717344E+03  0.67184144811E+03  0.14756828063E+04  0.12699999809E+01 0.  1.
</event>
<event>
 5   0  0.7681342E-06  0.2759963E+04  0.7818609E-02  0.8315807E-01
        1   -1    0    0  501    0  0.00000000000E+00  0.00000000000E+00  0.18922750350E+04  0.18922750350E+04  0.50400001928E-02 0. -1.
       -1   -1    0    0    0  501  0.00000000000E+00  0.00000000000E+00 -0.10063806350E+04  0.10063806350E+04  0.50400001928E-02 0.  1.
    10030    2    1    2    0    0  0.00000000000E+00  0.00000000000E+00  0.88589439997E+03  0.28986556700E+04  0.27599630079E+04 0.  0.
        2    1    3    3  502    0  0.46036533771E+03 -0.83831053652E+03 -0.60185427359E+03  0.11300129939E+04  0.25500000920E-02 0.  1.
       -2    1    3    3    0  502 -0.46036533771E+03  0.83831053652E+03  0.14877486736E+04  0.17686426760E+04  0.25500000920E-02 0. -1.
</event>
<event>
 5   0  0.7681342E-06  0.2737559E+04  0.7818609E-02  0.8322920E-01
       -1   -1    0    0    0  501  0.00000000000E+00  0.00000000000E+00  0.68708151962E+03  0.68708151963E+03  0.50400001928E-02 0.  1.
        1   -1    0    0  501    0  0.00000000000E+00  0.00000000000E+00 -0.27268340582E+04  0.27268340582E+04  0.50400001928E-02 0. -1.
    10030    2    1    2    0    0  0.00000000000E+00  0.00000000000E+00 -0.20397525386E+04  0.34139155778E+04  0.27375589773E+04 0.  0.
        2    1    3    3  502    0  0.10149731933E+04 -0.85997210166E+03 -0.14217230816E+04  0.19470539591E+04  0.25500000920E-02 0.  1.
       -2    1    3    3    0  502 -0.10149731933E+04  0.85997210166E+03 -0.61802945695E+03  0.14668616187E+04  0.25500000920E-02 0. -1.
</event>
<event>
 5   0  0.7388013E-06  0.2801302E+04  0.7818609E-02  0.8302864E-01
        1   -1    0    0  501    0  0.00000000000E+00  0.00000000000E+00  0.11878632051E+04  0.11878632051E+04  0.50400001928E-02 0.  1.
       -1   -1    0    0    0  501  0.00000000000E+00  0.00000000000E+00 -0.16515564815E+04  0.16515564815E+04  0.50400001928E-02 0. -1.
    10030    2    1    2    0    0  0.00000000000E+00  0.00000000000E+00 -0.46369327644E+03  0.28394196866E+04  0.28013019655E+04 0.  0.
        1    1    3    3  502    0  0.57657667595E+03  0.11469633404E+04 -0.79969972822E+03  0.15124434610E+04  0.50400001928E-02 0. -1.
       -1    1    3    3    0  502 -0.57657667595E+03 -0.11469633404E+04  0.33600645178E+03  0.13269762255E+04  0.50400001928E-02 0.  1.
</event>
<event>
 5   0  0.7509685E-06  0.2823394E+04  0.7818609E-02  0.8296042E-01
        1   -1    0    0  501    0  0.00000000000E+00  0.00000000000E+00  0.17097272729E+04  0.17097272729E+04  0.50400001928E-02 0.  1.
       -1   -1    0    0    0  501  0.00000000000E+00  0.00000000000E+00 -0.11656175170E+04  0.11656175170E+04  0.50400001928E-02 0. -1.
    10030    2    1    2    0    0  0.00000000000E+00  0.00000000000E+00  0.54410975592E+03  0.28753447898E+04  0.28233937441E+04 0.  0.
        4    1    3    3  502    0  0.12695009214E+04 -0.49393370026E+03 -0.10528041280E+03  0.13662681537E+04  0.12699999809E+01 0. -1.
       -4    1    3    3    0  502 -0.12695009214E+04  0.49393370026E+03  0.64939016872E+03  0.15090766361E+04  0.12699999809E+01 0.  1.
</event>
<event>
 5   0  0.1923559E-05  0.2786111E+04  0.7818609E-02  0.8307593E-01
        2   -1    0    0  501    0  0.00000000000E+00  0.00000000000E+00  0.15746582898E+04  0.15746582898E+04  0.25500000920E-02 0. -1.
       -2   -1    0    0    0  501  0.00000000000E+00  0.00000000000E+00 -0.12323964122E+04  0.12323964122E+04  0.25500000920E-02 0.  1.
    10030    2    1    2    0    0  0.00000000000E+00  0.00000000000E+00  0.34226187765E+03  0.28070547020E+04  0.27861107134E+04 0.  0.
        4    1    3    3  502    0 -0.51667265974E+03 -0.73551235736E+03  0.12434022667E+04  0.15342685146E+04  0.12699999809E+01 0. -1.
       -4    1    3    3    0  502  0.51667265974E+03  0.73551235736E+03 -0.90114038908E+03  0.12727861874E+04  0.12699999809E+01 0.  1.
</event>
<event>
 5   0  0.1832502E-05  0.2371184E+04  0.7818609E-02  0.8450371E-01
        2   -1    0    0  501    0  0.00000000000E+00  0.00000000000E+00  0.41944812486E+03  0.41944812487E+03  0.25500000920E-02 0.  1.
       -2   -1    0    0    0  501  0.00000000000E+00  0.00000000000E+00 -0.33511380838E+04  0.33511380838E+04  0.25500000920E-02 0. -1.
    10030    2    1    2    0    0  0.00000000000E+00  0.00000000000E+00 -0.29316899589E+04  0.37705862087E+04  0.23711841644E+04 0.  0.
        2    1    3    3  502    0  0.14447035276E+03 -0.33126418665E+02  0.40465716367E+03  0.43094832934E+03  0.25500000920E-02 0.  1.
       -2    1    3    3    0  502 -0.14447035276E+03  0.33126418665E+02 -0.33363471226E+04  0.33396378793E+04  0.25500000920E-02 0. -1.
</event>
<event>
 5   0  0.7613444E-06  0.2764558E+04  0.7818609E-02  0.8314357E-01
       -1   -1    0    0    0  501  0.00000000000E+00  0.00000000000E+00  0.27181638036E+04  0.27181638036E+04  0.50400001928E-02 0.  1.
        1   -1    0    0  501    0  0.00000000000E+00  0.00000000000E+00 -0.70293591572E+03  0.70293591574E+03  0.50400001928E-02 0. -1.
    10030    2    1    2    0    0  0.00000000000E+00  0.00000000000E+00  0.20152278878E+04  0.34210997193E+04  0.27645578036E+04 0.  0.
        5    1    3    3  502    0  0.10297991720E+04  0.58689171043E+03  0.12756726074E+03  0.11921508757E+04  0.46999998093E+01 0. -1.
       -5    1    3    3    0  502 -0.10297991720E+04 -0.58689171043E+03  0.18876606271E+04  0.22289488436E+04  0.46999998093E+01 0.  1.
</event>
<event>
 5   0  0.1832502E-05  0.2784062E+04  0.7818609E-02  0.8308233E-01
       -2   -1    0    0    0  501  0.00000000000E+00  0.00000000000E+00  0.88597431425E+03  0.88597431426E+03  0.25500000920E-02 0.  1.
        2   -1    0    0  501    0  0.00000000000E+00  0.00000000000E+00 -0.21871410893E+04  0.21871410893E+04  0.25500000920E-02 0. -1.
    10030    2    1    2    0    0  0.00000000000E+00  0.00000000000E+00 -0.13011667750E+04  0.30731154035E+04  0.27840623748E+04 0.  0.
        2    1    3    3  502    0  0.28320072592E+03 -0.11497031446E+04  0.15734568911E+03  0.11944779771E+04  0.25500000920E-02 0.  1.
       -2    1    3    3    0  502 -0.28320072592E+03  0.11497031446E+04 -0.14585124641E+04  0.18786374264E+04  0.25500000920E-02 0. -1.
</event>
<event>
 5   0  0.6288000E-06  0.2291369E+04  0.7818609E-02  0.8481332E-01
        3   -1    0    0  501    0  0.00000000000E+00  0.00000000000E+00  0.21824010164E+04  0.21824010187E+04  0.10100000352E+00 0.  1.
       -3   -1    0    0    0  501  0.00000000000E+00  0.00000000000E+00 -0.60144435124E+03  0.60144435972E+03  0.10100000352E+00 0. -1.
    10030    2    1    2    0    0  0.00000000000E+00  0.00000000000E+00  0.15809566652E+04  0.27838453785E+04  0.22913688298E+04 0.  0.
        2    1    3    3  502    0  0.18112097652E+03  0.43917794174E+03  0.20571003766E+04  0.21112422959E+04  0.25500000920E-02 0.  1.
       -2    1    3    3    0  502 -0.18112097652E+03 -0.43917794174E+03 -0.47614371146E+03  0.67260308253E+03  0.25500000920E-02 0. -1.
</event>
<event>
 5   0  0.1904553E-05  0.2791093E+04  0.7818609E-02  0.8306039E-01
        2   -1    0    0  501    0  0.00000000000E+00  0.00000000000E+00  0.19723513189E+04  0.19723513189E+04  0.25500000920E-02 0. -1.
       -2   -1    0    0    0  501  0.00000000000E+00  0.00000000000E+00 -0.98742563588E+03  0.98742563589E+03  0.25500000920E-02 0.  1.
    10030    2    1    2    0    0  0.00000000000E+00  0.00000000000E+00  0.98492568301E+03  0.29597769548E+04  0.27910931588E+04 0.  0.
        1    1    3    3  502    0  0.29046858362E+03 -0.11964625342E+04  0.11891749730E+04  0.17117335395E+04  0.50400001928E-02 0. -1.
       -1    1    3    3    0  502 -0.29046858362E+03  0.11964625342E+04 -0.20424928995E+03  0.12480434153E+04  0.50400001928E-02 0.  1.
</event>
<event>
 5   0  0.1923559E-05  0.2954264E+04  0.7818609E-02  0.8256913E-01
       -2   -1    0    0    0  501  0.00000000000E+00  0.00000000000E+00  0.12844353469E+04  0.12844353469E+04  0.25500000920E-02 0.  1.
        2   -1    0    0  501    0  0.00000000000E+00  0.00000000000E+00 -0.16987381642E+04  0.16987381642E+04  0.25500000920E-02 0. -1.
    10030    2    1    2    0    0  0.00000000000E+00  0.00000000000E+00 -0.41430281731E+03  0.29831735110E+04  0.29542642692E+04 0.  0.
        4    1    3    3  502    0 -0.57153529211E+03  0.13308729527E+04 -0.49988879987E+03  0.15322420930E+04  0.12699999809E+01 0. -1.
       -4    1    3    3    0  502  0.57153529211E+03 -0.13308729527E+04  0.85585982554E+02  0.14509314180E+04  0.12699999809E+01 0.  1.
</event>
<event>
 5   0  0.7613444E-06  0.2277971E+04  0.7818609E-02  0.8486658E-01
        1   -1    0    0  501    0  0.00000000000E+00  0.00000000000E+00  0.12908714894E+04  0.12908714894E+04  0.50400001928E-02 0.  1.
       -1   -1    0    0    0  501  0.00000000000E+00  0.00000000000E+00 -0.10049707216E+04  0.10049707216E+04  0.50400001928E-02 0. -1.
    10030    2    1    2    0    0  0.00000000000E+00  0.00000000000E+00  0.28590076784E+03  0.22958422110E+04  0.22779710728E+04 0.  0.
        5    1    3    3  502    0  0.19540133352E+03  0.41124337027E+03  0.11951538876E+04  0.12789517958E+04  0.46999998093E+01 0.  1.
       -5    1    3    3    0  502 -0.19540133352E+03 -0.41124337027E+03 -0.90925311979E+03  0.10168904152E+04  0.46999998093E+01 0. -1.
</event>
<event>
 5   0  0.1923559E-05  0.2818402E+04  0.7818609E-02  0.8297578E-01
       -2   -1    0    0    0  501  0.00000000000E+00  0.00000000000E+00  0.10704786626E+04  0.10704786626E+04  0.25500000920E-02 0.  1.
        2   -1    0    0  501    0  0.00000000000E+00  0.00000000000E+00 -0.18551027798E+04  0.18551027799E+04  0.25500000920E-02 0. -1.
    10030    2    1    2    0    0  0.00000000000E+00  0.00000000000E+00 -0.78462411727E+03  0.29255814424E+04  0.28184023437E+04 0.  0.
        4    1    3    3  502    0 -0.33941654708E+03 -0.91607707005E+03  0.66191061409E+03  0.11800542634E+04  0.12699999809E+01 0.  1.
       -4    1    3    3    0  502  0.33941654708E+03  0.91607707005E+03 -0.14465347314E+04  0.17455271790E+04  0.12699999809E+01 0. -1.
</event>
<event>
 5   0  0.1814230E-05  0.2822313E+04  0.7818609E-02  0.8296375E-01
        2   -1    0    0  501    0  0.00000000000E+00  0.00000000000E+00  0.13066288196E+04  0.13066288196E+04  0.25500000920E-02 0. -1.
       -2   -1    0    0    0  501  0.00000000000E+00  0.00000000000E+00 -0.15240457001E+04  0.15240457001E+04  0.25500000920E-02 0.  1.
    10030    2    1    2    0    0  0.00000000000E+00  0.00000000000E+00 -0.21741688052E+03  0.28306745196E+04  0.28223125511E+04 0.  0.
        5    1    3    3  502    0 -0.29043745454E+03 -0.64005953518E+03  0.11185631048E+04  0.13210736668E+04  0.46999998093E+01 0. -1.
       -5    1    3    3    0  502  0.29043745454E+03  0.64005953518E+03 -0.13359799854E+04  0.15096008528E+04  0.46999998093E+01 0.  1.
</event>
<event>
 5   0  0.1904553E-05  0.2823088E+04  0.7818609E-02  0.8296136E-01
        2   -1    0    0  501    0  0.00000000000E+00  0.00000000000E+00  0.14405423760E+04  0.14405423760E+04  0.25500000920E-02 0. -1.
       -2   -1    0    0    0  501  0.00000000000E+00  0.00000000000E+00 -0.13831293417E+04  0.13831293417E+04  0.25500000920E-02 0.  1.
    10030    2    1    2    0    0  0.00000000000E+00  0.00000000000E+00  0.57413034289E+02  0.28236717176E+04  0.28230879746E+04 0.  0.
        1    1    3    3  502    0 -0.67996659522E+03 -0.77977103264E+03 -0.93173106563E+03  0.13923075137E+04  0.50400001928E-02 0.  1.
       -1    1    3    3    0  502  0.67996659522E+03  0.77977103264E+03  0.98914409992E+03  0.14313642040E+04  0.50400001928E-02 0. -1.
</event>
<event>
 5   0  0.7509685E-06  0.2809355E+04  0.7818609E-02  0.8300370E-01
       -1   -1    0    0    0  501  0.00000000000E+00  0.00000000000E+00  0.10580963930E+04  0.10580963930E+04  0.50400001928E-02 0. -1.
        1   -1    0    0  501    0  0.00000000000E+00  0.00000000000E+00 -0.18647823112E+04  0.18647823112E+04  0.50400001928E-02 0.  1.
    10030    2    1    2    0    0  0.00000000000E+00  0.00000000000E+00 -0.80668591828E+03  0.29228787042E+04  0.28093553974E+04 0.  0.
        4    1    3    3  502    0  0.29811992073E+03 -0.60699484441E+03  0.87758587969E+03  0.11079155281E+04  0.12699999809E+01 0. -1.
       -4    1    3    3    0  502 -0.29811992073E+03  0.60699484441E+03 -0.16842717980E+04  0.18149631761E+04  0.12699999809E+01 0.  1.
</event>
<event>
 5   0  0.1904553E-05  0.2827988E+04  0.7818609E-02  0.8294632E-01
       -2   -1    0    0    0  501  0.00000000000E+00  0.00000000000E+00  0.11032289063E+04  0.11032289064E+04  0.25500000920E-02 0.  1.
        2   -1    0    0  501    0  0.00000000000E+00  0.00000000000E+00 -0.18122973668E+04  0.18122973668E+04  0.25500000920E-02 0. -1.
    10030    2    1    2    0    0  0.00000000000E+00  0.00000000000E+00 -0.70906846049E+03  0.29155262732E+04  0.28279878656E+04 0.  0.
        1    1    3    3  502    0  0.13147680682E+04 -0.15412029859E+03  0.15785182651E+03  0.13331486559E+04  0.50400001928E-02 0.  1.
       -1    1    3    3    0  502 -0.13147680682E+04  0.15412029859E+03 -0.86692028700E+03  0.15823776173E+04  0.50400001928E-02 0. -1.
</event>
<event>
 5   0  0.7681342E-06  0.1889424E+04  0.7818609E-02  0.8660139E-01
        1   -1    0    0  501    0  0.00000000000E+00  0.00000000000E+00  0.11111073696E+04  0.11111073696E+04  0.50400001928E-02 0.  1.
       -1   -1    0    0    0  501  0.00000000000E+00  0.00000000000E+00 -0.80323527792E+03  0.80323527794E+03  0.50400001928E-02 0. -1.
    10030    2    1    2    0    0  0.00000000000E+00  0.00000000000E+00  0.30787209168E+03  0.19143426476E+04  0.18894238665E+04 0.  0.
        2    1    3    3  502    0  0.60152572377E+03 -0.65723895608E+03  0.47221983480E+03  0.10083589709E+04  0.25500000920E-02 0.  1.
       -2    1    3    3    0  502 -0.60152572377E+03  0.65723895608E+03 -0.16434774312E+03  0.90598367669E+03  0.25500000920E-02 0. -1.
</event>
<event>
 5   0  0.1874272E-05  0.2798008E+04  0.7818609E-02  0.8303887E-01
       -2   -1    0    0    0  501  0.00000000000E+00  0.00000000000E+00  0.81182034972E+03  0.81182034972E+03  0.25500000920E-02 0.  1.
        2   -1    0    0  501    0  0.00000000000E+00  0.00000000000E+00 -0.24108933117E+04  0.24108933117E+04  0.25500000920E-02 0. -1.
    10030    2    1    2    0    0  0.00000000000E+00  0.00000000000E+00 -0.15990729620E+04  0.32227136614E+04  0.27980080425E+04 0.  0.
        3    1    3    3  502    0 -0.88784378904E+03  0.10804093301E+04 -0.75259029530E+03  0.15880626805E+04  0.10100000352E+00 0.  1.
       -3    1    3    3    0  502  0.88784378904E+03 -0.10804093301E+04 -0.84648266666E+03  0.16346509809E+04  0.10100000352E+00 0. -1.
</event>
<event>
 5   0  0.7509685E-06  0.2643279E+04  0.7818609E-02  0.8353647E-01
       -1   -1    0    0    0  501  0.00000000000E+00  0.00000000000E+00  0.17506544309E+04  0.17506544309E+04  0.50400001928E-02 0. -1.
        1   -1    0    0  501    0  0.00000000000E+00  0.00000000000E+00 -0.99775853954E+03  0.99775853955E+03  0.50400001928E-02 0.  1.
    10030    2    1    2    0    0  0.00000000000E+00  0.00000000000E+00  0.75289589136E+03  0.27484129704E+04  0.26432785765E+04 0.  0.
        4    1    3    3  502    0 -0.99159937832E+03 -0.84589840272E+03  0.60405013403E+03  0.14365554678E+04  0.12699999809E+01 0.  1.
       -4    1    3    3    0  502  0.99159937832E+03  0.84589840272E+03  0.14884575733E+03  0.13118575026E+04  0.12699999809E+01 0. -1.
</event>
<event>
 5   0  0.7388013E-06  0.2136864E+04  0.7818609E-02  0.8545176E-01
        1   -1    0    0  501    0  0.00000000000E+00  0.00000000000E+00  0.22290513822E+04  0.22290513822E+04  0.50400001928E-02 0.  1.
       -1   -1    0    0    0  501  0.00000000000E+00  0.00000000000E+00 -0.51212233570E+03  0.51212233573E+03  0.50400001928E-02 0. -1.
    10030    2    1    2    0    0  0.00000000000E+00  0.00000000000E+00  0.17169290465E+04  0.27411737179E+04  0.21368640577E+04 0.  0.
        1    1    3    3  502    0 -0.28533162482E+03 -0.17836469138E+03  0.21593035990E+04  0.21853649882E+04  0.50400001928E-02 0.  1.
       -1    1    3    3    0  502  0.28533162482E+03  0.17836469138E+03 -0.44237455250E+03  0.55580872967E+03  0.50400001928E-02 0. -1.
</event>
<event>
 5   0  0.1904553E-05  0.2850239E+04  0.7818609E-02  0.8287839E-01
       -2   -1    0    0    0  501  0.00000000000E+00  0.00000000000E+00  0.15441805652E+04  0.15441805652E+04  0.25500000920E-02 0.  1.
        2   -1    0    0  501    0  0.00000000000E+00  0.00000000000E+00 -0.13152380250E+04  0.13152380250E+04  0.25500000920E-02 0. -1.
    10030    2    1    2    0    0  0.00000000000E+00  0.00000000000E+00  0.22894254025E+03  0.28594185902E+04  0.28502385843E+04 0.  0.
        1    1    3    3  502    0  0.11205483477E+04  0.40074085044E+03 -0.67210959441E+03  0.13667308204E+04  0.50400001928E-02 0. -1.
       -1    1    3    3    0  502 -0.11205483477E+04 -0.40074085044E+03  0.90105213467E+03  0.14926877698E+04  0.50400001928E-02 0.  1.
</event>
<event>
 5   0  0.1923559E-05  0.2723824E+04  0.7818609E-02  0.8327316E-01
       -2   -1    0    0    0  501  0.00000000000E+00  0.00000000000E+00  0.20178630473E+04  0.20178630473E+04  0.25500000920E-02 0.  1.
        2   -1    0    0  501    0  0.00000000000E+00  0.00000000000E+00 -0.91919259954E+03  0.91919259955E+03  0.25500000920E-02 0. -1.
    10030    2    1    2    0    0  0.00000000000E+00  0.00000000000E+00  0.10986704477E+04  0.29370556468E+04  0.27238243555E+04 0.  0.
        4    1    3    3  502    0  0.24055496270E+03  0.94237716449E+03 -0.47863844572E+03  0.10839915981E+04  0.12699999809E+01 0. -1.
       -4    1    3    3    0  502 -0.24055496270E+03 -0.94237716449E+03  0.15773088934E+04  0.18530640487E+04  0.12699999809E+01 0.  1.
</event>
<event>
 5   0  0.6288000E-06  0.2808982E+04  0.7818609E-02  0.8300485E-01
       -3   -1    0    0    0  501  0.00000000000E+00  0.00000000000E+00  0.73207172306E+03  0.73207173003E+03  0.10100000352E+00 0. -1.
        3   -1    0    0  501    0  0.00000000000E+00  0.00000000000E+00 -0.26945383299E+04  0.26945383318E+04  0.10100000352E+00 0.  1.
    10030    2    1    2    0    0  0.00000000000E+00  0.00000000000E+00 -0.19624666068E+04  0.34266100618E+04  0.28089822592E+04 0.  0.
        4    1    3    3  502    0 -0.55784330010E+03  0.12130042776E+04 -0.15130001818E+04  0.20178552198E+04  0.12699999809E+01 0.  1.
       -4    1    3    3    0  502  0.55784330010E+03 -0.12130042776E+04 -0.44946642502E+03  0.14087548420E+04  0.12699999809E+01 0. -1.
</event>
<event>
 5   0  0.1904553E-05  0.2835378E+04  0.7818609E-02  0.8292368E-01
        2   -1    0    0  501    0  0.00000000000E+00  0.00000000000E+00  0.16266410020E+04  0.16266410020E+04  0.25500000920E-02 0.  1.
       -2   -1    0    0    0  501  0.00000000000E+00  0.00000000000E+00 -0.12355778305E+04  0.12355778305E+04  0.25500000920E-02 0. -1.
    10030    2    1    2    0    0  0.00000000000E+00  0.00000000000E+00  0.39106317146E+03  0.28622188325E+04  0.28353776187E+04 0.  0.
        1    1    3    3  502    0 -0.11633193423E+04 -0.23795328847E+03 -0.58633781829E+03  0.13242830879E+04  0.50400001928E-02 0. -1.
       -1    1    3    3    0  502  0.11633193423E+04  0.23795328847E+03  0.97740098975E+03  0.15379357446E+04  0.50400001928E-02 0.  1.
</event>
<event>
 5   0  0.1874272E-05  0.2826268E+04  0.7818609E-02  0.8295159E-01
        2   -1    0    0  501    0  0.00000000000E+00  0.00000000000E+00  0.13816649280E+04  0.13816649280E+04  0.25500000920E-02 0.  1.
       -2   -1    0    0    0  501  0.00000000000E+00  0.00000000000E+00 -0.14453197452E+04  0.14453197452E+04  0.25500000920E-02 0. -1.
    10030    2    1    2    0    0  0.00000000000E+00  0.00000000000E+00 -0.63654817253E+02  0.28269846732E+04  0.28262679290E+04 0.  0.
        3    1    3    3  502    0  0.51647632325E+03  0.49120862149E+03 -0.12523474473E+04  0.14409746151E+04  0.10100000352E+00 0. -1.
       -3    1    3    3    0  502 -0.51647632325E+03 -0.49120862149E+03  0.11886926300E+04  0.13860100581E+04  0.10100000352E+00 0.  1.
</event>
<event>
 5   0  0.7388013E-06  0.2775249E+04  0.7818609E-02  0.8310994E-01
       -1   -1    0    0    0  501  0.00000000000E+00  0.00000000000E+00  0.16548693535E+04  0.16548693536E+04  0.50400001928E-02 0.  1.
        1   -1    0    0  501    0  0.00000000000E+00  0.00000000000E+00 -0.11635368590E+04  0.11635368590E+04  0.50400001928E-02 0. -1.
    10030    2    1    2    0    0  0.00000000000E+00  0.00000000000E+00  0.49133249457E+03  0.28184062125E+04  0.27752488102E+04 0.  0.
        1    1    3    3  502    0  0.34122020876E+03 -0.40031111306E+03  0.15496988609E+04  0.16365349913E+04  0.50400001928E-02 0.  1.
       -1    1    3    3    0  502 -0.34122020876E+03  0.40031111306E+03 -0.10583663664E+04  0.11818712212E+04  0.50400001928E-02 0. -1.
</event>
<event>
 5   0  0.7388013E-06  0.2757870E+04  0.7818609E-02  0.8316469E-01
       -1   -1    0    0    0  501  0.00000000000E+00  0.00000000000E+00  0.93573887992E+03  0.93573887993E+03  0.50400001928E-02 0.  1.
        1   -1    0    0  501    0  0.00000000000E+00  0.00000000000E+00 -0.20320423748E+04  0.20320423748E+04  0.50400001928E-02 0. -1.
    10030    2    1    2    0    0  0.00000000000E+00  0.00000000000E+00 -0.10963034949E+04  0.29677812548E+04  0.27578695080E+04 0.  0.
        1    1    3    3  502    0  0.54671589029E+03  0.11842856931E+04 -0.10294407587E+04  0.16616796151E+04  0.50400001928E-02 0. -1.
       -1    1    3    3    0  502 -0.54671589029E+03 -0.11842856931E+04 -0.66862736245E+02  0.13061016397E+04  0.50400001928E-02 0.  1.
</event>
<event>
 5   0  0.7555871E-06  0.2123168E+04  0.7818609E-02  0.8551106E-01
       -1   -1    0    0    0  501  0.00000000000E+00  0.00000000000E+00  0.13896541605E+04  0.13896541605E+04  0.50400001928E-02 0. -1.
        1   -1    0    0  501    0  0.00000000000E+00  0.00000000000E+00 -0.81096495485E+03  0.81096495487E+03  0.50400001928E-02 0.  1.
    10030    2    1    2    0    0  0.00000000000E+00  0.00000000000E+00  0.57868920560E+03  0.22006191153E+04  0.21231682209E+04 0.  0.
        3    1    3    3  502    0 -0.55406877894E+03  0.37409833318E+03 -0.56536977946E+03  0.87554826961E+03  0.10100000352E+00 0.  1.
       -3    1    3    3    0  502  0.55406877894E+03 -0.37409833318E+03  0.11440589851E+04  0.13250708457E+04  0.10100000352E+00 0. -1.
</event>
<event>
 5   0  0.7613444E-06  0.2813523E+04  0.7818609E-02  0.8299082E-01
       -1   -1    0    0    0  501  0.00000000000E+00  0.00000000000E+00  0.11921295224E+04  0.11921295224E+04  0.50400001928E-02 0.  1.
        1   -1    0    0  501    0  0.00000000000E+00  0.00000000000E+00 -0.16600358088E+04  0.16600358088E+04  0.50400001928E-02 0. -1.
    10030    2    1    2    0    0  0.00000000000E+00  0.00000000000E+00 -0.46790628640E+03  0.28521653313E+04  0.28135228423E+04 0.  0.
        5    1    3    3  502    0 -0.10244091886E+04 -0.56413949398E+03 -0.10265406177E+04  0.15561090206E+04  0.46999998093E+01 0. -1.
       -5    1    3    3    0  502  0.10244091886E+04  0.56413949398E+03  0.55863433130E+03  0.12960563107E+04  0.46999998093E+01 0.  1.
</event>
<event>
 5   0  0.7613444E-06  0.2794465E+04  0.7818609E-02  0.8304989E-01
        1   -1    0    0  501    0  0.00000000000E+00  0.00000000000E+00  0.10961005192E+04  0.10961005192E+04  0.50400001928E-02 0.  1.
       -1   -1    0    0    0  501  0.00000000000E+00  0.00000000000E+00 -0.17810951218E+04  0.17810951218E+04  0.50400001928E-02 0. -1.
    10030    2    1    2    0    0  0.00000000000E+00  0.00000000000E+00 -0.68499460260E+03  0.28771956411E+04  0.27944654500E+04 0.  0.
        5    1    3    3  502    0  0.72442670208E+03  0.49642049642E+03 -0.14614131042E+04  0.17049861310E+04  0.46999998093E+01 0. -1.
       -5    1    3    3    0  502 -0.72442670208E+03 -0.49642049642E+03  0.77641850156E+03  0.11722095101E+04  0.46999998093E+01 0.  1.
</event>
<event>
 5   0  0.1923559E-05  0.2746676E+04  0.7818609E-02  0.8320017E-01
       -2   -1    0    0    0  501  0.00000000000E+00  0.00000000000E+00  0.15566040529E+04  0.15566040529E+04  0.25500000920E-02 0. -1.
        2   -1    0    0  501    0  0.00000000000E+00  0.00000000000E+00 -0.12116486984E+04  0.12116486984E+04  0.25500000920E-02 0.  1.
    10030    2    1    2    0    0  0.00000000000E+00  0.00000000000E+00  0.34495535454E+03  0.27682527513E+04  0.27466760090E+04 0.  0.
        4    1    3    3  502    0  0.65495263336E+03  0.82292287435E+03 -0.71757387844E+03  0.12732159648E+04  0.12699999809E+01 0.  1.
       -4    1    3    3    0  502 -0.65495263336E+03 -0.82292287435E+03  0.10625292330E+04  0.14950367865E+04  0.12699999809E+01 0. -1.
</event>
<event>
 5   0  0.1904553E-05  0.2817447E+04  0.7818609E-02  0.8297872E-01
        2   -1    0    0  501    0  0.00000000000E+00  0.00000000000E+00  0.16463462443E+04  0.16463462443E+04  0.25500000920E-02 0.  1.
       -2   -1    0    0    0  501  0.00000000000E+00  0.00000000000E+00 -0.12053974813E+04  0.12053974813E+04  0.25500000920E-02 0. -1.
    10030    2    1    2    0    0  0.00000000000E+00  0.00000000000E+00  0.44094876303E+03  0.28517437256E+04  0.28174467990E+04 0.  0.
        1    1    3    3  502    0  0.14077245701E+04  0.18786522259E+01  0.27412548800E+03  0.14341676255E+04  0.50400001928E-02 0.  1.
       -1    1    3    3    0  502 -0.14077245701E+04 -0.18786522259E+01  0.16682327503E+03  0.14175761002E+04  0.50400001928E-02 0. -1.
</event>
<event>
 5   0  0.7681342E-06  0.2689678E+04  0.7818609E-02  0.8338362E-01
        1   -1    0    0  501    0  0.00000000000E+00  0.00000000000E+00  0.15005513176E+04  0.15005513176E+04  0.50400001928E-02 0.  1.
       -1   -1    0    0    0  501  0.00000000000E+00  0.00000000000E+00 -0.12052849120E+04  0.12052849120E+04  0.50400001928E-02 0. -1.
    10030    2    1    2    0    0  0.00000000000E+00  0.00000000000E+00  0.29526640562E+03  0.27058362297E+04  0.26896779457E+04 0.  0.
        2    1    3    3  502    0  0.97662929854E+03 -0.89480254815E+03  0.38165804802E+03  0.13784553865E+04  0.25500000920E-02 0.  1.
       -2    1    3    3    0  502 -0.97662929854E+03  0.89480254815E+03 -0.86391642403E+02  0.13273808432E+04  0.25500000920E-02 0. -1.
</event>
<event>
 5   0  0.1814230E-05  0.2712099E+04  0.7818609E-02  0.8331090E-01
        2   -1    0    0  501    0  0.00000000000E+00  0.00000000000E+00  0.13890110868E+04  0.13890110868E+04  0.25500000920E-02 0.  1.
       -2   -1    0    0    0  501  0.00000000000E+00  0.00000000000E+00 -0.13238704751E+04  0.13238704751E+04  0.25500000920E-02 0. -1.
    10030    2    1    2    0    0  0.00000000000E+00  0.00000000000E+00  0.65140611683E+02  0.27128815618E+04  0.27120993841E+04 0.  0.
        5    1    3    3  502    0 -0.12299290131E+04 -0.50545894992E+03 -0.23327795594E+03  0.13500573403E+04  0.46999998093E+01 0. -1.
       -5    1    3    3    0  502  0.12299290131E+04  0.50545894992E+03  0.29841856762E+03  0.13628242216E+04  0.46999998093E+01 0.  1.
</event>
<event>
 5   0  0.7681342E-06  0.2805076E+04  0.7818609E-02  0.8301694E-01
        1   -1    0    0  501    0  0.00000000000E+00  0.00000000000E+00  0.14330680247E+04  0.14330680248E+04  0.50400001928E-02 0. -1.
       -1   -1    0    0    0  501  0.00000000000E+00  0.00000000000E+00 -0.13726586111E+04  0.13726586111E+04  0.50400001928E-02 0.  1.
    10030    2    1    2    0    0  0.00000000000E+00  0.00000000000E+00  0.60409413673E+02  0.28057266358E+04  0.28050762303E+04 0.  0.
        2    1    3    3  502    0 -0.74235730231E+03 -0.76949615876E+02 -0.11575459167E+04  0.13772901499E+04  0.25500000920E-02 0.  1.
       -2    1    3    3    0  502  0.74235730231E+03  0.76949615876E+02  0.12179553304E+04  0.14284364860E+04  0.25500000920E-02 0. -1.
</event>
<event>
 5   0  0.1832502E-05  0.2770544E+04  0.7818609E-02  0.8312472E-01
       -2   -1    0    0    0  501  0.00000000000E+00  0.00000000000E+00  0.11800051162E+04  0.11800051162E+04  0.25500000920E-02 0.  1.
        2   -1    0    0  501    0  0.00000000000E+00  0.00000000000E+00 -0.16262464821E+04  0.16262464821E+04  0.25500000920E-02 0. -1.
    10030    2    1    2    0    0  0.00000000000E+00  0.00000000000E+00 -0.44624136583E+03  0.28062515983E+04  0.27705444729E+04 0.  0.
        2    1    3    3  502    0  0.20503467049E+03  0.11813431208E+04  0.47962835724E+03  0.12913768413E+04  0.25500000920E-02 0.  1.
       -2    1    3    3    0  502 -0.20503467049E+03 -0.11813431208E+04 -0.92586972306E+03  0.15148747570E+04  0.25500000920E-02 0. -1.
</event>
<event>
 5   0  0.1874272E-05  0.2891883E+04  0.7818609E-02  0.8275297E-01
       -2   -1    0    0    0  501  0.00000000000E+00  0.00000000000E+00  0.80485229270E+03  0.80485229270E+03  0.25500000920E-02 0. -1.
        2   -1    0    0  501    0  0.00000000000E+00  0.00000000000E+00 -0.25976780988E+04  0.25976780988E+04  0.25500000920E-02 0.  1.
    10030    2    1    2    0    0  0.00000000000E+00  0.00000000000E+00 -0.17928258061E+04  0.34025303915E+04  0.28918832435E+04 0.  0.
        3    1    3    3  502    0 -0.35255611609E+03 -0.18347398772E+03 -0.25321497652E+04  0.25631505931E+04  0.10100000352E+00 0.  1.
       -3    1    3    3    0  502  0.35255611609E+03  0.18347398772E+03  0.73932395915E+03  0.83937979838E+03  0.10100000352E+00 0. -1.
</event>
<event>
 5   0  0.1904553E-05  0.2759750E+04  0.7818609E-02  0.8315875E-01
       -2   -1    0    0    0  501  0.00000000000E+00  0.00000000000E+00  0.11308496406E+04  0.11308496406E+04  0.25500000920E-02 0. -1.
        2   -1    0    0  501    0  0.00000000000E+00  0.00000000000E+00 -0.16837378657E+04  0.16837378657E+04  0.25500000920E-02 0.  1.
    10030    2    1    2    0    0  0.00000000000E+00  0.00000000000E+00 -0.55288822508E+03  0.28145875064E+04  0.27597495251E+04 0.  0.
        1    1    3    3  502    0  0.14710592460E+03 -0.13936684586E+03 -0.16684801454E+04  0.16807406898E+04  0.50400001928E-02 0.  1.
       -1    1    3    3    0  502 -0.14710592460E+03  0.13936684586E+03  0.11155919203E+04  0.11338468166E+04  0.50400001928E-02 0. -1.
</event>
<event>
 5   0  0.1923559E-05  0.2780715E+04  0.7818609E-02  0.8309281E-01
        2   -1    0    0  501    0  0.00000000000E+00  0.00000000000E+00  0.15197577934E+04  0.15197577934E+04  0.25500000920E-02 0.  1.
       -2   -1    0    0    0  501  0.00000000000E+00  0.00000000000E+00 -0.12719751330E+04  0.12719751330E+04  0.25500000920E-02 0. -1.
    10030    2    1    2    0    0  0.00000000000E+00  0.00000000000E+00  0.24778266036E+03  0.27917329264E+04  0.27807151033E+04 0.  0.
        4    1    3    3  502    0  0.88775556871E+03  0.43203472879E+03  0.11067126906E+04  0.14830976195E+04  0.12699999809E+01 0.  1.
       -4    1    3    3    0  502 -0.88775556871E+03 -0.43203472879E+03 -0.85893003021E+03  0.13086353069E+04  0.12699999809E+01 0. -1.
</event>
<event>
 5   0  0.7613444E-06  0.2783976E+04  0.7818609E-02  0.8308261E-01
        1   -1    0    0  501    0  0.00000000000E+00  0.00000000000E+00  0.17643032797E+04  0.17643032797E+04  0.50400001928E-02 0. -1.
       -1   -1    0    0    0  501  0.00000000000E+00  0.00000000000E+00 -0.10982409606E+04  0.10982409606E+04  0.50400001928E-02 0.  1.
    10030    2    1    2    0    0  0.00000000000E+00  0.00000000000E+00  0.66606231910E+03  0.28625442404E+04  0.27839756671E+04 0.  0.
        5    1    3    3  502    0 -0.73057412789E+03 -0.11754295869E+04  0.48635266676E+03  0.14669472644E+04  0.46999998093E+01 0. -1.
       -5    1    3    3    0  502  0.73057412789E+03  0.11754295869E+04  0.17970965233E+03  0.13955969760E+04  0.46999998093E+01 0.  1.
</event>
<event>
 5   0  0.7509685E-06  0.2660826E+04  0.7818609E-02  0.8347829E-01
       -1   -1    0    0    0  501  0.00000000000E+00  0.00000000000E+00  0.11775816109E+04  0.11775816110E+04  0.50400001928E-02 0. -1.
        1   -1    0    0  501    0  0.00000000000E+00  0.00000000000E+00 -0.15030789535E+04  0.15030789535E+04  0.50400001928E-02 0.  1.
    10030    2    1    2    0    0  0.00000000000E+00  0.00000000000E+00 -0.32549734252E+03  0.26806605644E+04  0.26608255376E+04 0.  0.
        4    1    3    3  502    0  0.66105100039E+03 -0.32495673488E+03 -0.12788932892E+04  0.14758573653E+04  0.12699999809E+01 0.  1.
       -4    1    3    3    0  502 -0.66105100039E+03  0.32495673488E+03  0.95339594667E+03  0.12048031991E+04  0.12699999809E+01 0. -1.
</event>
<event>
 5   0  0.6288000E-06  0.2820927E+04  0.7818609E-02  0.8296801E-01
        3   -1    0    0  501    0  0.00000000000E+00  0.00000000000E+00  0.14475251936E+04  0.14475251971E+04  0.10100000352E+00 0. -1.
       -3   -1    0    0    0  501  0.00000000000E+00  0.00000000000E+00 -0.13743503421E+04  0.13743503458E+04  0.10100000352E+00 0.  1.
    10030    2    1    2    0    0  0.00000000000E+00  0.00000000000E+00  0.73174851454E+02  0.28218755429E+04  0.28209266245E+04 0.  0.
        1    1    3    3  502    0 -0.58097654243E+03  0.52809678448E+03  0.12087267772E+04  0.14413328479E+04  0.50400001928E-02 0. -1.
       -1    1    3    3    0  502  0.58097654243E+03 -0.52809678448E+03 -0.11355519257E+04  0.13805426950E+04  0.50400001928E-02 0.  1.
</event>
<event>
 5   0  0.1874272E-05  0.2797039E+04  0.7818609E-02  0.8304188E-01
        2   -1    0    0  501    0  0.00000000000E+00  0.00000000000E+00  0.11175493870E+04  0.11175493870E+04  0.25500000920E-02 0.  1.
       -2   -1    0    0    0  501  0.00000000000E+00  0.00000000000E+00 -0.17501305033E+04  0.17501305033E+04  0.25500000920E-02 0. -1.
    10030    2    1    2    0    0  0.00000000000E+00  0.00000000000E+00 -0.63258111631E+03  0.28676798903E+04  0.27970393427E+04 0.  0.
        3    1    3    3  502    0 -0.11537495905E+04  0.33784373203E+03 -0.10488861764E+04  0.15954431128E+04  0.10100000352E+00 0.  1.
       -3    1    3    3    0  502  0.11537495905E+04 -0.33784373203E+03  0.41630506008E+03  0.12722367775E+04  0.10100000352E+00 0. -1.
</event>
<event>
 5   0  0.1832502E-05  0.2796317E+04  0.7818609E-02  0.8304413E-01
        2   -1    0    0  501    0  0.00000000000E+00  0.00000000000E+00  0.21804358600E+04  0.21804358600E+04  0.25500000920E-02 0.  1.
       -2   -1    0    0    0  501  0.00000000000E+00  0.00000000000E+00 -0.89653948930E+03  0.89653948930E+03  0.25500000920E-02 0. -1.
    10030    2    1    2    0    0  0.00000000000E+00  0.00000000000E+00  0.12838963707E+04  0.30769753493E+04  0.27963167577E+04 0.  0.
        2    1    3    3  502    0 -0.13870345533E+04 -0.66897076214E+02  0.46279845825E+03  0.14637357971E+04  0.25500000920E-02 0.  1.
       -2    1    3    3    0  502  0.13870345533E+04  0.66897076214E+02  0.82109791250E+03  0.16132395522E+04  0.25500000920E-02 0. -1.
</event>
<event>
 5   0  0.1814230E-05  0.2846853E+04  0.7818609E-02  0.8288868E-01
        2   -1    0    0  501    0  0.00000000000E+00  0.00000000000E+00  0.14443696952E+04  0.14443696952E+04  0.25500000920E-02 0.  1.
       -2   -1    0    0    0  501  0.00000000000E+00  0.00000000000E+00 -0.14027866603E+04  0.14027866603E+04  0.25500000920E-02 0. -1.
    10030    2    1    2    0    0  0.00000000000E+00  0.00000000000E+00  0.41583034923E+02  0.28471563555E+04  0.28468526768E+04 0.  0.
        5    1    3    3  502    0 -0.11633086687E+04  0.13026274437E+03 -0.78914980238E+03  0.14117488948E+04  0.46999998093E+01 0. -1.
       -5    1    3    3    0  502  0.11633086687E+04 -0.13026274437E+03  0.83073283730E+03  0.14354074607E+04  0.46999998093E+01 0.  1.
</event>
<event>
 5   0  0.7509685E-06  0.2813688E+04  0.7818609E-02  0.8299031E-01
        1   -1    0    0  501    0  0.00000000000E+00  0.00000000000E+00  0.16664951690E+04  0.16664951690E+04  0.50400001928E-02 0.  1.
       -1   -1    0    0    0  501  0.00000000000E+00  0.00000000000E+00 -0.11876478767E+04  0.11876478767E+04  0.50400001928E-02 0. -1.
    10030    2    1    2    0    0  0.00000000000E+00  0.00000000000E+00  0.47884729231E+03  0.28541430457E+04  0.28136875797E+04 0.  0.
        4    1    3    3  502    0 -0.80791725496E+03  0.41146347141E+03  0.13306113169E+04  0.16101430274E+04  0.12699999809E+01 0.  1.
       -4    1    3    3    0  502  0.80791725496E+03 -0.41146347141E+03 -0.85176402457E+03  0.12440000183E+04  0.12699999809E+01 0. -1.
</event>
<event>
 5   0  0.7388013E-06  0.2838554E+04  0.7818609E-02  0.8291398E-01
        1   -1    0    0  501    0  0.00000000000E+00  0.00000000000E+00  0.17104718025E+04  0.17104718025E+04  0.50400001928E-02 0. -1.
       -1   -1    0    0    0  501  0.00000000000E+00  0.00000000000E+00 -0.11776559842E+04  0.11776559843E+04  0.50400001928E-02 0.  1.
    10030    2    1    2    0    0  0.00000000000E+00  0.00000000000E+00  0.53281581827E+03  0.28881277868E+04  0.28385541067E+04 0.  0.
        1    1    3    3  502    0  0.65847834405E+03 -0.21590420130E+03 -0.99382722548E+03  0.12115696050E+04  0.50400001928E-02 0.  1.
       -1    1    3    3    0  502 -0.65847834405E+03  0.21590420130E+03  0.15266430437E+04  0.16765581817E+04  0.50400001928E-02 0. -1.
</event>
<event>
 5   0  0.1832502E-05  0.2800483E+04  0.7818609E-02  0.8303118E-01
       -2   -1    0    0    0  501  0.00000000000E+00  0.00000000000E+00  0.15289925394E+04  0.15289925394E+04  0.25500000920E-02 0. -1.
        2   -1    0    0  501    0  0.00000000000E+00  0.00000000000E+00 -0.12823321451E+04  0.12823321451E+04  0.25500000920E-02 0.  1.
    10030    2    1    2    0    0  0.00000000000E+00  0.00000000000E+00  0.24666039430E+03  0.28113246845E+04  0.28004830175E+04 0.  0.
        2    1    3    3  502    0  0.15919750208E+01 -0.31886088379E+03  0.14920606528E+04  0.15257522044E+04  0.25500000920E-02 0. -1.
       -2    1    3    3    0  502 -0.15919750208E+01  0.31886088379E+03 -0.12454002585E+04  0.12855724801E+04  0.25500000920E-02 0.  1.
</event>
<event>
 5   0  0.7509685E-06  0.2752637E+04  0.7818609E-02  0.8318125E-01
        1   -1    0    0  501    0  0.00000000000E+00  0.00000000000E+00  0.18517325177E+04  0.18517325177E+04  0.50400001928E-02 0. -1.
       -1   -1    0    0    0  501  0.00000000000E+00  0.00000000000E+00 -0.10229622986E+04  0.10229622986E+04  0.50400001928E-02 0.  1.
    10030    2    1    2    0    0  0.00000000000E+00  0.00000000000E+00  0.82877021911E+03  0.28746948164E+04  0.27526369560E+04 0.  0.
        4    1    3    3  502    0 -0.76385039888E+03  0.60986143865E+03 -0.59752398911E+03  0.11456155274E+04  0.12699999809E+01 0.  1.
       -4    1    3    3    0  502  0.76385039888E+03 -0.60986143865E+03  0.14262942082E+04  0.17290792890E+04  0.12699999809E+01 0. -1.
</event>
<event>
 5   0  0.1923559E-05  0.2812236E+04  0.7818609E-02  0.8299480E-01
       -2   -1    0    0    0  501  0.00000000000E+00  0.00000000000E+00  0.80564452845E+03  0.80564452846E+03  0.25500000920E-02 0. -1.
        2   -1    0    0  501    0  0.00000000000E+00  0.00000000000E+00 -0.24541444501E+04  0.24541444501E+04  0.25500000920E-02 0.  1.
    10030    2    1    2    0    0  0.00000000000E+00  0.00000000000E+00 -0.16484999216E+04  0.32597889785E+04  0.28122361553E+04 0.  0.
        4    1    3    3  502    0 -0.16081407596E+03  0.12975139964E+04 -0.14240586280E+04  0.19332222652E+04  0.12699999809E+01 0. -1.
       -4    1    3    3    0  502  0.16081407596E+03 -0.12975139964E+04 -0.22444129364E+03  0.13265667134E+04  0.12699999809E+01 0.  1.
</event>
<event>
 5   0  0.7613444E-06  0.2735271E+04  0.7818609E-02  0.8323651E-01
        1   -1    0    0  501    0  0.00000000000E+00  0.00000000000E+00  0.14283886285E+04  0.14283886285E+04  0.50400001928E-02 0. -1.
       -1   -1    0    0    0  501  0.00000000000E+00  0.00000000000E+00 -0.13094660944E+04  0.13094660945E+04  0.50400001928E-02 0.  1.
    10030    2    1    2    0    0  0.00000000000E+00  0.00000000000E+00  0.11892253403E+03  0.27378547229E+04  0.27352707206E+04 0.  0.
        5    1    3    3  502    0 -0.11285891908E+04  0.76969584803E+03  0.12478492015E+03  0.13717647853E+04  0.46999998093E+01 0.  1.
       -5    1    3    3    0  502  0.11285891908E+04 -0.76969584803E+03 -0.58623861190E+01  0.13660899376E+04  0.46999998093E+01 0. -1.
</event>
<event>
 5   0  0.1814230E-05  0.2910310E+04  0.7818609E-02  0.8269817E-01
        2   -1    0    0  501    0  0.00000000000E+00  0.00000000000E+00  0.14661710113E+04  0.14661710113E+04  0.25500000920E-02 0.  1.
       -2   -1    0    0    0  501  0.00000000000E+00  0.00000000000E+00 -0.14442214143E+04  0.14442214143E+04  0.25500000920E-02 0. -1.
    10030    2    1    2    0    0  0.00000000000E+00  0.00000000000E+00  0.21949596968E+02  0.29103924257E+04  0.29103096547E+04 0.  0.
        5    1    3    3  502    0 -0.33824468860E+03  0.72596214882E+03 -0.12039766120E+04  0.14460332925E+04  0.46999998093E+01 0. -1.
       -5    1    3    3    0  502  0.33824468860E+03 -0.72596214882E+03  0.12259262090E+04  0.14643591331E+04  0.46999998093E+01 0.  1.
</event>
<event>
 5   0  0.1904553E-05  0.2821996E+04  0.7818609E-02  0.8296472E-01
       -2   -1    0    0    0  501  0.00000000000E+00  0.00000000000E+00  0.12403556846E+04  0.12403556846E+04  0.25500000920E-02 0. -1.
        2   -1    0    0  501    0  0.00000000000E+00  0.00000000000E+00 -0.16051165448E+04  0.16051165448E+04  0.25500000920E-02 0.  1.
    10030    2    1    2    0    0  0.00000000000E+00  0.00000000000E+00 -0.36476086024E+03  0.28454722294E+04  0.28219960530E+04 0.  0.
        1    1    3    3  502    0 -0.20479399715E+03 -0.11765544982E+04  0.57533245980E+03  0.13256049592E+04  0.50400001928E-02 0. -1.
       -1    1    3    3    0  502  0.20479399715E+03  0.11765544982E+04 -0.94009332004E+03  0.15198672702E+04  0.50400001928E-02 0.  1.
</event>
<event>
 5   0  0.7555871E-06  0.2777410E+04  0.7818609E-02  0.8310316E-01
       -1   -1    0    0    0  501  0.00000000000E+00  0.00000000000E+00  0.11227097447E+04  0.11227097447E+04  0.50400001928E-02 0.  1.
        1   -1    0    0  501    0  0.00000000000E+00  0.00000000000E+00 -0.17177199588E+04  0.17177199588E+04  0.50400001928E-02 0. -1.
    10030    2    1    2    0    0  0.00000000000E+00  0.00000000000E+00 -0.59501021415E+03  0.28404297035E+04  0.27774095387E+04 0.  0.
        3    1    3    3  502    0 -0.10604387104E+04 -0.51969783359E+03 -0.10447585300E+04  0.15767487095E+04  0.10100000352E+00 0. -1.
       -3    1    3    3    0  502  0.10604387104E+04  0.51969783359E+03  0.44974831584E+03  0.12636809940E+04  0.10100000352E+00 0.  1.
</event>
<event>
 5   0  0.7509685E-06  0.2364828E+04  0.7818609E-02  0.8452790E-01
       -1   -1    0    0    0  501  0.00000000000E+00  0.00000000000E+00  0.53281993008E+03  0.53281993010E+03  0.50400001928E-02 0. -1.
        1   -1    0    0  501    0  0.00000000000E+00  0.00000000000E+00 -0.26239692451E+04  0.26239692451E+04  0.50400001928E-02 0.  1.
    10030    2    1    2    0    0  0.00000000000E+00  0.00000000000E+00 -0.20911493151E+04  0.31567891752E+04  0.23648282050E+04 0.  0.
        4    1    3    3  502    0 -0.79940655644E+03 -0.52618559754E+03 -0.11863749236E+03  0.96436434662E+03  0.12699999809E+01 0. -1.
       -4    1    3    3    0  502  0.79940655644E+03  0.52618559754E+03 -0.19725118227E+04  0.21924248286E+04  0.12699999809E+01 0.  1.
</event>
<event>
 5   0  0.7509685E-06  0.1729646E+04  0.7818609E-02  0.8744634E-01
       -1   -1    0    0    0  501  0.00000000000E+00  0.00000000000E+00  0.94575128566E+03  0.94575128567E+03  0.50400001928E-02 0.  1.
        1   -1    0    0  501    0  0.00000000000E+00  0.00000000000E+00 -0.79082012780E+03  0.79082012782E+03  0.50400001928E-02 0. -1.
    10030    2    1    2    0    0  0.00000000000E+00  0.00000000000E+00  0.15493115786E+03  0.17365714135E+04  0.17296463831E+04 0.  0.
        4    1    3    3  502    0 -0.52706521362E+03 -0.67911653724E+03  0.17229227803E+03  0.87674583120E+03  0.12699999809E+01 0. -1.
       -4    1    3    3    0  502  0.52706521362E+03  0.67911653724E+03 -0.17361120171E+02  0.85982558229E+03  0.12699999809E+01 0.  1.
</event>
<event>
 5   0  0.7509685E-06  0.2793443E+04  0.7818609E-02  0.8305307E-01
       -1   -1    0    0    0  501  0.00000000000E+00  0.00000000000E+00  0.92187809720E+03  0.92187809721E+03  0.50400001928E-02 0.  1.
        1   -1    0    0  501    0  0.00000000000E+00  0.00000000000E+00 -0.21161478040E+04  0.21161478040E+04  0.50400001928E-02 0. -1.
    10030    2    1    2    0    0  0.00000000000E+00  0.00000000000E+00 -0.11942697068E+04  0.30380259012E+04  0.27934425435E+04 0.  0.
        4    1    3    3  502    0 -0.44545243288E+02  0.13957560046E+03 -0.21077669569E+04  0.21128532331E+04  0.12699999809E+01 0. -1.
       -4    1    3    3    0  502  0.44545243288E+02 -0.13957560046E+03  0.91349725014E+03  0.92517266813E+03  0.12699999809E+01 0.  1.
</event>
<event>
 5   0  0.7555871E-06  0.2935588E+04  0.7818609E-02  0.8262367E-01
        1   -1    0    0  501    0  0.00000000000E+00  0.00000000000E+00  0.66211821374E+03  0.66211821376E+03  0.50400001928E-02 0.  1.
       -1   -1    0    0    0  501  0.00000000000E+00  0.00000000000E+00 -0.32538287126E+04  0.32538287126E+04  0.50400001928E-02 0. -1.
    10030    2    1    2    0    0  0.00000000000E+00  0.00000000000E+00 -0.25917104989E+04  0.39159469264E+04  0.29355880195E+04 0.  0.
        3    1    3    3  502    0  0.68843259329E+03  0.56845770656E+03 -0.28499779985E+04  0.29865461995E+04  0.10100000352E+00 0. -1.
       -3    1    3    3    0  502 -0.68843259329E+03 -0.56845770656E+03  0.25826749959E+03  0.92940072692E+03  0.10100000352E+00 0.  1.
</event>
<event>
 5   0  0.1814230E-05  0.1827820E+04  0.7818609E-02  0.8691644E-01
       -2   -1    0    0    0  501  0.00000000000E+00  0.00000000000E+00  0.10928430011E+04  0.10928430011E+04  0.25500000920E-02 0. -1.
        2   -1    0    0  501    0  0.00000000000E+00  0.00000000000E+00 -0.76427379418E+03  0.76427379418E+03  0.25500000920E-02 0.  1.
    10030    2    1    2    0    0  0.00000000000E+00  0.00000000000E+00  0.32856920694E+03  0.18571167953E+04  0.18278197580E+04 0.  0.
        5    1    3    3  502    0  0.55181172827E+03  0.72537460622E+03  0.23277934370E+03  0.94067678597E+03  0.46999998093E+01 0. -1.
       -5    1    3    3    0  502 -0.55181172827E+03 -0.72537460622E+03  0.95789863238E+02  0.91644000934E+03  0.46999998093E+01 0.  1.
</event>
<event>
 5   0  0.1832502E-05  0.2691509E+04  0.7818609E-02  0.8337765E-01
       -2   -1    0    0    0  501  0.00000000000E+00  0.00000000000E+00  0.14935344914E+04  0.14935344914E+04  0.25500000920E-02 0.  1.
        2   -1    0    0  501    0  0.00000000000E+00  0.00000000000E+00 -0.12125967730E+04  0.12125967731E+04  0.25500000920E-02 0. -1.
    10030    2    1    2    0    0  0.00000000000E+00  0.00000000000E+00  0.28093771831E+03  0.27061312644E+04  0.26915089483E+04 0.  0.
        2    1    3    3  502    0  0.87527424951E+03 -0.58208427236E+03  0.98534830535E+03  0.14407770108E+04  0.25500000920E-02 0.  1.
       -2    1    3    3    0  502 -0.87527424951E+03  0.58208427236E+03 -0.70441058704E+03  0.12653542536E+04  0.25500000920E-02 0. -1.
</event>
<event>
 5   0  0.7681342E-06  0.2769989E+04  0.7818609E-02  0.8312646E-01
       -1   -1    0    0    0  501  0.00000000000E+00  0.00000000000E+00  0.11997778369E+04  0.11997778369E+04  0.50400001928E-02 0.  1.
        1   -1    0    0  501    0  0.00000000000E+00  0.00000000000E+00 -0.15988045235E+04  0.15988045235E+04  0.50400001928E-02 0. -1.
    10030    2    1    2    0    0  0.00000000000E+00  0.00000000000E+00 -0.39902668664E+03  0.27985823605E+04  0.27699893378E+04 0.  0.
        2    1    3    3  502    0  0.32043400218E+03 -0.24618894440E+03  0.11388963197E+04  0.12084584284E+04  0.25500000920E-02 0.  1.
       -2    1    3    3    0  502 -0.32043400218E+03  0.24618894440E+03 -0.15379230063E+04  0.15901239321E+04  0.25500000920E-02 0. -1.
</event>
<event>
 5   0  0.7388013E-06  0.2061047E+04  0.7818609E-02  0.8578599E-01
       -1   -1    0    0    0  501  0.00000000000E+00  0.00000000000E+00  0.56740056899E+03  0.56740056901E+03  0.50400001928E-02 0. -1.
        1   -1    0    0  501    0  0.00000000000E+00  0.00000000000E+00 -0.18716558696E+04  0.18716558696E+04  0.50400001928E-02 0.  1.
    10030    2    1    2    0    0  0.00000000000E+00  0.00000000000E+00 -0.13042553006E+04  0.24390564386E+04  0.20610469237E+04 0.  0.
        1    1    3    3  502    0  0.18342753750E+03 -0.54623105379E+03  0.35895082296E+03  0.67886649569E+03  0.50400001928E-02 0. -1.
       -1    1    3    3    0  502 -0.18342753750E+03  0.54623105379E+03 -0.16632061236E+04  0.17601899429E+04  0.50400001928E-02 0.  1.
</event>
<event>
 5   0  0.7555871E-06  0.2793588E+04  0.7818609E-02  0.8305262E-01
       -1   -1    0    0    0  501  0.00000000000E+00  0.00000000000E+00  0.10391423968E+04  0.10391423968E+04  0.50400001928E-02 0.  1.
        1   -1    0    0  501    0  0.00000000000E+00  0.00000000000E+00 -0.18775419740E+04  0.18775419740E+04  0.50400001928E-02 0. -1.
    10030    2    1    2    0    0  0.00000000000E+00  0.00000000000E+00 -0.83839957721E+03  0.29166843709E+04  0.27935879919E+04 0.  0.
        3    1    3    3  502    0 -0.52755972536E+03 -0.94353575513E+03  0.50434214130E+03  0.11928704836E+04  0.10100000352E+00 0.  1.
       -3    1    3    3    0  502  0.52755972536E+03  0.94353575513E+03 -0.13427417185E+04  0.17238138872E+04  0.10100000352E+00 0. -1.
</event>
<event>
 5   0  0.7388013E-06  0.2982633E+04  0.7818609E-02  0.8248708E-01
        1   -1    0    0  501    0  0.00000000000E+00  0.00000000000E+00  0.14489383109E+04  0.14489383109E+04  0.50400001928E-02 0.  1.
       -1   -1    0    0    0  501  0.00000000000E+00  0.00000000000E+00 -0.15349341666E+04  0.15349341666E+04  0.50400001928E-02 0. -1.
    10030    2    1    2    0    0  0.00000000000E+00  0.00000000000E+00 -0.85995855687E+02  0.29838724775E+04  0.29826330105E+04 0.  0.
        1    1    3    3  502    0  0.90231716005E+03 -0.63297637714E+03 -0.10479996702E+04  0.15209006082E+04  0.50400001928E-02 0. -1.
       -1    1    3    3    0  502 -0.90231716005E+03  0.63297637714E+03  0.96200381450E+03  0.14629718693E+04  0.50400001928E-02 0.  1.
</event>
<event>
 5   0  0.7509685E-06  0.2841084E+04  0.7818609E-02  0.8290626E-01
        1   -1    0    0  501    0  0.00000000000E+00  0.00000000000E+00  0.13503511614E+04  0.13503511614E+04  0.50400001928E-02 0.  1.
       -1   -1    0    0    0  501  0.00000000000E+00  0.00000000000E+00 -0.14943808534E+04  0.14943808535E+04  0.50400001928E-02 0. -1.
    10030    2    1    2    0    0  0.00000000000E+00  0.00000000000E+00 -0.14402969208E+03  0.28447320148E+04  0.28410835405E+04 0.  0.
        4    1    3    3  502    0 -0.89099149370E+03  0.79917243571E+02  0.10328897522E+04  0.13664243341E+04  0.12699999809E+01 0.  1.
       -4    1    3    3    0  502  0.89099149370E+03 -0.79917243571E+02 -0.11769194443E+04  0.14783076807E+04  0.12699999809E+01 0. -1.
</event>
<event>
 5   0  0.7509685E-06  0.2787633E+04  0.7818609E-02  0.8307118E-01
        1   -1    0    0  501    0  0.00000000000E+00  0.00000000000E+00  0.18156632647E+04  0.18156632647E+04  0.50400001928E-02 0.  1.
       -1   -1    0    0    0  501  0.00000000000E+00  0.00000000000E+00 -0.10699805106E+04  0.10699805106E+04  0.50400001928E-02 0. -1.
    10030    2    1    2    0    0  0.00000000000E+00  0.00000000000E+00  0.74568275408E+03  0.28856437753E+04  0.27876329077E+04 0.  0.
        4    1    3    3  502    0 -0.38390368180E+03  0.66952292560E+03  0.15742860667E+04  0.17532886863E+04  0.12699999809E+01 0.  1.
       -4    1    3    3    0  502  0.38390368180E+03 -0.66952292560E+03 -0.82860331265E+03  0.11323550889E+04  0.12699999809E+01 0. -1.
</event>
<event>
 5   0  0.7555871E-06  0.2751965E+04  0.7818609E-02  0.8318338E-01
        1   -1    0    0  501    0  0.00000000000E+00  0.00000000000E+00  0.14408768022E+04  0.14408768022E+04  0.50400001928E-02 0. -1.
       -1   -1    0    0    0  501  0.00000000000E+00  0.00000000000E+00 -0.13140110066E+04  0.13140110066E+04  0.50400001928E-02 0.  1.
    10030    2    1    2    0    0  0.00000000000E+00  0.00000000000E+00  0.12686579555E+03  0.27548878088E+04  0.27519650996E+04 0.  0.
        3    1    3    3  502    0  0.42960587491E+03  0.38963710861E+03  0.13125359915E+04  0.14349665582E+04  0.10100000352E+00 0. -1.
       -3    1    3    3    0  502 -0.42960587491E+03 -0.38963710861E+03 -0.11856701959E+04  0.13199212506E+04  0.10100000352E+00 0.  1.
</event>
<event>
 5   0  0.1832502E-05  0.2802019E+04  0.7818609E-02  0.8302642E-01
        2   -1    0    0  501    0  0.00000000000E+00  0.00000000000E+00  0.17634738937E+04  0.17634738937E+04  0.25500000920E-02 0.  1.
       -2   -1    0    0    0  501  0.00000000000E+00  0.00000000000E+00 -0.11130464018E+04  0.11130464018E+04  0.25500000920E-02 0. -1.
    10030    2    1    2    0    0  0.00000000000E+00  0.00000000000E+00  0.65042749184E+03  0.28765202955E+04  0.28020194661E+04 0.  0.
        2    1    3    3  502    0 -0.21740090269E+03  0.10364194875E+04  0.12668810422E+04  0.16511862650E+04  0.25500000920E-02 0.  1.
       -2    1    3    3    0  502  0.21740090269E+03 -0.10364194875E+04 -0.61645355035E+03  0.12253340305E+04  0.25500000920E-02 0. -1.
</event>
<event>
 5   0  0.6288000E-06  0.2781387E+04  0.7818609E-02  0.8309070E-01
       -3   -1    0    0    0  501  0.00000000000E+00  0.00000000000E+00  0.21510390312E+04  0.21510390336E+04  0.10100000352E+00 0.  1.
        3   -1    0    0  501    0  0.00000000000E+00  0.00000000000E+00 -0.89911371547E+03  0.89911372115E+03  0.10100000352E+00 0. -1.
    10030    2    1    2    0    0  0.00000000000E+00  0.00000000000E+00  0.12519253157E+04  0.30501527547E+04  0.27813872134E+04 0.  0.
        4    1    3    3  502    0  0.39568011601E+03 -0.12949913058E+04  0.27837788695E+03  0.13824113343E+04  0.12699999809E+01 0. -1.
       -4    1    3    3    0  502 -0.39568011601E+03  0.12949913058E+04  0.97354742879E+03  0.16677414204E+04  0.12699999809E+01 0.  1.
</event>
<event>
 5   0  0.1904553E-05  0.2781790E+04  0.7818609E-02  0.8308944E-01
        2   -1    0    0  501    0  0.00000000000E+00  0.00000000000E+00  0.17249980672E+04  0.17249980672E+04  0.25500000920E-02 0. -1.
       -2   -1    0    0    0  501  0.00000000000E+00  0.00000000000E+00 -0.11215021684E+04  0.11215021684E+04  0.25500000920E-02 0.  1.
    10030    2    1    2    0    0  0.00000000000E+00  0.00000000000E+00  0.60349589877E+03  0.28465002356E+04  0.27817901236E+04 0.  0.
        1    1    3    3  502    0  0.83021178027E+03  0.48453938107E+03 -0.72690224724E+03  0.12051625986E+04  0.50400001928E-02 0.  1.
       -1    1    3    3    0  502 -0.83021178027E+03 -0.48453938107E+03  0.13303981460E+04  0.16413376371E+04  0.50400001928E-02 0. -1.
</event>
<event>
 5   0  0.7555871E-06  0.2878773E+04  0.7818609E-02  0.8279221E-01
        1   -1    0    0  501    0  0.00000000000E+00  0.00000000000E+00  0.13276014626E+04  0.13276014626E+04  0.50400001928E-02 0. -1.
       -1   -1    0    0    0  501  0.00000000000E+00  0.00000000000E+00 -0.15605843518E+04  0.15605843518E+04  0.50400001928E-02 0.  1.
    10030    2    1    2    0    0  0.00000000000E+00  0.00000000000E+00 -0.23298288924E+03  0.28881858144E+04  0.28787733971E+04 0.  0.
        3    1    3    3  502    0  0.15235223012E+03 -0.14246034550E+04 -0.25524711803E+03  0.14552859882E+04  0.10100000352E+00 0.  1.
       -3    1    3    3    0  502 -0.15235223012E+03  0.14246034550E+04  0.22264228787E+02  0.14328998262E+04  0.10100000352E+00 0. -1.
</event>
<event>
 5   0  0.1904553E-05  0.2787327E+04  0.7818609E-02  0.8307214E-01
       -2   -1    0    0    0  501  0.00000000000E+00  0.00000000000E+00  0.10836526852E+04  0.10836526852E+04  0.25500000920E-02 0.  1.
        2   -1    0    0  501    0  0.00000000000E+00  0.00000000000E+00 -0.17923616347E+04  0.17923616347E+04  0.25500000920E-02 0. -1.
    10030    2    1    2    0    0  0.00000000000E+00  0.00000000000E+00 -0.70870894946E+03  0.28760143199E+04  0.27873266750E+04 0.  0.
        1    1    3    3  502    0  0.80962717755E+03 -0.86831887632E+03 -0.11075277889E+04  0.16236045211E+04  0.50400001928E-02 0. -1.
       -1    1    3    3    0  502 -0.80962717755E+03  0.86831887632E+03  0.39881883943E+03  0.12524097989E+04  0.50400001928E-02 0.  1.
</event>
<event>
 5   0  0.7388013E-06  0.2785104E+04  0.7818609E-02  0.8307908E-01
        1   -1    0    0  501    0  0.00000000000E+00  0.00000000000E+00  0.18205087971E+04  0.18205087971E+04  0.50400001928E-02 0. -1.
       -1   -1    0    0    0  501  0.00000000000E+00  0.00000000000E+00 -0.10651970595E+04  0.10651970596E+04  0.50400001928E-02 0.  1.
    10030    2    1    2    0    0  0.00000000000E+00  0.00000000000E+00  0.75531173751E+03  0.28857058566E+04  0.27851036731E+04 0.  0.
        1    1    3    3  502    0 -0.54052620473E+03  0.95332213174E+03  0.12678820216E+04  0.16758629077E+04  0.50400001928E-02 0. -1.
       -1    1    3    3    0  502  0.54052620473E+03 -0.95332213174E+03 -0.51257028405E+03  0.12098429489E+04  0.50400001928E-02 0.  1.
</event>
<event>
 5   0  0.1814230E-05  0.2619068E+04  0.7818609E-02  0.8361753E-01
       -2   -1    0    0    0  501  0.00000000000E+00  0.00000000000E+00  0.86994578017E+03  0.86994578017E+03  0.25500000920E-02 0.  1.
        2   -1    0    0  501    0  0.00000000000E+00  0.00000000000E+00 -0.19712483158E+04  0.19712483158E+04  0.25500000920E-02 0. -1.
    10030    2    1    2    0    0  0.00000000000E+00  0.00000000000E+00 -0.11013025357E+04  0.28411940960E+04  0.26190678907E+04 0.  0.
        5    1    3    3  502    0  0.89047539648E+03 -0.23764682306E+03 -0.15598374126E+04  0.18117773837E+04  0.46999998093E+01 0. -1.
       -5    1    3    3    0  502 -0.89047539648E+03  0.23764682306E+03  0.45853487694E+03  0.10294167123E+04  0.46999998093E+01 0.  1.
</event>
<event>
 5   0  0.7681342E-06  0.2713458E+04  0.7818609E-02  0.8330651E-01
        1   -1    0    0  501    0  0.00000000000E+00  0.00000000000E+00  0.21138081636E+04  0.21138081636E+04  0.50400001928E-02 0.  1.
       -1   -1    0    0    0  501  0.00000000000E+00  0.00000000000E+00 -0.87080470605E+03  0.87080470606E+03  0.50400001928E-02 0. -1.
    10030    2    1    2    0    0  0.00000000000E+00  0.00000000000E+00  0.12430034575E+04  0.29846128697E+04  0.27134583812E+04 0.  0.
        2    1    3    3  502    0 -0.56911221259E+03 -0.36955221261E+03  0.19137464020E+04  0.20304883254E+04  0.25500000920E-02 0.  1.
       -2    1    3    3    0  502  0.56911221259E+03  0.36955221261E+03 -0.67074294448E+03  0.95412454425E+03  0.25500000920E-02 0. -1.
</event>
<event>
 5   0  0.1874272E-05  0.2759050E+04  0.7818609E-02  0.8316096E-01
        2   -1    0    0  501    0  0.00000000000E+00  0.00000000000E+00  0.10964040778E+04  0.10964040778E+04  0.25500000920E-02 0.  1.
       -2   -1    0    0    0  501  0.00000000000E+00  0.00000000000E+00 -0.17357550828E+04  0.17357550828E+04  0.25500000920E-02 0. -1.
    10030    2    1    2    0    0  0.00000000000E+00  0.00000000000E+00 -0.63935100494E+03  0.28321591606E+04  0.27590498008E+04 0.  0.
        3    1    3    3  502    0 -0.40021711678E+03 -0.80775558815E+02  0.10329632268E+04  0.11107256500E+04  0.10100000352E+00 0.  1.
       -3    1    3    3    0  502  0.40021711678E+03  0.80775558815E+02 -0.16723142318E+04  0.17214335106E+04  0.10100000352E+00 0. -1.
</event>
<event>
 5   0  0.1832502E-05  0.2839683E+04  0.7818609E-02  0.8291053E-01
        2   -1    0    0  501    0  0.00000000000E+00  0.00000000000E+00  0.16950893544E+04  0.16950893544E+04  0.25500000920E-02 0. -1.
       -2   -1    0    0    0  501  0.00000000000E+00  0.00000000000E+00 -0.11892886506E+04  0.11892886506E+04  0.25500000920E-02 0.  1.
    10030    2    1    2    0    0  0.00000000000E+00  0.00000000000E+00  0.50580070381E+03  0.28843780051E+04  0.28396834549E+04 0.  0.
        2    1    3    3  502    0 -0.46610736244E+03 -0.87167692796E+03  0.12881942135E+04  0.16237367619E+04  0.25500000920E-02 0. -1.
       -2    1    3    3    0  502  0.46610736244E+03  0.87167692796E+03 -0.78239350971E+03  0.12606412432E+04  0.25500000920E-02 0.  1.
</event>
<event>
 5   0  0.7681342E-06  0.2320421E+04  0.7818609E-02  0.8469913E-01
       -1   -1    0    0    0  501  0.00000000000E+00  0.00000000000E+00  0.20843017115E+04  0.20843017115E+04  0.50400001928E-02 0. -1.
        1   -1    0    0  501    0  0.00000000000E+00  0.00000000000E+00 -0.64582230715E+03  0.64582230717E+03  0.50400001928E-02 0.  1.
    10030    2    1    2    0    0  0.00000000000E+00  0.00000000000E+00  0.14384794043E+04  0.27301240187E+04  0.23204211171E+04 0.  0.
        2    1    3    3  502    0  0.53407122999E+02 -0.48340324744E+03 -0.52010032719E+03  0.71206416198E+03  0.25500000920E-02 0.  1.
       -2    1    3    3    0  502 -0.53407122999E+02  0.48340324744E+03  0.19585797315E+04  0.20180598567E+04  0.25500000920E-02 0. -1.
</event>
<event>
 5   0  0.1814230E-05  0.2781887E+04  0.7818609E-02  0.8308914E-01
       -2   -1    0    0    0  501  0.00000000000E+00  0.00000000000E+00  0.13328754489E+04  0.13328754489E+04  0.25500000920E-02 0.  1.
        2   -1    0    0  501    0  0.00000000000E+00  0.00000000000E+00 -0.14515410617E+04  0.14515410617E+04  0.25500000920E-02 0. -1.
    10030    2    1    2    0    0  0.00000000000E+00  0.00000000000E+00 -0.11866561277E+03  0.27844165106E+04  0.27818867297E+04 0.  0.
        5    1    3    3  502    0  0.25623701420E+03  0.13570510379E+04 -0.22518330038E+03  0.13992764329E+04  0.46999998093E+01 0. -1.
       -5    1    3    3    0  502 -0.25623701420E+03 -0.13570510379E+04  0.10651768761E+03  0.13851400777E+04  0.46999998093E+01 0.  1.
</event>
<event>
 5   0  0.1814230E-05  0.2673833E+04  0.7818609E-02  0.8343545E-01
        2   -1    0    0  501    0  0.00000000000E+00  0.00000000000E+00  0.10121872081E+04  0.10121872081E+04  0.25500000920E-02 0. -1.
       -2   -1    0    0    0  501  0.00000000000E+00  0.00000000000E+00 -0.17658258790E+04  0.17658258790E+04  0.25500000920E-02 0.  1.
    10030    2    1    2    0    0  0.00000000000E+00  0.00000000000E+00 -0.75363867092E+03  0.27780130871E+04  0.26738334775E+04 0.  0.
        5    1    3    3  502    0 -0.66619770238E+03  0.11468644680E+04 -0.55131183442E+03  0.14363440797E+04  0.46999998093E+01 0.  1.
       -5    1    3    3    0  502  0.66619770238E+03 -0.11468644680E+04 -0.20232683650E+03  0.13416690074E+04  0.46999998093E+01 0. -1.
</event>
<event>
 5   0  0.1874272E-05  0.2814830E+04  0.7818609E-02  0.8298679E-01
       -2   -1    0    0    0  501  0.00000000000E+00  0.00000000000E+00  0.12662825851E+04  0.12662825851E+04  0.25500000920E-02 0.  1.
        2   -1    0    0  501    0  0.00000000000E+00  0.00000000000E+00 -0.15642776795E+04  0.15642776795E+04  0.25500000920E-02 0. -1.
    10030    2    1    2    0    0  0.00000000000E+00  0.00000000000E+00 -0.29799509437E+03  0.28305602646E+04  0.28148304275E+04 0.  0.
        3    1    3    3  502    0  0.96038750052E+03  0.29863305402E+02 -0.11831322522E+04  0.15241515359E+04  0.10100000352E+00 0. -1.
       -3    1    3    3    0  502 -0.96038750052E+03 -0.29863305402E+02  0.88513715778E+03  0.13064087287E+04  0.10100000352E+00 0.  1.
</event>
<event>
 5   0  0.1904553E-05  0.2787155E+04  0.7818609E-02  0.8307267E-01
       -2   -1    0    0    0  501  0.00000000000E+00  0.00000000000E+00  0.88194828354E+03  0.88194828354E+03  0.25500000920E-02 0. -1.
        2   -1    0    0  501    0  0.00000000000E+00  0.00000000000E+00 -0.22020092967E+04  0.22020092967E+04  0.25500000920E-02 0.  1.
    10030    2    1    2    0    0  0.00000000000E+00  0.00000000000E+00 -0.13200610132E+04  0.30839575803E+04  0.27871550510E+04 0.  0.
        1    1    3    3  502    0  0.92852236660E+03  0.96945390398E+03 -0.24592595383E+03  0.13647249657E+04  0.50400001928E-02 0. -1.
       -1    1    3    3    0  502 -0.92852236660E+03 -0.96945390398E+03 -0.10741350594E+04  0.17192326146E+04  0.50400001928E-02 0.  1.
</event>
<event>
 5   0  0.7613444E-06  0.2802262E+04  0.7818609E-02  0.8302567E-01
       -1   -1    0    0    0  501  0.00000000000E+00  0.00000000000E+00  0.17839871321E+04  0.17839871321E+04  0.50400001928E-02 0. -1.
        1   -1    0    0  501    0  0.00000000000E+00  0.00000000000E+00 -0.11004383384E+04  0.11004383384E+04  0.50400001928E-02 0.  1.
    10030    2    1    2    0    0  0.00000000000E+00  0.00000000000E+00  0.68354879373E+03  0.28844254705E+04  0.28022618260E+04 0.  0.
        5    1    3    3  502    0 -0.46383749853E+03  0.94671053234E+03  0.12917316291E+04  0.16673328248E+04  0.46999998093E+01 0. -1.
       -5    1    3    3    0  502  0.46383749853E+03 -0.94671053234E+03 -0.60818283536E+03  0.12170926457E+04  0.46999998093E+01 0.  1.
</event>
<event>
 5   0  0.7388013E-06  0.2005938E+04  0.7818609E-02  0.8603850E-01
        1   -1    0    0  501    0  0.00000000000E+00  0.00000000000E+00  0.11919868531E+04  0.11919868531E+04  0.50400001928E-02 0. -1.
       -1   -1    0    0    0  501  0.00000000000E+00  0.00000000000E+00 -0.84392425436E+03  0.84392425438E+03  0.50400001928E-02 0.  1.
    10030    2    1    2    0    0  0.00000000000E+00  0.00000000000E+00  0.34806259877E+03  0.20359111075E+04  0.20059378019E+04 0.  0.
        1    1    3    3  502    0 -0.97546659777E+03  0.52554665159E+02  0.40469251593E+03  0.10573897619E+04  0.50400001928E-02 0.  1.
       -1    1    3    3    0  502  0.97546659777E+03 -0.52554665159E+02 -0.56629917162E+02  0.97852134557E+03  0.50400001928E-02 0. -1.
</event>
<event>
 5   0  0.1832502E-05  0.2767714E+04  0.7818609E-02  0.8313362E-01
       -2   -1    0    0    0  501  0.00000000000E+00  0.00000000000E+00  0.12156705646E+04  0.12156705646E+04  0.25500000920E-02 0. -1.
        2   -1    0    0  501    0  0.00000000000E+00  0.00000000000E+00 -0.15753121482E+04  0.15753121482E+04  0.25500000920E-02 0.  1.
    10030    2    1    2    0    0  0.00000000000E+00  0.00000000000E+00 -0.35964158353E+03  0.27909827128E+04  0.27677142979E+04 0.  0.
        2    1    3    3  502    0 -0.85783784770E+03 -0.10677655337E+04 -0.37909693485E+03  0.14211697626E+04  0.25500000920E-02 0.  1.
       -2    1    3    3    0  502  0.85783784770E+03  0.10677655337E+04  0.19455351316E+02  0.13698129503E+04  0.25500000920E-02 0. -1.
</event>
<event>
 5   0  0.7681342E-06  0.2632514E+04  0.7818609E-02  0.8357240E-01
        1   -1    0    0  501    0  0.00000000000E+00  0.00000000000E+00  0.14132651595E+04  0.14132651595E+04  0.50400001928E-02 0.  1.
       -1   -1    0    0    0  501  0.00000000000E+00  0.00000000000E+00 -0.12259073952E+04  0.12259073952E+04  0.50400001928E-02 0. -1.
    10030    2    1    2    0    0  0.00000000000E+00  0.00000000000E+00  0.18735776429E+03  0.26391725546E+04  0.26325137875E+04 0.  0.
        2    1    3    3  502    0 -0.96289814728E+03  0.31014437112E+03  0.93793119618E+03  0.13795206783E+04  0.25500000920E-02 0.  1.
       -2    1    3    3    0  502  0.96289814728E+03 -0.31014437112E+03 -0.75057343189E+03  0.12596518764E+04  0.25500000920E-02 0. -1.
</event>
<event>
 5   0  0.1904553E-05  0.2293544E+04  0.7818609E-02  0.8480471E-01
       -2   -1    0    0    0  501  0.00000000000E+00  0.00000000000E+00  0.11407063047E+04  0.11407063047E+04  0.25500000920E-02 0.  1.
        2   -1    0    0  501    0  0.00000000000E+00  0.00000000000E+00 -0.11528704213E+04  0.11528704213E+04  0.25500000920E-02 0. -1.
    10030    2    1    2    0    0  0.00000000000E+00  0.00000000000E+00 -0.12164116544E+02  0.22935767260E+04  0.22935444693E+04 0.  0.
        1    1    3    3  502    0 -0.10441546413E+04  0.46999665027E+03 -0.68778967057E+02  0.11471208797E+04  0.50400001928E-02 0. -1.
       -1    1    3    3    0  502  0.10441546413E+04 -0.46999665027E+03  0.56614850513E+02  0.11464558463E+04  0.50400001928E-02 0.  1.
</event>
<event>
 5   0  0.1814230E-05  0.2834316E+04  0.7818609E-02  0.8292693E-01
       -2   -1    0    0    0  501  0.00000000000E+00  0.00000000000E+00  0.13352952396E+04  0.13352952396E+04  0.25500000920E-02 0.  1.
        2   -1    0    0  501    0  0.00000000000E+00  0.00000000000E+00 -0.15040399034E+04  0.15040399034E+04  0.25500000920E-02 0. -1.
    10030    2    1    2    0    0  0.00000000000E+00  0.00000000000E+00 -0.16874466385E+03  0.28393351430E+04  0.28343163713E+04 0.  0.
        5    1    3    3  502    0  0.60303456140E+03 -0.92471603969E+03 -0.97452033301E+03  0.14725700003E+04  0.46999998093E+01 0. -1.
       -5    1    3    3    0  502 -0.60303456140E+03  0.92471603969E+03  0.80577566917E+03  0.13667651427E+04  0.46999998093E+01 0.  1.
</event>
<event>
 5   0  0.7613444E-06  0.2603356E+04  0.7818609E-02  0.8367062E-01
        1   -1    0    0  501    0  0.00000000000E+00  0.00000000000E+00  0.13190479327E+04  0.13190479327E+04  0.50400001928E-02 0. -1.
       -1   -1    0    0    0  501  0.00000000000E+00  0.00000000000E+00 -0.12845367395E+04  0.12845367395E+04  0.50400001928E-02 0.  1.
    10030    2    1    2    0    0  0.00000000000E+00  0.00000000000E+00  0.34511193190E+02  0.26035846723E+04  0.26033559348E+04 0.  0.
        5    1    3    3  502    0  0.93919442945E+03  0.34739039508E+03  0.84893985803E+03  0.13128165277E+04  0.46999998093E+01 0. -1.
       -5    1    3    3    0  502 -0.93919442945E+03 -0.34739039508E+03 -0.81442866484E+03  0.12907681446E+04  0.46999998093E+01 0.  1.
</event>
<event>
 5   0  0.7613444E-06  0.2748779E+04  0.7818609E-02  0.8319349E-01
        1   -1    0    0  501    0  0.00000000000E+00  0.00000000000E+00  0.12665228483E+04  0.12665228484E+04  0.50400001928E-02 0. -1.
       -1   -1    0    0    0  501  0.00000000000E+00  0.00000000000E+00 -0.14914434033E+04  0.14914434033E+04  0.50400001928E-02 0.  1.
    10030    2    1    2    0    0  0.00000000000E+00  0.00000000000E+00 -0.22492055497E+03  0.27579662517E+04  0.27487794727E+04 0.  0.
        5    1    3    3  502    0  0.68522045062E+03  0.32590658854E+03 -0.12622320859E+04  0.14727505217E+04  0.46999998093E+01 0.  1.
       -5    1    3    3    0  502 -0.68522045062E+03 -0.32590658854E+03  0.10373115309E+04  0.12852157300E+04  0.46999998093E+01 0. -1.
</event>
<event>
 5   0  0.1904553E-05  0.2870096E+04  0.7818609E-02  0.8281831E-01
       -2   -1    0    0    0  501  0.00000000000E+00  0.00000000000E+00  0.26106158567E+04  0.26106158567E+04  0.25500000920E-02 0. -1.
        2   -1    0    0  501    0  0.00000000000E+00  0.00000000000E+00 -0.78884161262E+03  0.78884161263E+03  0.25500000920E-02 0.  1.
    10030    2    1    2    0    0  0.00000000000E+00  0.00000000000E+00  0.18217742441E+04  0.33994574694E+04  0.28700957631E+04 0.  0.
        1    1    3    3  502    0  0.41947377482E+03  0.45561265463E+03 -0.62241266521E+03  0.87803112966E+03  0.50400001928E-02 0.  1.
       -1    1    3    3    0  502 -0.41947377482E+03 -0.45561265463E+03  0.24441869093E+04  0.25214263397E+04  0.50400001928E-02 0. -1.
</event>
<event>
 5   0  0.1923559E-05  0.3261349E+04  0.7818609E-02  0.8172800E-01
        2   -1    0    0  501    0  0.00000000000E+00  0.00000000000E+00  0.10861795217E+04  0.10861795217E+04  0.25500000920E-02 0.  1.
       -2   -1    0    0    0  501  0.00000000000E+00  0.00000000000E+00 -0.24481217614E+04  0.24481217614E+04  0.25500000920E-02 0. -1.
    10030    2    1    2    0    0  0.00000000000E+00  0.00000000000E+00 -0.13619422397E+04  0.35343012831E+04  0.32613492446E+04 0.  0.
        4    1    3    3  502    0 -0.15482346352E+04 -0.30446133185E+03 -0.11269617009E+04  0.19390130161E+04  0.12699999809E+01 0. -1.
       -4    1    3    3    0  502  0.15482346352E+04  0.30446133185E+03 -0.23498053884E+03  0.15952882670E+04  0.12699999809E+01 0.  1.
</event>
<event>
 5   0  0.7681342E-06  0.2565741E+04  0.7818609E-02  0.8379932E-01
       -1   -1    0    0    0  501  0.00000000000E+00  0.00000000000E+00  0.11837270864E+04  0.11837270864E+04  0.50400001928E-02 0.  1.
        1   -1    0    0  501    0  0.00000000000E+00  0.00000000000E+00 -0.13903180788E+04  0.13903180788E+04  0.50400001928E-02 0. -1.
    10030    2    1    2    0    0  0.00000000000E+00  0.00000000000E+00 -0.20659099235E+03  0.25740451652E+04  0.25657413499E+04 0.  0.
        2    1    3    3  502    0 -0.59395843686E+03 -0.29505465746E+03  0.99839938303E+03  0.11986013531E+04  0.25500000920E-02 0.  1.
       -2    1    3    3    0  502  0.59395843686E+03  0.29505465746E+03 -0.12049903754E+04  0.13754438121E+04  0.25500000920E-02 0. -1.
</event>
<event>
 5   0  0.7509685E-06  0.2233749E+04  0.7818609E-02  0.8504511E-01
       -1   -1    0    0    0  501  0.00000000000E+00  0.00000000000E+00  0.52279949323E+03  0.52279949325E+03  0.50400001928E-02 0.  1.
        1   -1    0    0  501    0  0.00000000000E+00  0.00000000000E+00 -0.23860165876E+04  0.23860165876E+04  0.50400001928E-02 0. -1.
    10030    2    1    2    0    0  0.00000000000E+00  0.00000000000E+00 -0.18632170944E+04  0.29088160809E+04  0.22337486545E+04 0.  0.
        4    1    3    3  502    0 -0.77126380560E+03  0.19878927907E+03 -0.19512017622E+04  0.21074996952E+04  0.12699999809E+01 0. -1.
       -4    1    3    3    0  502  0.77126380560E+03 -0.19878927907E+03  0.87984667855E+02  0.80131638569E+03  0.12699999809E+01 0.  1.
</event>
<event>
 5   0  0.1874272E-05  0.1765368E+04  0.7818609E-02  0.8724936E-01
       -2   -1    0    0    0  501  0.00000000000E+00  0.00000000000E+00  0.56816533686E+03  0.56816533687E+03  0.25500000920E-02 0. -1.
        2   -1    0    0  501    0  0.00000000000E+00  0.00000000000E+00 -0.13713104525E+04  0.13713104525E+04  0.25500000920E-02 0.  1.
    10030    2    1    2    0    0  0.00000000000E+00  0.00000000000E+00 -0.80314511564E+03  0.19394757894E+04  0.17653680242E+04 0.  0.
        3    1    3    3  502    0  0.36199028467E+02  0.70158302222E+03 -0.98869636312E+03  0.12128683421E+04  0.10100000352E+00 0.  1.
       -3    1    3    3    0  502 -0.36199028467E+02 -0.70158302222E+03  0.18555124748E+03  0.72660744723E+03  0.10100000352E+00 0. -1.
</event>
<event>
 5   0  0.7388013E-06  0.2770160E+04  0.7818609E-02  0.8312593E-01
        1   -1    0    0  501    0  0.00000000000E+00  0.00000000000E+00  0.12542379928E+04  0.12542379928E+04  0.50400001928E-02 0.  1.
       -1   -1    0    0    0  501  0.00000000000E+00  0.00000000000E+00 -0.15295710289E+04  0.15295710289E+04  0.50400001928E-02 0. -1.
    10030    2    1    2    0    0  0.00000000000E+00  0.00000000000E+00 -0.27533303616E+03  0.27838090217E+04  0.27701596323E+04 0.  0.
        1    1    3    3  502    0  0.11024430470E+04 -0.54206609641E+03  0.50519621839E+03  0.13283220784E+04  0.50400001928E-02 0.  1.
       -1    1    3    3    0  502 -0.11024430470E+04  0.54206609641E+03 -0.78052925454E+03  0.14554869433E+04  0.50400001928E-02 0. -1.
</event>
<event>
 5   0  0.1814230E-05  0.2819310E+04  0.7818609E-02  0.8297298E-01
        2   -1    0    0  501    0  0.00000000000E+00  0.00000000000E+00  0.98081529825E+03  0.98081529825E+03  0.25500000920E-02 0. -1.
       -2   -1    0    0    0  501  0.00000000000E+00  0.00000000000E+00 -0.20259954345E+04  0.20259954345E+04  0.25500000920E-02 0.  1.
    10030    2    1    2    0    0  0.00000000000E+00  0.00000000000E+00 -0.10451801362E+04  0.30068107327E+04  0.28193100690E+04 0.  0.
        5    1    3    3  502    0  0.29309011230E+03  0.11596925872E+04  0.27288070197E+03  0.12268963601E+04  0.46999998093E+01 0. -1.
       -5    1    3    3    0  502 -0.29309011230E+03 -0.11596925872E+04 -0.13180608382E+04  0.17799143727E+04  0.46999998093E+01 0.  1.
</event>
<event>
 5   0  0.7681342E-06  0.2862914E+04  0.7818609E-02  0.8283998E-01
       -1   -1    0    0    0  501  0.00000000000E+00  0.00000000000E+00  0.31024156406E+04  0.31024156406E+04  0.50400001928E-02 0. -1.
        1   -1    0    0  501    0  0.00000000000E+00  0.00000000000E+00 -0.66047537891E+03  0.66047537892E+03  0.50400001928E-02 0.  1.
    10030    2    1    2    0    0  0.00000000000E+00  0.00000000000E+00  0.24419402617E+04  0.37628910196E+04  0.28629140021E+04 0.  0.
        2    1    3    3  502    0 -0.29763414993E+03  0.76982307123E+03  0.27581810052E+04  0.28790234639E+04  0.25500000920E-02 0. -1.
       -2    1    3    3    0  502  0.29763414993E+03 -0.76982307123E+03 -0.31624074344E+03  0.88386755570E+03  0.25500000920E-02 0.  1.
</event>
<event>
 5   0  0.1904553E-05  0.2024352E+04  0.7818609E-02  0.8595319E-01
        2   -1    0    0  501    0  0.00000000000E+00  0.00000000000E+00  0.85598700068E+03  0.85598700069E+03  0.25500000920E-02 0.  1.
       -2   -1    0    0    0  501  0.00000000000E+00  0.00000000000E+00 -0.11968642741E+04  0.11968642741E+04  0.25500000920E-02 0. -1.
    10030    2    1    2    0    0  0.00000000000E+00  0.00000000000E+00 -0.34087727339E+03  0.20528512748E+04  0.20243520052E+04 0.  0.
        1    1    3    3  502    0 -0.13353297559E+03  0.60617512771E+03 -0.98120728047E+03  0.11610542917E+04  0.50400001928E-02 0. -1.
       -1    1    3    3    0  502  0.13353297559E+03 -0.60617512771E+03  0.64033000707E+03  0.89179698306E+03  0.50400001928E-02 0.  1.
</event>
<event>
 5   0  0.1832502E-05  0.2819400E+04  0.7818609E-02  0.8297271E-01
       -2   -1    0    0    0  501  0.00000000000E+00  0.00000000000E+00  0.21369503404E+04  0.21369503404E+04  0.25500000920E-02 0.  1.
        2   -1    0    0  501    0  0.00000000000E+00  0.00000000000E+00 -0.92994890752E+03  0.92994890752E+03  0.25500000920E-02 0. -1.
    10030    2    1    2    0    0  0.00000000000E+00  0.00000000000E+00  0.12070014329E+04  0.30668992479E+04  0.28194003862E+04 0.  0.
        2    1    3    3  502    0 -0.75988096017E+02 -0.31906864567E+03 -0.88786519143E+03  0.94651127280E+03  0.25500000920E-02 0. -1.
       -2    1    3    3    0  502  0.75988096017E+02  0.31906864567E+03  0.20948666243E+04  0.21203879751E+04  0.25500000920E-02 0.  1.
</event>
<event>
 5   0  0.7509685E-06  0.2796948E+04  0.7818609E-02  0.8304216E-01
       -1   -1    0    0    0  501  0.00000000000E+00  0.00000000000E+00  0.13835156539E+04  0.13835156539E+04  0.50400001928E-02 0.  1.
        1   -1    0    0  501    0  0.00000000000E+00  0.00000000000E+00 -0.14135944228E+04  0.14135944228E+04  0.50400001928E-02 0. -1.
    10030    2    1    2    0    0  0.00000000000E+00  0.00000000000E+00 -0.30078768968E+02  0.27971100767E+04  0.27969483458E+04 0.  0.
        4    1    3    3  502    0 -0.15284457917E+03 -0.97927433865E+03  0.97162229891E+03  0.13879449558E+04  0.12699999809E+01 0.  1.
       -4    1    3    3    0  502  0.15284457917E+03  0.97927433865E+03 -0.10017010679E+04  0.14091651209E+04  0.12699999809E+01 0. -1.
</event>
<event>
 5   0  0.1923559E-05  0.2891652E+04  0.7818609E-02  0.8275366E-01
       -2   -1    0    0    0  501  0.00000000000E+00  0.00000000000E+00  0.13726765803E+04  0.13726765803E+04  0.25500000920E-02 0.  1.
        2   -1    0    0  501    0  0.00000000000E+00  0.00000000000E+00 -0.15228730028E+04  0.15228730028E+04  0.25500000920E-02 0. -1.
    10030    2    1    2    0    0  0.00000000000E+00  0.00000000000E+00 -0.15019642245E+03  0.28955495831E+04  0.28916515044E+04 0.  0.
        4    1    3    3  502    0  0.30192341044E+03  0.14023536933E+04 -0.25605392711E+03  0.14571612311E+04  0.12699999809E+01 0.  1.
       -4    1    3    3    0  502 -0.30192341044E+03 -0.14023536933E+04  0.10585750467E+03  0.14383883520E+04  0.12699999809E+01 0. -1.
</event>
<event>
 5   0  0.1814230E-05  0.2844724E+04  0.7818609E-02  0.8289516E-01
       -2   -1    0    0    0  501  0.00000000000E+00  0.00000000000E+00  0.10997612113E+04  0.10997612113E+04  0.25500000920E-02 0. -1.
        2   -1    0    0  501    0  0.00000000000E+00  0.00000000000E+00 -0.18395931335E+04  0.18395931335E+04  0.25500000920E-02 0.  1.
    10030    2    1    2    0    0  0.00000000000E+00  0.00000000000E+00 -0.73983192223E+03  0.29393543448E+04  0.28447236581E+04 0.  0.
        5    1    3    3  502    0 -0.14096092780E+04 -0.77146927037E+02 -0.19052872525E+03  0.14245256228E+04  0.46999998093E+01 0. -1.
       -5    1    3    3    0  502  0.14096092780E+04  0.77146927037E+02 -0.54930319698E+03  0.15148287220E+04  0.46999998093E+01 0.  1.
</event>
<event>
 5   0  0.7388013E-06  0.2803208E+04  0.7818609E-02  0.8302273E-01
       -1   -1    0    0    0  501  0.00000000000E+00  0.00000000000E+00  0.14618098638E+04  0.14618098639E+04  0.50400001928E-02 0.  1.
        1   -1    0    0  501    0  0.00000000000E+00  0.00000000000E+00 -0.13438775817E+04  0.13438775817E+04  0.50400001928E-02 0. -1.
    10030    2    1    2    0    0  0.00000000000E+00  0.00000000000E+00  0.11793228217E+03  0.28056874455E+04  0.28032078087E+04 0.  0.
        1    1    3    3  502    0 -0.48989324770E+02  0.17275752087E+03 -0.13323168366E+04  0.13443635179E+04  0.50400001928E-02 0. -1.
       -1    1    3    3    0  502  0.48989324770E+02 -0.17275752087E+03  0.14502491188E+04  0.14613239277E+04  0.50400001928E-02 0.  1.
</event>
<event>
 5   0  0.1923559E-05  0.2710421E+04  0.7818609E-02  0.8331632E-01
       -2   -1    0    0    0  501  0.00000000000E+00  0.00000000000E+00  0.94705503441E+03  0.94705503441E+03  0.25500000920E-02 0.  1.
        2   -1    0    0  501    0  0.00000000000E+00  0.00000000000E+00 -0.19392696982E+04  0.19392696982E+04  0.25500000920E-02 0. -1.
    10030    2    1    2    0    0  0.00000000000E+00  0.00000000000E+00 -0.99221466377E+03  0.28863247326E+04  0.27104207280E+04 0.  0.
        4    1    3    3  502    0 -0.12131126574E+04 -0.46717064274E+03 -0.90398287567E+03  0.15833753129E+04  0.12699999809E+01 0.  1.
       -4    1    3    3    0  502  0.12131126574E+04  0.46717064274E+03 -0.88231788097E+02  0.13029494197E+04  0.12699999809E+01 0. -1.
</event>
<event>
 5   0  0.7555871E-06  0.2806659E+04  0.7818609E-02  0.8301204E-01
       -1   -1    0    0    0  501  0.00000000000E+00  0.00000000000E+00  0.13016032629E+04  0.13016032629E+04  0.50400001928E-02 0.  1.
        1   -1    0    0  501    0  0.00000000000E+00  0.00000000000E+00 -0.15130057101E+04  0.15130057101E+04  0.50400001928E-02 0. -1.
    10030    2    1    2    0    0  0.00000000000E+00  0.00000000000E+00 -0.21140244722E+03  0.28146089731E+04  0.28066586320E+04 0.  0.
        3    1    3    3  502    0  0.13734458470E+04  0.23531280298E+03  0.60924634855E+02  0.13947893860E+04  0.10100000352E+00 0. -1.
       -3    1    3    3    0  502 -0.13734458470E+04 -0.23531280298E+03 -0.27232708207E+03  0.14198195871E+04  0.10100000352E+00 0.  1.
</event>
<event>
 5   0  0.7681342E-06  0.2801344E+04  0.7818609E-02  0.8302851E-01
        1   -1    0    0  501    0  0.00000000000E+00  0.00000000000E+00  0.10565070739E+04  0.10565070739E+04  0.50400001928E-02 0.  1.
       -1   -1    0    0    0  501  0.00000000000E+00  0.00000000000E+00 -0.18569508952E+04  0.18569508952E+04  0.50400001928E-02 0. -1.
    10030    2    1    2    0    0  0.00000000000E+00  0.00000000000E+00 -0.80044382126E+03  0.29134579691E+04  0.28013437895E+04 0.  0.
        2    1    3    3  502    0 -0.23869343541E+03 -0.12975250187E+02 -0.18355793559E+04  0.18510792757E+04  0.25500000920E-02 0. -1.
       -2    1    3    3    0  502  0.23869343541E+03  0.12975250187E+02  0.10351355346E+04  0.10623786934E+04  0.25500000920E-02 0.  1.
</event>
<event>
 5   0  0.7681342E-06  0.2693380E+04  0.7818609E-02  0.8337156E-01
        1   -1    0    0  501    0  0.00000000000E+00  0.00000000000E+00  0.10766201814E+04  0.10766201814E+04  0.50400001928E-02 0.  1.
       -1   -1    0    0    0  501  0.00000000000E+00  0.00000000000E+00 -0.16845070506E+04  0.16845070506E+04  0.50400001928E-02 0. -1.
    10030    2    1    2    0    0  0.00000000000E+00  0.00000000000E+00 -0.60788686921E+03  0.27611272319E+04  0.26933802452E+04 0.  0.
        2    1    3    3  502    0 -0.98096657579E+03  0.88588066531E+03 -0.56829445535E+03  0.14387628588E+04  0.25500000920E-02 0. -1.
       -2    1    3    3    0  502  0.98096657579E+03 -0.88588066531E+03 -0.39592413861E+02  0.13223643731E+04  0.25500000920E-02 0.  1.
</event>
<event>
 5   0  0.7388013E-06  0.2758296E+04  0.7818609E-02  0.8316334E-01
        1   -1    0    0  501    0  0.00000000000E+00  0.00000000000E+00  0.11877488776E+04  0.11877488776E+04  0.50400001928E-02 0. -1.
       -1   -1    0    0    0  501  0.00000000000E+00  0.00000000000E+00 -0.16013901837E+04  0.16013901837E+04  0.50400001928E-02 0.  1.
    10030    2    1    2    0    0  0.00000000000E+00  0.00000000000E+00 -0.41364130604E+03  0.27891390613E+04  0.27582961359E+04 0.  0.
        1    1    3    3  502    0  0.59654793640E+03  0.35632435431E+03 -0.14114489290E+04  0.15732210795E+04  0.50400001928E-02 0.  1.
       -1    1    3    3    0  502 -0.59654793640E+03 -0.35632435431E+03  0.99780762296E+03  0.12159179818E+04  0.50400001928E-02 0. -1.
</event>
<event>
 5   0  0.7613444E-06  0.2509906E+04  0.7818609E-02  0.8399465E-01
        1   -1    0    0  501    0  0.00000000000E+00  0.00000000000E+00  0.17179121624E+04  0.17179121624E+04  0.50400001928E-02 0. -1.
       -1   -1    0    0    0  501  0.00000000000E+00  0.00000000000E+00 -0.91675652570E+03  0.91675652572E+03  0.50400001928E-02 0.  1.
    10030    2    1    2    0    0  0.00000000000E+00  0.00000000000E+00  0.80115563666E+03  0.26346686881E+04  0.25099061221E+04 0.  0.
        5    1    3    3  502    0  0.51578460931E+02 -0.11652696252E+04 -0.85439800535E+02  0.11695450768E+04  0.46999998093E+01 0.  1.
       -5    1    3    3    0  502 -0.51578460931E+02  0.11652696252E+04  0.88659543720E+03  0.14651236113E+04  0.46999998093E+01 0. -1.
</event>
<event>
 5   0  0.7681342E-06  0.2795031E+04  0.7818609E-02  0.8304813E-01
        1   -1    0    0  501    0  0.00000000000E+00  0.00000000000E+00  0.20179763369E+04  0.20179763369E+04  0.50400001928E-02 0.  1.
       -1   -1    0    0    0  501  0.00000000000E+00  0.00000000000E+00 -0.96782590099E+03  0.96782590100E+03  0.50400001928E-02 0. -1.
    10030    2    1    2    0    0  0.00000000000E+00  0.00000000000E+00  0.10501504359E+04  0.29858022379E+04  0.27950311386E+04 0.  0.
        2    1    3    3  502    0  0.82087050741E+03  0.94885346179E+03  0.11826358781E+04  0.17241748467E+04  0.25500000920E-02 0.  1.
       -2    1    3    3    0  502 -0.82087050741E+03 -0.94885346179E+03 -0.13248544214E+03  0.12616273912E+04  0.25500000920E-02 0. -1.
</event>
<event>
 5   0  0.1923559E-05  0.2867475E+04  0.7818609E-02  0.8282621E-01
        2   -1    0    0  501    0  0.00000000000E+00  0.00000000000E+00  0.13065274745E+04  0.13065274745E+04  0.25500000920E-02 0.  1.
       -2   -1    0    0    0  501  0.00000000000E+00  0.00000000000E+00 -0.15733331237E+04  0.15733331237E+04  0.25500000920E-02 0. -1.
    10030    2    1    2    0    0  0.00000000000E+00  0.00000000000E+00 -0.26680564921E+03  0.28798605982E+04  0.28674748143E+04 0.  0.
        4    1    3    3  502    0 -0.13127121860E+04 -0.55884766775E+03 -0.27570939322E+03  0.14531143388E+04  0.12699999809E+01 0. -1.
       -4    1    3    3    0  502  0.13127121860E+04  0.55884766775E+03  0.89037440091E+01  0.14267462594E+04  0.12699999809E+01 0.  1.
</event>
<event>
 5   0  0.1923559E-05  0.2478173E+04  0.7818609E-02  0.8410803E-01
        2   -1    0    0  501    0  0.00000000000E+00  0.00000000000E+00  0.11985091794E+04  0.11985091794E+04  0.25500000920E-02 0.  1.
       -2   -1    0    0    0  501  0.00000000000E+00  0.00000000000E+00 -0.12810371432E+04  0.12810371432E+04  0.25500000920E-02 0. -1.
    10030    2    1    2    0    0  0.00000000000E+00  0.00000000000E+00 -0.82527963810E+02  0.24795463226E+04  0.24781725325E+04 0.  0.
        4    1    3    3  502    0 -0.83304973298E+03 -0.23514627074E+03 -0.92835997464E+03  0.12692988150E+04  0.12699999809E+01 0. -1.
       -4    1    3    3    0  502  0.83304973298E+03  0.23514627074E+03  0.84583201083E+03  0.12102475076E+04  0.12699999809E+01 0.  1.
</event>
<event>
 5   0  0.1904553E-05  0.2790979E+04  0.7818609E-02  0.8306075E-01
       -2   -1    0    0    0  501  0.00000000000E+00  0.00000000000E+00  0.12131438096E+04  0.12131438096E+04  0.25500000920E-02 0. -1.
        2   -1    0    0  501    0  0.00000000000E+00  0.00000000000E+00 -0.16052429135E+04  0.16052429135E+04  0.25500000920E-02 0.  1.
    10030    2    1    2    0    0  0.00000000000E+00  0.00000000000E+00 -0.39209910389E+03  0.28183867232E+04  0.27909786839E+04 0.  0.
        1    1    3    3  502    0  0.13699331168E+04  0.51872554293E+02 -0.45934552573E+03  0.14458235779E+04  0.50400001928E-02 0. -1.
       -1    1    3    3    0  502 -0.13699331168E+04 -0.51872554293E+02  0.67246421841E+02  0.13725631453E+04  0.50400001928E-02 0.  1.
</event>
<event>
 5   0  0.7509685E-06  0.2850143E+04  0.7818609E-02  0.8287868E-01
        1   -1    0    0  501    0  0.00000000000E+00  0.00000000000E+00  0.19407225049E+04  0.19407225049E+04  0.50400001928E-02 0. -1.
       -1   -1    0    0    0  501  0.00000000000E+00  0.00000000000E+00 -0.10464294908E+04  0.10464294909E+04  0.50400001928E-02 0.  1.
    10030    2    1    2    0    0  0.00000000000E+00  0.00000000000E+00  0.89429301409E+03  0.29871519958E+04  0.28501433387E+04 0.  0.
        4    1    3    3  502    0  0.35196816215E+03 -0.82629149052E+03 -0.71247097952E+03  0.11464099284E+04  0.12699999809E+01 0.  1.
       -4    1    3    3    0  502 -0.35196816215E+03  0.82629149052E+03  0.16067639936E+04  0.18407420673E+04  0.12699999809E+01 0. -1.
</event>
<event>
 5   0  0.7509685E-06  0.2217022E+04  0.7818609E-02  0.8511376E-01
       -1   -1    0    0    0  501  0.00000000000E+00  0.00000000000E+00  0.73754067876E+03  0.73754067878E+03  0.50400001928E-02 0.  1.
        1   -1    0    0  501    0  0.00000000000E+00  0.00000000000E+00 -0.16660732773E+04  0.16660732773E+04  0.50400001928E-02 0. -1.
    10030    2    1    2    0    0  0.00000000000E+00  0.00000000000E+00 -0.92853259849E+03  0.24036139560E+04  0.22170221612E+04 0.  0.
        4    1    3    3  502    0  0.21539492909E+03  0.78425314294E+03  0.35235208737E+03  0.88634168020E+03  0.12699999809E+01 0.  1.
       -4    1    3    3    0  502 -0.21539492909E+03 -0.78425314294E+03 -0.12808846859E+04  0.15172722758E+04  0.12699999809E+01 0. -1.
</event>
<event>
 5   0  0.1814230E-05  0.2828367E+04  0.7818609E-02  0.8294515E-01
        2   -1    0    0  501    0  0.00000000000E+00  0.00000000000E+00  0.14979555824E+04  0.14979555824E+04  0.25500000920E-02 0. -1.
       -2   -1    0    0    0  501  0.00000000000E+00  0.00000000000E+00 -0.13350963204E+04  0.13350963204E+04  0.25500000920E-02 0.  1.
    10030    2    1    2    0    0  0.00000000000E+00  0.00000000000E+00  0.16285926195E+03  0.28330519028E+04  0.28283670103E+04 0.  0.
        5    1    3    3  502    0 -0.98724586816E+02  0.59165326881E+02 -0.13303892691E+04  0.13353669074E+04  0.46999998093E+01 0.  1.
       -5    1    3    3    0  502  0.98724586816E+02 -0.59165326881E+02  0.14932485311E+04  0.14976849954E+04  0.46999998093E+01 0. -1.
</event>
<event>
 5   0  0.7613444E-06  0.2946885E+04  0.7818609E-02  0.8259063E-01
        1   -1    0    0  501    0  0.00000000000E+00  0.00000000000E+00  0.21095967650E+04  0.21095967650E+04  0.50400001928E-02 0.  1.
       -1   -1    0    0    0  501  0.00000000000E+00  0.00000000000E+00 -0.10291218892E+04  0.10291218892E+04  0.50400001928E-02 0. -1.
    10030    2    1    2    0    0  0.00000000000E+00  0.00000000000E+00  0.10804748758E+04  0.31387186543E+04  0.29468845979E+04 0.  0.
        5    1    3    3  502    0 -0.17063944984E+03  0.21421680296E+01 -0.10185525542E+04  0.10327602851E+04  0.46999998093E+01 0. -1.
       -5    1    3    3    0  502  0.17063944984E+03 -0.21421680296E+01  0.20990274300E+04  0.21059583692E+04  0.46999998093E+01 0.  1.
</event>
<event>
 5   0  0.6288000E-06  0.2854306E+04  0.7818609E-02  0.8286604E-01
       -3   -1    0    0    0  501  0.00000000000E+00  0.00000000000E+00  0.93608290370E+03  0.93608290915E+03  0.10100000352E+00 0.  1.
        3   -1    0    0  501    0  0.00000000000E+00  0.00000000000E+00 -0.21758386636E+04  0.21758386660E+04  0.10100000352E+00 0. -1.
    10030    2    1    2    0    0  0.00000000000E+00  0.00000000000E+00 -0.12397557599E+04  0.31119215751E+04  0.28543057905E+04 0.  0.
        1    1    3    3  502    0 -0.53482719862E+03 -0.63335495555E+02 -0.20607950927E+04  0.21300065567E+04  0.50400001928E-02 0. -1.
       -1    1    3    3    0  502  0.53482719862E+03  0.63335495555E+02  0.82103933280E+03  0.98191501842E+03  0.50400001928E-02 0.  1.
</event>
<event>
 5   0  0.1832502E-05  0.2765592E+04  0.7818609E-02  0.8314031E-01
       -2   -1    0    0    0  501  0.00000000000E+00  0.00000000000E+00  0.18896796177E+04  0.18896796177E+04  0.25500000920E-02 0.  1.
        2   -1    0    0  501    0  0.00000000000E+00  0.00000000000E+00 -0.10118778163E+04  0.10118778163E+04  0.25500000920E-02 0. -1.
    10030    2    1    2    0    0  0.00000000000E+00  0.00000000000E+00  0.87780180133E+03  0.29015574340E+04  0.27655920777E+04 0.  0.
        2    1    3    3  502    0 -0.14727289020E+03 -0.24053893234E+03 -0.98137957780E+03  0.10211043815E+04  0.25500000920E-02 0. -1.
       -2    1    3    3    0  502  0.14727289020E+03  0.24053893234E+03  0.18591813791E+04  0.18804530525E+04  0.25500000920E-02 0.  1.
</event>
<event>
 5   0  0.7555871E-06  0.2838650E+04  0.7818609E-02  0.8291369E-01
       -1   -1    0    0    0  501  0.00000000000E+00  0.00000000000E+00  0.15629359003E+04  0.15629359003E+04  0.50400001928E-02 0.  1.
        1   -1    0    0  501    0  0.00000000000E+00  0.00000000000E+00 -0.12889098813E+04  0.12889098813E+04  0.50400001928E-02 0. -1.
    10030    2    1    2    0    0  0.00000000000E+00  0.00000000000E+00  0.27402601898E+03  0.28518457816E+04  0.28386500493E+04 0.  0.
        3    1    3    3  502    0  0.68491751214E+03 -0.76027150107E+03  0.11251290869E+04  0.15208682475E+04  0.10100000352E+00 0.  1.
       -3    1    3    3    0  502 -0.68491751214E+03  0.76027150107E+03 -0.85110306793E+03  0.13309775341E+04  0.10100000352E+00 0. -1.
</event>
<event>
 5   0  0.1874272E-05  0.2296057E+04  0.7818609E-02  0.8479478E-01
       -2   -1    0    0    0  501  0.00000000000E+00  0.00000000000E+00  0.12403569202E+04  0.12403569202E+04  0.25500000920E-02 0. -1.
        2   -1    0    0  501    0  0.00000000000E+00  0.00000000000E+00 -0.10625723079E+04  0.10625723079E+04  0.25500000920E-02 0.  1.
    10030    2    1    2    0    0  0.00000000000E+00  0.00000000000E+00  0.17778461238E+03  0.23029292281E+04  0.22960565457E+04 0.  0.
        3    1    3    3  502    0 -0.11389133405E+04 -0.63684256659E+02  0.21885493558E+03  0.11614976430E+04  0.10100000352E+00 0. -1.
       -3    1    3    3    0  502  0.11389133405E+04  0.63684256659E+02 -0.41070323193E+02  0.11414315851E+04  0.10100000352E+00 0.  1.
</event>
<event>
 5   0  0.1923559E-05  0.2773988E+04  0.7818609E-02  0.8311390E-01
        2   -1    0    0  501    0  0.00000000000E+00  0.00000000000E+00  0.19157011128E+04  0.19157011128E+04  0.25500000920E-02 0. -1.
       -2   -1    0    0    0  501  0.00000000000E+00  0.00000000000E+00 -0.10042027306E+04  0.10042027306E+04  0.25500000920E-02 0.  1.
    10030    2    1    2    0    0  0.00000000000E+00  0.00000000000E+00  0.91149838219E+03  0.29199038434E+04  0.27739879513E+04 0.  0.
        4    1    3    3  502    0  0.88462489386E+03  0.42737306857E+03  0.14863001989E+04  0.17816562061E+04  0.12699999809E+01 0. -1.
       -4    1    3    3    0  502 -0.88462489386E+03 -0.42737306857E+03 -0.57480181667E+03  0.11382476373E+04  0.12699999809E+01 0.  1.
</event>
<event>
 5   0  0.1923559E-05  0.2730956E+04  0.7818609E-02  0.8325030E-01
        2   -1    0    0  501    0  0.00000000000E+00  0.00000000000E+00  0.17410525227E+04  0.17410525227E+04  0.25500000920E-02 0.  1.
       -2   -1    0    0    0  501  0.00000000000E+00  0.00000000000E+00 -0.10709209891E+04  0.10709209891E+04  0.25500000920E-02 0. -1.
    10030    2    1    2    0    0  0.00000000000E+00  0.00000000000E+00  0.67013153366E+03  0.28119735118E+04  0.27309556494E+04 0.  0.
        4    1    3    3  502    0 -0.10965952487E+04  0.72053862635E+03  0.72420754147E+03  0.14987245336E+04  0.12699999809E+01 0.  1.
       -4    1    3    3    0  502  0.10965952487E+04 -0.72053862635E+03 -0.54076007803E+02  0.13132489783E+04  0.12699999809E+01 0. -1.
</event>
<event>
 5   0  0.7681342E-06  0.3178701E+04  0.7818609E-02  0.8194465E-01
       -1   -1    0    0    0  501  0.00000000000E+00  0.00000000000E+00  0.97107225113E+03  0.97107225114E+03  0.50400001928E-02 0.  1.
        1   -1    0    0  501    0  0.00000000000E+00  0.00000000000E+00 -0.26012847556E+04  0.26012847556E+04  0.50400001928E-02 0. -1.
    10030    2    1    2    0    0  0.00000000000E+00  0.00000000000E+00 -0.16302125045E+04  0.35723570068E+04  0.31787012716E+04 0.  0.
        2    1    3    3  502    0  0.15088517903E+04 -0.37355276082E+03 -0.11876051922E+04  0.19561649937E+04  0.25500000920E-02 0. -1.
       -2    1    3    3    0  502 -0.15088517903E+04  0.37355276082E+03 -0.44260731227E+03  0.16161920130E+04  0.25500000920E-02 0.  1.
</event>
<event>
 5   0  0.1904553E-05  0.2695515E+04  0.7818609E-02  0.8336461E-01
       -2   -1    0    0    0  501  0.00000000000E+00  0.00000000000E+00  0.71138082330E+03  0.71138082331E+03  0.25500000920E-02 0. -1.
        2   -1    0    0  501    0  0.00000000000E+00  0.00000000000E+00 -0.25534156840E+04  0.25534156840E+04  0.25500000920E-02 0.  1.
    10030    2    1    2    0    0  0.00000000000E+00  0.00000000000E+00 -0.18420348607E+04  0.32647965074E+04  0.26955154992E+04 0.  0.
        1    1    3    3  502    0 -0.87094713684E+03  0.27203747734E+03 -0.21224219042E+04  0.23102441524E+04  0.50400001928E-02 0.  1.
       -1    1    3    3    0  502  0.87094713684E+03 -0.27203747734E+03  0.28038704343E+03  0.95455235498E+03  0.50400001928E-02 0. -1.
</event>
<event>
 5   0  0.7388013E-06  0.2770778E+04  0.7818609E-02  0.8312398E-01
        1   -1    0    0  501    0  0.00000000000E+00  0.00000000000E+00  0.20831532081E+04  0.20831532081E+04  0.50400001928E-02 0.  1.
       -1   -1    0    0    0  501  0.00000000000E+00  0.00000000000E+00 -0.92134505678E+03  0.92134505680E+03  0.50400001928E-02 0. -1.
    10030    2    1    2    0    0  0.00000000000E+00  0.00000000000E+00  0.11618081513E+04  0.30044982649E+04  0.27707781657E+04 0.  0.
        1    1    3    3  502    0  0.32032563908E+03  0.60862240859E+03  0.18849574407E+04  0.20065129714E+04  0.50400001928E-02 0.  1.
       -1    1    3    3    0  502 -0.32032563908E+03 -0.60862240859E+03 -0.72314928936E+03  0.99798529348E+03  0.50400001928E-02 0. -1.
</event>
<event>
 5   0  0.7613444E-06  0.2874328E+04  0.7818609E-02  0.8280557E-01
       -1   -1    0    0    0  501  0.00000000000E+00  0.00000000000E+00  0.82761341226E+03  0.82761341227E+03  0.50400001928E-02 0. -1.
        1   -1    0    0  501    0  0.00000000000E+00  0.00000000000E+00 -0.24956575536E+04  0.24956575536E+04  0.50400001928E-02 0.  1.
    10030    2    1    2    0    0  0.00000000000E+00  0.00000000000E+00 -0.16680441413E+04  0.33232709658E+04  0.28743275135E+04 0.  0.
        5    1    3    3  502    0  0.36212819437E+03  0.37971610779E+03 -0.23809415687E+04  0.24380783407E+04  0.46999998093E+01 0.  1.
       -5    1    3    3    0  502 -0.36212819437E+03 -0.37971610779E+03  0.71289742740E+03  0.88519262517E+03  0.46999998093E+01 0. -1.
</event>
<event>
 5   0  0.1904553E-05  0.2748749E+04  0.7818609E-02  0.8319359E-01
        2   -1    0    0  501    0  0.00000000000E+00  0.00000000000E+00  0.17287898019E+04  0.17287898019E+04  0.25500000920E-02 0. -1.
       -2   -1    0    0    0  501  0.00000000000E+00  0.00000000000E+00 -0.10926172082E+04  0.10926172082E+04  0.25500000920E-02 0.  1.
    10030    2    1    2    0    0  0.00000000000E+00  0.00000000000E+00  0.63617259367E+03  0.28214070101E+04  0.27487491605E+04 0.  0.
        1    1    3    3  502    0 -0.76066649278E+03 -0.83350383548E+03 -0.48723095247E+03  0.12291200747E+04  0.50400001928E-02 0.  1.
       -1    1    3    3    0  502  0.76066649278E+03  0.83350383548E+03  0.11234035461E+04  0.15922869354E+04  0.50400001928E-02 0. -1.
</event>
<event>
 5   0  0.7613444E-06  0.2740305E+04  0.7818609E-02  0.8322045E-01
        1   -1    0    0  501    0  0.00000000000E+00  0.00000000000E+00  0.18784390663E+04  0.18784390663E+04  0.50400001928E-02 0.  1.
       -1   -1    0    0    0  501  0.00000000000E+00  0.00000000000E+00 -0.99940329699E+03  0.99940329700E+03  0.50400001928E-02 0. -1.
    10030    2    1    2    0    0  0.00000000000E+00  0.00000000000E+00  0.87903576929E+03  0.28778423633E+04  0.27403052356E+04 0.  0.
        5    1    3    3  502    0  0.98649011649E+03  0.42607470996E+03 -0.45320187074E+03  0.11662402986E+04  0.46999998093E+01 0. -1.
       -5    1    3    3    0  502 -0.98649011649E+03 -0.42607470996E+03  0.13322376400E+04  0.17116020647E+04  0.46999998093E+01 0.  1.
</event>
<event>
 5   0  0.7613444E-06  0.2806331E+04  0.7818609E-02  0.8301306E-01
       -1   -1    0    0    0  501  0.00000000000E+00  0.00000000000E+00  0.76004866507E+03  0.76004866508E+03  0.50400001928E-02 0. -1.
        1   -1    0    0  501    0  0.00000000000E+00  0.00000000000E+00 -0.25904565774E+04  0.25904565774E+04  0.50400001928E-02 0.  1.
    10030    2    1    2    0    0  0.00000000000E+00  0.00000000000E+00 -0.18304079124E+04  0.33505052425E+04  0.28063307457E+04 0.  0.
        5    1    3    3  502    0  0.85512609355E+03 -0.35965186380E+03 -0.21720799987E+04  0.23618940937E+04  0.46999998093E+01 0.  1.
       -5    1    3    3    0  502 -0.85512609355E+03  0.35965186380E+03  0.34167208634E+03  0.98861114883E+03  0.46999998093E+01 0. -1.
</event>
<event>
 5   0  0.7509685E-06  0.2801844E+04  0.7818609E-02  0.8302696E-01
       -1   -1    0    0    0  501  0.00000000000E+00  0.00000000000E+00  0.74158593631E+03  0.74158593633E+03  0.50400001928E-02 0.  1.
        1   -1    0    0  501    0  0.00000000000E+00  0.00000000000E+00 -0.26464673004E+04  0.26464673004E+04  0.50400001928E-02 0. -1.
    10030    2    1    2    0    0  0.00000000000E+00  0.00000000000E+00 -0.19048813641E+04  0.33880532367E+04  0.28018443432E+04 0.  0.
        4    1    3    3  502    0  0.12293775559E+04 -0.47054276596E+03 -0.15321133072E+04  0.20199387289E+04  0.12699999809E+01 0. -1.
       -4    1    3    3    0  502 -0.12293775559E+04  0.47054276596E+03 -0.37276805687E+03  0.13681145078E+04  0.12699999809E+01 0.  1.
</event>
<event>
 5   0  0.1814230E-05  0.2890001E+04  0.7818609E-02  0.8275859E-01
       -2   -1    0    0    0  501  0.00000000000E+00  0.00000000000E+00  0.12757881101E+04  0.12757881101E+04  0.25500000920E-02 0.  1.
        2   -1    0    0  501    0  0.00000000000E+00  0.00000000000E+00 -0.16366562356E+04  0.16366562356E+04  0.25500000920E-02 0. -1.
    10030    2    1    2    0    0  0.00000000000E+00  0.00000000000E+00 -0.36086812546E+03  0.29124443457E+04  0.28900010835E+04 0.  0.
        5    1    3    3  502    0  0.14609095598E+03  0.14222528637E+04 -0.39148510788E+03  0.14823725764E+04  0.46999998093E+01 0. -1.
       -5    1    3    3    0  502 -0.14609095598E+03 -0.14222528637E+04  0.30616982417E+02  0.14300717693E+04  0.46999998093E+01 0.  1.
</event>
<event>
 5   0  0.1904553E-05  0.2758266E+04  0.7818609E-02  0.8316344E-01
        2   -1    0    0  501    0  0.00000000000E+00  0.00000000000E+00  0.17916538289E+04  0.17916538289E+04  0.25500000920E-02 0.  1.
       -2   -1    0    0    0  501  0.00000000000E+00  0.00000000000E+00 -0.10615930167E+04  0.10615930167E+04  0.25500000920E-02 0. -1.
    10030    2    1    2    0    0  0.00000000000E+00  0.00000000000E+00  0.73006081213E+03  0.28532468456E+04  0.27582655370E+04 0.  0.
        1    1    3    3  502    0  0.22188190867E+03 -0.65477177918E+03 -0.86939775247E+03  0.11107700555E+04  0.50400001928E-02 0. -1.
       -1    1    3    3    0  502 -0.22188190867E+03  0.65477177918E+03  0.15994585646E+04  0.17424767901E+04  0.50400001928E-02 0.  1.
</event>
<event>
 5   0  0.7681342E-06  0.2444589E+04  0.7818609E-02  0.8422996E-01
       -1   -1    0    0    0  501  0.00000000000E+00  0.00000000000E+00  0.16825240199E+04  0.16825240200E+04  0.50400001928E-02 0.  1.
        1   -1    0    0  501    0  0.00000000000E+00  0.00000000000E+00 -0.88795405619E+03  0.88795405620E+03  0.50400001928E-02 0. -1.
    10030    2    1    2    0    0  0.00000000000E+00  0.00000000000E+00  0.79456996376E+03  0.25704780762E+04  0.24445891501E+04 0.  0.
        2    1    3    3  502    0  0.26601683135E+03 -0.72613557434E+03 -0.59801463683E+03  0.97757830006E+03  0.25500000920E-02 0. -1.
       -2    1    3    3    0  502 -0.26601683135E+03  0.72613557434E+03  0.13925846006E+04  0.15928997761E+04  0.25500000920E-02 0.  1.
</event>
<event>
 5   0  0.7613444E-06  0.2793949E+04  0.7818609E-02  0.8305149E-01
        1   -1    0    0  501    0  0.00000000000E+00  0.00000000000E+00  0.19619756889E+04  0.19619756889E+04  0.50400001928E-02 0.  1.
       -1   -1    0    0    0  501  0.00000000000E+00  0.00000000000E+00 -0.99467993421E+03  0.99467993422E+03  0.50400001928E-02 0. -1.
    10030    2    1    2    0    0  0.00000000000E+00  0.00000000000E+00  0.96729575466E+03  0.29566556231E+04  0.27939490684E+04 0.  0.
        5    1    3    3  502    0 -0.43380840172E+03  0.13275389320E+04  0.45075030739E+03  0.14675650837E+04  0.46999998093E+01 0.  1.
       -5    1    3    3    0  502  0.43380840172E+03 -0.13275389320E+04  0.51654544727E+03  0.14890905394E+04  0.46999998093E+01 0. -1.
</event>
<event>
 5   0  0.1874272E-05  0.2627026E+04  0.7818609E-02  0.8359079E-01
        2   -1    0    0  501    0  0.00000000000E+00  0.00000000000E+00  0.21116247998E+04  0.21116247998E+04  0.25500000920E-02 0.  1.
       -2   -1    0    0    0  501  0.00000000000E+00  0.00000000000E+00 -0.81705630889E+03  0.81705630889E+03  0.25500000920E-02 0. -1.
    10030    2    1    2    0    0  0.00000000000E+00  0.00000000000E+00  0.12945684909E+04  0.29286811087E+04  0.26270259722E+04 0.  0.
        3    1    3    3  502    0 -0.70687668100E+03  0.36714505225E+03  0.18116501652E+04  0.19790266453E+04  0.10100000352E+00 0.  1.
       -3    1    3    3    0  502  0.70687668100E+03 -0.36714505225E+03 -0.51708167437E+03  0.94965446332E+03  0.10100000352E+00 0. -1.
</event>
<event>
 5   0  0.1904553E-05  0.2791873E+04  0.7818609E-02  0.8305796E-01
       -2   -1    0    0    0  501  0.00000000000E+00  0.00000000000E+00  0.89762887433E+03  0.89762887433E+03  0.25500000920E-02 0.  1.
        2   -1    0    0  501    0  0.00000000000E+00  0.00000000000E+00 -0.21708736182E+04  0.21708736182E+04  0.25500000920E-02 0. -1.
    10030    2    1    2    0    0  0.00000000000E+00  0.00000000000E+00 -0.12732447439E+04  0.30685024926E+04  0.27918730933E+04 0.  0.
        1    1    3    3  502    0  0.11469626609E+04  0.59822402681E+03 -0.12132419067E+04  0.17735138161E+04  0.50400001928E-02 0. -1.
       -1    1    3    3    0  502 -0.11469626609E+04 -0.59822402681E+03 -0.60002837163E+02  0.12949886765E+04  0.50400001928E-02 0.  1.
</event>
<event>
 5   0  0.6288000E-06  0.2664296E+04  0.7818609E-02  0.8346683E-01
        3   -1    0    0  501    0  0.00000000000E+00  0.00000000000E+00  0.10844194838E+04  0.10844194885E+04  0.10100000352E+00 0.  1.
       -3   -1    0    0    0  501  0.00000000000E+00  0.00000000000E+00 -0.16364685260E+04  0.16364685291E+04  0.10100000352E+00 0. -1.
    10030    2    1    2    0    0  0.00000000000E+00  0.00000000000E+00 -0.55204904221E+03  0.27208880176E+04  0.26642960533E+04 0.  0.
        5    1    3    3  502    0  0.15662088617E+03  0.11199306101E+04 -0.99512720306E+03  0.15063448854E+04  0.46999998093E+01 0. -1.
       -5    1    3    3    0  502 -0.15662088617E+03 -0.11199306101E+04  0.44307816085E+03  0.12145431322E+04  0.46999998093E+01 0.  1.
</event>
<event>
 5   0  0.7681342E-06  0.2628125E+04  0.7818609E-02  0.8358710E-01
       -1   -1    0    0    0  501  0.00000000000E+00  0.00000000000E+00  0.16863064565E+04  0.16863064565E+04  0.50400001928E-02 0. -1.
        1   -1    0    0  501    0  0.00000000000E+00  0.00000000000E+00 -0.10239894584E+04  0.10239894585E+04  0.50400001928E-02 0.  1.
    10030    2    1    2    0    0  0.00000000000E+00  0.00000000000E+00  0.66231699802E+03  0.27102959149E+04  0.26281248335E+04 0.  0.
        2    1    3    3  502    0 -0.12231776879E+04 -0.46455753464E+03  0.45654397931E+03  0.13857884991E+04  0.25500000920E-02 0.  1.
       -2    1    3    3    0  502  0.12231776879E+04  0.46455753464E+03  0.20577301871E+03  0.13245074158E+04  0.25500000920E-02 0. -1.
</event>
<event>
 5   0  0.7613444E-06  0.2761638E+04  0.7818609E-02  0.8315278E-01
       -1   -1    0    0    0  501  0.00000000000E+00  0.00000000000E+00  0.74557862354E+03  0.74557862355E+03  0.50400001928E-02 0. -1.
        1   -1    0    0  501    0  0.00000000000E+00  0.00000000000E+00 -0.25572901715E+04  0.25572901715E+04  0.50400001928E-02 0.  1.
    10030    2    1    2    0    0  0.00000000000E+00  0.00000000000E+00 -0.18117115480E+04  0.33028687951E+04  0.27616378373E+04 0.  0.
        5    1    3    3  502    0  0.11658089585E+04 -0.32081735266E+03 -0.10839097494E+03  0.12140037046E+04  0.46999998093E+01 0. -1.
       -5    1    3    3    0  502 -0.11658089585E+04  0.32081735266E+03 -0.17033205730E+04  0.20888650904E+04  0.46999998093E+01 0.  1.
</event>
<event>
 5   0  0.7681342E-06  0.2460824E+04  0.7818609E-02  0.8417077E-01
       -1   -1    0    0    0  501  0.00000000000E+00  0.00000000000E+00  0.12681606807E+04  0.12681606807E+04  0.50400001928E-02 0.  1.
        1   -1    0    0  501    0  0.00000000000E+00  0.00000000000E+00 -0.11937864904E+04  0.11937864904E+04  0.50400001928E-02 0. -1.
    10030    2    1    2    0    0  0.00000000000E+00  0.00000000000E+00  0.74374190237E+02  0.24619471711E+04  0.24608235112E+04 0.  0.
        2    1    3    3  502    0 -0.11264118084E+04 -0.28459016423E+03 -0.36811264306E+03  0.12187296836E+04  0.25500000920E-02 0. -1.
       -2    1    3    3    0  502  0.11264118084E+04  0.28459016423E+03  0.44248683329E+03  0.12432174875E+04  0.25500000920E-02 0.  1.
</event>
<event>
 5   0  0.7613444E-06  0.2772267E+04  0.7818609E-02  0.8311930E-01
        1   -1    0    0  501    0  0.00000000000E+00  0.00000000000E+00  0.15303688928E+04  0.15303688928E+04  0.50400001928E-02 0.  1.
       -1   -1    0    0    0  501  0.00000000000E+00  0.00000000000E+00 -0.12554924462E+04  0.12554924462E+04  0.50400001928E-02 0. -1.
    10030    2    1    2    0    0  0.00000000000E+00  0.00000000000E+00  0.27487644665E+03  0.27858613390E+04  0.27722673643E+04 0.  0.
        5    1    3    3  502    0 -0.77562840594E+03  0.10748712192E+04 -0.27000888431E+03  0.13527285203E+04  0.46999998093E+01 0. -1.
       -5    1    3    3    0  502  0.77562840594E+03 -0.10748712192E+04  0.54488533097E+03  0.14331328187E+04  0.46999998093E+01 0.  1.
</event>
<event>
 5   0  0.7681342E-06  0.2453775E+04  0.7818609E-02  0.8419641E-01
        1   -1    0    0  501    0  0.00000000000E+00  0.00000000000E+00  0.17394694168E+04  0.17394694168E+04  0.50400001928E-02 0. -1.
       -1   -1    0    0    0  501  0.00000000000E+00  0.00000000000E+00 -0.86535179334E+03  0.86535179335E+03  0.50400001928E-02 0.  1.
    10030    2    1    2    0    0  0.00000000000E+00  0.00000000000E+00  0.87411762344E+03  0.26048212101E+04  0.24537750339E+04 0.  0.
        2    1    3    3  502    0 -0.52610064124E+03 -0.97779634511E+03  0.99109111903E+03  0.14883310060E+04  0.25500000920E-02 0. -1.
       -2    1    3    3    0  502  0.52610064124E+03  0.97779634511E+03 -0.11697349559E+03  0.11164902041E+04  0.25500000920E-02 0.  1.
</event>
<event>
 5   0  0.1874272E-05  0.2897565E+04  0.7818609E-02  0.8273602E-01
       -2   -1    0    0    0  501  0.00000000000E+00  0.00000000000E+00  0.11603734744E+04  0.11603734744E+04  0.25500000920E-02 0. -1.
        2   -1    0    0  501    0  0.00000000000E+00  0.00000000000E+00 -0.18088756624E+04  0.18088756624E+04  0.25500000920E-02 0.  1.
    10030    2    1    2    0    0  0.00000000000E+00  0.00000000000E+00 -0.64850218797E+03  0.29692491368E+04  0.28975654175E+04 0.  0.
        3    1    3    3  502    0 -0.61254482356E+01 -0.69013844762E+03  0.98109250311E+03  0.11995295360E+04  0.10100000352E+00 0. -1.
       -3    1    3    3    0  502  0.61254482356E+01  0.69013844762E+03 -0.16295946911E+04  0.17697196008E+04  0.10100000352E+00 0.  1.
</event>
<event>
 5   0  0.1832502E-05  0.2658168E+04  0.7818609E-02  0.8348707E-01
       -2   -1    0    0    0  501  0.00000000000E+00  0.00000000000E+00  0.72573035820E+03  0.72573035820E+03  0.25500000920E-02 0. -1.
        2   -1    0    0  501    0  0.00000000000E+00  0.00000000000E+00 -0.24340497648E+04  0.24340497648E+04  0.25500000920E-02 0.  1.
    10030    2    1    2    0    0  0.00000000000E+00  0.00000000000E+00 -0.17083194066E+04  0.31597801230E+04  0.26581676454E+04 0.  0.
        2    1    3    3  502    0 -0.27195780109E+03 -0.10481428927E+04  0.61914976596E+02  0.10846188424E+04  0.25500000920E-02 0. -1.
       -2    1    3    3    0  502  0.27195780109E+03  0.10481428927E+04 -0.17702343832E+04  0.20751612806E+04  0.25500000920E-02 0.  1.
</event>
<event>
 5   0  0.1904553E-05  0.2822837E+04  0.7818609E-02  0.8296213E-01
        2   -1    0    0  501    0  0.00000000000E+00  0.00000000000E+00  0.23938243637E+04  0.23938243637E+04  0.25500000920E-02 0. -1.
       -2   -1    0    0    0  501  0.00000000000E+00  0.00000000000E+00 -0.83218394777E+03  0.83218394778E+03  0.25500000920E-02 0.  1.
    10030    2    1    2    0    0  0.00000000000E+00  0.00000000000E+00  0.15616404159E+04  0.32260083115E+04  0.28228370192E+04 0.  0.
        1    1    3    3  502    0 -0.79834315027E+03  0.11548049558E+04  0.61451685542E+03  0.15325003220E+04  0.50400001928E-02 0. -1.
       -1    1    3    3    0  502  0.79834315027E+03 -0.11548049558E+04  0.94712356053E+03  0.16935079895E+04  0.50400001928E-02 0.  1.
</event>
<event>
 5   0  0.7681342E-06  0.2826689E+04  0.7818609E-02  0.8295030E-01
       -1   -1    0    0    0  501  0.00000000000E+00  0.00000000000E+00  0.22029811173E+04  0.22029811173E+04  0.50400001928E-02 0. -1.
        1   -1    0    0  501    0  0.00000000000E+00  0.00000000000E+00 -0.90674547587E+03  0.90674547588E+03  0.50400001928E-02 0.  1.
    10030    2    1    2    0    0  0.00000000000E+00  0.00000000000E+00  0.12962356415E+04  0.31097265932E+04  0.28266893438E+04 0.  0.
        2    1    3    3  502    0  0.38763185947E+03  0.73130109990E+03  0.19084674450E+04  0.20802181967E+04  0.25500000920E-02 0. -1.
       -2    1    3    3    0  502 -0.38763185947E+03 -0.73130109990E+03 -0.61223180356E+03  0.10295083965E+04  0.25500000920E-02 0.  1.
</event>
<event>
 5   0  0.1923559E-05  0.2780349E+04  0.7818609E-02  0.8309395E-01
        2   -1    0    0  501    0  0.00000000000E+00  0.00000000000E+00  0.16411245253E+04  0.16411245253E+04  0.25500000920E-02 0.  1.
       -2   -1    0    0    0  501  0.00000000000E+00  0.00000000000E+00 -0.11775982456E+04  0.11775982456E+04  0.25500000920E-02 0. -1.
    10030    2    1    2    0    0  0.00000000000E+00  0.00000000000E+00  0.46352627972E+03  0.28187227708E+04  0.27803491592E+04 0.  0.
        4    1    3    3  502    0 -0.12344412299E+04 -0.14957759503E+02 -0.41620993055E+03  0.13028051289E+04  0.12699999809E+01 0. -1.
       -4    1    3    3    0  502  0.12344412299E+04  0.14957759503E+02  0.87973621026E+03  0.15159176420E+04  0.12699999809E+01 0.  1.
</event>
<event>
 5   0  0.7388013E-06  0.2890465E+04  0.7818609E-02  0.8275720E-01
       -1   -1    0    0    0  501  0.00000000000E+00  0.00000000000E+00  0.89462000053E+03  0.89462000055E+03  0.50400001928E-02 0.  1.
        1   -1    0    0  501    0  0.00000000000E+00  0.00000000000E+00 -0.23347317169E+04  0.23347317169E+04  0.50400001928E-02 0. -1.
    10030    2    1    2    0    0  0.00000000000E+00  0.00000000000E+00 -0.14401117163E+04  0.32293517174E+04  0.28904654918E+04 0.  0.
        1    1    3    3  502    0 -0.62388349165E+03 -0.25059404107E+03  0.70925956741E+03  0.97728047078E+03  0.50400001928E-02 0.  1.
       -1    1    3    3    0  502  0.62388349165E+03  0.25059404107E+03 -0.21493712837E+04  0.22520712467E+04  0.50400001928E-02 0. -1.
</event>
<event>
 5   0  0.7509685E-06  0.2776333E+04  0.7818609E-02  0.8310654E-01
        1   -1    0    0  501    0  0.00000000000E+00  0.00000000000E+00  0.15263702092E+04  0.15263702092E+04  0.50400001928E-02 0. -1.
       -1   -1    0    0    0  501  0.00000000000E+00  0.00000000000E+00 -0.12624765866E+04  0.12624765866E+04  0.50400001928E-02 0.  1.
    10030    2    1    2    0    0  0.00000000000E+00  0.00000000000E+00  0.26389362261E+03  0.27888467958E+04  0.27763333024E+04 0.  0.
        4    1    3    3  502    0 -0.10693640714E+04 -0.83851633878E+03 -0.15280196160E+03  0.13674791479E+04  0.12699999809E+01 0. -1.
       -4    1    3    3    0  502  0.10693640714E+04  0.83851633878E+03  0.41669558420E+03  0.14213676479E+04  0.12699999809E+01 0.  1.
</event>
<event>
 5   0  0.1874272E-05  0.1863165E+04  0.7818609E-02  0.8673412E-01
       -2   -1    0    0    0  501  0.00000000000E+00  0.00000000000E+00  0.86096873723E+03  0.86096873723E+03  0.25500000920E-02 0. -1.
        2   -1    0    0  501    0  0.00000000000E+00  0.00000000000E+00 -0.10079874785E+04  0.10079874785E+04  0.25500000920E-02 0.  1.
    10030    2    1    2    0    0  0.00000000000E+00  0.00000000000E+00 -0.14701874129E+03  0.18689562158E+04  0.18631647340E+04 0.  0.
        3    1    3    3  502    0 -0.61561367892E+03 -0.56210571772E+03 -0.49061754897E+03  0.96728932028E+03  0.10100000352E+00 0.  1.
       -3    1    3    3    0  502  0.61561367892E+03  0.56210571772E+03  0.34359880768E+03  0.90166689548E+03  0.10100000352E+00 0. -1.
</event>
<event>
 5   0  0.7613444E-06  0.2752567E+04  0.7818609E-02  0.8318148E-01
       -1   -1    0    0    0  501  0.00000000000E+00  0.00000000000E+00  0.14378666528E+04  0.14378666528E+04  0.50400001928E-02 0. -1.
        1   -1    0    0  501    0  0.00000000000E+00  0.00000000000E+00 -0.13173376564E+04  0.13173376564E+04  0.50400001928E-02 0.  1.
    10030    2    1    2    0    0  0.00000000000E+00  0.00000000000E+00  0.12052899634E+03  0.27552043092E+04  0.27525667197E+04 0.  0.
        5    1    3    3  502    0  0.10012719284E+04  0.92877812549E+03  0.23060252074E+03  0.13850537511E+04  0.46999998093E+01 0.  1.
       -5    1    3    3    0  502 -0.10012719284E+04 -0.92877812549E+03 -0.11007352440E+03  0.13701505581E+04  0.46999998093E+01 0. -1.
</event>
<event>
 5   0  0.1874272E-05  0.2980741E+04  0.7818609E-02  0.8249252E-01
       -2   -1    0    0    0  501  0.00000000000E+00  0.00000000000E+00  0.18284884544E+04  0.18284884544E+04  0.25500000920E-02 0. -1.
        2   -1    0    0  501    0  0.00000000000E+00  0.00000000000E+00 -0.12147759786E+04  0.12147759786E+04  0.25500000920E-02 0.  1.
    10030    2    1    2    0    0  0.00000000000E+00  0.00000000000E+00  0.61371247586E+03  0.30432644330E+04  0.29807407479E+04 0.  0.
        3    1    3    3  502    0 -0.27122334937E+03 -0.89555530987E+03  0.14911981362E+04  0.17604696277E+04  0.10100000352E+00 0. -1.
       -3    1    3    3    0  502  0.27122334937E+03  0.89555530987E+03 -0.87748566034E+03  0.12827948053E+04  0.10100000352E+00 0.  1.
</event>
<event>
 5   0  0.7509685E-06  0.2768645E+04  0.7818609E-02  0.8313069E-01
        1   -1    0    0  501    0  0.00000000000E+00  0.00000000000E+00  0.12776289239E+04  0.12776289239E+04  0.50400001928E-02 0. -1.
       -1   -1    0    0    0  501  0.00000000000E+00  0.00000000000E+00 -0.14999264363E+04  0.14999264363E+04  0.50400001928E-02 0.  1.
    10030    2    1    2    0    0  0.00000000000E+00  0.00000000000E+00 -0.22229751232E+03  0.27775553602E+04  0.27686454441E+04 0.  0.
        4    1    3    3  502    0  0.10246019709E+04  0.47703224891E+03  0.69078521707E+03  0.13245960872E+04  0.12699999809E+01 0. -1.
       -4    1    3    3    0  502 -0.10246019709E+04 -0.47703224891E+03 -0.91308272938E+03  0.14529592730E+04  0.12699999809E+01 0.  1.
</event>
<event>
 5   0  0.7613444E-06  0.2658053E+04  0.7818609E-02  0.8348745E-01
        1   -1    0    0  501    0  0.00000000000E+00  0.00000000000E+00  0.64039066112E+03  0.64039066114E+03  0.50400001928E-02 0.  1.
       -1   -1    0    0    0  501  0.00000000000E+00  0.00000000000E+00 -0.27581787608E+04  0.27581787608E+04  0.50400001928E-02 0. -1.
    10030    2    1    2    0    0  0.00000000000E+00  0.00000000000E+00 -0.21177880997E+04  0.33985694219E+04  0.26580533630E+04 0.  0.
        5    1    3    3  502    0 -0.48405529177E+03  0.74910772162E+03 -0.23186932941E+04  0.24843173280E+04  0.46999998093E+01 0. -1.
       -5    1    3    3    0  502  0.48405529177E+03 -0.74910772162E+03  0.20090519445E+03  0.91425209392E+03  0.46999998093E+01 0.  1.
</event>
<event>
 5   0  0.1814230E-05  0.2783918E+04  0.7818609E-02  0.8308279E-01
       -2   -1    0    0    0  501  0.00000000000E+00  0.00000000000E+00  0.10389509950E+04  0.10389509950E+04  0.25500000920E-02 0. -1.
        2   -1    0    0  501    0  0.00000000000E+00  0.00000000000E+00 -0.18649098640E+04  0.18649098640E+04  0.25500000920E-02 0.  1.
    10030    2    1    2    0    0  0.00000000000E+00  0.00000000000E+00 -0.82595886894E+03  0.29038608590E+04  0.27839180727E+04 0.  0.
        5    1    3    3  502    0 -0.27596490478E+03 -0.29119665137E+03 -0.18032880611E+04  0.18473824833E+04  0.46999998093E+01 0.  1.
       -5    1    3    3    0  502  0.27596490478E+03  0.29119665137E+03  0.97732919216E+03  0.10564783757E+04  0.46999998093E+01 0. -1.
</event>
<event>
 5   0  0.7388013E-06  0.2818771E+04  0.7818609E-02  0.8297464E-01
        1   -1    0    0  501    0  0.00000000000E+00  0.00000000000E+00  0.23903284350E+04  0.23903284350E+04  0.50400001928E-02 0. -1.
       -1   -1    0    0    0  501  0.00000000000E+00  0.00000000000E+00 -0.83100187747E+03  0.83100187749E+03  0.50400001928E-02 0.  1.
    10030    2    1    2    0    0  0.00000000000E+00  0.00000000000E+00  0.15593265575E+04  0.32213303125E+04  0.28187709501E+04 0.  0.
        1    1    3    3  502    0 -0.67249777552E+03  0.64475253841E+03  0.19882440144E+04  0.21956942763E+04  0.50400001928E-02 0. -1.
       -1    1    3    3    0  502  0.67249777552E+03 -0.64475253841E+03 -0.42891745693E+03  0.10256360362E+04  0.50400001928E-02 0.  1.
</event>
<event>
 5   0  0.1814230E-05  0.2848368E+04  0.7818609E-02  0.8288408E-01
        2   -1    0    0  501    0  0.00000000000E+00  0.00000000000E+00  0.16673418372E+04  0.16673418372E+04  0.25500000920E-02 0. -1.
       -2   -1    0    0    0  501  0.00000000000E+00  0.00000000000E+00 -0.12164868633E+04  0.12164868633E+04  0.25500000920E-02 0.  1.
    10030    2    1    2    0    0  0.00000000000E+00  0.00000000000E+00  0.45085497390E+03  0.28838287005E+04  0.28483675616E+04 0.  0.
        5    1    3    3  502    0  0.10162806665E+04  0.78341865790E+03  0.85094290028E+03  0.15397068215E+04  0.46999998093E+01 0. -1.
       -5    1    3    3    0  502 -0.10162806665E+04 -0.78341865790E+03 -0.40008792639E+03  0.13441218790E+04  0.46999998093E+01 0.  1.
</event>
<event>
 5   0  0.7681342E-06  0.2839772E+04  0.7818609E-02  0.8291026E-01
       -1   -1    0    0    0  501  0.00000000000E+00  0.00000000000E+00  0.14594161855E+04  0.14594161855E+04  0.50400001928E-02 0. -1.
        1   -1    0    0  501    0  0.00000000000E+00  0.00000000000E+00 -0.13814267622E+04  0.13814267622E+04  0.50400001928E-02 0.  1.
    10030    2    1    2    0    0  0.00000000000E+00  0.00000000000E+00  0.77989423262E+02  0.28408429477E+04  0.28397722274E+04 0.  0.
        2    1    3    3  502    0  0.13535112799E+03  0.49815344798E+03  0.13622178193E+04  0.14567478069E+04  0.25500000920E-02 0. -1.
       -2    1    3    3    0  502 -0.13535112799E+03 -0.49815344798E+03 -0.12842283961E+04  0.13840951408E+04  0.25500000920E-02 0.  1.
</event>
<event>
 5   0  0.7555871E-06  0.2756098E+04  0.7818609E-02  0.8317029E-01
        1   -1    0    0  501    0  0.00000000000E+00  0.00000000000E+00  0.11400406519E+04  0.11400406519E+04  0.50400001928E-02 0.  1.
       -1   -1    0    0    0  501  0.00000000000E+00  0.00000000000E+00 -0.16657466806E+04  0.16657466806E+04  0.50400001928E-02 0. -1.
    10030    2    1    2    0    0  0.00000000000E+00  0.00000000000E+00 -0.52570602864E+03  0.28057873325E+04  0.27560979168E+04 0.  0.
        3    1    3    3  502    0 -0.61913107635E+03  0.89406453546E+03 -0.11244833747E+04  0.15643329420E+04  0.10100000352E+00 0. -1.
       -3    1    3    3    0  502  0.61913107635E+03 -0.89406453546E+03  0.59877734609E+03  0.12414543905E+04  0.10100000352E+00 0.  1.
</event>
<event>
 5   0  0.7613444E-06  0.2544420E+04  0.7818609E-02  0.8387329E-01
        1   -1    0    0  501    0  0.00000000000E+00  0.00000000000E+00  0.18556991704E+04  0.18556991704E+04  0.50400001928E-02 0.  1.
       -1   -1    0    0    0  501  0.00000000000E+00  0.00000000000E+00 -0.87218788981E+03  0.87218788983E+03  0.50400001928E-02 0. -1.
    10030    2    1    2    0    0  0.00000000000E+00  0.00000000000E+00  0.98351128058E+03  0.27278870602E+04  0.25444200468E+04 0.  0.
        5    1    3    3  502    0  0.43410188065E+03  0.11886305246E+04  0.63239892892E+03  0.14146510036E+04  0.46999998093E+01 0.  1.
       -5    1    3    3    0  502 -0.43410188065E+03 -0.11886305246E+04  0.35111235166E+03  0.13132360566E+04  0.46999998093E+01 0. -1.
</event>
<event>
 5   0  0.1832502E-05  0.2786301E+04  0.7818609E-02  0.8307534E-01
        2   -1    0    0  501    0  0.00000000000E+00  0.00000000000E+00  0.21730413356E+04  0.21730413356E+04  0.25500000920E-02 0.  1.
       -2   -1    0    0    0  501  0.00000000000E+00  0.00000000000E+00 -0.89315733064E+03  0.89315733064E+03  0.25500000920E-02 0. -1.
    10030    2    1    2    0    0  0.00000000000E+00  0.00000000000E+00  0.12798840050E+04  0.30661986663E+04  0.27863006289E+04 0.  0.
        2    1    3    3  502    0  0.10557523115E+04 -0.88411437884E+03  0.40754886859E+03  0.14360944462E+04  0.25500000920E-02 0. -1.
       -2    1    3    3    0  502 -0.10557523115E+04  0.88411437884E+03  0.87233513640E+03  0.16301042201E+04  0.25500000920E-02 0.  1.
</event>
<event>
 5   0  0.1904553E-05  0.2984777E+04  0.7818609E-02  0.8248091E-01
        2   -1    0    0  501    0  0.00000000000E+00  0.00000000000E+00  0.18825720158E+04  0.18825720158E+04  0.25500000920E-02 0. -1.
       -2   -1    0    0    0  501  0.00000000000E+00  0.00000000000E+00 -0.11830749830E+04  0.11830749830E+04  0.25500000920E-02 0.  1.
    10030    2    1    2    0    0  0.00000000000E+00  0.00000000000E+00  0.69949703278E+03  0.30656469988E+04  0.29847772819E+04 0.  0.
        1    1    3    3  502    0  0.12568556890E+03 -0.11523407727E+04  0.13151829105E+04  0.17531092969E+04  0.50400001928E-02 0. -1.
       -1    1    3    3    0  502 -0.12568556890E+03  0.11523407727E+04 -0.61568587776E+03  0.13125377019E+04  0.50400001928E-02 0.  1.
</event>
<event>
 5   0  0.7388013E-06  0.2540709E+04  0.7818609E-02  0.8388625E-01
       -1   -1    0    0    0  501  0.00000000000E+00  0.00000000000E+00  0.14892134152E+04  0.14892134152E+04  0.50400001928E-02 0. -1.
        1   -1    0    0  501    0  0.00000000000E+00  0.00000000000E+00 -0.10836598915E+04  0.10836598915E+04  0.50400001928E-02 0.  1.
    10030    2    1    2    0    0  0.00000000000E+00  0.00000000000E+00  0.40555352371E+03  0.25728733067E+04  0.25407092301E+04 0.  0.
        1    1    3    3  502    0  0.78410103039E+03 -0.79675767388E+03  0.81387597054E+03  0.13827622038E+04  0.50400001928E-02 0. -1.
       -1    1    3    3    0  502 -0.78410103039E+03  0.79675767388E+03 -0.40832244683E+03  0.11901111029E+04  0.50400001928E-02 0.  1.
</event>
<event>
 5   0  0.7555871E-06  0.2844165E+04  0.7818609E-02  0.8289687E-01
       -1   -1    0    0    0  501  0.00000000000E+00  0.00000000000E+00  0.16801693620E+04  0.16801693620E+04  0.50400001928E-02 0. -1.
        1   -1    0    0  501    0  0.00000000000E+00  0.00000000000E+00 -0.12036398500E+04  0.12036398500E+04  0.50400001928E-02 0.  1.
    10030    2    1    2    0    0  0.00000000000E+00  0.00000000000E+00  0.47652951197E+03  0.28838092120E+04  0.28441651139E+04 0.  0.
        3    1    3    3  502    0  0.25822063591E+03  0.10874982081E+03 -0.11753761825E+04  0.12083102254E+04  0.10100000352E+00 0.  1.
       -3    1    3    3    0  502 -0.25822063591E+03 -0.10874982081E+03  0.16519056944E+04  0.16754989865E+04  0.10100000352E+00 0. -1.
</event>
<event>
 5   0  0.7555871E-06  0.2791710E+04  0.7818609E-02  0.8305847E-01
       -1   -1    0    0    0  501  0.00000000000E+00  0.00000000000E+00  0.73387223766E+03  0.73387223768E+03  0.50400001928E-02 0. -1.
        1   -1    0    0  501    0  0.00000000000E+00  0.00000000000E+00 -0.26549733346E+04  0.26549733346E+04  0.50400001928E-02 0.  1.
    10030    2    1    2    0    0  0.00000000000E+00  0.00000000000E+00 -0.19211010970E+04  0.33888455723E+04  0.27917100294E+04 0.  0.
        3    1    3    3  502    0 -0.11683752790E+04 -0.39569951266E+03 -0.16757601917E+03  0.12448938225E+04  0.10100000352E+00 0. -1.
       -3    1    3    3    0  502  0.11683752790E+04  0.39569951266E+03 -0.17535250778E+04  0.21439517498E+04  0.10100000352E+00 0.  1.
</event>
<event>
 5   0  0.7509685E-06  0.2655596E+04  0.7818609E-02  0.8349558E-01
       -1   -1    0    0    0  501  0.00000000000E+00  0.00000000000E+00  0.19648849100E+04  0.19648849100E+04  0.50400001928E-02 0.  1.
        1   -1    0    0  501    0  0.00000000000E+00  0.00000000000E+00 -0.89727770448E+03  0.89727770450E+03  0.50400001928E-02 0. -1.
    10030    2    1    2    0    0  0.00000000000E+00  0.00000000000E+00  0.10676072056E+04  0.28621626145E+04  0.26555959193E+04 0.  0.
        4    1    3    3  502    0 -0.33223831071E+02 -0.12384713743E+04  0.19020690594E+02  0.12390635849E+04  0.12699999809E+01 0. -1.
       -4    1    3    3    0  502  0.33223831071E+02  0.12384713743E+04  0.10485865150E+04  0.16230990297E+04  0.12699999809E+01 0.  1.
</event>
<event>
 5   0  0.1904553E-05  0.2826010E+04  0.7818609E-02  0.8295239E-01
       -2   -1    0    0    0  501  0.00000000000E+00  0.00000000000E+00  0.13511773676E+04  0.13511773676E+04  0.25500000920E-02 0.  1.
        2   -1    0    0  501    0  0.00000000000E+00  0.00000000000E+00 -0.14776617467E+04  0.14776617467E+04  0.25500000920E-02 0. -1.
    10030    2    1    2    0    0  0.00000000000E+00  0.00000000000E+00 -0.12648437908E+03  0.28288391143E+04  0.28260099852E+04 0.  0.
        1    1    3    3  502    0  0.92281139795E+03 -0.27306829088E+03 -0.10988966923E+04  0.14607262262E+04  0.50400001928E-02 0. -1.
       -1    1    3    3    0  502 -0.92281139795E+03  0.27306829088E+03  0.97241231321E+03  0.13681128881E+04  0.50400001928E-02 0.  1.
</event>
<event>
 5   0  0.1874272E-05  0.2684894E+04  0.7818609E-02  0.8339923E-01
       -2   -1    0    0    0  501  0.00000000000E+00  0.00000000000E+00  0.12001929129E+04  0.12001929129E+04  0.25500000920E-02 0.  1.
        2   -1    0    0  501    0  0.00000000000E+00  0.00000000000E+00 -0.15015618418E+04  0.15015618418E+04  0.25500000920E-02 0. -1.
    10030    2    1    2    0    0  0.00000000000E+00  0.00000000000E+00 -0.30136892885E+03  0.27017547547E+04  0.26848939501E+04 0.  0.
        3    1    3    3  502    0 -0.58019456310E+03  0.85036361923E+03  0.71636440649E+03  0.12541618672E+04  0.10100000352E+00 0.  1.
       -3    1    3    3    0  502  0.58019456310E+03 -0.85036361923E+03 -0.10177333353E+04  0.14475928875E+04  0.10100000352E+00 0. -1.
</event>
<event>
 5   0  0.7555871E-06  0.2757033E+04  0.7818609E-02  0.8316733E-01
        1   -1    0    0  501    0  0.00000000000E+00  0.00000000000E+00  0.10226954061E+04  0.10226954061E+04  0.50400001928E-02 0.  1.
       -1   -1    0    0    0  501  0.00000000000E+00  0.00000000000E+00 -0.18581366125E+04  0.18581366125E+04  0.50400001928E-02 0. -1.
    10030    2    1    2    0    0  0.00000000000E+00  0.00000000000E+00 -0.83544120634E+03  0.28808320186E+04  0.27570330267E+04 0.  0.
        3    1    3    3  502    0 -0.53105182957E+03  0.11855456241E+04  0.64265510431E+02  0.13006400496E+04  0.10100000352E+00 0.  1.
       -3    1    3    3    0  502  0.53105182957E+03 -0.11855456241E+04 -0.89970671677E+03  0.15801919690E+04  0.10100000352E+00 0. -1.
</event>
<event>
 5   0  0.1923559E-05  0.2818267E+04  0.7818609E-02  0.8297619E-01
        2   -1    0    0  501    0  0.00000000000E+00  0.00000000000E+00  0.12197237365E+04  0.12197237365E+04  0.25500000920E-02 0. -1.
       -2   -1    0    0    0  501  0.00000000000E+00  0.00000000000E+00 -0.16279570834E+04  0.16279570834E+04  0.25500000920E-02 0.  1.
    10030    2    1    2    0    0  0.00000000000E+00  0.00000000000E+00 -0.40823334686E+03  0.28476808199E+04  0.28182674796E+04 0.  0.
        4    1    3    3  502    0  0.13910040952E+04 -0.57394359075E+02  0.16032826131E+02  0.13922805643E+04  0.12699999809E+01 0. -1.
       -4    1    3    3    0  502 -0.13910040952E+04  0.57394359075E+02 -0.42426617299E+03  0.14554002555E+04  0.12699999809E+01 0.  1.
</event>
<event>
 5   0  0.7555871E-06  0.2767990E+04  0.7818609E-02  0.8313276E-01
        1   -1    0    0  501    0  0.00000000000E+00  0.00000000000E+00  0.12724187304E+04  0.12724187304E+04  0.50400001928E-02 0. -1.
       -1   -1    0    0    0  501  0.00000000000E+00  0.00000000000E+00 -0.15053553343E+04  0.15053553343E+04  0.50400001928E-02 0.  1.
    10030    2    1    2    0    0  0.00000000000E+00  0.00000000000E+00 -0.23293660387E+03  0.27777740647E+04  0.27679901180E+04 0.  0.
        3    1    3    3  502    0 -0.10610191524E+04 -0.75111777528E+02  0.77212121752E+03  0.13143723238E+04  0.10100000352E+00 0. -1.
       -3    1    3    3    0  502  0.10610191524E+04  0.75111777528E+02 -0.10050578214E+04  0.14634017409E+04  0.10100000352E+00 0.  1.
</event>
<event>
 5   0  0.7555871E-06  0.2816966E+04  0.7818609E-02  0.8298021E-01
        1   -1    0    0  501    0  0.00000000000E+00  0.00000000000E+00  0.18773482201E+04  0.18773482201E+04  0.50400001928E-02 0. -1.
       -1   -1    0    0    0  501  0.00000000000E+00  0.00000000000E+00 -0.10567159166E+04  0.10567159166E+04  0.50400001928E-02 0.  1.
    10030    2    1    2    0    0  0.00000000000E+00  0.00000000000E+00  0.82063230343E+03  0.29340641367E+04  0.28169655626E+04 0.  0.
        3    1    3    3  502    0  0.29072411521E+03 -0.11047587812E+04 -0.44783261730E+03  0.12270152970E+04  0.10100000352E+00 0.  1.
       -3    1    3    3    0  502 -0.29072411521E+03  0.11047587812E+04  0.12684649207E+04  0.17070488397E+04  0.10100000352E+00 0. -1.
</event>
<event>
 5   0  0.1814230E-05  0.2852533E+04  0.7818609E-02  0.8287142E-01
       -2   -1    0    0    0  501  0.00000000000E+00  0.00000000000E+00  0.87346561660E+03  0.87346561660E+03  0.25500000920E-02 0. -1.
        2   -1    0    0  501    0  0.00000000000E+00  0.00000000000E+00 -0.23289257169E+04  0.23289257169E+04  0.25500000920E-02 0.  1.
    10030    2    1    2    0    0  0.00000000000E+00  0.00000000000E+00 -0.14554601003E+04  0.32023913335E+04  0.28525332863E+04 0.  0.
        5    1    3    3  502    0  0.49140442215E+03  0.57982910594E+03 -0.20826200781E+04  0.22169818623E+04  0.46999998093E+01 0.  1.
       -5    1    3    3    0  502 -0.49140442215E+03 -0.57982910594E+03  0.62715997777E+03  0.98540947120E+03  0.46999998093E+01 0. -1.
</event>
<event>
 5   0  0.7509685E-06  0.2737509E+04  0.7818609E-02  0.8322936E-01
       -1   -1    0    0    0  501  0.00000000000E+00  0.00000000000E+00  0.69490481137E+03  0.69490481138E+03  0.50400001928E-02 0. -1.
        1   -1    0    0  501    0  0.00000000000E+00  0.00000000000E+00 -0.26960362950E+04  0.26960362950E+04  0.50400001928E-02 0.  1.
    10030    2    1    2    0    0  0.00000000000E+00  0.00000000000E+00 -0.20011314836E+04  0.33909411063E+04  0.27375087894E+04 0.  0.
        4    1    3    3  502    0 -0.95560182007E+03 -0.66035842290E+03 -0.10369605721E+03  0.11661914810E+04  0.12699999809E+01 0. -1.
       -4    1    3    3    0  502  0.95560182007E+03  0.66035842290E+03 -0.18974354264E+04  0.22247496253E+04  0.12699999809E+01 0.  1.
</event>
<event>
 5   0  0.7555871E-06  0.2752836E+04  0.7818609E-02  0.8318062E-01
       -1   -1    0    0    0  501  0.00000000000E+00  0.00000000000E+00  0.18624982626E+04  0.18624982626E+04  0.50400001928E-02 0. -1.
        1   -1    0    0  501    0  0.00000000000E+00  0.00000000000E+00 -0.10171964853E+04  0.10171964853E+04  0.50400001928E-02 0.  1.
    10030    2    1    2    0    0  0.00000000000E+00  0.00000000000E+00  0.84530177729E+03  0.28796947480E+04  0.27528361278E+04 0.  0.
        3    1    3    3  502    0  0.11572228541E+04 -0.24005398109E+03  0.11606666455E+04  0.16564835405E+04  0.10100000352E+00 0. -1.
       -3    1    3    3    0  502 -0.11572228541E+04  0.24005398109E+03 -0.31536486816E+03  0.12232112075E+04  0.10100000352E+00 0.  1.
</event>
<event>
 5   0  0.1832502E-05  0.2845208E+04  0.7818609E-02  0.8289369E-01
       -2   -1    0    0    0  501  0.00000000000E+00  0.00000000000E+00  0.11735159715E+04  0.11735159715E+04  0.25500000920E-02 0. -1.
        2   -1    0    0  501    0  0.00000000000E+00  0.00000000000E+00 -0.17245634332E+04  0.17245634332E+04  0.25500000920E-02 0.  1.
    10030    2    1    2    0    0  0.00000000000E+00  0.00000000000E+00 -0.55104746172E+03  0.28980794047E+04  0.28452084161E+04 0.  0.
        2    1    3    3  502    0 -0.33367667527E+03 -0.72878137799E+03  0.92162067099E+03  0.12214119214E+04  0.25500000920E-02 0. -1.
       -2    1    3    3    0  502  0.33367667527E+03  0.72878137799E+03 -0.14726681327E+04  0.16766674833E+04  0.25500000920E-02 0.  1.
</event>
<event>
 5   0  0.7388013E-06  0.2963785E+04  0.7818609E-02  0.8254149E-01
        1   -1    0    0  501    0  0.00000000000E+00  0.00000000000E+00  0.15309178775E+04  0.15309178775E+04  0.50400001928E-02 0. -1.
       -1   -1    0    0    0  501  0.00000000000E+00  0.00000000000E+00 -0.14344366304E+04  0.14344366304E+04  0.50400001928E-02 0.  1.
    10030    2    1    2    0    0  0.00000000000E+00  0.00000000000E+00  0.96481247163E+02  0.29653545079E+04  0.29637845277E+04 0.  0.
        1    1    3    3  502    0 -0.42222769866E+03 -0.99160208337E+03  0.10658603931E+04  0.15157866931E+04  0.50400001928E-02 0. -1.
       -1    1    3    3    0  502  0.42222769866E+03  0.99160208337E+03 -0.96937914596E+03  0.14495678149E+04  0.50400001928E-02 0.  1.
</event>
<event>
 5   0  0.1904553E-05  0.2799394E+04  0.7818609E-02  0.8303456E-01
        2   -1    0    0  501    0  0.00000000000E+00  0.00000000000E+00  0.98561520159E+03  0.98561520159E+03  0.25500000920E-02 0.  1.
       -2   -1    0    0    0  501  0.00000000000E+00  0.00000000000E+00 -0.19877454979E+04  0.19877454979E+04  0.25500000920E-02 0. -1.
    10030    2    1    2    0    0  0.00000000000E+00  0.00000000000E+00 -0.10021302963E+04  0.29733606995E+04  0.27993943485E+04 0.  0.
        1    1    3    3  502    0 -0.12728187896E+03  0.12489338712E+04  0.15636328570E+03  0.12651031454E+04  0.50400001928E-02 0.  1.
       -1    1    3    3    0  502  0.12728187896E+03 -0.12489338712E+04 -0.11584935820E+04  0.17082575541E+04  0.50400001928E-02 0. -1.
</event>
<event>
 5   0  0.7681342E-06  0.2394358E+04  0.7818609E-02  0.8441619E-01
       -1   -1    0    0    0  501  0.00000000000E+00  0.00000000000E+00  0.12368486847E+04  0.12368486847E+04  0.50400001928E-02 0.  1.
        1   -1    0    0  501    0  0.00000000000E+00  0.00000000000E+00 -0.11587816650E+04  0.11587816650E+04  0.50400001928E-02 0. -1.
    10030    2    1    2    0    0  0.00000000000E+00  0.00000000000E+00  0.78067019712E+02  0.23956303497E+04  0.23943580168E+04 0.  0.
        2    1    3    3  502    0 -0.11379955551E+04  0.12452414115E+03  0.38950157897E+03  0.12092359676E+04  0.25500000920E-02 0.  1.
       -2    1    3    3    0  502  0.11379955551E+04 -0.12452414115E+03 -0.31143455926E+03  0.11863943821E+04  0.25500000920E-02 0. -1.
</event>
<event>
 5   0  0.7509685E-06  0.2773921E+04  0.7818609E-02  0.8311411E-01
        1   -1    0    0  501    0  0.00000000000E+00  0.00000000000E+00  0.10027156617E+04  0.10027156618E+04  0.50400001928E-02 0.  1.
       -1   -1    0    0    0  501  0.00000000000E+00  0.00000000000E+00 -0.19184494479E+04  0.19184494479E+04  0.50400001928E-02 0. -1.
    10030    2    1    2    0    0  0.00000000000E+00  0.00000000000E+00 -0.91573378616E+03  0.29211651097E+04  0.27739209129E+04 0.  0.
        4    1    3    3  502    0 -0.19978884676E+03  0.13676218107E+04 -0.33617924879E+03  0.14224356227E+04  0.12699999809E+01 0. -1.
       -4    1    3    3    0  502  0.19978884676E+03 -0.13676218107E+04 -0.57955453737E+03  0.14987294870E+04  0.12699999809E+01 0.  1.
</event>
<event>
 5   0  0.1874272E-05  0.2819908E+04  0.7818609E-02  0.8297114E-01
       -2   -1    0    0    0  501  0.00000000000E+00  0.00000000000E+00  0.16211863703E+04  0.16211863703E+04  0.25500000920E-02 0.  1.
        2   -1    0    0  501    0  0.00000000000E+00  0.00000000000E+00 -0.12262441960E+04  0.12262441960E+04  0.25500000920E-02 0. -1.
    10030    2    1    2    0    0  0.00000000000E+00  0.00000000000E+00  0.39494217427E+03  0.28474305663E+04  0.28199080674E+04 0.  0.
        3    1    3    3  502    0  0.89352596587E+03  0.53410496548E+03  0.11577065126E+04  0.15569011354E+04  0.10100000352E+00 0.  1.
       -3    1    3    3    0  502 -0.89352596587E+03 -0.53410496548E+03 -0.76276433838E+03  0.12905294309E+04  0.10100000352E+00 0. -1.
</event>
<event>
 5   0  0.7555871E-06  0.2799563E+04  0.7818609E-02  0.8303404E-01
        1   -1    0    0  501    0  0.00000000000E+00  0.00000000000E+00  0.16564535977E+04  0.16564535977E+04  0.50400001928E-02 0. -1.
       -1   -1    0    0    0  501  0.00000000000E+00  0.00000000000E+00 -0.11828811133E+04  0.11828811133E+04  0.50400001928E-02 0.  1.
    10030    2    1    2    0    0  0.00000000000E+00  0.00000000000E+00  0.47357248443E+03  0.28393347110E+04  0.27995625914E+04 0.  0.
        3    1    3    3  502    0 -0.13874267200E+04 -0.43765355598E+02  0.53893118786E+02  0.13891626212E+04  0.10100000352E+00 0.  1.
       -3    1    3    3    0  502  0.13874267200E+04  0.43765355598E+02  0.41967936564E+03  0.14501720898E+04  0.10100000352E+00 0. -1.
</event>
<event>
 5   0  0.1832502E-05  0.2708224E+04  0.7818609E-02  0.8332341E-01
       -2   -1    0    0    0  501  0.00000000000E+00  0.00000000000E+00  0.15567306254E+04  0.15567306254E+04  0.25500000920E-02 0.  1.
        2   -1    0    0  501    0  0.00000000000E+00  0.00000000000E+00 -0.11778658923E+04  0.11778658923E+04  0.25500000920E-02 0. -1.
    10030    2    1    2    0    0  0.00000000000E+00  0.00000000000E+00  0.37886473309E+03  0.27345965176E+04  0.27082244420E+04 0.  0.
        2    1    3    3  502    0 -0.29549421986E+03  0.84381256713E+03  0.12163329142E+04  0.15095702172E+04  0.25500000920E-02 0.  1.
       -2    1    3    3    0  502  0.29549421986E+03 -0.84381256713E+03 -0.83746818111E+03  0.12250263005E+04  0.25500000920E-02 0. -1.
</event>
<event>
 5   0  0.1874272E-05  0.2764571E+04  0.7818609E-02  0.8314353E-01
        2   -1    0    0  501    0  0.00000000000E+00  0.00000000000E+00  0.20900700586E+04  0.20900700586E+04  0.25500000920E-02 0. -1.
       -2   -1    0    0    0  501  0.00000000000E+00  0.00000000000E+00 -0.91418645247E+03  0.91418645247E+03  0.25500000920E-02 0.  1.
    10030    2    1    2    0    0  0.00000000000E+00  0.00000000000E+00  0.11758836061E+04  0.30042565111E+04  0.27645713825E+04 0.  0.
        3    1    3    3  502    0 -0.24164901744E+03 -0.51288757887E+03 -0.78201689041E+03  0.96591839370E+03  0.10100000352E+00 0.  1.
       -3    1    3    3    0  502  0.24164901744E+03  0.51288757887E+03  0.19579004965E+04  0.20383381174E+04  0.10100000352E+00 0. -1.
</event>
<event>
 5   0  0.1832502E-05  0.2822476E+04  0.7818609E-02  0.8296324E-01
        2   -1    0    0  501    0  0.00000000000E+00  0.00000000000E+00  0.18012867128E+04  0.18012867128E+04  0.25500000920E-02 0. -1.
       -2   -1    0    0    0  501  0.00000000000E+00  0.00000000000E+00 -0.11056501988E+04  0.11056501988E+04  0.25500000920E-02 0.  1.
    10030    2    1    2    0    0  0.00000000000E+00  0.00000000000E+00  0.69563651400E+03  0.29069369115E+04  0.28224762263E+04 0.  0.
        2    1    3    3  502    0 -0.11905279972E+04 -0.34802889840E+03  0.10410973270E+04  0.16193716900E+04  0.25500000920E-02 0. -1.
       -2    1    3    3    0  502  0.11905279972E+04  0.34802889840E+03 -0.34546081298E+03  0.12875652215E+04  0.25500000920E-02 0.  1.
</event>
<event>
 5   0  0.1832502E-05  0.2651314E+04  0.7818609E-02  0.8350977E-01
        2   -1    0    0  501    0  0.00000000000E+00  0.00000000000E+00  0.17176933314E+04  0.17176933314E+04  0.25500000920E-02 0. -1.
       -2   -1    0    0    0  501  0.00000000000E+00  0.00000000000E+00 -0.10230968848E+04  0.10230968848E+04  0.25500000920E-02 0.  1.
    10030    2    1    2    0    0  0.00000000000E+00  0.00000000000E+00  0.69459644660E+03  0.27407902161E+04  0.26513141619E+04 0.  0.
        2    1    3    3  502    0  0.12427228083E+04 -0.25960567925E+03 -0.47170527306E+02  0.12704251830E+04  0.25500000920E-02 0. -1.
       -2    1    3    3    0  502 -0.12427228083E+04  0.25960567925E+03  0.74176697391E+03  0.14703650331E+04  0.25500000920E-02 0.  1.
</event>
<event>
 5   0  0.7613444E-06  0.1976181E+04  0.7818609E-02  0.8617838E-01
        1   -1    0    0  501    0  0.00000000000E+00  0.00000000000E+00  0.10716554186E+04  0.10716554186E+04  0.50400001928E-02 0. -1.
       -1   -1    0    0    0  501  0.00000000000E+00  0.00000000000E+00 -0.91104215963E+03  0.91104215965E+03  0.50400001928E-02 0.  1.
    10030    2    1    2    0    0  0.00000000000E+00  0.00000000000E+00  0.16061325896E+03  0.19826975783E+04  0.19761814360E+04 0.  0.
        5    1    3    3  502    0 -0.58029276005E+03  0.52403026084E+03  0.68641264059E+03  0.10404478866E+04  0.46999998093E+01 0. -1.
       -5    1    3    3    0  502  0.58029276005E+03 -0.52403026084E+03 -0.52579938163E+03  0.94224969162E+03  0.46999998093E+01 0.  1.
</event>
<event>
 5   0  0.7388013E-06  0.2973893E+04  0.7818609E-02  0.8251226E-01
        1   -1    0    0  501    0  0.00000000000E+00  0.00000000000E+00  0.11124354112E+04  0.11124354112E+04  0.50400001928E-02 0.  1.
       -1   -1    0    0    0  501  0.00000000000E+00  0.00000000000E+00 -0.19875394714E+04  0.19875394714E+04  0.50400001928E-02 0. -1.
    10030    2    1    2    0    0  0.00000000000E+00  0.00000000000E+00 -0.87510406020E+03  0.30999748825E+04  0.29738925932E+04 0.  0.
        1    1    3    3  502    0 -0.11561186874E+04  0.93058744017E+03 -0.34198135787E+03  0.15230084216E+04  0.50400001928E-02 0.  1.
       -1    1    3    3    0  502  0.11561186874E+04 -0.93058744017E+03 -0.53312270233E+03  0.15769664609E+04  0.50400001928E-02 0. -1.
</event>
<event>
 5   0  0.1832502E-05  0.2797141E+04  0.7818609E-02  0.8304157E-01
       -2   -1    0    0    0  501  0.00000000000E+00  0.00000000000E+00  0.10727159352E+04  0.10727159352E+04  0.25500000920E-02 0. -1.
        2   -1    0    0  501    0  0.00000000000E+00  0.00000000000E+00 -0.18234084256E+04  0.18234084256E+04  0.25500000920E-02 0.  1.
    10030    2    1    2    0    0  0.00000000000E+00  0.00000000000E+00 -0.75069249037E+03  0.28961243609E+04  0.27971408793E+04 0.  0.
        2    1    3    3  502    0  0.13379202977E+04  0.40250742711E+03 -0.44047139214E+03  0.14649430021E+04  0.25500000920E-02 0.  1.
       -2    1    3    3    0  502 -0.13379202977E+04 -0.40250742711E+03 -0.31022109824E+03  0.14311813588E+04  0.25500000920E-02 0. -1.
</event>
<event>
 5   0  0.1832502E-05  0.2899981E+04  0.7818609E-02  0.8272883E-01
       -2   -1    0    0    0  501  0.00000000000E+00  0.00000000000E+00  0.94377048522E+03  0.94377048523E+03  0.25500000920E-02 0. -1.
        2   -1    0    0  501    0  0.00000000000E+00  0.00000000000E+00 -0.22277373080E+04  0.22277373080E+04  0.25500000920E-02 0.  1.
    10030    2    1    2    0    0  0.00000000000E+00  0.00000000000E+00 -0.12839668228E+04  0.31715077932E+04  0.28999811862E+04 0.  0.
        2    1    3    3  502    0  0.69880438472E+03  0.12688647565E+04 -0.71224337580E+03  0.16141982421E+04  0.25500000920E-02 0.  1.
       -2    1    3    3    0  502 -0.69880438472E+03 -0.12688647565E+04 -0.57172344697E+03  0.15573095512E+04  0.25500000920E-02 0. -1.
</event>
<event>
 5   0  0.1874272E-05  0.2724962E+04  0.7818609E-02  0.8326951E-01
        2   -1    0    0  501    0  0.00000000000E+00  0.00000000000E+00  0.14193932813E+04  0.14193932813E+04  0.25500000920E-02 0. -1.
       -2   -1    0    0    0  501  0.00000000000E+00  0.00000000000E+00 -0.13078505915E+04  0.13078505915E+04  0.25500000920E-02 0.  1.
    10030    2    1    2    0    0  0.00000000000E+00  0.00000000000E+00  0.11154268977E+03  0.27272438727E+04  0.27249619024E+04 0.  0.
        3    1    3    3  502    0 -0.88046807072E+03 -0.44504957039E+03  0.99627164540E+03  0.14020878522E+04  0.10100000352E+00 0. -1.
       -3    1    3    3    0  502  0.88046807072E+03  0.44504957039E+03 -0.88472895563E+03  0.13251560205E+04  0.10100000352E+00 0.  1.
</event>
<event>
 5   0  0.7681342E-06  0.2804471E+04  0.7818609E-02  0.8301882E-01
        1   -1    0    0  501    0  0.00000000000E+00  0.00000000000E+00  0.24183800687E+04  0.24183800687E+04  0.50400001928E-02 0.  1.
       -1   -1    0    0    0  501  0.00000000000E+00  0.00000000000E+00 -0.81305011312E+03  0.81305011314E+03  0.50400001928E-02 0. -1.
    10030    2    1    2    0    0  0.00000000000E+00  0.00000000000E+00  0.16053299556E+04  0.32314301819E+04  0.28044708510E+04 0.  0.
        2    1    3    3  502    0  0.79537433632E+03  0.15782484417E+02  0.21331905311E+04  0.22767018389E+04  0.25500000920E-02 0.  1.
       -2    1    3    3    0  502 -0.79537433632E+03 -0.15782484417E+02 -0.52786057544E+03  0.95472834293E+03  0.25500000920E-02 0. -1.
</event>
<event>
 5   0  0.7388013E-06  0.2800507E+04  0.7818609E-02  0.8303111E-01
        1   -1    0    0  501    0  0.00000000000E+00  0.00000000000E+00  0.14560926817E+04  0.14560926818E+04  0.50400001928E-02 0.  1.
       -1   -1    0    0    0  501  0.00000000000E+00  0.00000000000E+00 -0.13465559453E+04  0.13465559453E+04  0.50400001928E-02 0. -1.
    10030    2    1    2    0    0  0.00000000000E+00  0.00000000000E+00  0.10953673648E+03  0.28026486270E+04  0.28005072808E+04 0.  0.
        1    1    3    3  502    0  0.77210353794E+03 -0.83956409497E+03 -0.75807094439E+03  0.13695558768E+04  0.50400001928E-02 0. -1.
       -1    1    3    3    0  502 -0.77210353794E+03  0.83956409497E+03  0.86760768087E+03  0.14330927502E+04  0.50400001928E-02 0.  1.
</event>
<event>
 5   0  0.1832502E-05  0.2816408E+04  0.7818609E-02  0.8298192E-01
       -2   -1    0    0    0  501  0.00000000000E+00  0.00000000000E+00  0.87079640343E+03  0.87079640344E+03  0.25500000920E-02 0. -1.
        2   -1    0    0  501    0  0.00000000000E+00  0.00000000000E+00 -0.22772705897E+04  0.22772705897E+04  0.25500000920E-02 0.  1.
    10030    2    1    2    0    0  0.00000000000E+00  0.00000000000E+00 -0.14064741863E+04  0.31480669932E+04  0.28164083789E+04 0.  0.
        2    1    3    3  502    0  0.96613251052E+03  0.81112950408E+03 -0.36804701187E+01  0.12614898518E+04  0.25500000920E-02 0.  1.
       -2    1    3    3    0  502 -0.96613251052E+03 -0.81112950408E+03 -0.14027937162E+04  0.18865771414E+04  0.25500000920E-02 0. -1.
</event>
<event>
 5   0  0.1814230E-05  0.2658514E+04  0.7818609E-02  0.8348593E-01
       -2   -1    0    0    0  501  0.00000000000E+00  0.00000000000E+00  0.63553019859E+03  0.63553019859E+03  0.25500000920E-02 0.  1.
        2   -1    0    0  501    0  0.00000000000E+00  0.00000000000E+00 -0.27802367174E+04  0.27802367174E+04  0.25500000920E-02 0. -1.
    10030    2    1    2    0    0  0.00000000000E+00  0.00000000000E+00 -0.21447065188E+04  0.34157669160E+04  0.26585141663E+04 0.  0.
        5    1    3    3  502    0 -0.59840937396E+03 -0.11736627559E+04 -0.84495367972E+03  0.15651028254E+04  0.46999998093E+01 0. -1.
       -5    1    3    3    0  502  0.59840937396E+03  0.11736627559E+04 -0.12997528391E+04  0.18506640906E+04  0.46999998093E+01 0.  1.
</event>
<event>
 5   0  0.7681342E-06  0.2801888E+04  0.7818609E-02  0.8302682E-01
        1   -1    0    0  501    0  0.00000000000E+00  0.00000000000E+00  0.26135360901E+04  0.26135360902E+04  0.50400001928E-02 0.  1.
       -1   -1    0    0    0  501  0.00000000000E+00  0.00000000000E+00 -0.75095371389E+03  0.75095371391E+03  0.50400001928E-02 0. -1.
    10030    2    1    2    0    0  0.00000000000E+00  0.00000000000E+00  0.18625823763E+04  0.33644898041E+04  0.28018883870E+04 0.  0.
        2    1    3    3  502    0 -0.85378329377E+03 -0.55690033563E+03 -0.22269634248E+03  0.10433971236E+04  0.25500000920E-02 0. -1.
       -2    1    3    3    0  502  0.85378329377E+03  0.55690033563E+03  0.20852787187E+04  0.23210926805E+04  0.25500000920E-02 0.  1.
</event>
<event>
 5   0  0.7613444E-06  0.2804186E+04  0.7818609E-02  0.8301970E-01
        1   -1    0    0  501    0  0.00000000000E+00  0.00000000000E+00  0.16264651525E+04  0.16264651525E+04  0.50400001928E-02 0.  1.
       -1   -1    0    0    0  501  0.00000000000E+00  0.00000000000E+00 -0.12086731522E+04  0.12086731522E+04  0.50400001928E-02 0. -1.
    10030    2    1    2    0    0  0.00000000000E+00  0.00000000000E+00  0.41779200034E+03  0.28351383048E+04  0.28041859873E+04 0.  0.
        5    1    3    3  502    0 -0.72950428836E+03  0.10477598395E+04  0.79483192052E+03  0.15039139137E+04  0.46999998093E+01 0.  1.
       -5    1    3    3    0  502  0.72950428836E+03 -0.10477598395E+04 -0.37703992017E+03  0.13312243911E+04  0.46999998093E+01 0. -1.
</event>
<event>
 5   0  0.1923559E-05  0.2807871E+04  0.7818609E-02  0.8300829E-01
       -2   -1    0    0    0  501  0.00000000000E+00  0.00000000000E+00  0.11054387989E+04  0.11054387989E+04  0.25500000920E-02 0.  1.
        2   -1    0    0  501    0  0.00000000000E+00  0.00000000000E+00 -0.17830342503E+04  0.17830342503E+04  0.25500000920E-02 0. -1.
    10030    2    1    2    0    0  0.00000000000E+00  0.00000000000E+00 -0.67759545146E+03  0.28884730492E+04  0.28078712507E+04 0.  0.
        4    1    3    3  502    0 -0.82743125936E+03  0.52721543164E+03 -0.13718328554E+04  0.16865721439E+04  0.12699999809E+01 0. -1.
       -4    1    3    3    0  502  0.82743125936E+03 -0.52721543164E+03  0.69423740397E+03  0.12019009054E+04  0.12699999809E+01 0.  1.
</event>
<event>
 5   0  0.7555871E-06  0.2802847E+04  0.7818609E-02  0.8302385E-01
        1   -1    0    0  501    0  0.00000000000E+00  0.00000000000E+00  0.11274674650E+04  0.11274674650E+04  0.50400001928E-02 0.  1.
       -1   -1    0    0    0  501  0.00000000000E+00  0.00000000000E+00 -0.17419465857E+04  0.17419465857E+04  0.50400001928E-02 0. -1.
    10030    2    1    2    0    0  0.00000000000E+00  0.00000000000E+00 -0.61447912076E+03  0.28694140507E+04  0.28028471961E+04 0.  0.
        3    1    3    3  502    0  0.97929508084E+03 -0.94454037683E+02 -0.13289641858E+04  0.16535072537E+04  0.10100000352E+00 0. -1.
       -3    1    3    3    0  502 -0.97929508084E+03  0.94454037683E+02  0.71448506508E+03  0.12159067970E+04  0.10100000352E+00 0.  1.
</event>
<event>
 5   0  0.7681342E-06  0.3030741E+04  0.7818609E-02  0.8235007E-01
        1   -1    0    0  501    0  0.00000000000E+00  0.00000000000E+00  0.10290161287E+04  0.10290161287E+04  0.50400001928E-02 0.  1.
       -1   -1    0    0    0  501  0.00000000000E+00  0.00000000000E+00 -0.22315948232E+04  0.22315948232E+04  0.50400001928E-02 0. -1.
    10030    2    1    2    0    0  0.00000000000E+00  0.00000000000E+00 -0.12025786945E+04  0.32606109519E+04  0.30307405470E+04 0.  0.
        2    1    3    3  502    0 -0.54490924978E+03  0.11032862536E+04 -0.15527781751E+04  0.19812336331E+04  0.25500000920E-02 0. -1.
       -2    1    3    3    0  502  0.54490924978E+03 -0.11032862536E+04  0.35019948052E+03  0.12793773188E+04  0.25500000920E-02 0.  1.
</event>
<event>
 5   0  0.1832502E-05  0.2847147E+04  0.7818609E-02  0.8288779E-01
       -2   -1    0    0    0  501  0.00000000000E+00  0.00000000000E+00  0.11856059543E+04  0.11856059544E+04  0.25500000920E-02 0. -1.
        2   -1    0    0  501    0  0.00000000000E+00  0.00000000000E+00 -0.17093040882E+04  0.17093040882E+04  0.25500000920E-02 0.  1.
    10030    2    1    2    0    0  0.00000000000E+00  0.00000000000E+00 -0.52369813385E+03  0.28949100426E+04  0.28471467154E+04 0.  0.
        2    1    3    3  502    0 -0.34507787126E+03 -0.38588900900E+03 -0.16102073507E+04  0.16913771835E+04  0.25500000920E-02 0.  1.
       -2    1    3    3    0  502  0.34507787126E+03  0.38588900900E+03  0.10865092169E+04  0.12035328591E+04  0.25500000920E-02 0. -1.
</event>
<event>
 5   0  0.1814230E-05  0.2775995E+04  0.7818609E-02  0.8310760E-01
        2   -1    0    0  501    0  0.00000000000E+00  0.00000000000E+00  0.25124866309E+04  0.25124866309E+04  0.25500000920E-02 0.  1.
       -2   -1    0    0    0  501  0.00000000000E+00  0.00000000000E+00 -0.76678475155E+03  0.76678475156E+03  0.25500000920E-02 0. -1.
    10030    2    1    2    0    0  0.00000000000E+00  0.00000000000E+00  0.17457018793E+04  0.32792713825E+04  0.27759945512E+04 0.  0.
        5    1    3    3  502    0  0.11889988673E+03 -0.60602963883E+03 -0.59552676771E+03  0.85795298662E+03  0.46999998093E+01 0. -1.
       -5    1    3    3    0  502 -0.11889988673E+03  0.60602963883E+03  0.23412286471E+04  0.24213183958E+04  0.46999998093E+01 0.  1.
</event>
<event>
 5   0  0.7509685E-06  0.2823433E+04  0.7818609E-02  0.8296030E-01
        1   -1    0    0  501    0  0.00000000000E+00  0.00000000000E+00  0.83735322288E+03  0.83735322289E+03  0.50400001928E-02 0. -1.
       -1   -1    0    0    0  501  0.00000000000E+00  0.00000000000E+00 -0.23800516724E+04  0.23800516724E+04  0.50400001928E-02 0.  1.
    10030    2    1    2    0    0  0.00000000000E+00  0.00000000000E+00 -0.15426984495E+04  0.32174048953E+04  0.28234333274E+04 0.  0.
        4    1    3    3  502    0 -0.10712719122E+04 -0.24379277701E+03 -0.17815492539E+04  0.20930785425E+04  0.12699999809E+01 0.  1.
       -4    1    3    3    0  502  0.10712719122E+04  0.24379277701E+03  0.23885080439E+03  0.11243263528E+04  0.12699999809E+01 0. -1.
</event>
<event>
 5   0  0.1814230E-05  0.2769147E+04  0.7818609E-02  0.8312911E-01
        2   -1    0    0  501    0  0.00000000000E+00  0.00000000000E+00  0.15993075595E+04  0.15993075595E+04  0.25500000920E-02 0. -1.
       -2   -1    0    0    0  501  0.00000000000E+00  0.00000000000E+00 -0.11986714679E+04  0.11986714679E+04  0.25500000920E-02 0.  1.
    10030    2    1    2    0    0  0.00000000000E+00  0.00000000000E+00  0.40063609161E+03  0.27979790274E+04  0.27691474067E+04 0.  0.
        5    1    3    3  502    0 -0.54803967684E+03 -0.11346066238E+04 -0.37954083964E+03  0.13159608722E+04  0.46999998093E+01 0.  1.
       -5    1    3    3    0  502  0.54803967684E+03  0.11346066238E+04  0.78017693125E+03  0.14820181552E+04  0.46999998093E+01 0. -1.
</event>
<event>
 5   0  0.7555871E-06  0.2770543E+04  0.7818609E-02  0.8312472E-01
       -1   -1    0    0    0  501  0.00000000000E+00  0.00000000000E+00  0.89159674036E+03  0.89159674037E+03  0.50400001928E-02 0.  1.
        1   -1    0    0  501    0  0.00000000000E+00  0.00000000000E+00 -0.21522932032E+04  0.21522932032E+04  0.50400001928E-02 0. -1.
    10030    2    1    2    0    0  0.00000000000E+00  0.00000000000E+00 -0.12606964628E+04  0.30438899436E+04  0.27705433433E+04 0.  0.
        3    1    3    3  502    0  0.87655928952E+03  0.50151663831E+03 -0.16721104234E+04  0.19534145502E+04  0.10100000352E+00 0. -1.
       -3    1    3    3    0  502 -0.87655928952E+03 -0.50151663831E+03  0.41141396054E+03  0.10904753934E+04  0.10100000352E+00 0.  1.
</event>
<event>
 5   0  0.1832502E-05  0.2390342E+04  0.7818609E-02  0.8443128E-01
       -2   -1    0    0    0  501  0.00000000000E+00  0.00000000000E+00  0.69185291675E+03  0.69185291675E+03  0.25500000920E-02 0.  1.
        2   -1    0    0  501    0  0.00000000000E+00  0.00000000000E+00 -0.20646490074E+04  0.20646490074E+04  0.25500000920E-02 0. -1.
    10030    2    1    2    0    0  0.00000000000E+00  0.00000000000E+00 -0.13727960906E+04  0.27565019241E+04  0.23903417645E+04 0.  0.
        2    1    3    3  502    0 -0.79487471604E+03 -0.17708235631E+03 -0.16951858352E+04  0.18806485560E+04  0.25500000920E-02 0. -1.
       -2    1    3    3    0  502  0.79487471604E+03  0.17708235631E+03  0.32238974459E+03  0.87585336817E+03  0.25500000920E-02 0.  1.
</event>
<event>
 5   0  0.1874272E-05  0.2693857E+04  0.7818609E-02  0.8337001E-01
        2   -1    0    0  501    0  0.00000000000E+00  0.00000000000E+00  0.12506403461E+04  0.12506403461E+04  0.25500000920E-02 0.  1.
       -2   -1    0    0    0  501  0.00000000000E+00  0.00000000000E+00 -0.14506295653E+04  0.14506295653E+04  0.25500000920E-02 0. -1.
    10030    2    1    2    0    0  0.00000000000E+00  0.00000000000E+00 -0.19998921921E+03  0.27012699114E+04  0.26938566121E+04 0.  0.
        3    1    3    3  502    0  0.10180664510E+04  0.86853368625E+03 -0.25340513055E+03  0.13619927434E+04  0.10100000352E+00 0.  1.
       -3    1    3    3    0  502 -0.10180664510E+04 -0.86853368625E+03  0.53415911342E+02  0.13392771679E+04  0.10100000352E+00 0. -1.
</event>
<event>
 5   0  0.1904553E-05  0.2800462E+04  0.7818609E-02  0.8303125E-01
       -2   -1    0    0    0  501  0.00000000000E+00  0.00000000000E+00  0.18611390984E+04  0.18611390985E+04  0.25500000920E-02 0. -1.
        2   -1    0    0  501    0  0.00000000000E+00  0.00000000000E+00 -0.10534662552E+04  0.10534662552E+04  0.25500000920E-02 0.  1.
    10030    2    1    2    0    0  0.00000000000E+00  0.00000000000E+00  0.80767284328E+03  0.29146053536E+04  0.28004622735E+04 0.  0.
        1    1    3    3  502    0 -0.39730418016E+03  0.12333052029E+04  0.95627725478E+03  0.16103907983E+04  0.50400001928E-02 0. -1.
       -1    1    3    3    0  502  0.39730418016E+03 -0.12333052029E+04 -0.14860441149E+03  0.13042145553E+04  0.50400001928E-02 0.  1.
</event>
<event>
 5   0  0.7388013E-06  0.1781593E+04  0.7818609E-02  0.8716150E-01
       -1   -1    0    0    0  501  0.00000000000E+00  0.00000000000E+00  0.70224635784E+03  0.70224635786E+03  0.50400001928E-02 0. -1.
        1   -1    0    0  501    0  0.00000000000E+00  0.00000000000E+00 -0.11299719969E+04  0.11299719969E+04  0.50400001928E-02 0.  1.
    10030    2    1    2    0    0  0.00000000000E+00  0.00000000000E+00 -0.42772563909E+03  0.18322183548E+04  0.17815933535E+04 0.  0.
        1    1    3    3  502    0  0.63787835335E+03  0.45882928057E+03  0.21771115742E+03  0.81535958354E+03  0.50400001928E-02 0. -1.
       -1    1    3    3    0  502 -0.63787835335E+03 -0.45882928057E+03 -0.64543679650E+03  0.10168587713E+04  0.50400001928E-02 0.  1.
</event>
<event>
 5   0  0.1874272E-05  0.2669471E+04  0.7818609E-02  0.8344979E-01
        2   -1    0    0  501    0  0.00000000000E+00  0.00000000000E+00  0.24105954122E+04  0.24105954122E+04  0.25500000920E-02 0. -1.
       -2   -1    0    0    0  501  0.00000000000E+00  0.00000000000E+00 -0.73903659780E+03  0.73903659780E+03  0.25500000920E-02 0.  1.
    10030    2    1    2    0    0  0.00000000000E+00  0.00000000000E+00  0.16715588144E+04  0.31496320100E+04  0.26694705334E+04 0.  0.
        3    1    3    3  502    0  0.48930497539E+03 -0.61425964518E+03 -0.43759868375E+03  0.89901439858E+03  0.10100000352E+00 0.  1.
       -3    1    3    3    0  502 -0.48930497539E+03  0.61425964518E+03  0.21091574982E+04  0.22506176114E+04  0.10100000352E+00 0. -1.
</event>
<event>
 5   0  0.7509685E-06  0.2712589E+04  0.7818609E-02  0.8330932E-01
       -1   -1    0    0    0  501  0.00000000000E+00  0.00000000000E+00  0.12719745529E+04  0.12719745529E+04  0.50400001928E-02 0. -1.
        1   -1    0    0  501    0  0.00000000000E+00  0.00000000000E+00 -0.14462039741E+04  0.14462039741E+04  0.50400001928E-02 0.  1.
    10030    2    1    2    0    0  0.00000000000E+00  0.00000000000E+00 -0.17422942118E+03  0.27181785270E+04  0.27125889135E+04 0.  0.
        4    1    3    3  502    0 -0.54785301904E+03  0.97014212080E+03 -0.86215167743E+03  0.14087674729E+04  0.12699999809E+01 0.  1.
       -4    1    3    3    0  502  0.54785301904E+03 -0.97014212080E+03  0.68792225625E+03  0.13094110541E+04  0.12699999809E+01 0. -1.
</event>
<event>
 5   0  0.1814230E-05  0.2706679E+04  0.7818609E-02  0.8332841E-01
       -2   -1    0    0    0  501  0.00000000000E+00  0.00000000000E+00  0.15996809522E+04  0.15996809522E+04  0.25500000920E-02 0. -1.
        2   -1    0    0  501    0  0.00000000000E+00  0.00000000000E+00 -0.11449331032E+04  0.11449331032E+04  0.25500000920E-02 0.  1.
    10030    2    1    2    0    0  0.00000000000E+00  0.00000000000E+00  0.45474784899E+03  0.27446140555E+04  0.27066789073E+04 0.  0.
        5    1    3    3  502    0  0.11844840119E+04 -0.25239043606E+03 -0.38507985146E+03  0.12708311803E+04  0.46999998093E+01 0.  1.
       -5    1    3    3    0  502 -0.11844840119E+04  0.25239043606E+03  0.83982770044E+03  0.14737828752E+04  0.46999998093E+01 0. -1.
</event>
<event>
 5   0  0.7509685E-06  0.2791921E+04  0.7818609E-02  0.8305781E-01
        1   -1    0    0  501    0  0.00000000000E+00  0.00000000000E+00  0.14245861707E+04  0.14245861707E+04  0.50400001928E-02 0. -1.
       -1   -1    0    0    0  501  0.00000000000E+00  0.00000000000E+00 -0.13679101910E+04  0.13679101910E+04  0.50400001928E-02 0.  1.
    10030    2    1    2    0    0  0.00000000000E+00  0.00000000000E+00  0.56675979727E+02  0.27924963617E+04  0.27919211599E+04 0.  0.
        4    1    3    3  502    0 -0.60384486061E+03  0.71451490954E+03  0.10646712146E+04  0.14172814046E+04  0.12699999809E+01 0. -1.
       -4    1    3    3    0  502  0.60384486061E+03 -0.71451490954E+03 -0.10079952349E+04  0.13752149571E+04  0.12699999809E+01 0.  1.
</event>
<event>
 5   0  0.7613444E-06  0.2768583E+04  0.7818609E-02  0.8313089E-01
        1   -1    0    0  501    0  0.00000000000E+00  0.00000000000E+00  0.13945233680E+04  0.13945233680E+04  0.50400001928E-02 0. -1.
       -1   -1    0    0    0  501  0.00000000000E+00  0.00000000000E+00 -0.13741344133E+04  0.13741344133E+04  0.50400001928E-02 0.  1.
    10030    2    1    2    0    0  0.00000000000E+00  0.00000000000E+00  0.20388954663E+02  0.27686577813E+04  0.27685827061E+04 0.  0.
        5    1    3    3  502    0  0.68466346906E+03  0.98030305337E+03  0.70769623499E+03  0.13894654344E+04  0.46999998093E+01 0. -1.
       -5    1    3    3    0  502 -0.68466346906E+03 -0.98030305337E+03 -0.68730728032E+03  0.13791923470E+04  0.46999998093E+01 0.  1.
</event>
<event>
 5   0  0.1904553E-05  0.2829596E+04  0.7818609E-02  0.8294138E-01
        2   -1    0    0  501    0  0.00000000000E+00  0.00000000000E+00  0.28885085779E+04  0.28885085779E+04  0.25500000920E-02 0.  1.
       -2   -1    0    0    0  501  0.00000000000E+00  0.00000000000E+00 -0.69297122564E+03  0.69297122565E+03  0.25500000920E-02 0. -1.
    10030    2    1    2    0    0  0.00000000000E+00  0.00000000000E+00  0.21955373522E+04  0.35814798035E+04  0.28295959637E+04 0.  0.
        1    1    3    3  502    0  0.62984710290E+02 -0.43606710998E+03 -0.60392366493E+03  0.74755962386E+03  0.50400001928E-02 0. -1.
       -1    1    3    3    0  502 -0.62984710290E+02  0.43606710998E+03  0.27994610172E+04  0.28339201797E+04  0.50400001928E-02 0.  1.
</event>
<event>
 5   0  0.1923559E-05  0.2803299E+04  0.7818609E-02  0.8302245E-01
        2   -1    0    0  501    0  0.00000000000E+00  0.00000000000E+00  0.20685440436E+04  0.20685440436E+04  0.25500000920E-02 0.  1.
       -2   -1    0    0    0  501  0.00000000000E+00  0.00000000000E+00 -0.94976039079E+03  0.94976039079E+03  0.25500000920E-02 0. -1.
    10030    2    1    2    0    0  0.00000000000E+00  0.00000000000E+00  0.11187836528E+04  0.30183044344E+04  0.28032989132E+04 0.  0.
        4    1    3    3  502    0  0.13189093663E+04 -0.47288529044E+03  0.51801004634E+03  0.14938133870E+04  0.12699999809E+01 0. -1.
       -4    1    3    3    0  502 -0.13189093663E+04  0.47288529044E+03  0.60077360648E+03  0.15244910474E+04  0.12699999809E+01 0.  1.
</event>
<event>
 5   0  0.1874272E-05  0.2415795E+04  0.7818609E-02  0.8433614E-01
       -2   -1    0    0    0  501  0.00000000000E+00  0.00000000000E+00  0.13231447070E+04  0.13231447070E+04  0.25500000920E-02 0.  1.
        2   -1    0    0  501    0  0.00000000000E+00  0.00000000000E+00 -0.11026883674E+04  0.11026883674E+04  0.25500000920E-02 0. -1.
    10030    2    1    2    0    0  0.00000000000E+00  0.00000000000E+00  0.22045633955E+03  0.24258330744E+04  0.24157949224E+04 0.  0.
        3    1    3    3  502    0 -0.95588342881E+03  0.26930993169E+03  0.80067181591E+03  0.12756630965E+04  0.10100000352E+00 0.  1.
       -3    1    3    3    0  502  0.95588342881E+03 -0.26930993169E+03 -0.58021547636E+03  0.11501699779E+04  0.10100000352E+00 0. -1.
</event>
<event>
 5   0  0.7509685E-06  0.2789640E+04  0.7818609E-02  0.8306492E-01
        1   -1    0    0  501    0  0.00000000000E+00  0.00000000000E+00  0.13578547531E+04  0.13578547531E+04  0.50400001928E-02 0.  1.
       -1   -1    0    0    0  501  0.00000000000E+00  0.00000000000E+00 -0.14327910566E+04  0.14327910566E+04  0.50400001928E-02 0. -1.
    10030    2    1    2    0    0  0.00000000000E+00  0.00000000000E+00 -0.74936303533E+02  0.27906458097E+04  0.27896395081E+04 0.  0.
        4    1    3    3  502    0 -0.26177316251E+03  0.17443494074E+03  0.13219067982E+04  0.13588200518E+04  0.12699999809E+01 0.  1.
       -4    1    3    3    0  502  0.26177316251E+03 -0.17443494074E+03 -0.13968431017E+04  0.14318257579E+04  0.12699999809E+01 0. -1.
</event>
<event>
 5   0  0.7681342E-06  0.2763969E+04  0.7818609E-02  0.8314543E-01
        1   -1    0    0  501    0  0.00000000000E+00  0.00000000000E+00  0.19788506164E+04  0.19788506164E+04  0.50400001928E-02 0.  1.
       -1   -1    0    0    0  501  0.00000000000E+00  0.00000000000E+00 -0.96514698347E+03  0.96514698349E+03  0.50400001928E-02 0. -1.
    10030    2    1    2    0    0  0.00000000000E+00  0.00000000000E+00  0.10137036330E+04  0.29439975999E+04  0.27639693944E+04 0.  0.
        2    1    3    3  502    0  0.55916710739E+03 -0.95135879587E+03 -0.37927963251E+03  0.11668780794E+04  0.25500000920E-02 0. -1.
       -2    1    3    3    0  502 -0.55916710739E+03  0.95135879587E+03  0.13929832655E+04  0.17771195206E+04  0.25500000920E-02 0.  1.
</event>
<event>
 5   0  0.1814230E-05  0.2544754E+04  0.7818609E-02  0.8387213E-01
       -2   -1    0    0    0  501  0.00000000000E+00  0.00000000000E+00  0.99702519088E+03  0.99702519088E+03  0.25500000920E-02 0.  1.
        2   -1    0    0  501    0  0.00000000000E+00  0.00000000000E+00 -0.16237739721E+04  0.16237739721E+04  0.25500000920E-02 0. -1.
    10030    2    1    2    0    0  0.00000000000E+00  0.00000000000E+00 -0.62674878122E+03  0.26207991630E+04  0.25447542549E+04 0.  0.
        5    1    3    3  502    0 -0.10916778860E+04 -0.12514231838E+03 -0.97402668570E+03  0.14683907113E+04  0.46999998093E+01 0. -1.
       -5    1    3    3    0  502  0.10916778860E+04  0.12514231838E+03  0.34727790448E+03  0.11524084517E+04  0.46999998093E+01 0.  1.
</event>
<event>
 5   0  0.7388013E-06  0.2821175E+04  0.7818609E-02  0.8296724E-01
        1   -1    0    0  501    0  0.00000000000E+00  0.00000000000E+00  0.16285518048E+04  0.16285518048E+04  0.50400001928E-02 0.  1.
       -1   -1    0    0    0  501  0.00000000000E+00  0.00000000000E+00 -0.12217955989E+04  0.12217955989E+04  0.50400001928E-02 0. -1.
    10030    2    1    2    0    0  0.00000000000E+00  0.00000000000E+00  0.40675620588E+03  0.28503474037E+04  0.28211752357E+04 0.  0.
        1    1    3    3  502    0  0.29232040731E+03  0.13280873035E+04  0.58207429282E+03  0.14792151935E+04  0.50400001928E-02 0.  1.
       -1    1    3    3    0  502 -0.29232040731E+03 -0.13280873035E+04 -0.17531808694E+03  0.13711322102E+04  0.50400001928E-02 0. -1.
</event>
<event>
 5   0  0.1874272E-05  0.2807336E+04  0.7818609E-02  0.8300995E-01
        2   -1    0    0  501    0  0.00000000000E+00  0.00000000000E+00  0.15398792767E+04  0.15398792767E+04  0.25500000920E-02 0. -1.
       -2   -1    0    0    0  501  0.00000000000E+00  0.00000000000E+00 -0.12795050400E+04  0.12795050400E+04  0.25500000920E-02 0.  1.
    10030    2    1    2    0    0  0.00000000000E+00  0.00000000000E+00  0.26037423671E+03  0.28193843167E+04  0.28073356020E+04 0.  0.
        3    1    3    3  502    0  0.80150616062E+03 -0.10718233280E+04 -0.29479084164E+03  0.13704448265E+04  0.10100000352E+00 0.  1.
       -3    1    3    3    0  502 -0.80150616062E+03  0.10718233280E+04  0.55516507834E+03  0.14489394902E+04  0.10100000352E+00 0. -1.
</event>
<event>
 5   0  0.7681342E-06  0.2753424E+04  0.7818609E-02  0.8317876E-01
        1   -1    0    0  501    0  0.00000000000E+00  0.00000000000E+00  0.15414397974E+04  0.15414397974E+04  0.50400001928E-02 0. -1.
       -1   -1    0    0    0  501  0.00000000000E+00  0.00000000000E+00 -0.12295883609E+04  0.12295883609E+04  0.50400001928E-02 0.  1.
    10030    2    1    2    0    0  0.00000000000E+00  0.00000000000E+00  0.31185143651E+03  0.27710281584E+04  0.27534243654E+04 0.  0.
        2    1    3    3  502    0 -0.92434679185E+03 -0.93986751565E+03  0.55541256245E+03  0.14304723182E+04  0.25500000920E-02 0. -1.
       -2    1    3    3    0  502  0.92434679185E+03  0.93986751565E+03 -0.24356112595E+03  0.13405558402E+04  0.25500000920E-02 0.  1.
</event>
<event>
 5   0  0.7509685E-06  0.2258223E+04  0.7818609E-02  0.8494578E-01
        1   -1    0    0  501    0  0.00000000000E+00  0.00000000000E+00  0.18357282823E+04  0.18357282824E+04  0.50400001928E-02 0.  1.
       -1   -1    0    0    0  501  0.00000000000E+00  0.00000000000E+00 -0.69448893888E+03  0.69448893890E+03  0.50400001928E-02 0. -1.
    10030    2    1    2    0    0  0.00000000000E+00  0.00000000000E+00  0.11412393435E+04  0.25302172213E+04  0.22582231838E+04 0.  0.
        4    1    3    3  502    0  0.74463302301E+02  0.10837374730E+04  0.91570919422E+03  0.14207591756E+04  0.12699999809E+01 0. -1.
       -4    1    3    3    0  502 -0.74463302301E+02 -0.10837374730E+04  0.22553014925E+03  0.11094580456E+04  0.12699999809E+01 0.  1.
</event>
<event>
 5   0  0.6288000E-06  0.2816458E+04  0.7818609E-02  0.8298177E-01
        3   -1    0    0  501    0  0.00000000000E+00  0.00000000000E+00  0.94786618531E+03  0.94786619069E+03  0.10100000352E+00 0.  1.
       -3   -1    0    0    0  501  0.00000000000E+00  0.00000000000E+00 -0.20921830288E+04  0.20921830313E+04  0.10100000352E+00 0. -1.
    10030    2    1    2    0    0  0.00000000000E+00  0.00000000000E+00 -0.11443168435E+04  0.30400492220E+04  0.28164584559E+04 0.  0.
        5    1    3    3  502    0  0.12884968468E+04  0.56752669572E+03 -0.60224204611E+03  0.15313485059E+04  0.46999998093E+01 0.  1.
       -5    1    3    3    0  502 -0.12884968468E+04 -0.56752669572E+03 -0.54207479741E+03  0.15087007160E+04  0.46999998093E+01 0. -1.
</event>
<event>
 5   0  0.1923559E-05  0.2600190E+04  0.7818609E-02  0.8368137E-01
       -2   -1    0    0    0  501  0.00000000000E+00  0.00000000000E+00  0.16908017734E+04  0.16908017734E+04  0.25500000920E-02 0. -1.
        2   -1    0    0  501    0  0.00000000000E+00  0.00000000000E+00 -0.99967206342E+03  0.99967206342E+03  0.25500000920E-02 0.  1.
    10030    2    1    2    0    0  0.00000000000E+00  0.00000000000E+00  0.69112970995E+03  0.26904738368E+04  0.26001902220E+04 0.  0.
        4    1    3    3  502    0 -0.11607725865E+04  0.57300923085E+03  0.22091152865E+03  0.13132159353E+04  0.12699999809E+01 0.  1.
       -4    1    3    3    0  502  0.11607725865E+04 -0.57300923085E+03  0.47021818130E+03  0.13772579015E+04  0.12699999809E+01 0. -1.
</event>
<event>
 5   0  0.7613444E-06  0.2715850E+04  0.7818609E-02  0.8329880E-01
        1   -1    0    0  501    0  0.00000000000E+00  0.00000000000E+00  0.10505516111E+04  0.10505516112E+04  0.50400001928E-02 0. -1.
       -1   -1    0    0    0  501  0.00000000000E+00  0.00000000000E+00 -0.17552307377E+04  0.17552307377E+04  0.50400001928E-02 0.  1.
    10030    2    1    2    0    0  0.00000000000E+00  0.00000000000E+00 -0.70467912654E+03  0.28057823488E+04  0.27158501280E+04 0.  0.
        5    1    3    3  502    0  0.70996567747E+03 -0.69987015463E+03  0.60018293137E+03  0.11636628110E+04  0.46999998093E+01 0. -1.
       -5    1    3    3    0  502 -0.70996567747E+03  0.69987015463E+03 -0.13048620579E+04  0.16421195379E+04  0.46999998093E+01 0.  1.
</event>
<event>
 5   0  0.1832502E-05  0.2707211E+04  0.7818609E-02  0.8332669E-01
       -2   -1    0    0    0  501  0.00000000000E+00  0.00000000000E+00  0.16814432467E+04  0.16814432467E+04  0.25500000920E-02 0. -1.
        2   -1    0    0  501    0  0.00000000000E+00  0.00000000000E+00 -0.10896874850E+04  0.10896874850E+04  0.25500000920E-02 0.  1.
    10030    2    1    2    0    0  0.00000000000E+00  0.00000000000E+00  0.59175576165E+03  0.27711307317E+04  0.27072108619E+04 0.  0.
        2    1    3    3  502    0 -0.26853634422E+03  0.11825040693E+04 -0.31983923717E+03  0.12540832427E+04  0.25500000920E-02 0. -1.
       -2    1    3    3    0  502  0.26853634422E+03 -0.11825040693E+04  0.91159499882E+03  0.15170474890E+04  0.25500000920E-02 0.  1.
</event>
<event>
 5   0  0.7509685E-06  0.2796685E+04  0.7818609E-02  0.8304298E-01
        1   -1    0    0  501    0  0.00000000000E+00  0.00000000000E+00  0.22103429093E+04  0.22103429093E+04  0.50400001928E-02 0. -1.
       -1   -1    0    0    0  501  0.00000000000E+00  0.00000000000E+00 -0.88464161374E+03  0.88464161376E+03  0.50400001928E-02 0.  1.
    10030    2    1    2    0    0  0.00000000000E+00  0.00000000000E+00  0.13257012956E+04  0.30949845231E+04  0.27966846932E+04 0.  0.
        4    1    3    3  502    0  0.11426097237E+04  0.72197706927E+02 -0.22564812178E+03  0.11669139546E+04  0.12699999809E+01 0.  1.
       -4    1    3    3    0  502 -0.11426097237E+04 -0.72197706927E+02  0.15513494174E+04  0.19280705685E+04  0.12699999809E+01 0. -1.
</event>
<event>
 5   0  0.7388013E-06  0.2724406E+04  0.7818609E-02  0.8327129E-01
        1   -1    0    0  501    0  0.00000000000E+00  0.00000000000E+00  0.13566255210E+04  0.13566255210E+04  0.50400001928E-02 0. -1.
       -1   -1    0    0    0  501  0.00000000000E+00  0.00000000000E+00 -0.13678031648E+04  0.13678031648E+04  0.50400001928E-02 0.  1.
    10030    2    1    2    0    0  0.00000000000E+00  0.00000000000E+00 -0.11177643791E+02  0.27244286858E+04  0.27244057562E+04 0.  0.
        1    1    3    3  502    0 -0.10492440764E+04 -0.82583387939E+03  0.26400935367E+03  0.13611082496E+04  0.50400001928E-02 0.  1.
       -1    1    3    3    0  502  0.10492440764E+04  0.82583387939E+03 -0.27518699746E+03  0.13633204362E+04  0.50400001928E-02 0. -1.
</event>
<event>
 5   0  0.1832502E-05  0.2464301E+04  0.7818609E-02  0.8415815E-01
       -2   -1    0    0    0  501  0.00000000000E+00  0.00000000000E+00  0.14230000257E+04  0.14230000257E+04  0.25500000920E-02 0. -1.
        2   -1    0    0  501    0  0.00000000000E+00  0.00000000000E+00 -0.10668969047E+04  0.10668969047E+04  0.25500000920E-02 0.  1.
    10030    2    1    2    0    0  0.00000000000E+00  0.00000000000E+00  0.35610312099E+03  0.24898969305E+04  0.24643005684E+04 0.  0.
        2    1    3    3  502    0 -0.11586950006E+04  0.57721904519E+02  0.59743928227E+03  0.13049289708E+04  0.25500000920E-02 0.  1.
       -2    1    3    3    0  502  0.11586950006E+04 -0.57721904519E+02 -0.24133616129E+03  0.11849679597E+04  0.25500000920E-02 0. -1.
</event>
<event>
 5   0  0.1923559E-05  0.2878919E+04  0.7818609E-02  0.8279177E-01
       -2   -1    0    0    0  501  0.00000000000E+00  0.00000000000E+00  0.88100570089E+03  0.88100570089E+03  0.25500000920E-02 0. -1.
        2   -1    0    0  501    0  0.00000000000E+00  0.00000000000E+00 -0.23519070117E+04  0.23519070117E+04  0.25500000920E-02 0.  1.
    10030    2    1    2    0    0  0.00000000000E+00  0.00000000000E+00 -0.14709013108E+04  0.32329127126E+04  0.28789188841E+04 0.  0.
        4    1    3    3  502    0 -0.12252919138E+04 -0.32370654301E+03 -0.15019613352E+04  0.19652011768E+04  0.12699999809E+01 0.  1.
       -4    1    3    3    0  502  0.12252919138E+04  0.32370654301E+03  0.31060024350E+02  0.12677115358E+04  0.12699999809E+01 0. -1.
</event>
<event>
 5   0  0.7681342E-06  0.2793361E+04  0.7818609E-02  0.8305333E-01
        1   -1    0    0  501    0  0.00000000000E+00  0.00000000000E+00  0.17305190864E+04  0.17305190864E+04  0.50400001928E-02 0.  1.
       -1   -1    0    0    0  501  0.00000000000E+00  0.00000000000E+00 -0.11272434161E+04  0.11272434161E+04  0.50400001928E-02 0. -1.
    10030    2    1    2    0    0  0.00000000000E+00  0.00000000000E+00  0.60327567028E+03  0.28577625025E+04  0.27933608765E+04 0.  0.
        2    1    3    3  502    0 -0.50590816285E+03  0.91340155243E+02 -0.10269285707E+04  0.11484199504E+04  0.25500000920E-02 0. -1.
       -2    1    3    3    0  502  0.50590816285E+03 -0.91340155243E+02  0.16302042409E+04  0.17093425521E+04  0.25500000920E-02 0.  1.
</event>
<event>
 5   0  0.7388013E-06  0.1916791E+04  0.7818609E-02  0.8646543E-01
       -1   -1    0    0    0  501  0.00000000000E+00  0.00000000000E+00  0.17253096192E+04  0.17253096192E+04  0.50400001928E-02 0.  1.
        1   -1    0    0  501    0  0.00000000000E+00  0.00000000000E+00 -0.53238103119E+03  0.53238103122E+03  0.50400001928E-02 0. -1.
    10030    2    1    2    0    0  0.00000000000E+00  0.00000000000E+00  0.11929285880E+04  0.22576906504E+04  0.19167911876E+04 0.  0.
        1    1    3    3  502    0  0.80801931632E+02  0.15013679651E+03 -0.51437418187E+03  0.54189557004E+03  0.50400001928E-02 0. -1.
       -1    1    3    3    0  502 -0.80801931632E+02 -0.15013679651E+03  0.17073027699E+04  0.17157950804E+04  0.50400001928E-02 0.  1.
</event>
<event>
 5   0  0.7388013E-06  0.2718030E+04  0.7818609E-02  0.8329178E-01
       -1   -1    0    0    0  501  0.00000000000E+00  0.00000000000E+00  0.84040557373E+03  0.84040557374E+03  0.50400001928E-02 0.  1.
        1   -1    0    0  501    0  0.00000000000E+00  0.00000000000E+00 -0.21976553949E+04  0.21976553949E+04  0.50400001928E-02 0. -1.
    10030    2    1    2    0    0  0.00000000000E+00  0.00000000000E+00 -0.13572498212E+04  0.30380609686E+04  0.27180300536E+04 0.  0.
        1    1    3    3  502    0 -0.25838851360E+03  0.75001928868E+03 -0.19120125587E+04  0.20700448261E+04  0.50400001928E-02 0. -1.
       -1    1    3    3    0  502  0.25838851360E+03 -0.75001928868E+03  0.55476273750E+03  0.96801614258E+03  0.50400001928E-02 0.  1.
</event>
<event>
 5   0  0.1923559E-05  0.2823573E+04  0.7818609E-02  0.8295987E-01
       -2   -1    0    0    0  501  0.00000000000E+00  0.00000000000E+00  0.11645958743E+04  0.11645958743E+04  0.25500000920E-02 0. -1.
        2   -1    0    0  501    0  0.00000000000E+00  0.00000000000E+00 -0.17114444538E+04  0.17114444538E+04  0.25500000920E-02 0.  1.
    10030    2    1    2    0    0  0.00000000000E+00  0.00000000000E+00 -0.54684857956E+03  0.28760403281E+04  0.28235730201E+04 0.  0.
        4    1    3    3  502    0  0.92442333225E+03  0.31078360888E+03 -0.13131736929E+04  0.16357174907E+04  0.12699999809E+01 0.  1.
       -4    1    3    3    0  502 -0.92442333225E+03 -0.31078360888E+03  0.76632511334E+03  0.12403228374E+04  0.12699999809E+01 0. -1.
</event>
<event>
 5   0  0.7555871E-06  0.2863114E+04  0.7818609E-02  0.8283937E-01
       -1   -1    0    0    0  501  0.00000000000E+00  0.00000000000E+00  0.79833648251E+03  0.79833648253E+03  0.50400001928E-02 0. -1.
        1   -1    0    0  501    0  0.00000000000E+00  0.00000000000E+00 -0.25670328083E+04  0.25670328083E+04  0.50400001928E-02 0.  1.
    10030    2    1    2    0    0  0.00000000000E+00  0.00000000000E+00 -0.17686963258E+04  0.33653692908E+04  0.28631143482E+04 0.  0.
        3    1    3    3  502    0 -0.66967063446E+03 -0.92017820098E+03  0.13642312345E+03  0.11462102595E+04  0.10100000352E+00 0. -1.
       -3    1    3    3    0  502  0.66967063446E+03  0.92017820098E+03 -0.19051194492E+04  0.22191590313E+04  0.10100000352E+00 0.  1.
</event>
<event>
 5   0  0.7388013E-06  0.2950401E+04  0.7818609E-02  0.8258038E-01
        1   -1    0    0  501    0  0.00000000000E+00  0.00000000000E+00  0.12244167667E+04  0.12244167667E+04  0.50400001928E-02 0.  1.
       -1   -1    0    0    0  501  0.00000000000E+00  0.00000000000E+00 -0.17773488884E+04  0.17773488884E+04  0.50400001928E-02 0. -1.
    10030    2    1    2    0    0  0.00000000000E+00  0.00000000000E+00 -0.55293212168E+03  0.30017656551E+04  0.29504005011E+04 0.  0.
        1    1    3    3  502    0 -0.12094286403E+04 -0.81672574119E+03 -0.49575784408E+03  0.15412768772E+04  0.50400001928E-02 0.  1.
       -1    1    3    3    0  502  0.12094286403E+04  0.81672574119E+03 -0.57174277600E+02  0.14604887779E+04  0.50400001928E-02 0. -1.
</event>
<event>
 5   0  0.7388013E-06  0.2834380E+04  0.7818609E-02  0.8292673E-01
       -1   -1    0    0    0  501  0.00000000000E+00  0.00000000000E+00  0.12587815428E+04  0.12587815428E+04  0.50400001928E-02 0.  1.
        1   -1    0    0  501    0  0.00000000000E+00  0.00000000000E+00 -0.15955333966E+04  0.15955333966E+04  0.50400001928E-02 0. -1.
    10030    2    1    2    0    0  0.00000000000E+00  0.00000000000E+00 -0.33675185381E+03  0.28543149395E+04  0.28343803490E+04 0.  0.
        1    1    3    3  502    0  0.11144764427E+04  0.54047686428E+03  0.52512927870E+03  0.13453377797E+04  0.50400001928E-02 0.  1.
       -1    1    3    3    0  502 -0.11144764427E+04 -0.54047686428E+03 -0.86188113250E+03  0.15089771598E+04  0.50400001928E-02 0. -1.
</event>
<event>
 5   0  0.1923559E-05  0.2826041E+04  0.7818609E-02  0.8295229E-01
       -2   -1    0    0    0  501  0.00000000000E+00  0.00000000000E+00  0.12948193379E+04  0.12948193379E+04  0.25500000920E-02 0. -1.
        2   -1    0    0  501    0  0.00000000000E+00  0.00000000000E+00 -0.15420119358E+04  0.15420119358E+04  0.25500000920E-02 0.  1.
    10030    2    1    2    0    0  0.00000000000E+00  0.00000000000E+00 -0.24719259791E+03  0.28368312736E+04  0.28260409577E+04 0.  0.
        4    1    3    3  502    0 -0.93945403683E+03 -0.10554778148E+04 -0.11934268956E+03  0.14180449906E+04  0.12699999809E+01 0. -1.
       -4    1    3    3    0  502  0.93945403683E+03  0.10554778148E+04 -0.12784990835E+03  0.14187862830E+04  0.12699999809E+01 0.  1.
</event>
<event>
 5   0  0.1874272E-05  0.2811279E+04  0.7818609E-02  0.8299775E-01
       -2   -1    0    0    0  501  0.00000000000E+00  0.00000000000E+00  0.13945839612E+04  0.13945839612E+04  0.25500000920E-02 0. -1.
        2   -1    0    0  501    0  0.00000000000E+00  0.00000000000E+00 -0.14167827703E+04  0.14167827703E+04  0.25500000920E-02 0.  1.
    10030    2    1    2    0    0  0.00000000000E+00  0.00000000000E+00 -0.22198809038E+02  0.28113667315E+04  0.28112790882E+04 0.  0.
        3    1    3    3  502    0  0.13838632996E+04  0.17727996021E+03  0.16012713947E+03  0.14043313453E+04  0.10100000352E+00 0.  1.
       -3    1    3    3    0  502 -0.13838632996E+04 -0.17727996021E+03 -0.18232594850E+03  0.14070353862E+04  0.10100000352E+00 0. -1.
</event>
<event>
 5   0  0.1814230E-05  0.2854476E+04  0.7818609E-02  0.8286553E-01
        2   -1    0    0  501    0  0.00000000000E+00  0.00000000000E+00  0.21267015281E+04  0.21267015281E+04  0.25500000920E-02 0. -1.
       -2   -1    0    0    0  501  0.00000000000E+00  0.00000000000E+00 -0.95782509771E+03  0.95782509771E+03  0.25500000920E-02 0.  1.
    10030    2    1    2    0    0  0.00000000000E+00  0.00000000000E+00  0.11688764304E+04  0.30845266258E+04  0.28544758531E+04 0.  0.
        5    1    3    3  502    0 -0.56341121299E+03  0.88955270985E+03 -0.45666689898E+03  0.11477381954E+04  0.46999998093E+01 0.  1.
       -5    1    3    3    0  502  0.56341121299E+03 -0.88955270985E+03  0.16255433294E+04  0.19367884304E+04  0.46999998093E+01 0. -1.
</event>
<event>
 5   0  0.1874272E-05  0.2793451E+04  0.7818609E-02  0.8305304E-01
       -2   -1    0    0    0  501  0.00000000000E+00  0.00000000000E+00  0.12117170723E+04  0.12117170723E+04  0.25500000920E-02 0.  1.
        2   -1    0    0  501    0  0.00000000000E+00  0.00000000000E+00 -0.16099820771E+04  0.16099820771E+04  0.25500000920E-02 0. -1.
    10030    2    1    2    0    0  0.00000000000E+00  0.00000000000E+00 -0.39826500485E+03  0.28216991494E+04  0.27934514629E+04 0.  0.
        3    1    3    3  502    0 -0.11696370260E+04 -0.75402508810E+03 -0.31966284766E+03  0.14278616713E+04  0.10100000352E+00 0. -1.
       -3    1    3    3    0  502  0.11696370260E+04  0.75402508810E+03 -0.78602157189E+02  0.13938374781E+04  0.10100000352E+00 0.  1.
</event>
<event>
 5   0  0.7613444E-06  0.2794480E+04  0.7818609E-02  0.8304984E-01
        1   -1    0    0  501    0  0.00000000000E+00  0.00000000000E+00  0.10632715992E+04  0.10632715992E+04  0.50400001928E-02 0. -1.
       -1   -1    0    0    0  501  0.00000000000E+00  0.00000000000E+00 -0.18361065563E+04  0.18361065563E+04  0.50400001928E-02 0.  1.
    10030    2    1    2    0    0  0.00000000000E+00  0.00000000000E+00 -0.77283495710E+03  0.28993781555E+04  0.27944802410E+04 0.  0.
        5    1    3    3  502    0  0.68615470717E+03 -0.54626348764E+03 -0.15149253573E+04  0.17504950752E+04  0.46999998093E+01 0.  1.
       -5    1    3    3    0  502 -0.68615470717E+03  0.54626348764E+03  0.74209040020E+03  0.11488830803E+04  0.46999998093E+01 0. -1.
</event>
<event>
 5   0  0.1814230E-05  0.2813660E+04  0.7818609E-02  0.8299040E-01
        2   -1    0    0  501    0  0.00000000000E+00  0.00000000000E+00  0.26420415745E+04  0.26420415745E+04  0.25500000920E-02 0. -1.
       -2   -1    0    0    0  501  0.00000000000E+00  0.00000000000E+00 -0.74910681491E+03  0.74910681492E+03  0.25500000920E-02 0.  1.
    10030    2    1    2    0    0  0.00000000000E+00  0.00000000000E+00  0.18929347596E+04  0.33911483894E+04  0.28136604975E+04 0.  0.
        5    1    3    3  502    0 -0.64158287789E+03 -0.20553013604E+03  0.24349700170E+04  0.25264544919E+04  0.46999998093E+01 0. -1.
       -5    1    3    3    0  502  0.64158287789E+03  0.20553013604E+03 -0.54203525744E+03  0.86469389748E+03  0.46999998093E+01 0.  1.
</event>
<event>
 5   0  0.1832502E-05  0.2602385E+04  0.7818609E-02  0.8367392E-01
       -2   -1    0    0    0  501  0.00000000000E+00  0.00000000000E+00  0.12093171802E+04  0.12093171802E+04  0.25500000920E-02 0.  1.
        2   -1    0    0  501    0  0.00000000000E+00  0.00000000000E+00 -0.14000478933E+04  0.14000478933E+04  0.25500000920E-02 0. -1.
    10030    2    1    2    0    0  0.00000000000E+00  0.00000000000E+00 -0.19073071310E+03  0.26093650734E+04  0.26023850372E+04 0.  0.
        2    1    3    3  502    0  0.98319102262E+03 -0.50535463826E+03 -0.78354001098E+03  0.13549844450E+04  0.25500000920E-02 0. -1.
       -2    1    3    3    0  502 -0.98319102262E+03  0.50535463826E+03  0.59280929788E+03  0.12543806285E+04  0.25500000920E-02 0.  1.
</event>
<event>
 5   0  0.1814230E-05  0.2790134E+04  0.7818609E-02  0.8306338E-01
        2   -1    0    0  501    0  0.00000000000E+00  0.00000000000E+00  0.22578010223E+04  0.22578010224E+04  0.25500000920E-02 0.  1.
       -2   -1    0    0    0  501  0.00000000000E+00  0.00000000000E+00 -0.86199450134E+03  0.86199450134E+03  0.25500000920E-02 0. -1.
    10030    2    1    2    0    0  0.00000000000E+00  0.00000000000E+00  0.13958065210E+04  0.31197955237E+04  0.27901340945E+04 0.  0.
        5    1    3    3  502    0 -0.50863227762E+03 -0.13111077839E+03  0.21430016069E+04  0.22064393958E+04  0.46999998093E+01 0.  1.
       -5    1    3    3    0  502  0.50863227762E+03  0.13111077839E+03 -0.74719508589E+03  0.91335612792E+03  0.46999998093E+01 0. -1.
</event>
<event>
 5   0  0.7388013E-06  0.2817099E+04  0.7818609E-02  0.8297979E-01
        1   -1    0    0  501    0  0.00000000000E+00  0.00000000000E+00  0.18180006934E+04  0.18180006934E+04  0.50400001928E-02 0.  1.
       -1   -1    0    0    0  501  0.00000000000E+00  0.00000000000E+00 -0.10913150258E+04  0.10913150258E+04  0.50400001928E-02 0. -1.
    10030    2    1    2    0    0  0.00000000000E+00  0.00000000000E+00  0.72668566755E+03  0.29093157192E+04  0.28170988436E+04 0.  0.
        1    1    3    3  502    0  0.49177325156E+03  0.12358727992E+04 -0.11528147558E+03  0.13351076082E+04  0.50400001928E-02 0. -1.
       -1    1    3    3    0  502 -0.49177325156E+03 -0.12358727992E+04  0.84196714313E+03  0.15742081110E+04  0.50400001928E-02 0.  1.
</event>
<event>
 5   0  0.1832502E-05  0.2814532E+04  0.7818609E-02  0.8298771E-01
       -2   -1    0    0    0  501  0.00000000000E+00  0.00000000000E+00  0.14097370849E+04  0.14097370849E+04  0.25500000920E-02 0. -1.
        2   -1    0    0  501    0  0.00000000000E+00  0.00000000000E+00 -0.14047988024E+04  0.14047988024E+04  0.25500000920E-02 0.  1.
    10030    2    1    2    0    0  0.00000000000E+00  0.00000000000E+00  0.49382825153E+01  0.28145358873E+04  0.28145315550E+04 0.  0.
        2    1    3    3  502    0 -0.10332220116E+04 -0.88311805902E+03 -0.36215689521E+03  0.14066281840E+04  0.25500000920E-02 0. -1.
       -2    1    3    3    0  502  0.10332220116E+04  0.88311805902E+03  0.36709517772E+03  0.14079077033E+04  0.25500000920E-02 0.  1.
</event>
<event>
 5   0  0.7613444E-06  0.2761588E+04  0.7818609E-02  0.8315294E-01
        1   -1    0    0  501    0  0.00000000000E+00  0.00000000000E+00  0.12718199879E+04  0.12718199879E+04  0.50400001928E-02 0. -1.
       -1   -1    0    0    0  501  0.00000000000E+00  0.00000000000E+00 -0.14991050931E+04  0.14991050931E+04  0.50400001928E-02 0.  1.
    10030    2    1    2    0    0  0.00000000000E+00  0.00000000000E+00 -0.22728510523E+03  0.27709250809E+04  0.27615878196E+04 0.  0.
        5    1    3    3  502    0  0.10290432754E+04  0.92002888105E+03 -0.79080090717E+02  0.13826275548E+04  0.46999998093E+01 0.  1.
       -5    1    3    3    0  502 -0.10290432754E+04 -0.92002888105E+03 -0.14820501451E+03  0.13882975261E+04  0.46999998093E+01 0. -1.
</event>
<event>
 5   0  0.7555871E-06  0.2756518E+04  0.7818609E-02  0.8316896E-01
       -1   -1    0    0    0  501  0.00000000000E+00  0.00000000000E+00  0.10551836322E+04  0.10551836322E+04  0.50400001928E-02 0.  1.
        1   -1    0    0  501    0  0.00000000000E+00  0.00000000000E+00 -0.18002539986E+04  0.18002539986E+04  0.50400001928E-02 0. -1.
    10030    2    1    2    0    0  0.00000000000E+00  0.00000000000E+00 -0.74507036641E+03  0.28554376308E+04  0.27565184949E+04 0.  0.
        3    1    3    3  502    0 -0.82462358057E+03  0.10528321667E+04 -0.27196794799E+02  0.13376095457E+04  0.10100000352E+00 0.  1.
       -3    1    3    3    0  502  0.82462358057E+03 -0.10528321667E+04 -0.71787357161E+03  0.15178280851E+04  0.10100000352E+00 0. -1.
</event>
<event>
 5   0  0.1923559E-05  0.2726592E+04  0.7818609E-02  0.8326428E-01
        2   -1    0    0  501    0  0.00000000000E+00  0.00000000000E+00  0.10707075008E+04  0.10707075008E+04  0.25500000920E-02 0. -1.
       -2   -1    0    0    0  501  0.00000000000E+00  0.00000000000E+00 -0.17358385553E+04  0.17358385553E+04  0.25500000920E-02 0.  1.
    10030    2    1    2    0    0  0.00000000000E+00  0.00000000000E+00 -0.66513105450E+03  0.28065460560E+04  0.27265915435E+04 0.  0.
        4    1    3    3  502    0 -0.10824921270E+04  0.16539286200E+03 -0.11684309429E+04  0.16013670675E+04  0.12699999809E+01 0.  1.
       -4    1    3    3    0  502  0.10824921270E+04 -0.16539286200E+03  0.50329988836E+03  0.12051789885E+04  0.12699999809E+01 0. -1.
</event>
<event>
 5   0  0.7613444E-06  0.2791660E+04  0.7818609E-02  0.8305862E-01
        1   -1    0    0  501    0  0.00000000000E+00  0.00000000000E+00  0.11724499698E+04  0.11724499698E+04  0.50400001928E-02 0.  1.
       -1   -1    0    0    0  501  0.00000000000E+00  0.00000000000E+00 -0.16617692301E+04  0.16617692301E+04  0.50400001928E-02 0. -1.
    10030    2    1    2    0    0  0.00000000000E+00  0.00000000000E+00 -0.48931926030E+03  0.28342191999E+04  0.27916599246E+04 0.  0.
        5    1    3    3  502    0 -0.71605403542E+03 -0.11207996155E+04 -0.67466603215E+03  0.14913488876E+04  0.46999998093E+01 0. -1.
       -5    1    3    3    0  502  0.71605403542E+03  0.11207996155E+04  0.18534677185E+03  0.13428703123E+04  0.46999998093E+01 0.  1.
</event>
<event>
 5   0  0.7388013E-06  0.2818702E+04  0.7818609E-02  0.8297486E-01
       -1   -1    0    0    0  501  0.00000000000E+00  0.00000000000E+00  0.19736885389E+04  0.19736885389E+04  0.50400001928E-02 0. -1.
        1   -1    0    0  501    0  0.00000000000E+00  0.00000000000E+00 -0.10063744956E+04  0.10063744956E+04  0.50400001928E-02 0.  1.
    10030    2    1    2    0    0  0.00000000000E+00  0.00000000000E+00  0.96731404333E+03  0.29800630345E+04  0.28187016925E+04 0.  0.
        1    1    3    3  502    0 -0.69571439599E+03 -0.11827444918E+04  0.14374480499E+03  0.13796976562E+04  0.50400001928E-02 0.  1.
       -1    1    3    3    0  502  0.69571439599E+03  0.11827444918E+04  0.82356923833E+03  0.16003653783E+04  0.50400001928E-02 0. -1.
</event>
<event>
 5   0  0.7613444E-06  0.2766531E+04  0.7818609E-02  0.8313735E-01
        1   -1    0    0  501    0  0.00000000000E+00  0.00000000000E+00  0.16337214769E+04  0.16337214769E+04  0.50400001928E-02 0. -1.
       -1   -1    0    0    0  501  0.00000000000E+00  0.00000000000E+00 -0.11712056505E+04  0.11712056505E+04  0.50400001928E-02 0.  1.
    10030    2    1    2    0    0  0.00000000000E+00  0.00000000000E+00  0.46251582640E+03  0.28049271275E+04  0.27665312759E+04 0.  0.
        5    1    3    3  502    0  0.50376849225E+03  0.12690845794E+04  0.67269920000E+01  0.13654397482E+04  0.46999998093E+01 0.  1.
       -5    1    3    3    0  502 -0.50376849225E+03 -0.12690845794E+04  0.45578883440E+03  0.14394873793E+04  0.46999998093E+01 0. -1.
</event>
<event>
 5   0  0.1814230E-05  0.2901202E+04  0.7818609E-02  0.8272520E-01
       -2   -1    0    0    0  501  0.00000000000E+00  0.00000000000E+00  0.14878655846E+04  0.14878655846E+04  0.25500000920E-02 0.  1.
        2   -1    0    0  501    0  0.00000000000E+00  0.00000000000E+00 -0.14142698712E+04  0.14142698712E+04  0.25500000920E-02 0. -1.
    10030    2    1    2    0    0  0.00000000000E+00  0.00000000000E+00  0.73595713365E+02  0.29021354558E+04  0.29012021430E+04 0.  0.
        5    1    3    3  502    0  0.34458073070E+03  0.10086520043E+04 -0.94744276947E+03  0.14261082137E+04  0.46999998093E+01 0. -1.
       -5    1    3    3    0  502 -0.34458073070E+03 -0.10086520043E+04  0.10210384828E+04  0.14760272420E+04  0.46999998093E+01 0.  1.
</event>
<event>
 5   0  0.7388013E-06  0.2909348E+04  0.7818609E-02  0.8270102E-01
        1   -1    0    0  501    0  0.00000000000E+00  0.00000000000E+00  0.78707029359E+03  0.78707029361E+03  0.50400001928E-02 0.  1.
       -1   -1    0    0    0  501  0.00000000000E+00  0.00000000000E+00 -0.26885487213E+04  0.26885487213E+04  0.50400001928E-02 0. -1.
    10030    2    1    2    0    0  0.00000000000E+00  0.00000000000E+00 -0.19014784277E+04  0.34756190149E+04  0.29093482648E+04 0.  0.
        1    1    3    3  502    0  0.14175380061E+04  0.28859610719E+03 -0.76809186516E+03  0.16378848633E+04  0.50400001928E-02 0.  1.
       -1    1    3    3    0  502 -0.14175380061E+04 -0.28859610719E+03 -0.11333865626E+04  0.18377341517E+04  0.50400001928E-02 0. -1.
</event>
<event>
 5   0  0.6288000E-06  0.2636510E+04  0.7818609E-02  0.8355904E-01
        3   -1    0    0  501    0  0.00000000000E+00  0.00000000000E+00  0.90466098857E+03  0.90466099421E+03  0.10100000352E+00 0. -1.
       -3   -1    0    0    0  501  0.00000000000E+00  0.00000000000E+00 -0.19209363044E+04  0.19209363071E+04  0.10100000352E+00 0.  1.
    10030    2    1    2    0    0  0.00000000000E+00  0.00000000000E+00 -0.10162753158E+04  0.28255973013E+04  0.26365099263E+04 0.  0.
        3    1    3    3  502    0  0.10899553002E+03 -0.21513629337E+03  0.88081674697E+03  0.91323699127E+03  0.10100000352E+00 0. -1.
       -3    1    3    3    0  502 -0.10899553002E+03  0.21513629337E+03 -0.18970920628E+04  0.19123603100E+04  0.10100000352E+00 0.  1.
</event>
<event>
 5   0  0.1814230E-05  0.1876454E+04  0.7818609E-02  0.8666666E-01
        2   -1    0    0  501    0  0.00000000000E+00  0.00000000000E+00  0.16417499660E+04  0.16417499660E+04  0.25500000920E-02 0. -1.
       -2   -1    0    0    0  501  0.00000000000E+00  0.00000000000E+00 -0.53617769516E+03  0.53617769517E+03  0.25500000920E-02 0.  1.
    10030    2    1    2    0    0  0.00000000000E+00  0.00000000000E+00  0.11055722708E+04  0.21779276612E+04  0.18764537967E+04 0.  0.
        5    1    3    3  502    0 -0.32231988590E+03 -0.69693264828E+03 -0.72941101045E+02  0.77132854174E+03  0.46999998093E+01 0.  1.
       -5    1    3    3    0  502  0.32231988590E+03  0.69693264828E+03  0.11785133719E+04  0.14065991194E+04  0.46999998093E+01 0. -1.
</event>
<event>
 5   0  0.7613444E-06  0.2795251E+04  0.7818609E-02  0.8304744E-01
        1   -1    0    0  501    0  0.00000000000E+00  0.00000000000E+00  0.11521884950E+04  0.11521884950E+04  0.50400001928E-02 0.  1.
       -1   -1    0    0    0  501  0.00000000000E+00  0.00000000000E+00 -0.16953444465E+04  0.16953444465E+04  0.50400001928E-02 0. -1.
    10030    2    1    2    0    0  0.00000000000E+00  0.00000000000E+00 -0.54315595149E+03  0.28475329416E+04  0.27952505193E+04 0.  0.
        5    1    3    3  502    0 -0.43998361142E+02 -0.67311686791E+03 -0.15185283327E+04  0.16616174532E+04  0.46999998093E+01 0. -1.
       -5    1    3    3    0  502  0.43998361142E+02  0.67311686791E+03  0.97537238117E+03  0.11859154884E+04  0.46999998093E+01 0.  1.
</event>
<event>
 5   0  0.1923559E-05  0.2331118E+04  0.7818609E-02  0.8465752E-01
       -2   -1    0    0    0  501  0.00000000000E+00  0.00000000000E+00  0.89485562661E+03  0.89485562662E+03  0.25500000920E-02 0. -1.
        2   -1    0    0  501    0  0.00000000000E+00  0.00000000000E+00 -0.15181534279E+04  0.15181534279E+04  0.25500000920E-02 0.  1.
    10030    2    1    2    0    0  0.00000000000E+00  0.00000000000E+00 -0.62329780133E+03  0.24130090546E+04  0.23311183042E+04 0.  0.
        4    1    3    3  502    0 -0.84748620123E+03  0.72752452694E+03  0.33224343313E+02  0.11174212583E+04  0.12699999809E+01 0. -1.
       -4    1    3    3    0  502  0.84748620123E+03 -0.72752452694E+03 -0.65652214464E+03  0.12955877963E+04  0.12699999809E+01 0.  1.
</event>
<event>
 5   0  0.7509685E-06  0.2680185E+04  0.7818609E-02  0.8341463E-01
       -1   -1    0    0    0  501  0.00000000000E+00  0.00000000000E+00  0.17762448354E+04  0.17762448354E+04  0.50400001928E-02 0.  1.
        1   -1    0    0  501    0  0.00000000000E+00  0.00000000000E+00 -0.10110363131E+04  0.10110363131E+04  0.50400001928E-02 0. -1.
    10030    2    1    2    0    0  0.00000000000E+00  0.00000000000E+00  0.76520852228E+03  0.27872811485E+04  0.26801850903E+04 0.  0.
        4    1    3    3  502    0 -0.72237259074E+03 -0.63335756022E+03  0.13542185060E+04  0.16603834900E+04  0.12699999809E+01 0.  1.
       -4    1    3    3    0  502  0.72237259074E+03  0.63335756022E+03 -0.58900998373E+03  0.11268976585E+04  0.12699999809E+01 0. -1.
</event>
<event>
 5   0  0.7681342E-06  0.2843143E+04  0.7818609E-02  0.8289998E-01
       -1   -1    0    0    0  501  0.00000000000E+00  0.00000000000E+00  0.97414168109E+03  0.97414168110E+03  0.50400001928E-02 0.  1.
        1   -1    0    0  501    0  0.00000000000E+00  0.00000000000E+00 -0.20745093100E+04  0.20745093100E+04  0.50400001928E-02 0. -1.
    10030    2    1    2    0    0  0.00000000000E+00  0.00000000000E+00 -0.11003676289E+04  0.30486509911E+04  0.28431433216E+04 0.  0.
        2    1    3    3  502    0  0.67255376435E+03 -0.12405492811E+04 -0.36577969727E+03  0.14577674272E+04  0.25500000920E-02 0.  1.
       -2    1    3    3    0  502 -0.67255376435E+03  0.12405492811E+04 -0.73458793168E+03  0.15908835640E+04  0.25500000920E-02 0. -1.
</event>
<event>
 5   0  0.7555871E-06  0.2789720E+04  0.7818609E-02  0.8306467E-01
       -1   -1    0    0    0  501  0.00000000000E+00  0.00000000000E+00  0.99071087242E+03  0.99071087243E+03  0.50400001928E-02 0.  1.
        1   -1    0    0  501    0  0.00000000000E+00  0.00000000000E+00 -0.19638766571E+04  0.19638766571E+04  0.50400001928E-02 0. -1.
    10030    2    1    2    0    0  0.00000000000E+00  0.00000000000E+00 -0.97316578472E+03  0.29545875296E+04  0.27897196679E+04 0.  0.
        3    1    3    3  502    0  0.42071259518E+03 -0.96987817757E+03  0.47712165003E+03  0.11598740648E+04  0.10100000352E+00 0.  1.
       -3    1    3    3    0  502 -0.42071259518E+03  0.96987817757E+03 -0.14502874347E+04  0.17947134648E+04  0.10100000352E+00 0. -1.
</event>
<event>
 5   0  0.1874272E-05  0.2869807E+04  0.7818609E-02  0.8281918E-01
       -2   -1    0    0    0  501  0.00000000000E+00  0.00000000000E+00  0.16388612552E+04  0.16388612552E+04  0.25500000920E-02 0.  1.
        2   -1    0    0  501    0  0.00000000000E+00  0.00000000000E+00 -0.12563281552E+04  0.12563281552E+04  0.25500000920E-02 0. -1.
    10030    2    1    2    0    0  0.00000000000E+00  0.00000000000E+00  0.38253310005E+03  0.28951894104E+04  0.28698066397E+04 0.  0.
        3    1    3    3  502    0  0.12213408400E+04  0.17806470338E+03  0.92956382738E+03  0.15451438138E+04  0.10100000352E+00 0.  1.
       -3    1    3    3    0  502 -0.12213408400E+04 -0.17806470338E+03 -0.54703072733E+03  0.13500455966E+04  0.10100000352E+00 0. -1.
</event>
<event>
 5   0  0.7681342E-06  0.2764486E+04  0.7818609E-02  0.8314380E-01
        1   -1    0    0  501    0  0.00000000000E+00  0.00000000000E+00  0.23025942107E+04  0.23025942107E+04  0.50400001928E-02 0.  1.
       -1   -1    0    0    0  501  0.00000000000E+00  0.00000000000E+00 -0.82975786680E+03  0.82975786682E+03  0.50400001928E-02 0. -1.
    10030    2    1    2    0    0  0.00000000000E+00  0.00000000000E+00  0.14728363439E+04  0.31323520775E+04  0.27644859633E+04 0.  0.
        2    1    3    3  502    0 -0.13816800363E+04 -0.36874928518E+02  0.75228830674E+03  0.15736381984E+04  0.25500000920E-02 0.  1.
       -2    1    3    3    0  502  0.13816800363E+04  0.36874928518E+02  0.72054803712E+03  0.15587138791E+04  0.25500000920E-02 0. -1.
</event>
<event>
 5   0  0.7681342E-06  0.2787503E+04  0.7818609E-02  0.8307159E-01
        1   -1    0    0  501    0  0.00000000000E+00  0.00000000000E+00  0.19197701622E+04  0.19197701622E+04  0.50400001928E-02 0.  1.
       -1   -1    0    0    0  501  0.00000000000E+00  0.00000000000E+00 -0.10118622834E+04  0.10118622834E+04  0.50400001928E-02 0. -1.
    10030    2    1    2    0    0  0.00000000000E+00  0.00000000000E+00  0.90790787878E+03  0.29316324457E+04  0.27875028395E+04 0.  0.
        2    1    3    3  502    0  0.79504390249E+03 -0.17458097807E+03 -0.73590107395E+03  0.10973257107E+04  0.25500000920E-02 0. -1.
       -2    1    3    3    0  502 -0.79504390249E+03  0.17458097807E+03  0.16438089527E+04  0.18343067349E+04  0.25500000920E-02 0.  1.
</event>
<event>
 5   0  0.1814230E-05  0.2888876E+04  0.7818609E-02  0.8276195E-01
        2   -1    0    0  501    0  0.00000000000E+00  0.00000000000E+00  0.12324700889E+04  0.12324700889E+04  0.25500000920E-02 0.  1.
       -2   -1    0    0    0  501  0.00000000000E+00  0.00000000000E+00 -0.16928617054E+04  0.16928617054E+04  0.25500000920E-02 0. -1.
    10030    2    1    2    0    0  0.00000000000E+00  0.00000000000E+00 -0.46039161654E+03  0.29253317943E+04  0.28888761943E+04 0.  0.
        5    1    3    3  502    0 -0.27032452030E+03  0.11900758230E+04 -0.10126193697E+04  0.15858044926E+04  0.46999998093E+01 0. -1.
       -5    1    3    3    0  502  0.27032452030E+03 -0.11900758230E+04  0.55222775316E+03  0.13395273017E+04  0.46999998093E+01 0.  1.
</event>
<event>
 5   0  0.1923559E-05  0.2778672E+04  0.7818609E-02  0.8309921E-01
       -2   -1    0    0    0  501  0.00000000000E+00  0.00000000000E+00  0.14413723261E+04  0.14413723261E+04  0.25500000920E-02 0. -1.
        2   -1    0    0  501    0  0.00000000000E+00  0.00000000000E+00 -0.13391782532E+04  0.13391782532E+04  0.25500000920E-02 0.  1.
    10030    2    1    2    0    0  0.00000000000E+00  0.00000000000E+00  0.10219407288E+03  0.27805505794E+04  0.27786719662E+04 0.  0.
        4    1    3    3  502    0 -0.87937433439E+03  0.12048578636E+03 -0.10184739537E+04  0.13509651557E+04  0.12699999809E+01 0.  1.
       -4    1    3    3    0  502  0.87937433439E+03 -0.12048578636E+03  0.11206680266E+04  0.14295854236E+04  0.12699999809E+01 0. -1.
</event>
<event>
 5   0  0.7681342E-06  0.2766638E+04  0.7818609E-02  0.8313701E-01
        1   -1    0    0  501    0  0.00000000000E+00  0.00000000000E+00  0.19662256400E+04  0.19662256400E+04  0.50400001928E-02 0.  1.
       -1   -1    0    0    0  501  0.00000000000E+00  0.00000000000E+00 -0.97322076095E+03  0.97322076097E+03  0.50400001928E-02 0. -1.
    10030    2    1    2    0    0  0.00000000000E+00  0.00000000000E+00  0.99300487901E+03  0.29394464009E+04  0.27666381141E+04 0.  0.
        2    1    3    3  502    0  0.74773939862E+03 -0.49357150614E+03 -0.62329595067E+03  0.10914324908E+04  0.25500000920E-02 0. -1.
       -2    1    3    3    0  502 -0.74773939862E+03  0.49357150614E+03  0.16163008297E+04  0.18480139101E+04  0.25500000920E-02 0.  1.
</event>
<event>
 5   0  0.7555871E-06  0.2846772E+04  0.7818609E-02  0.8288893E-01
       -1   -1    0    0    0  501  0.00000000000E+00  0.00000000000E+00  0.16273580842E+04  0.16273580842E+04  0.50400001928E-02 0.  1.
        1   -1    0    0  501    0  0.00000000000E+00  0.00000000000E+00 -0.12449799432E+04  0.12449799432E+04  0.50400001928E-02 0. -1.
    10030    2    1    2    0    0  0.00000000000E+00  0.00000000000E+00  0.38237814100E+03  0.28723380275E+04  0.28467723305E+04 0.  0.
        3    1    3    3  502    0 -0.65148566773E+03  0.20916588626E+03 -0.10681562301E+04  0.12685194856E+04  0.10100000352E+00 0. -1.
       -3    1    3    3    0  502  0.65148566773E+03 -0.20916588626E+03  0.14505343711E+04  0.16038185419E+04  0.10100000352E+00 0.  1.
</event>
<event>
 5   0  0.7555871E-06  0.2705082E+04  0.7818609E-02  0.8333358E-01
        1   -1    0    0  501    0  0.00000000000E+00  0.00000000000E+00  0.14013110551E+04  0.14013110551E+04  0.50400001928E-02 0.  1.
       -1   -1    0    0    0  501  0.00000000000E+00  0.00000000000E+00 -0.13054684815E+04  0.13054684815E+04  0.50400001928E-02 0. -1.
    10030    2    1    2    0    0  0.00000000000E+00  0.00000000000E+00  0.95842573590E+02  0.27067795366E+04  0.27050821911E+04 0.  0.
        3    1    3    3  502    0  0.66806159331E+03  0.91018678096E+03 -0.69727490604E+03  0.13270036072E+04  0.10100000352E+00 0. -1.
       -3    1    3    3    0  502 -0.66806159331E+03 -0.91018678096E+03  0.79311747963E+03  0.13797759294E+04  0.10100000352E+00 0.  1.
</event>
<event>
 5   0  0.1832502E-05  0.2333178E+04  0.7818609E-02  0.8464953E-01
       -2   -1    0    0    0  501  0.00000000000E+00  0.00000000000E+00  0.78102289961E+03  0.78102289961E+03  0.25500000920E-02 0.  1.
        2   -1    0    0  501    0  0.00000000000E+00  0.00000000000E+00 -0.17424974192E+04  0.17424974192E+04  0.25500000920E-02 0. -1.
    10030    2    1    2    0    0  0.00000000000E+00  0.00000000000E+00 -0.96147451957E+03  0.25235203188E+04  0.23331784217E+04 0.  0.
        2    1    3    3  502    0 -0.56054957612E+03 -0.15096555860E+03  0.61370463039E+03  0.84477204057E+03  0.25500000920E-02 0.  1.
       -2    1    3    3    0  502  0.56054957612E+03  0.15096555860E+03 -0.15751791500E+04  0.16787482782E+04  0.25500000920E-02 0. -1.
</event>
<event>
 5   0  0.7388013E-06  0.2803786E+04  0.7818609E-02  0.8302094E-01
        1   -1    0    0  501    0  0.00000000000E+00  0.00000000000E+00  0.10463947501E+04  0.10463947502E+04  0.50400001928E-02 0. -1.
       -1   -1    0    0    0  501  0.00000000000E+00  0.00000000000E+00 -0.18781665834E+04  0.18781665834E+04  0.50400001928E-02 0.  1.
    10030    2    1    2    0    0  0.00000000000E+00  0.00000000000E+00 -0.83177183326E+03  0.29245613336E+04  0.28037857641E+04 0.  0.
        1    1    3    3  502    0  0.42174296173E+03 -0.13296830667E+04 -0.27067915288E+03  0.14209825430E+04  0.50400001928E-02 0. -1.
       -1    1    3    3    0  502 -0.42174296173E+03  0.13296830667E+04 -0.56109268038E+03  0.15035787906E+04  0.50400001928E-02 0.  1.
</event>
<event>
 5   0  0.1814230E-05  0.2807830E+04  0.7818609E-02  0.8300842E-01
       -2   -1    0    0    0  501  0.00000000000E+00  0.00000000000E+00  0.12894596708E+04  0.12894596708E+04  0.25500000920E-02 0. -1.
        2   -1    0    0  501    0  0.00000000000E+00  0.00000000000E+00 -0.15285291440E+04  0.15285291440E+04  0.25500000920E-02 0.  1.
    10030    2    1    2    0    0  0.00000000000E+00  0.00000000000E+00 -0.23906947318E+03  0.28179888149E+04  0.28078295439E+04 0.  0.
        5    1    3    3  502    0  0.44415916412E+03 -0.69663962951E+02  0.12152488485E+04  0.12957554880E+04  0.46999998093E+01 0. -1.
       -5    1    3    3    0  502 -0.44415916412E+03  0.69663962951E+02 -0.14543183217E+04  0.15222333269E+04  0.46999998093E+01 0.  1.
</event>
<event>
 5   0  0.7555871E-06  0.2753713E+04  0.7818609E-02  0.8317785E-01
       -1   -1    0    0    0  501  0.00000000000E+00  0.00000000000E+00  0.13874317823E+04  0.13874317823E+04  0.50400001928E-02 0.  1.
        1   -1    0    0  501    0  0.00000000000E+00  0.00000000000E+00 -0.13663613681E+04  0.13663613681E+04  0.50400001928E-02 0. -1.
    10030    2    1    2    0    0  0.00000000000E+00  0.00000000000E+00  0.21070414254E+02  0.27537931504E+04  0.27537125400E+04 0.  0.
        3    1    3    3  502    0  0.12410956706E+04  0.20748899570E+03 -0.54837562594E+03  0.13726201165E+04  0.10100000352E+00 0. -1.
       -3    1    3    3    0  502 -0.12410956706E+04 -0.20748899570E+03  0.56944604020E+03  0.13811730340E+04  0.10100000352E+00 0.  1.
</event>
<event>
 5   0  0.1832502E-05  0.2803580E+04  0.7818609E-02  0.8302158E-01
       -2   -1    0    0    0  501  0.00000000000E+00  0.00000000000E+00  0.86609024363E+03  0.86609024363E+03  0.25500000920E-02 0.  1.
        2   -1    0    0  501    0  0.00000000000E+00  0.00000000000E+00 -0.22688349880E+04  0.22688349880E+04  0.25500000920E-02 0. -1.
    10030    2    1    2    0    0  0.00000000000E+00  0.00000000000E+00 -0.14027447444E+04  0.31349252317E+04  0.28035804590E+04 0.  0.
        2    1    3    3  502    0 -0.13317271331E+04 -0.31032522851E+03 -0.10464138302E+04  0.17218538871E+04  0.25500000920E-02 0. -1.
       -2    1    3    3    0  502  0.13317271331E+04  0.31032522851E+03 -0.35633091421E+03  0.14130713446E+04  0.25500000920E-02 0.  1.
</event>
<event>
 5   0  0.1814230E-05  0.2782071E+04  0.7818609E-02  0.8308856E-01
        2   -1    0    0  501    0  0.00000000000E+00  0.00000000000E+00  0.16253322400E+04  0.16253322400E+04  0.25500000920E-02 0. -1.
       -2   -1    0    0    0  501  0.00000000000E+00  0.00000000000E+00 -0.11905137178E+04  0.11905137178E+04  0.25500000920E-02 0.  1.
    10030    2    1    2    0    0  0.00000000000E+00  0.00000000000E+00  0.43481852217E+03  0.28158459578E+04  0.27820714065E+04 0.  0.
        5    1    3    3  502    0  0.99191333350E+03 -0.54579381164E+03  0.10354133868E+04  0.15342378947E+04  0.46999998093E+01 0. -1.
       -5    1    3    3    0  502 -0.99191333350E+03  0.54579381164E+03 -0.60059486462E+03  0.12816080631E+04  0.46999998093E+01 0.  1.
</event>
<event>
 5   0  0.7388013E-06  0.2580263E+04  0.7818609E-02  0.8374936E-01
       -1   -1    0    0    0  501  0.00000000000E+00  0.00000000000E+00  0.14246683976E+04  0.14246683976E+04  0.50400001928E-02 0.  1.
        1   -1    0    0  501    0  0.00000000000E+00  0.00000000000E+00 -0.11682995053E+04  0.11682995053E+04  0.50400001928E-02 0. -1.
    10030    2    1    2    0    0  0.00000000000E+00  0.00000000000E+00  0.25636889233E+03  0.25929679029E+04  0.25802630751E+04 0.  0.
        1    1    3    3  502    0 -0.64258899256E+03  0.10481722820E+04  0.52107450783E+03  0.13353293185E+04  0.50400001928E-02 0.  1.
       -1    1    3    3    0  502  0.64258899256E+03 -0.10481722820E+04 -0.26470561550E+03  0.12576385844E+04  0.50400001928E-02 0. -1.
</event>
<event>
 5   0  0.7509685E-06  0.2421728E+04  0.7818609E-02  0.8431413E-01
       -1   -1    0    0    0  501  0.00000000000E+00  0.00000000000E+00  0.86550583543E+03  0.86550583544E+03  0.50400001928E-02 0.  1.
        1   -1    0    0  501    0  0.00000000000E+00  0.00000000000E+00 -0.16940292673E+04  0.16940292673E+04  0.50400001928E-02 0. -1.
    10030    2    1    2    0    0  0.00000000000E+00  0.00000000000E+00 -0.82852343186E+03  0.25595351027E+04  0.24217284871E+04 0.  0.
        4    1    3    3  502    0  0.13875810959E+03 -0.84772887243E+02  0.85391342469E+03  0.86925830749E+03  0.12699999809E+01 0.  1.
       -4    1    3    3    0  502 -0.13875810959E+03  0.84772887243E+02 -0.16824368566E+04  0.16902767953E+04  0.12699999809E+01 0. -1.
</event>
<event>
 5   0  0.1874272E-05  0.2667280E+04  0.7818609E-02  0.8345700E-01
       -2   -1    0    0    0  501  0.00000000000E+00  0.00000000000E+00  0.15126775403E+04  0.15126775403E+04  0.25500000920E-02 0.  1.
        2   -1    0    0  501    0  0.00000000000E+00  0.00000000000E+00 -0.11757928383E+04  0.11757928383E+04  0.25500000920E-02 0. -1.
    10030    2    1    2    0    0  0.00000000000E+00  0.00000000000E+00  0.33688470197E+03  0.26884703786E+04  0.26672798268E+04 0.  0.
        3    1    3    3  502    0  0.85772310550E+03 -0.60919832609E+03 -0.65769349272E+03  0.12407144179E+04  0.10100000352E+00 0. -1.
       -3    1    3    3    0  502 -0.85772310550E+03  0.60919832609E+03  0.99457819469E+03  0.14477559607E+04  0.10100000352E+00 0.  1.
</event>
<event>
 5   0  0.7613444E-06  0.2805818E+04  0.7818609E-02  0.8301464E-01
        1   -1    0    0  501    0  0.00000000000E+00  0.00000000000E+00  0.18715107964E+04  0.18715107964E+04  0.50400001928E-02 0. -1.
       -1   -1    0    0    0  501  0.00000000000E+00  0.00000000000E+00 -0.10516391075E+04  0.10516391075E+04  0.50400001928E-02 0.  1.
    10030    2    1    2    0    0  0.00000000000E+00  0.00000000000E+00  0.81987168892E+03  0.29231499039E+04  0.28058182005E+04 0.  0.
        5    1    3    3  502    0  0.47599359943E+03  0.83162020439E+03 -0.65759383836E+03  0.11621591187E+04  0.46999998093E+01 0.  1.
       -5    1    3    3    0  502 -0.47599359943E+03 -0.83162020439E+03  0.14774655273E+04  0.17609907851E+04  0.46999998093E+01 0. -1.
</event>
<event>
 5   0  0.1904553E-05  0.2810386E+04  0.7818609E-02  0.8300051E-01
        2   -1    0    0  501    0  0.00000000000E+00  0.00000000000E+00  0.10895022887E+04  0.10895022887E+04  0.25500000920E-02 0. -1.
       -2   -1    0    0    0  501  0.00000000000E+00  0.00000000000E+00 -0.18123577907E+04  0.18123577907E+04  0.25500000920E-02 0.  1.
    10030    2    1    2    0    0  0.00000000000E+00  0.00000000000E+00 -0.72285550207E+03  0.29018600794E+04  0.28103864224E+04 0.  0.
        1    1    3    3  502    0 -0.95750641630E+03  0.81905492102E+03 -0.10036848745E+04  0.16109167664E+04  0.50400001928E-02 0. -1.
       -1    1    3    3    0  502  0.95750641630E+03 -0.81905492102E+03  0.28082937245E+03  0.12909433130E+04  0.50400001928E-02 0.  1.
</event>
<event>
 5   0  0.7388013E-06  0.2893478E+04  0.7818609E-02  0.8274821E-01
        1   -1    0    0  501    0  0.00000000000E+00  0.00000000000E+00  0.16592753494E+04  0.16592753494E+04  0.50400001928E-02 0. -1.
       -1   -1    0    0    0  501  0.00000000000E+00  0.00000000000E+00 -0.12614266218E+04  0.12614266218E+04  0.50400001928E-02 0.  1.
    10030    2    1    2    0    0  0.00000000000E+00  0.00000000000E+00  0.39784872761E+03  0.29207019713E+04  0.28934782520E+04 0.  0.
        1    1    3    3  502    0  0.34644912782E+02 -0.36831034211E+03  0.16107263716E+04  0.16526621622E+04  0.50400001928E-02 0. -1.
       -1    1    3    3    0  502 -0.34644912782E+02  0.36831034211E+03 -0.12128776440E+04  0.12680398091E+04  0.50400001928E-02 0.  1.
</event>
<event>
 5   0  0.1832502E-05  0.2996518E+04  0.7818609E-02  0.8244726E-01
        2   -1    0    0  501    0  0.00000000000E+00  0.00000000000E+00  0.33775856694E+04  0.33775856694E+04  0.25500000920E-02 0.  1.
       -2   -1    0    0    0  501  0.00000000000E+00  0.00000000000E+00 -0.66461089808E+03  0.66461089809E+03  0.25500000920E-02 0. -1.
    10030    2    1    2    0    0  0.00000000000E+00  0.00000000000E+00  0.27129747713E+04  0.40421965674E+04  0.29965181428E+04 0.  0.
        2    1    3    3  502    0  0.94905162422E+02  0.27691389459E+03  0.33386354218E+04  0.33514436851E+04  0.25500000920E-02 0.  1.
       -2    1    3    3    0  502 -0.94905162422E+02 -0.27691389459E+03 -0.62566065050E+03  0.69075288234E+03  0.25500000920E-02 0. -1.
</event>
<event>
 5   0  0.7555871E-06  0.2805581E+04  0.7818609E-02  0.8301538E-01
       -1   -1    0    0    0  501  0.00000000000E+00  0.00000000000E+00  0.13041132636E+04  0.13041132636E+04  0.50400001928E-02 0.  1.
        1   -1    0    0  501    0  0.00000000000E+00  0.00000000000E+00 -0.15089345702E+04  0.15089345702E+04  0.50400001928E-02 0. -1.
    10030    2    1    2    0    0  0.00000000000E+00  0.00000000000E+00 -0.20482130655E+03  0.28130478338E+04  0.28055812851E+04 0.  0.
        3    1    3    3  502    0  0.40132135959E+03 -0.13430445268E+04 -0.15727503210E+03  0.14105186565E+04  0.10100000352E+00 0.  1.
       -3    1    3    3    0  502 -0.40132135959E+03  0.13430445268E+04 -0.47546274452E+02  0.14025291772E+04  0.10100000352E+00 0. -1.
</event>
<event>
 5   0  0.1923559E-05  0.2924743E+04  0.7818609E-02  0.8265554E-01
        2   -1    0    0  501    0  0.00000000000E+00  0.00000000000E+00  0.25395275338E+04  0.25395275338E+04  0.25500000920E-02 0. -1.
       -2   -1    0    0    0  501  0.00000000000E+00  0.00000000000E+00 -0.84209785790E+03  0.84209785791E+03  0.25500000920E-02 0.  1.
    10030    2    1    2    0    0  0.00000000000E+00  0.00000000000E+00  0.16974296759E+04  0.33816253917E+04  0.29247431999E+04 0.  0.
        4    1    3    3  502    0 -0.40488852619E+03  0.20805799640E+03 -0.75809072710E+03  0.88426580388E+03  0.12699999809E+01 0.  1.
       -4    1    3    3    0  502  0.40488852619E+03 -0.20805799640E+03  0.24555204030E+04  0.24973595878E+04  0.12699999809E+01 0. -1.
</event>
<event>
 5   0  0.1904553E-05  0.2799997E+04  0.7818609E-02  0.8303269E-01
        2   -1    0    0  501    0  0.00000000000E+00  0.00000000000E+00  0.14225874219E+04  0.14225874219E+04  0.25500000920E-02 0.  1.
       -2   -1    0    0    0  501  0.00000000000E+00  0.00000000000E+00 -0.13777683012E+04  0.13777683012E+04  0.25500000920E-02 0. -1.
    10030    2    1    2    0    0  0.00000000000E+00  0.00000000000E+00  0.44819120617E+02  0.28003557231E+04  0.27999970397E+04 0.  0.
        1    1    3    3  502    0 -0.74014879790E+03  0.90050775376E+03 -0.75310024144E+03  0.13877659858E+04  0.50400001928E-02 0. -1.
       -1    1    3    3    0  502  0.74014879790E+03 -0.90050775376E+03  0.79791936205E+03  0.14125897373E+04  0.50400001928E-02 0.  1.
</event>
<event>
 5   0  0.7555871E-06  0.2837860E+04  0.7818609E-02  0.8291610E-01
       -1   -1    0    0    0  501  0.00000000000E+00  0.00000000000E+00  0.20295173389E+04  0.20295173389E+04  0.50400001928E-02 0. -1.
        1   -1    0    0  501    0  0.00000000000E+00  0.00000000000E+00 -0.99203991772E+03  0.99203991774E+03  0.50400001928E-02 0.  1.
    10030    2    1    2    0    0  0.00000000000E+00  0.00000000000E+00  0.10374774212E+04  0.30215572566E+04  0.28378599077E+04 0.  0.
        3    1    3    3  502    0  0.11806262741E+04 -0.64013051207E+03  0.10063305368E+04  0.16781974351E+04  0.10100000352E+00 0. -1.
       -3    1    3    3    0  502 -0.11806262741E+04  0.64013051207E+03  0.31146884402E+02  0.13433598216E+04  0.10100000352E+00 0.  1.
</event>
<event>
 5   0  0.7613444E-06  0.2656622E+04  0.7818609E-02  0.8349218E-01
        1   -1    0    0  501    0  0.00000000000E+00  0.00000000000E+00  0.24901259442E+04  0.24901259442E+04  0.50400001928E-02 0.  1.
       -1   -1    0    0    0  501  0.00000000000E+00  0.00000000000E+00 -0.70856273294E+03  0.70856273296E+03  0.50400001928E-02 0. -1.
    10030    2    1    2    0    0  0.00000000000E+00  0.00000000000E+00  0.17815632113E+04  0.31986886772E+04  0.26566222497E+04 0.  0.
        5    1    3    3  502    0 -0.10712678742E+04  0.45334454120E+03  0.11864116935E+03  0.11692877954E+04  0.46999998093E+01 0. -1.
       -5    1    3    3    0  502  0.10712678742E+04 -0.45334454120E+03  0.16629220420E+04  0.20294008818E+04  0.46999998093E+01 0.  1.
</event>
<event>
 5   0  0.7555871E-06  0.2627042E+04  0.7818609E-02  0.8359073E-01
        1   -1    0    0  501    0  0.00000000000E+00  0.00000000000E+00  0.10105909487E+04  0.10105909487E+04  0.50400001928E-02 0. -1.
       -1   -1    0    0    0  501  0.00000000000E+00  0.00000000000E+00 -0.17072562164E+04  0.17072562164E+04  0.50400001928E-02 0.  1.
    10030    2    1    2    0    0  0.00000000000E+00  0.00000000000E+00 -0.69666526773E+03  0.27178471651E+04  0.26270421994E+04 0.  0.
        3    1    3    3  502    0  0.61461491359E+03  0.54307533742E+03 -0.14097864042E+04  0.16310058337E+04  0.10100000352E+00 0.  1.
       -3    1    3    3    0  502 -0.61461491359E+03 -0.54307533742E+03  0.71312113642E+03  0.10868413314E+04  0.10100000352E+00 0. -1.
</event>
<event>
 5   0  0.6288000E-06  0.2777679E+04  0.7818609E-02  0.8310232E-01
       -3   -1    0    0    0  501  0.00000000000E+00  0.00000000000E+00  0.18756957475E+04  0.18756957502E+04  0.10100000352E+00 0. -1.
        3   -1    0    0  501    0  0.00000000000E+00  0.00000000000E+00 -0.10283517322E+04  0.10283517372E+04  0.10100000352E+00 0.  1.
    10030    2    1    2    0    0  0.00000000000E+00  0.00000000000E+00  0.84734401522E+03  0.29040474874E+04  0.27776788743E+04 0.  0.
        1    1    3    3  502    0 -0.35947155074E+03 -0.71344324366E+03 -0.76408220958E+03  0.11054603931E+04  0.50400001928E-02 0.  1.
       -1    1    3    3    0  502  0.35947155074E+03  0.71344324366E+03  0.16114262248E+04  0.17985870943E+04  0.50400001928E-02 0. -1.
</event>
<event>
 5   0  0.1832502E-05  0.2735248E+04  0.7818609E-02  0.8323658E-01
        2   -1    0    0  501    0  0.00000000000E+00  0.00000000000E+00  0.24177449011E+04  0.24177449011E+04  0.25500000920E-02 0.  1.
       -2   -1    0    0    0  501  0.00000000000E+00  0.00000000000E+00 -0.77361157551E+03  0.77361157551E+03  0.25500000920E-02 0. -1.
    10030    2    1    2    0    0  0.00000000000E+00  0.00000000000E+00  0.16441333256E+04  0.31913564766E+04  0.27352480269E+04 0.  0.
        2    1    3    3  502    0 -0.60421173298E+03  0.25200277639E+03 -0.57891954492E+03  0.87391364395E+03  0.25500000920E-02 0. -1.
       -2    1    3    3    0  502  0.60421173298E+03 -0.25200277639E+03  0.22230528705E+04  0.23174428327E+04  0.25500000920E-02 0.  1.
</event>
<event>
 5   0  0.7555871E-06  0.2771618E+04  0.7818609E-02  0.8312134E-01
       -1   -1    0    0    0  501  0.00000000000E+00  0.00000000000E+00  0.13338432991E+04  0.13338432991E+04  0.50400001928E-02 0.  1.
        1   -1    0    0  501    0  0.00000000000E+00  0.00000000000E+00 -0.14397992382E+04  0.14397992382E+04  0.50400001928E-02 0. -1.
    10030    2    1    2    0    0  0.00000000000E+00  0.00000000000E+00 -0.10595593902E+03  0.27736425373E+04  0.27716179866E+04 0.  0.
        3    1    3    3  502    0 -0.13556832687E+04 -0.27885741282E+03 -0.12251234883E+03  0.13894775520E+04  0.10100000352E+00 0. -1.
       -3    1    3    3    0  502  0.13556832687E+04  0.27885741282E+03  0.16556409807E+02  0.13841649853E+04  0.10100000352E+00 0.  1.
</event>
<event>
 5   0  0.1904553E-05  0.2682526E+04  0.7818609E-02  0.8340697E-01
        2   -1    0    0  501    0  0.00000000000E+00  0.00000000000E+00  0.13342367244E+04  0.13342367244E+04  0.25500000920E-02 0. -1.
       -2   -1    0    0    0  501  0.00000000000E+00  0.00000000000E+00 -0.13483265982E+04  0.13483265982E+04  0.25500000920E-02 0.  1.
    10030    2    1    2    0    0  0.00000000000E+00  0.00000000000E+00 -0.14089873847E+02  0.26825633226E+04  0.26825263195E+04 0.  0.
        1    1    3    3  502    0  0.16415395448E+03 -0.50414797017E+02  0.13231984652E+04  0.13342947016E+04  0.50400001928E-02 0. -1.
       -1    1    3    3    0  502 -0.16415395448E+03  0.50414797017E+02 -0.13372883390E+04  0.13482686209E+04  0.50400001928E-02 0.  1.
</event>
<event>
 5   0  0.1923559E-05  0.2760696E+04  0.7818609E-02  0.8315576E-01
        2   -1    0    0  501    0  0.00000000000E+00  0.00000000000E+00  0.18320870258E+04  0.18320870258E+04  0.25500000920E-02 0. -1.
       -2   -1    0    0    0  501  0.00000000000E+00  0.00000000000E+00 -0.10399944015E+04  0.10399944015E+04  0.25500000920E-02 0.  1.
    10030    2    1    2    0    0  0.00000000000E+00  0.00000000000E+00  0.79209262430E+03  0.28720814272E+04  0.27606957455E+04 0.  0.
        4    1    3    3  502    0 -0.52912256429E+03 -0.20597072869E+03  0.17049681780E+04  0.17970288618E+04  0.12699999809E+01 0. -1.
       -4    1    3    3    0  502  0.52912256429E+03  0.20597072869E+03 -0.91287555369E+03  0.10750525655E+04  0.12699999809E+01 0.  1.
</event>
<event>
 5   0  0.7613444E-06  0.2321070E+04  0.7818609E-02  0.8469660E-01
       -1   -1    0    0    0  501  0.00000000000E+00  0.00000000000E+00  0.16999367416E+04  0.16999367416E+04  0.50400001928E-02 0.  1.
        1   -1    0    0  501    0  0.00000000000E+00  0.00000000000E+00 -0.79228897270E+03  0.79228897272E+03  0.50400001928E-02 0. -1.
    10030    2    1    2    0    0  0.00000000000E+00  0.00000000000E+00  0.90764776894E+03  0.24922257144E+04  0.23210696971E+04 0.  0.
        5    1    3    3  502    0 -0.11047116197E+03 -0.10503289050E+04 -0.62715838354E+02  0.10579934087E+04  0.46999998093E+01 0.  1.
       -5    1    3    3    0  502  0.11047116197E+03  0.10503289050E+04  0.97036360729E+03  0.14342323057E+04  0.46999998093E+01 0. -1.
</event>
<event>
 5   0  0.1874272E-05  0.2825922E+04  0.7818609E-02  0.8295265E-01
        2   -1    0    0  501    0  0.00000000000E+00  0.00000000000E+00  0.16093735364E+04  0.16093735364E+04  0.25500000920E-02 0.  1.
       -2   -1    0    0    0  501  0.00000000000E+00  0.00000000000E+00 -0.12405193760E+04  0.12405193760E+04  0.25500000920E-02 0. -1.
    10030    2    1    2    0    0  0.00000000000E+00  0.00000000000E+00  0.36885416045E+03  0.28498929124E+04  0.28259221894E+04 0.  0.
        3    1    3    3  502    0  0.44521620378E+03  0.11544922866E+04 -0.50355394865E+03  0.13359028772E+04  0.10100000352E+00 0. -1.
       -3    1    3    3    0  502 -0.44521620378E+03 -0.11544922866E+04  0.87240810910E+03  0.15139900353E+04  0.10100000352E+00 0.  1.
</event>
<event>
 5   0  0.1874272E-05  0.2701753E+04  0.7818609E-02  0.8334436E-01
       -2   -1    0    0    0  501  0.00000000000E+00  0.00000000000E+00  0.72695670318E+03  0.72695670319E+03  0.25500000920E-02 0.  1.
        2   -1    0    0  501    0  0.00000000000E+00  0.00000000000E+00 -0.25102836436E+04  0.25102836436E+04  0.25500000920E-02 0. -1.
    10030    2    1    2    0    0  0.00000000000E+00  0.00000000000E+00 -0.17833269404E+04  0.32372403468E+04  0.27017531505E+04 0.  0.
        3    1    3    3  502    0 -0.10079164997E+04 -0.34162159477E+03 -0.18885964066E+04  0.21678093508E+04  0.10100000352E+00 0. -1.
       -3    1    3    3    0  502  0.10079164997E+04  0.34162159477E+03  0.10526946615E+03  0.10694309960E+04  0.10100000352E+00 0.  1.
</event>
<event>
 5   0  0.7681342E-06  0.2701984E+04  0.7818609E-02  0.8334361E-01
       -1   -1    0    0    0  501  0.00000000000E+00  0.00000000000E+00  0.11494421034E+04  0.11494421034E+04  0.50400001928E-02 0. -1.
        1   -1    0    0  501    0  0.00000000000E+00  0.00000000000E+00 -0.15878834193E+04  0.15878834193E+04  0.50400001928E-02 0.  1.
    10030    2    1    2    0    0  0.00000000000E+00  0.00000000000E+00 -0.43844131589E+03  0.27373255227E+04  0.27019844985E+04 0.  0.
        2    1    3    3  502    0 -0.93723456313E+01  0.20810090092E+03 -0.15715155046E+04  0.15852617472E+04  0.25500000920E-02 0.  1.
       -2    1    3    3    0  502  0.93723456313E+01 -0.20810090092E+03  0.11330741887E+04  0.11520637756E+04  0.25500000920E-02 0. -1.
</event>
<event>
 5   0  0.7613444E-06  0.2829295E+04  0.7818609E-02  0.8294231E-01
       -1   -1    0    0    0  501  0.00000000000E+00  0.00000000000E+00  0.33161469277E+04  0.33161469277E+04  0.50400001928E-02 0. -1.
        1   -1    0    0  501    0  0.00000000000E+00  0.00000000000E+00 -0.60347988482E+03  0.60347988484E+03  0.50400001928E-02 0.  1.
    10030    2    1    2    0    0  0.00000000000E+00  0.00000000000E+00  0.27126670429E+04  0.39196268126E+04  0.28292952946E+04 0.  0.
        5    1    3    3  502    0  0.10862054867E+04 -0.69630018553E+03  0.21600040763E+04  0.25160119251E+04  0.46999998093E+01 0. -1.
       -5    1    3    3    0  502 -0.10862054867E+04  0.69630018553E+03  0.55266296656E+03  0.14036148874E+04  0.46999998093E+01 0.  1.
</event>
<event>
 5   0  0.7388013E-06  0.2773249E+04  0.7818609E-02  0.8311622E-01
        1   -1    0    0  501    0  0.00000000000E+00  0.00000000000E+00  0.17529924711E+04  0.17529924711E+04  0.50400001928E-02 0.  1.
       -1   -1    0    0    0  501  0.00000000000E+00  0.00000000000E+00 -0.10968260952E+04  0.10968260952E+04  0.50400001928E-02 0. -1.
    10030    2    1    2    0    0  0.00000000000E+00  0.00000000000E+00  0.65616637585E+03  0.28498185663E+04  0.27732492762E+04 0.  0.
        1    1    3    3  502    0  0.66118587687E+03 -0.58150346588E+03 -0.77266640851E+03  0.11714633684E+04  0.50400001928E-02 0. -1.
       -1    1    3    3    0  502 -0.66118587687E+03  0.58150346588E+03  0.14288327844E+04  0.16783551979E+04  0.50400001928E-02 0.  1.
</event>
<event>
 5   0  0.1814230E-05  0.2768103E+04  0.7818609E-02  0.8313240E-01
        2   -1    0    0  501    0  0.00000000000E+00  0.00000000000E+00  0.13938404307E+04  0.13938404307E+04  0.25500000920E-02 0.  1.
       -2   -1    0    0    0  501  0.00000000000E+00  0.00000000000E+00 -0.13743317755E+04  0.13743317755E+04  0.25500000920E-02 0. -1.
    10030    2    1    2    0    0  0.00000000000E+00  0.00000000000E+00  0.19508655200E+02  0.27681722062E+04  0.27681034619E+04 0.  0.
        5    1    3    3  502    0 -0.59372651509E+03  0.25341029390E+03 -0.12145510262E+04  0.13754578281E+04  0.46999998093E+01 0. -1.
       -5    1    3    3    0  502  0.59372651509E+03 -0.25341029390E+03  0.12340596814E+04  0.13927143781E+04  0.46999998093E+01 0.  1.
</event>
<event>
 5   0  0.1874272E-05  0.2803204E+04  0.7818609E-02  0.8302274E-01
       -2   -1    0    0    0  501  0.00000000000E+00  0.00000000000E+00  0.12998225635E+04  0.12998225635E+04  0.25500000920E-02 0.  1.
        2   -1    0    0  501    0  0.00000000000E+00  0.00000000000E+00 -0.15113513294E+04  0.15113513294E+04  0.25500000920E-02 0. -1.
    10030    2    1    2    0    0  0.00000000000E+00  0.00000000000E+00 -0.21152876582E+03  0.28111738929E+04  0.28032042803E+04 0.  0.
        3    1    3    3  502    0 -0.33048720287E+03  0.76354711278E+03 -0.12369173461E+04  0.14907013504E+04  0.10100000352E+00 0. -1.
       -3    1    3    3    0  502  0.33048720287E+03 -0.76354711278E+03  0.10253885803E+04  0.13204725425E+04  0.10100000352E+00 0.  1.
</event>
<event>
 5   0  0.1923559E-05  0.2767191E+04  0.7818609E-02  0.8313527E-01
        2   -1    0    0  501    0  0.00000000000E+00  0.00000000000E+00  0.16308755908E+04  0.16308755908E+04  0.25500000920E-02 0. -1.
       -2   -1    0    0    0  501  0.00000000000E+00  0.00000000000E+00 -0.11738091976E+04  0.11738091976E+04  0.25500000920E-02 0.  1.
    10030    2    1    2    0    0  0.00000000000E+00  0.00000000000E+00  0.45706639328E+03  0.28046847884E+04  0.27671911886E+04 0.  0.
        4    1    3    3  502    0 -0.43278340912E+03  0.54580847915E+02 -0.11022901212E+04  0.11854643277E+04  0.12699999809E+01 0.  1.
       -4    1    3    3    0  502  0.43278340912E+03 -0.54580847915E+02  0.15593565145E+04  0.16192204607E+04  0.12699999809E+01 0. -1.
</event>
<event>
 5   0  0.1874272E-05  0.2820478E+04  0.7818609E-02  0.8296939E-01
        2   -1    0    0  501    0  0.00000000000E+00  0.00000000000E+00  0.19262477036E+04  0.19262477036E+04  0.25500000920E-02 0.  1.
       -2   -1    0    0    0  501  0.00000000000E+00  0.00000000000E+00 -0.10324601306E+04  0.10324601306E+04  0.25500000920E-02 0. -1.
    10030    2    1    2    0    0  0.00000000000E+00  0.00000000000E+00  0.89378757300E+03  0.29587078342E+04  0.28204779422E+04 0.  0.
        3    1    3    3  502    0  0.95433383551E+03  0.19955014143E+03 -0.62196422141E+03  0.11564656638E+04  0.10100000352E+00 0. -1.
       -3    1    3    3    0  502 -0.95433383551E+03 -0.19955014143E+03  0.15157517944E+04  0.18022421705E+04  0.10100000352E+00 0.  1.
</event>
<event>
 5   0  0.7613444E-06  0.2158937E+04  0.7818609E-02  0.8535716E-01
        1   -1    0    0  501    0  0.00000000000E+00  0.00000000000E+00  0.15198014642E+04  0.15198014642E+04  0.50400001928E-02 0. -1.
       -1   -1    0    0    0  501  0.00000000000E+00  0.00000000000E+00 -0.76671354719E+03  0.76671354721E+03  0.50400001928E-02 0.  1.
    10030    2    1    2    0    0  0.00000000000E+00  0.00000000000E+00  0.75308791704E+03  0.22865150114E+04  0.21589371197E+04 0.  0.
        5    1    3    3  502    0 -0.52935047908E+02  0.46449746382E+03  0.14070094021E+04  0.14826522049E+04  0.46999998093E+01 0. -1.
       -5    1    3    3    0  502  0.52935047908E+02 -0.46449746382E+03 -0.65392148502E+03  0.80386280656E+03  0.46999998093E+01 0.  1.
</event>
<event>
 5   0  0.7509685E-06  0.2265815E+04  0.7818609E-02  0.8491523E-01
       -1   -1    0    0    0  501  0.00000000000E+00  0.00000000000E+00  0.66851865758E+03  0.66851865760E+03  0.50400001928E-02 0.  1.
        1   -1    0    0  501    0  0.00000000000E+00  0.00000000000E+00 -0.19198864146E+04  0.19198864146E+04  0.50400001928E-02 0. -1.
    10030    2    1    2    0    0  0.00000000000E+00  0.00000000000E+00 -0.12513677570E+04  0.25884050722E+04  0.22658154282E+04 0.  0.
        4    1    3    3  502    0 -0.45838161800E+03  0.93305421825E+02  0.55304224681E+03  0.72434587672E+03  0.12699999809E+01 0.  1.
       -4    1    3    3    0  502  0.45838161800E+03 -0.93305421825E+02 -0.18044100038E+04  0.18640591955E+04  0.12699999809E+01 0. -1.
</event>
<event>
 5   0  0.7613444E-06  0.2826294E+04  0.7818609E-02  0.8295151E-01
       -1   -1    0    0    0  501  0.00000000000E+00  0.00000000000E+00  0.13042308133E+04  0.13042308133E+04  0.50400001928E-02 0. -1.
        1   -1    0    0  501    0  0.00000000000E+00  0.00000000000E+00 -0.15311590740E+04  0.15311590740E+04  0.50400001928E-02 0.  1.
    10030    2    1    2    0    0  0.00000000000E+00  0.00000000000E+00 -0.22692826068E+03  0.28353898873E+04  0.28262942836E+04 0.  0.
        5    1    3    3  502    0  0.36062928461E+03 -0.24257984064E+03  0.12355060233E+04  0.13097311493E+04  0.46999998093E+01 0. -1.
       -5    1    3    3    0  502 -0.36062928461E+03  0.24257984064E+03 -0.14624342839E+04  0.15256587380E+04  0.46999998093E+01 0.  1.
</event>
<event>
 5   0  0.7509685E-06  0.2747986E+04  0.7818609E-02  0.8319601E-01
       -1   -1    0    0    0  501  0.00000000000E+00  0.00000000000E+00  0.68478324889E+03  0.68478324890E+03  0.50400001928E-02 0.  1.
        1   -1    0    0  501    0  0.00000000000E+00  0.00000000000E+00 -0.27568681813E+04  0.27568681813E+04  0.50400001928E-02 0. -1.
    10030    2    1    2    0    0  0.00000000000E+00  0.00000000000E+00 -0.20720849324E+04  0.34416514302E+04  0.27479862809E+04 0.  0.
        4    1    3    3  502    0 -0.12490425971E+04  0.46361995377E+03 -0.61539734616E+03  0.14675715919E+04  0.12699999809E+01 0.  1.
       -4    1    3    3    0  502  0.12490425971E+04 -0.46361995377E+03 -0.14566875862E+04  0.19740798382E+04  0.12699999809E+01 0. -1.
</event>
<event>
 5   0  0.1874272E-05  0.2926673E+04  0.7818609E-02  0.8264985E-01
        2   -1    0    0  501    0  0.00000000000E+00  0.00000000000E+00  0.18391767648E+04  0.18391767648E+04  0.25500000920E-02 0. -1.
       -2   -1    0    0    0  501  0.00000000000E+00  0.00000000000E+00 -0.11643004247E+04  0.11643004247E+04  0.25500000920E-02 0.  1.
    10030    2    1    2    0    0  0.00000000000E+00  0.00000000000E+00  0.67487634009E+03  0.30034771896E+04  0.29266733938E+04 0.  0.
        3    1    3    3  502    0  0.11101393935E+04  0.89539456585E+03  0.14108673220E+01  0.14262338175E+04  0.10100000352E+00 0.  1.
       -3    1    3    3    0  502 -0.11101393935E+04 -0.89539456585E+03  0.67346547277E+03  0.15772433720E+04  0.10100000352E+00 0. -1.
</event>
<event>
 5   0  0.7555871E-06  0.2199928E+04  0.7818609E-02  0.8518458E-01
        1   -1    0    0  501    0  0.00000000000E+00  0.00000000000E+00  0.15706644565E+04  0.15706644565E+04  0.50400001928E-02 0. -1.
       -1   -1    0    0    0  501  0.00000000000E+00  0.00000000000E+00 -0.77032406187E+03  0.77032406188E+03  0.50400001928E-02 0.  1.
    10030    2    1    2    0    0  0.00000000000E+00  0.00000000000E+00  0.80034039462E+03  0.23409885184E+04  0.21999278388E+04 0.  0.
        3    1    3    3  502    0 -0.45783461249E+03 -0.64748488303E+02  0.14622221064E+04  0.15335900358E+04  0.10100000352E+00 0. -1.
       -3    1    3    3    0  502  0.45783461249E+03  0.64748488303E+02 -0.66188171178E+03  0.80739848261E+03  0.10100000352E+00 0.  1.
</event>
<event>
 5   0  0.1814230E-05  0.2809751E+04  0.7818609E-02  0.8300248E-01
       -2   -1    0    0    0  501  0.00000000000E+00  0.00000000000E+00  0.21703281613E+04  0.21703281613E+04  0.25500000920E-02 0.  1.
        2   -1    0    0  501    0  0.00000000000E+00  0.00000000000E+00 -0.90939006513E+03  0.90939006514E+03  0.25500000920E-02 0. -1.
    10030    2    1    2    0    0  0.00000000000E+00  0.00000000000E+00  0.12609380962E+04  0.30797182264E+04  0.28097507847E+04 0.  0.
        5    1    3    3  502    0  0.11384960727E+04  0.50244812481E+03 -0.84110529670E+02  0.12472866939E+04  0.46999998093E+01 0. -1.
       -5    1    3    3    0  502 -0.11384960727E+04 -0.50244812481E+03  0.13450486258E+04  0.18324315325E+04  0.46999998093E+01 0.  1.
</event>
<event>
 5   0  0.1874272E-05  0.2943243E+04  0.7818609E-02  0.8260126E-01
        2   -1    0    0  501    0  0.00000000000E+00  0.00000000000E+00  0.25514750283E+04  0.25514750283E+04  0.25500000920E-02 0. -1.
       -2   -1    0    0    0  501  0.00000000000E+00  0.00000000000E+00 -0.84879152692E+03  0.84879152692E+03  0.25500000920E-02 0.  1.
    10030    2    1    2    0    0  0.00000000000E+00  0.00000000000E+00  0.17026835014E+04  0.34002665553E+04  0.29432433710E+04 0.  0.
        3    1    3    3  502    0  0.14648966016E+04 -0.43542947932E+01  0.10136136454E+04  0.17813909300E+04  0.10100000352E+00 0. -1.
       -3    1    3    3    0  502 -0.14648966016E+04  0.43542947932E+01  0.68906985606E+03  0.16188756252E+04  0.10100000352E+00 0.  1.
</event>
<event>
 5   0  0.7555871E-06  0.2747896E+04  0.7818609E-02  0.8319630E-01
       -1   -1    0    0    0  501  0.00000000000E+00  0.00000000000E+00  0.23500339670E+04  0.23500339670E+04  0.50400001928E-02 0. -1.
        1   -1    0    0  501    0  0.00000000000E+00  0.00000000000E+00 -0.80327908913E+03  0.80327908915E+03  0.50400001928E-02 0.  1.
    10030    2    1    2    0    0  0.00000000000E+00  0.00000000000E+00  0.15467548779E+04  0.31533130562E+04  0.27478960275E+04 0.  0.
        3    1    3    3  502    0  0.85433340069E+03 -0.78559342262E+03  0.16171806660E+04  0.19905566814E+04  0.10100000352E+00 0. -1.
       -3    1    3    3    0  502 -0.85433340069E+03  0.78559342262E+03 -0.70425788135E+02  0.11627563747E+04  0.10100000352E+00 0.  1.
</event>
<event>
 5   0  0.1923559E-05  0.2780300E+04  0.7818609E-02  0.8309410E-01
       -2   -1    0    0    0  501  0.00000000000E+00  0.00000000000E+00  0.11131336937E+04  0.11131336937E+04  0.25500000920E-02 0.  1.
        2   -1    0    0  501    0  0.00000000000E+00  0.00000000000E+00 -0.17361056590E+04  0.17361056590E+04  0.25500000920E-02 0. -1.
    10030    2    1    2    0    0  0.00000000000E+00  0.00000000000E+00 -0.62297196531E+03  0.28492393528E+04  0.27803004909E+04 0.  0.
        4    1    3    3  502    0 -0.10526082350E+04  0.14766550728E+03 -0.12296517663E+04  0.16253720429E+04  0.12699999809E+01 0. -1.
       -4    1    3    3    0  502  0.10526082350E+04 -0.14766550728E+03  0.60667980095E+03  0.12238673099E+04  0.12699999809E+01 0.  1.
</event>
<event>
 5   0  0.1814230E-05  0.2802846E+04  0.7818609E-02  0.8302385E-01
        2   -1    0    0  501    0  0.00000000000E+00  0.00000000000E+00  0.22161788941E+04  0.22161788941E+04  0.25500000920E-02 0. -1.
       -2   -1    0    0    0  501  0.00000000000E+00  0.00000000000E+00 -0.88620411264E+03  0.88620411265E+03  0.25500000920E-02 0.  1.
    10030    2    1    2    0    0  0.00000000000E+00  0.00000000000E+00  0.13299747815E+04  0.31023830068E+04  0.28028463035E+04 0.  0.
        5    1    3    3  502    0 -0.29607790126E+03 -0.66023750991E+03  0.19934093241E+04  0.21206787868E+04  0.46999998093E+01 0. -1.
       -5    1    3    3    0  502  0.29607790126E+03  0.66023750991E+03 -0.66343454268E+03  0.98170421998E+03  0.46999998093E+01 0.  1.
</event>
<event>
 5   0  0.7681342E-06  0.2788377E+04  0.7818609E-02  0.8306886E-01
       -1   -1    0    0    0  501  0.00000000000E+00  0.00000000000E+00  0.91675302928E+03  0.91675302930E+03  0.50400001928E-02 0. -1.
        1   -1    0    0  501    0  0.00000000000E+00  0.00000000000E+00 -0.21202671471E+04  0.21202671471E+04  0.50400001928E-02 0.  1.
    10030    2    1    2    0    0  0.00000000000E+00  0.00000000000E+00 -0.12035141178E+04  0.30370201764E+04  0.27883768253E+04 0.  0.
        2    1    3    3  502    0 -0.93157023364E+03  0.25079422590E+03  0.49449295957E+03  0.10840867728E+04  0.25500000920E-02 0. -1.
       -2    1    3    3    0  502  0.93157023364E+03 -0.25079422590E+03 -0.16980070773E+04  0.19529334035E+04  0.25500000920E-02 0.  1.
</event>
<event>
 5   0  0.7509685E-06  0.2834382E+04  0.7818609E-02  0.8292673E-01
        1   -1    0    0  501    0  0.00000000000E+00  0.00000000000E+00  0.64981853230E+03  0.64981853232E+03  0.50400001928E-02 0. -1.
       -1   -1    0    0    0  501  0.00000000000E+00  0.00000000000E+00 -0.30907559700E+04  0.30907559700E+04  0.50400001928E-02 0.  1.
    10030    2    1    2    0    0  0.00000000000E+00  0.00000000000E+00 -0.24409374377E+04  0.37405745023E+04  0.28343821254E+04 0.  0.
        4    1    3    3  502    0 -0.41070970315E+03  0.77703112043E+03  0.24671233608E+03  0.91286823368E+03  0.12699999809E+01 0. -1.
       -4    1    3    3    0  502  0.41070970315E+03 -0.77703112043E+03 -0.26876497738E+04  0.28277062687E+04  0.12699999809E+01 0.  1.
</event>
<event>
 5   0  0.7555871E-06  0.2744881E+04  0.7818609E-02  0.8320588E-01
       -1   -1    0    0    0  501  0.00000000000E+00  0.00000000000E+00  0.18800031120E+04  0.18800031120E+04  0.50400001928E-02 0.  1.
        1   -1    0    0  501    0  0.00000000000E+00  0.00000000000E+00 -0.10019097373E+04  0.10019097373E+04  0.50400001928E-02 0. -1.
    10030    2    1    2    0    0  0.00000000000E+00  0.00000000000E+00  0.87809337473E+03  0.28819128494E+04  0.27448813629E+04 0.  0.
        3    1    3    3  502    0  0.12099851403E+04 -0.32914188755E+02 -0.24012096185E+03  0.12340200445E+04  0.10100000352E+00 0. -1.
       -3    1    3    3    0  502 -0.12099851403E+04  0.32914188755E+02  0.11182143366E+04  0.16478928049E+04  0.10100000352E+00 0.  1.
</event>
<event>
 5   0  0.7613444E-06  0.2836934E+04  0.7818609E-02  0.8291893E-01
        1   -1    0    0  501    0  0.00000000000E+00  0.00000000000E+00  0.18197270340E+04  0.18197270340E+04  0.50400001928E-02 0. -1.
       -1   -1    0    0    0  501  0.00000000000E+00  0.00000000000E+00 -0.11056871184E+04  0.11056871184E+04  0.50400001928E-02 0.  1.
    10030    2    1    2    0    0  0.00000000000E+00  0.00000000000E+00  0.71403991564E+03  0.29254141524E+04  0.28369340778E+04 0.  0.
        5    1    3    3  502    0  0.49809372601E+03  0.11235867116E+04  0.10872603837E+04  0.16409453648E+04  0.46999998093E+01 0. -1.
       -5    1    3    3    0  502 -0.49809372601E+03 -0.11235867116E+04 -0.37322046806E+03  0.12844687876E+04  0.46999998093E+01 0.  1.
</event>
<event>
 5   0  0.1874272E-05  0.1883341E+04  0.7818609E-02  0.8663194E-01
       -2   -1    0    0    0  501  0.00000000000E+00  0.00000000000E+00  0.64886382360E+03  0.64886382360E+03  0.25500000920E-02 0. -1.
        2   -1    0    0  501    0  0.00000000000E+00  0.00000000000E+00 -0.13666086968E+04  0.13666086968E+04  0.25500000920E-02 0.  1.
    10030    2    1    2    0    0  0.00000000000E+00  0.00000000000E+00 -0.71774487322E+03  0.20154725204E+04  0.18833405899E+04 0.  0.
        3    1    3    3  502    0  0.11761244448E+03 -0.30531320168E+03 -0.13038252831E+04  0.13442504295E+04  0.10100000352E+00 0.  1.
       -3    1    3    3    0  502 -0.11761244448E+03  0.30531320168E+03  0.58608040990E+03  0.67122209088E+03  0.10100000352E+00 0. -1.
</event>
<event>
 5   0  0.7388013E-06  0.2803829E+04  0.7818609E-02  0.8302081E-01
       -1   -1    0    0    0  501  0.00000000000E+00  0.00000000000E+00  0.12344657546E+04  0.12344657546E+04  0.50400001928E-02 0. -1.
        1   -1    0    0  501    0  0.00000000000E+00  0.00000000000E+00 -0.15920765319E+04  0.15920765319E+04  0.50400001928E-02 0.  1.
    10030    2    1    2    0    0  0.00000000000E+00  0.00000000000E+00 -0.35761077737E+03  0.28265422865E+04  0.28038287803E+04 0.  0.
        1    1    3    3  502    0  0.11559083675E+04  0.57943829181E+03  0.36733141346E+03  0.13441745628E+04  0.50400001928E-02 0. -1.
       -1    1    3    3    0  502 -0.11559083675E+04 -0.57943829181E+03 -0.72494219083E+03  0.14823677236E+04  0.50400001928E-02 0.  1.
</event>
<event>
 5   0  0.1904553E-05  0.2810846E+04  0.7818609E-02  0.8299909E-01
       -2   -1    0    0    0  501  0.00000000000E+00  0.00000000000E+00  0.12918424814E+04  0.12918424814E+04  0.25500000920E-02 0.  1.
        2   -1    0    0  501    0  0.00000000000E+00  0.00000000000E+00 -0.15289900328E+04  0.15289900328E+04  0.25500000920E-02 0. -1.
    10030    2    1    2    0    0  0.00000000000E+00  0.00000000000E+00 -0.23714755146E+03  0.28208325142E+04  0.28108463338E+04 0.  0.
        1    1    3    3  502    0  0.11623929729E+04 -0.96056097949E+02 -0.90547052399E+03  0.14765707119E+04  0.50400001928E-02 0. -1.
       -1    1    3    3    0  502 -0.11623929729E+04  0.96056097949E+02  0.66832297253E+03  0.13442618023E+04  0.50400001928E-02 0.  1.
</event>
<event>
 5   0  0.7555871E-06  0.2705474E+04  0.7818609E-02  0.8333231E-01
       -1   -1    0    0    0  501  0.00000000000E+00  0.00000000000E+00  0.13507044146E+04  0.13507044146E+04  0.50400001928E-02 0. -1.
        1   -1    0    0  501    0  0.00000000000E+00  0.00000000000E+00 -0.13547723990E+04  0.13547723990E+04  0.50400001928E-02 0.  1.
    10030    2    1    2    0    0  0.00000000000E+00  0.00000000000E+00 -0.40679843314E+01  0.27054768136E+04  0.27054737553E+04 0.  0.
        3    1    3    3  502    0 -0.14871319342E+03 -0.26891155335E+03 -0.13194071117E+04  0.13547192233E+04  0.10100000352E+00 0.  1.
       -3    1    3    3    0  502  0.14871319342E+03  0.26891155335E+03  0.13153391274E+04  0.13507575903E+04  0.10100000352E+00 0. -1.
</event>
<event>
 5   0  0.7681342E-06  0.2835259E+04  0.7818609E-02  0.8292405E-01
       -1   -1    0    0    0  501  0.00000000000E+00  0.00000000000E+00  0.68582193678E+03  0.68582193680E+03  0.50400001928E-02 0.  1.
        1   -1    0    0  501    0  0.00000000000E+00  0.00000000000E+00 -0.29303135278E+04  0.29303135278E+04  0.50400001928E-02 0. -1.
    10030    2    1    2    0    0  0.00000000000E+00  0.00000000000E+00 -0.22444915910E+04  0.36161354646E+04  0.28352589293E+04 0.  0.
        2    1    3    3  502    0 -0.30184421142E+03  0.91209434153E+03 -0.24517700473E+04  0.26332873715E+04  0.25500000920E-02 0. -1.
       -2    1    3    3    0  502  0.30184421142E+03 -0.91209434153E+03  0.20727845626E+03  0.98284809317E+03  0.25500000920E-02 0.  1.
</event>
<event>
 5   0  0.7613444E-06  0.2814157E+04  0.7818609E-02  0.8298887E-01
        1   -1    0    0  501    0  0.00000000000E+00  0.00000000000E+00  0.22634551507E+04  0.22634551507E+04  0.50400001928E-02 0.  1.
       -1   -1    0    0    0  501  0.00000000000E+00  0.00000000000E+00 -0.87471121461E+03  0.87471121462E+03  0.50400001928E-02 0. -1.
    10030    2    1    2    0    0  0.00000000000E+00  0.00000000000E+00  0.13887439361E+04  0.31381663653E+04  0.28141567860E+04 0.  0.
        5    1    3    3  502    0 -0.13375264108E+04 -0.39322081882E+03  0.48206232942E+03  0.14751290423E+04  0.46999998093E+01 0. -1.
       -5    1    3    3    0  502  0.13375264108E+04  0.39322081882E+03  0.90668160666E+03  0.16630373230E+04  0.46999998093E+01 0.  1.
</event>
<event>
 5   0  0.1814230E-05  0.2713625E+04  0.7818609E-02  0.8330598E-01
        2   -1    0    0  501    0  0.00000000000E+00  0.00000000000E+00  0.14814505942E+04  0.14814505942E+04  0.25500000920E-02 0. -1.
       -2   -1    0    0    0  501  0.00000000000E+00  0.00000000000E+00 -0.12426605402E+04  0.12426605402E+04  0.25500000920E-02 0.  1.
    10030    2    1    2    0    0  0.00000000000E+00  0.00000000000E+00  0.23879005401E+03  0.27241111345E+04  0.27136250262E+04 0.  0.
        5    1    3    3  502    0 -0.95688266639E+03 -0.77040392309E+03  0.69761687844E+03  0.14127413213E+04  0.46999998093E+01 0. -1.
       -5    1    3    3    0  502  0.95688266639E+03  0.77040392309E+03 -0.45882682443E+03  0.13113698131E+04  0.46999998093E+01 0.  1.
</event>
<event>
 5   0  0.1814230E-05  0.2828948E+04  0.7818609E-02  0.8294337E-01
       -2   -1    0    0    0  501  0.00000000000E+00  0.00000000000E+00  0.15382396104E+04  0.15382396104E+04  0.25500000920E-02 0. -1.
        2   -1    0    0  501    0  0.00000000000E+00  0.00000000000E+00 -0.13006665505E+04  0.13006665505E+04  0.25500000920E-02 0.  1.
    10030    2    1    2    0    0  0.00000000000E+00  0.00000000000E+00  0.23757305984E+03  0.28389061609E+04  0.28289480786E+04 0.  0.
        5    1    3    3  502    0  0.11195903317E+04  0.30346224195E+03  0.93104466868E+03  0.14874266733E+04  0.46999998093E+01 0. -1.
       -5    1    3    3    0  502 -0.11195903317E+04 -0.30346224195E+03 -0.69347160884E+03  0.13514794876E+04  0.46999998093E+01 0.  1.
</event>
<event>
 5   0  0.1814230E-05  0.2700661E+04  0.7818609E-02  0.8334790E-01
       -2   -1    0    0    0  501  0.00000000000E+00  0.00000000000E+00  0.94479954252E+03  0.94479954253E+03  0.25500000920E-02 0.  1.
        2   -1    0    0  501    0  0.00000000000E+00  0.00000000000E+00 -0.19299256645E+04  0.19299256645E+04  0.25500000920E-02 0. -1.
    10030    2    1    2    0    0  0.00000000000E+00  0.00000000000E+00 -0.98512612196E+03  0.28747252070E+04  0.27006613152E+04 0.  0.
        5    1    3    3  502    0  0.10455597224E+04 -0.38908568545E+03 -0.13023783454E+04  0.17148744118E+04  0.46999998093E+01 0. -1.
       -5    1    3    3    0  502 -0.10455597224E+04  0.38908568545E+03  0.31725222345E+03  0.11598507952E+04  0.46999998093E+01 0.  1.
</event>
<event>
 5   0  0.7509685E-06  0.2809595E+04  0.7818609E-02  0.8300296E-01
        1   -1    0    0  501    0  0.00000000000E+00  0.00000000000E+00  0.10644009805E+04  0.10644009805E+04  0.50400001928E-02 0. -1.
       -1   -1    0    0    0  501  0.00000000000E+00  0.00000000000E+00 -0.18540537191E+04  0.18540537191E+04  0.50400001928E-02 0.  1.
    10030    2    1    2    0    0  0.00000000000E+00  0.00000000000E+00 -0.78965273866E+03  0.29184546996E+04  0.28095954132E+04 0.  0.
        4    1    3    3  502    0  0.92886028654E+03 -0.76552560084E+03  0.35756112866E+03  0.12556522015E+04  0.12699999809E+01 0. -1.
       -4    1    3    3    0  502 -0.92886028654E+03  0.76552560084E+03 -0.11472138673E+04  0.16628024981E+04  0.12699999809E+01 0.  1.
</event>
<event>
 5   0  0.1832502E-05  0.2820753E+04  0.7818609E-02  0.8296854E-01
       -2   -1    0    0    0  501  0.00000000000E+00  0.00000000000E+00  0.18903118688E+04  0.18903118688E+04  0.25500000920E-02 0.  1.
        2   -1    0    0  501    0  0.00000000000E+00  0.00000000000E+00 -0.10522932098E+04  0.10522932098E+04  0.25500000920E-02 0. -1.
    10030    2    1    2    0    0  0.00000000000E+00  0.00000000000E+00  0.83801865907E+03  0.29426050786E+04  0.28207533348E+04 0.  0.
        2    1    3    3  502    0 -0.12969150762E+04 -0.54205212587E+03  0.53955684887E+03  0.15056330281E+04  0.25500000920E-02 0. -1.
       -2    1    3    3    0  502  0.12969150762E+04  0.54205212587E+03  0.29846181019E+03  0.14369720506E+04  0.25500000920E-02 0.  1.
</event>
<event>
 5   0  0.1874272E-05  0.2525288E+04  0.7818609E-02  0.8394032E-01
        2   -1    0    0  501    0  0.00000000000E+00  0.00000000000E+00  0.23154384823E+04  0.23154384823E+04  0.25500000920E-02 0. -1.
       -2   -1    0    0    0  501  0.00000000000E+00  0.00000000000E+00 -0.68853896573E+03  0.68853896573E+03  0.25500000920E-02 0.  1.
    10030    2    1    2    0    0  0.00000000000E+00  0.00000000000E+00  0.16268995166E+04  0.30039774480E+04  0.25252877997E+04 0.  0.
        3    1    3    3  502    0 -0.10743817666E+02  0.41167562006E+03 -0.60640541807E+03  0.73302100040E+03  0.10100000352E+00 0.  1.
       -3    1    3    3    0  502  0.10743817666E+02 -0.41167562006E+03  0.22333049346E+04  0.22709564476E+04  0.10100000352E+00 0. -1.
</event>
<event>
 5   0  0.7555871E-06  0.1752316E+04  0.7818609E-02  0.8732077E-01
        1   -1    0    0  501    0  0.00000000000E+00  0.00000000000E+00  0.65669580565E+03  0.65669580567E+03  0.50400001928E-02 0. -1.
       -1   -1    0    0    0  501  0.00000000000E+00  0.00000000000E+00 -0.11689621761E+04  0.11689621761E+04  0.50400001928E-02 0.  1.
    10030    2    1    2    0    0  0.00000000000E+00  0.00000000000E+00 -0.51226637047E+03  0.18256579818E+04  0.17523156771E+04 0.  0.
        3    1    3    3  502    0 -0.57820151366E+03  0.57577749996E+03  0.76307923859E+02  0.81954843011E+03  0.10100000352E+00 0. -1.
       -3    1    3    3    0  502  0.57820151366E+03 -0.57577749996E+03 -0.58857429433E+03  0.10061095517E+04  0.10100000352E+00 0.  1.
</event>
<event>
 5   0  0.1874272E-05  0.2578979E+04  0.7818609E-02  0.8375377E-01
        2   -1    0    0  501    0  0.00000000000E+00  0.00000000000E+00  0.27633387045E+04  0.27633387045E+04  0.25500000920E-02 0. -1.
       -2   -1    0    0    0  501  0.00000000000E+00  0.00000000000E+00 -0.60172959664E+03  0.60172959664E+03  0.25500000920E-02 0.  1.
    10030    2    1    2    0    0  0.00000000000E+00  0.00000000000E+00  0.21616091079E+04  0.33650683012E+04  0.25789786227E+04 0.  0.
        3    1    3    3  502    0 -0.77601006577E+02  0.57378546167E+01 -0.59866341665E+03  0.60369920974E+03  0.10100000352E+00 0.  1.
       -3    1    3    3    0  502  0.77601006577E+02 -0.57378546167E+01  0.27602725246E+04  0.27613690915E+04  0.10100000352E+00 0. -1.
</event>
<event>
 5   0  0.7388013E-06  0.2764460E+04  0.7818609E-02  0.8314388E-01
        1   -1    0    0  501    0  0.00000000000E+00  0.00000000000E+00  0.18946978681E+04  0.18946978681E+04  0.50400001928E-02 0.  1.
       -1   -1    0    0    0  501  0.00000000000E+00  0.00000000000E+00 -0.10083714837E+04  0.10083714837E+04  0.50400001928E-02 0. -1.
    10030    2    1    2    0    0  0.00000000000E+00  0.00000000000E+00  0.88632638440E+03  0.29030693518E+04  0.27644596582E+04 0.  0.
        1    1    3    3  502    0 -0.88978132677E+03  0.48111783328E+03  0.14324006070E+04  0.17535554391E+04  0.50400001928E-02 0.  1.
       -1    1    3    3    0  502  0.88978132677E+03 -0.48111783328E+03 -0.54607422262E+03  0.11495139127E+04  0.50400001928E-02 0. -1.
</event>
<event>
 5   0  0.1814230E-05  0.2791547E+04  0.7818609E-02  0.8305897E-01
       -2   -1    0    0    0  501  0.00000000000E+00  0.00000000000E+00  0.13784367213E+04  0.13784367213E+04  0.25500000920E-02 0. -1.
        2   -1    0    0  501    0  0.00000000000E+00  0.00000000000E+00 -0.14133287499E+04  0.14133287499E+04  0.25500000920E-02 0.  1.
    10030    2    1    2    0    0  0.00000000000E+00  0.00000000000E+00 -0.34892028638E+02  0.27917654712E+04  0.27915474190E+04 0.  0.
        5    1    3    3  502    0  0.98971764212E+03  0.64664250483E+03  0.72455170682E+03  0.13866091035E+04  0.46999998093E+01 0. -1.
       -5    1    3    3    0  502 -0.98971764212E+03 -0.64664250483E+03 -0.75944373546E+03  0.14051563676E+04  0.46999998093E+01 0.  1.
</event>
<event>
 5   0  0.7555871E-06  0.2887474E+04  0.7818609E-02  0.8276614E-01
       -1   -1    0    0    0  501  0.00000000000E+00  0.00000000000E+00  0.11933158648E+04  0.11933158649E+04  0.50400001928E-02 0.  1.
        1   -1    0    0  501    0  0.00000000000E+00  0.00000000000E+00 -0.17467095531E+04  0.17467095531E+04  0.50400001928E-02 0. -1.
    10030    2    1    2    0    0  0.00000000000E+00  0.00000000000E+00 -0.55339368828E+03  0.29400254180E+04  0.28874737894E+04 0.  0.
        3    1    3    3  502    0  0.27579821096E+03 -0.65155209236E+03 -0.15580889041E+04  0.17112059565E+04  0.10100000352E+00 0. -1.
       -3    1    3    3    0  502 -0.27579821096E+03  0.65155209236E+03  0.10046952158E+04  0.12288194615E+04  0.10100000352E+00 0.  1.
</event>
<event>
 5   0  0.1832502E-05  0.2362617E+04  0.7818609E-02  0.8453633E-01
       -2   -1    0    0    0  501  0.00000000000E+00  0.00000000000E+00  0.14784711185E+04  0.14784711185E+04  0.25500000920E-02 0. -1.
        2   -1    0    0  501    0  0.00000000000E+00  0.00000000000E+00 -0.94387390034E+03  0.94387390035E+03  0.25500000920E-02 0.  1.
    10030    2    1    2    0    0  0.00000000000E+00  0.00000000000E+00  0.53459721814E+03  0.24223450188E+04  0.23626174478E+04 0.  0.
        2    1    3    3  502    0 -0.96081296711E+03 -0.89954408235E+02  0.96587265257E+03  0.13653436689E+04  0.25500000920E-02 0. -1.
       -2    1    3    3    0  502  0.96081296711E+03  0.89954408235E+02 -0.43127543443E+03  0.10570013499E+04  0.25500000920E-02 0.  1.
</event>
<event>
 5   0  0.7613444E-06  0.2781456E+04  0.7818609E-02  0.8309049E-01
       -1   -1    0    0    0  501  0.00000000000E+00  0.00000000000E+00  0.82454026318E+03  0.82454026319E+03  0.50400001928E-02 0.  1.
        1   -1    0    0  501    0  0.00000000000E+00  0.00000000000E+00 -0.23457006697E+04  0.23457006697E+04  0.50400001928E-02 0. -1.
    10030    2    1    2    0    0  0.00000000000E+00  0.00000000000E+00 -0.15211604065E+04  0.31702409329E+04  0.27814561996E+04 0.  0.
        5    1    3    3  502    0 -0.49667110350E+02  0.80739543101E+03 -0.20499643718E+04  0.22037990424E+04  0.46999998093E+01 0. -1.
       -5    1    3    3    0  502  0.49667110350E+02 -0.80739543101E+03  0.52880396529E+03  0.96644189043E+03  0.46999998093E+01 0.  1.
</event>
<event>
 5   0  0.7681342E-06  0.2753035E+04  0.7818609E-02  0.8317999E-01
       -1   -1    0    0    0  501  0.00000000000E+00  0.00000000000E+00  0.13341503378E+04  0.13341503378E+04  0.50400001928E-02 0.  1.
        1   -1    0    0  501    0  0.00000000000E+00  0.00000000000E+00 -0.14202296971E+04  0.14202296971E+04  0.50400001928E-02 0. -1.
    10030    2    1    2    0    0  0.00000000000E+00  0.00000000000E+00 -0.86079359245E+02  0.27543800349E+04  0.27530346385E+04 0.  0.
        2    1    3    3  502    0 -0.20465277800E+03  0.85934582182E+03  0.10131475393E+04  0.13441822560E+04  0.25500000920E-02 0.  1.
       -2    1    3    3    0  502  0.20465277800E+03 -0.85934582182E+03 -0.10992268985E+04  0.14101977789E+04  0.25500000920E-02 0. -1.
</event>
<event>
 5   0  0.6288000E-06  0.2839377E+04  0.7818609E-02  0.8291147E-01
        3   -1    0    0  501    0  0.00000000000E+00  0.00000000000E+00  0.87788901395E+03  0.87788901976E+03  0.10100000352E+00 0.  1.
       -3   -1    0    0    0  501  0.00000000000E+00  0.00000000000E+00 -0.22958654120E+04  0.22958654143E+04  0.10100000352E+00 0. -1.
    10030    2    1    2    0    0  0.00000000000E+00  0.00000000000E+00 -0.14179763981E+04  0.31737544340E+04  0.28393767172E+04 0.  0.
        2    1    3    3  502    0  0.29085485091E+03 -0.87431803602E+03 -0.19162185776E+04  0.21262460370E+04  0.25500000920E-02 0. -1.
       -2    1    3    3    0  502 -0.29085485091E+03  0.87431803602E+03  0.49824217955E+03  0.10475083971E+04  0.25500000920E-02 0.  1.
</event>
<event>
 5   0  0.1814230E-05  0.2787682E+04  0.7818609E-02  0.8307103E-01
        2   -1    0    0  501    0  0.00000000000E+00  0.00000000000E+00  0.17251798380E+04  0.17251798380E+04  0.25500000920E-02 0. -1.
       -2   -1    0    0    0  501  0.00000000000E+00  0.00000000000E+00 -0.11261393023E+04  0.11261393023E+04  0.25500000920E-02 0.  1.
    10030    2    1    2    0    0  0.00000000000E+00  0.00000000000E+00  0.59904053572E+03  0.28513191403E+04  0.27876820615E+04 0.  0.
        5    1    3    3  502    0  0.31854220083E+03  0.84855436194E+03 -0.78354639947E+03  0.11981154740E+04  0.46999998093E+01 0.  1.
       -5    1    3    3    0  502 -0.31854220083E+03 -0.84855436194E+03  0.13825869352E+04  0.16532036663E+04  0.46999998093E+01 0. -1.
</event>
<event>
 5   0  0.7613444E-06  0.2787097E+04  0.7818609E-02  0.8307286E-01
        1   -1    0    0  501    0  0.00000000000E+00  0.00000000000E+00  0.20354875221E+04  0.20354875221E+04  0.50400001928E-02 0. -1.
       -1   -1    0    0    0  501  0.00000000000E+00  0.00000000000E+00 -0.95405987971E+03  0.95405987972E+03  0.50400001928E-02 0.  1.
    10030    2    1    2    0    0  0.00000000000E+00  0.00000000000E+00  0.10814276424E+04  0.29895474018E+04  0.27870966833E+04 0.  0.
        5    1    3    3  502    0 -0.12590075620E+04  0.23084947441E+03  0.11317010446E+04  0.17085551982E+04  0.46999998093E+01 0. -1.
       -5    1    3    3    0  502  0.12590075620E+04 -0.23084947441E+03 -0.50273402184E+02  0.12809922037E+04  0.46999998093E+01 0.  1.
</event>
<event>
 5   0  0.1904553E-05  0.2765820E+04  0.7818609E-02  0.8313959E-01
       -2   -1    0    0    0  501  0.00000000000E+00  0.00000000000E+00  0.12529485799E+04  0.12529485799E+04  0.25500000920E-02 0. -1.
        2   -1    0    0  501    0  0.00000000000E+00  0.00000000000E+00 -0.15263516103E+04  0.15263516103E+04  0.25500000920E-02 0.  1.
    10030    2    1    2    0    0  0.00000000000E+00  0.00000000000E+00 -0.27340303039E+03  0.27793001902E+04  0.27658200104E+04 0.  0.
        1    1    3    3  502    0 -0.90529578917E+03  0.82554435944E+03  0.50779493260E+03  0.13262502211E+04  0.50400001928E-02 0. -1.
       -1    1    3    3    0  502  0.90529578917E+03 -0.82554435944E+03 -0.78119796299E+03  0.14530499691E+04  0.50400001928E-02 0.  1.
</event>
<event>
 5   0  0.1814230E-05  0.2787623E+04  0.7818609E-02  0.8307121E-01
       -2   -1    0    0    0  501  0.00000000000E+00  0.00000000000E+00  0.91161317465E+03  0.91161317465E+03  0.25500000920E-02 0. -1.
        2   -1    0    0  501    0  0.00000000000E+00  0.00000000000E+00 -0.21310696062E+04  0.21310696062E+04  0.25500000920E-02 0.  1.
    10030    2    1    2    0    0  0.00000000000E+00  0.00000000000E+00 -0.12194564315E+04  0.30426827808E+04  0.27876234531E+04 0.  0.
        5    1    3    3  502    0  0.13706746553E+04  0.25081032363E+03 -0.64482981589E+03  0.15354095254E+04  0.46999998093E+01 0. -1.
       -5    1    3    3    0  502 -0.13706746553E+04 -0.25081032363E+03 -0.57462661564E+03  0.15072732554E+04  0.46999998093E+01 0.  1.
</event>
<event>
 5   0  0.1814230E-05  0.1815211E+04  0.7818609E-02  0.8698252E-01
       -2   -1    0    0    0  501  0.00000000000E+00  0.00000000000E+00  0.95203223049E+03  0.95203223049E+03  0.25500000920E-02 0. -1.
        2   -1    0    0  501    0  0.00000000000E+00  0.00000000000E+00 -0.86525240129E+03  0.86525240130E+03  0.25500000920E-02 0.  1.
    10030    2    1    2    0    0  0.00000000000E+00  0.00000000000E+00  0.86779829196E+02  0.18172846318E+04  0.18152114737E+04 0.  0.
        5    1    3    3  502    0  0.82343537663E+03 -0.14206111349E+03  0.39805275886E+03  0.92557834259E+03  0.46999998093E+01 0.  1.
       -5    1    3    3    0  502 -0.82343537663E+03  0.14206111349E+03 -0.31127292967E+03  0.89170628919E+03  0.46999998093E+01 0. -1.
</event>
<event>
 5   0  0.7613444E-06  0.1832939E+04  0.7818609E-02  0.8688976E-01
        1   -1    0    0  501    0  0.00000000000E+00  0.00000000000E+00  0.11566475210E+04  0.11566475210E+04  0.50400001928E-02 0.  1.
       -1   -1    0    0    0  501  0.00000000000E+00  0.00000000000E+00 -0.72616461996E+03  0.72616461997E+03  0.50400001928E-02 0. -1.
    10030    2    1    2    0    0  0.00000000000E+00  0.00000000000E+00  0.43048290100E+03  0.18828121409E+04  0.18329391779E+04 0.  0.
        5    1    3    3  502    0 -0.13501833242E+02 -0.51045100310E+03  0.99696856436E+03  0.11201388014E+04  0.46999998093E+01 0.  1.
       -5    1    3    3    0  502  0.13501833242E+02  0.51045100310E+03 -0.56648566336E+03  0.76267333955E+03  0.46999998093E+01 0. -1.
</event>
<event>
 5   0  0.6288000E-06  0.2789935E+04  0.7818609E-02  0.8306400E-01
       -3   -1    0    0    0  501  0.00000000000E+00  0.00000000000E+00  0.94936071310E+03  0.94936071848E+03  0.10100000352E+00 0.  1.
        3   -1    0    0  501    0  0.00000000000E+00  0.00000000000E+00 -0.20497313437E+04  0.20497313462E+04  0.10100000352E+00 0. -1.
    10030    2    1    2    0    0  0.00000000000E+00  0.00000000000E+00 -0.11003706306E+04  0.29990920646E+04  0.27899350687E+04 0.  0.
        2    1    3    3  502    0  0.11383890037E+04 -0.58864663136E+01  0.31646208875E+03  0.11815720155E+04  0.25500000920E-02 0.  1.
       -2    1    3    3    0  502 -0.11383890037E+04  0.58864663136E+01 -0.14168327193E+04  0.18175200491E+04  0.25500000920E-02 0. -1.
</event>
<event>
 5   0  0.1814230E-05  0.2819113E+04  0.7818609E-02  0.8297359E-01
        2   -1    0    0  501    0  0.00000000000E+00  0.00000000000E+00  0.23913927219E+04  0.23913927219E+04  0.25500000920E-02 0. -1.
       -2   -1    0    0    0  501  0.00000000000E+00  0.00000000000E+00 -0.83083380513E+03  0.83083380514E+03  0.25500000920E-02 0.  1.
    10030    2    1    2    0    0  0.00000000000E+00  0.00000000000E+00  0.15605589168E+04  0.32222265271E+04  0.28191132753E+04 0.  0.
        5    1    3    3  502    0 -0.12709251418E+04 -0.59537798900E+03  0.63080430385E+03  0.15387208407E+04  0.46999998093E+01 0.  1.
       -5    1    3    3    0  502  0.12709251418E+04  0.59537798900E+03  0.92975461293E+03  0.16835056864E+04  0.46999998093E+01 0. -1.
</event>
<event>
 5   0  0.7509685E-06  0.2820297E+04  0.7818609E-02  0.8296995E-01
        1   -1    0    0  501    0  0.00000000000E+00  0.00000000000E+00  0.14471339370E+04  0.14471339370E+04  0.50400001928E-02 0. -1.
       -1   -1    0    0    0  501  0.00000000000E+00  0.00000000000E+00 -0.13741081787E+04  0.13741081787E+04  0.50400001928E-02 0.  1.
    10030    2    1    2    0    0  0.00000000000E+00  0.00000000000E+00  0.73025758258E+02  0.28212421157E+04  0.28202968486E+04 0.  0.
        4    1    3    3  502    0 -0.12805804910E+03  0.60192822511E+02 -0.13669879906E+04  0.13742924795E+04  0.12699999809E+01 0.  1.
       -4    1    3    3    0  502  0.12805804910E+03 -0.60192822511E+02  0.14400137489E+04  0.14469496362E+04  0.12699999809E+01 0. -1.
</event>
<event>
 5   0  0.1904553E-05  0.2788639E+04  0.7818609E-02  0.8306804E-01
       -2   -1    0    0    0  501  0.00000000000E+00  0.00000000000E+00  0.19810761235E+04  0.19810761235E+04  0.25500000920E-02 0. -1.
        2   -1    0    0  501    0  0.00000000000E+00  0.00000000000E+00 -0.98134909330E+03  0.98134909330E+03  0.25500000920E-02 0.  1.
    10030    2    1    2    0    0  0.00000000000E+00  0.00000000000E+00  0.99972703018E+03  0.29624252168E+04  0.27886392793E+04 0.  0.
        1    1    3    3  502    0  0.58037528297E+02 -0.26734189462E+02  0.19795198787E+04  0.19805509389E+04  0.50400001928E-02 0. -1.
       -1    1    3    3    0  502 -0.58037528297E+02  0.26734189462E+02 -0.97979284848E+03  0.98187427787E+03  0.50400001928E-02 0.  1.
</event>
<event>
 5   0  0.7613444E-06  0.2646593E+04  0.7818609E-02  0.8352545E-01
       -1   -1    0    0    0  501  0.00000000000E+00  0.00000000000E+00  0.25872997824E+04  0.25872997824E+04  0.50400001928E-02 0. -1.
        1   -1    0    0  501    0  0.00000000000E+00  0.00000000000E+00 -0.67681118018E+03  0.67681118019E+03  0.50400001928E-02 0.  1.
    10030    2    1    2    0    0  0.00000000000E+00  0.00000000000E+00  0.19104886023E+04  0.32641109626E+04  0.26465928431E+04 0.  0.
        5    1    3    3  502    0 -0.31064496923E+02 -0.18954934112E+03 -0.65951648059E+03  0.68693379147E+03  0.46999998093E+01 0.  1.
       -5    1    3    3    0  502  0.31064496923E+02  0.18954934112E+03  0.25700050829E+04  0.25771771712E+04  0.46999998093E+01 0. -1.
</event>
<event>
 5   0  0.7388013E-06  0.2792494E+04  0.7818609E-02  0.8305602E-01
       -1   -1    0    0    0  501  0.00000000000E+00  0.00000000000E+00  0.10313861396E+04  0.10313861396E+04  0.50400001928E-02 0.  1.
        1   -1    0    0  501    0  0.00000000000E+00  0.00000000000E+00 -0.18901807720E+04  0.18901807720E+04  0.50400001928E-02 0. -1.
    10030    2    1    2    0    0  0.00000000000E+00  0.00000000000E+00 -0.85879463245E+03  0.29215669116E+04  0.27924944043E+04 0.  0.
        1    1    3    3  502    0  0.31349782805E+03 -0.54376849571E+03 -0.17342584114E+04  0.18443473920E+04  0.50400001928E-02 0. -1.
       -1    1    3    3    0  502 -0.31349782805E+03  0.54376849571E+03  0.87546377891E+03  0.10772195196E+04  0.50400001928E-02 0.  1.
</event>
<event>
 5   0  0.7388013E-06  0.2779583E+04  0.7818609E-02  0.8309635E-01
       -1   -1    0    0    0  501  0.00000000000E+00  0.00000000000E+00  0.19402892611E+04  0.19402892611E+04  0.50400001928E-02 0. -1.
        1   -1    0    0  501    0  0.00000000000E+00  0.00000000000E+00 -0.99548034926E+03  0.99548034928E+03  0.50400001928E-02 0.  1.
    10030    2    1    2    0    0  0.00000000000E+00  0.00000000000E+00  0.94480891184E+03  0.29357696104E+04  0.27795825811E+04 0.  0.
        1    1    3    3  502    0  0.10285287048E+04  0.32693119591E+02  0.14590131551E+04  0.17854017821E+04  0.50400001928E-02 0. -1.
       -1    1    3    3    0  502 -0.10285287048E+04 -0.32693119591E+02 -0.51420424328E+03  0.11503678283E+04  0.50400001928E-02 0.  1.
</event>
<event>
 5   0  0.7509685E-06  0.2791703E+04  0.7818609E-02  0.8305849E-01
       -1   -1    0    0    0  501  0.00000000000E+00  0.00000000000E+00  0.17044459550E+04  0.17044459550E+04  0.50400001928E-02 0.  1.
        1   -1    0    0  501    0  0.00000000000E+00  0.00000000000E+00 -0.11431286063E+04  0.11431286063E+04  0.50400001928E-02 0. -1.
    10030    2    1    2    0    0  0.00000000000E+00  0.00000000000E+00  0.56131734870E+03  0.28475745613E+04  0.27917026554E+04 0.  0.
        4    1    3    3  502    0  0.68132750687E+02  0.11944887641E+04  0.10140433424E+04  0.15683529553E+04  0.12699999809E+01 0.  1.
       -4    1    3    3    0  502 -0.68132750687E+02 -0.11944887641E+04 -0.45272599366E+03  0.12792216061E+04  0.12699999809E+01 0. -1.
</event>
<event>
 5   0  0.1923559E-05  0.2875261E+04  0.7818609E-02  0.8280276E-01
       -2   -1    0    0    0  501  0.00000000000E+00  0.00000000000E+00  0.14582442681E+04  0.14582442681E+04  0.25500000920E-02 0. -1.
        2   -1    0    0  501    0  0.00000000000E+00  0.00000000000E+00 -0.14173081705E+04  0.14173081705E+04  0.25500000920E-02 0.  1.
    10030    2    1    2    0    0  0.00000000000E+00  0.00000000000E+00  0.40936097626E+02  0.28755524385E+04  0.28752610425E+04 0.  0.
        4    1    3    3  502    0  0.49754900932E+03  0.11757473923E+04 -0.64053989714E+03  0.14283661715E+04  0.12699999809E+01 0.  1.
       -4    1    3    3    0  502 -0.49754900932E+03 -0.11757473923E+04  0.68147599476E+03  0.14471862670E+04  0.12699999809E+01 0. -1.
</event>
<event>
 5   0  0.1874272E-05  0.2765907E+04  0.7818609E-02  0.8313932E-01
        2   -1    0    0  501    0  0.00000000000E+00  0.00000000000E+00  0.27299252338E+04  0.27299252338E+04  0.25500000920E-02 0. -1.
       -2   -1    0    0    0  501  0.00000000000E+00  0.00000000000E+00 -0.70059066898E+03  0.70059066899E+03  0.25500000920E-02 0.  1.
    10030    2    1    2    0    0  0.00000000000E+00  0.00000000000E+00  0.20293345648E+04  0.34305159027E+04  0.27659068284E+04 0.  0.
        3    1    3    3  502    0  0.11400742014E+04 -0.18684129304E+03  0.19575142405E+04  0.22730026101E+04  0.10100000352E+00 0. -1.
       -3    1    3    3    0  502 -0.11400742014E+04  0.18684129304E+03  0.71820324305E+02  0.11575132927E+04  0.10100000352E+00 0.  1.
</event>
<event>
 5   0  0.7388013E-06  0.2760218E+04  0.7818609E-02  0.8315726E-01
        1   -1    0    0  501    0  0.00000000000E+00  0.00000000000E+00  0.14742213091E+04  0.14742213091E+04  0.50400001928E-02 0.  1.
       -1   -1    0    0    0  501  0.00000000000E+00  0.00000000000E+00 -0.12920051039E+04  0.12920051039E+04  0.50400001928E-02 0. -1.
    10030    2    1    2    0    0  0.00000000000E+00  0.00000000000E+00  0.18221620519E+03  0.27662264131E+04  0.27602184375E+04 0.  0.
        1    1    3    3  502    0  0.11050943761E+04  0.53033417594E+01 -0.73739547593E+03  0.13285382168E+04  0.50400001928E-02 0. -1.
       -1    1    3    3    0  502 -0.11050943761E+04 -0.53033417594E+01  0.91961168112E+03  0.14376881963E+04  0.50400001928E-02 0.  1.
</event>
<event>
 5   0  0.1814230E-05  0.2819883E+04  0.7818609E-02  0.8297122E-01
       -2   -1    0    0    0  501  0.00000000000E+00  0.00000000000E+00  0.92371324428E+03  0.92371324429E+03  0.25500000920E-02 0. -1.
        2   -1    0    0  501    0  0.00000000000E+00  0.00000000000E+00 -0.21521120346E+04  0.21521120346E+04  0.25500000920E-02 0.  1.
    10030    2    1    2    0    0  0.00000000000E+00  0.00000000000E+00 -0.12283987903E+04  0.30758252788E+04  0.28198825433E+04 0.  0.
        5    1    3    3  502    0  0.48654823496E+03  0.80417498158E+03 -0.17605321296E+04  0.19957259469E+04  0.46999998093E+01 0.  1.
       -5    1    3    3    0  502 -0.48654823496E+03 -0.80417498158E+03  0.53213333933E+03  0.10800993319E+04  0.46999998093E+01 0. -1.
</event>
<event>
 5   0  0.1874272E-05  0.1712652E+04  0.7818609E-02  0.8754181E-01
       -2   -1    0    0    0  501  0.00000000000E+00  0.00000000000E+00  0.64696975183E+03  0.64696975184E+03  0.25500000920E-02 0. -1.
        2   -1    0    0  501    0  0.00000000000E+00  0.00000000000E+00 -0.11334285785E+04  0.11334285785E+04  0.25500000920E-02 0.  1.
    10030    2    1    2    0    0  0.00000000000E+00  0.00000000000E+00 -0.48645882670E+03  0.17803983304E+04  0.17126517523E+04 0.  0.
        3    1    3    3  502    0 -0.15364884290E+03  0.16252910483E+03  0.61606975785E+03  0.65541256745E+03  0.10100000352E+00 0. -1.
       -3    1    3    3    0  502  0.15364884290E+03 -0.16252910483E+03 -0.11025285845E+04  0.11249857629E+04  0.10100000352E+00 0.  1.
</event>
<event>
 5   0  0.1923559E-05  0.2831494E+04  0.7818609E-02  0.8293557E-01
        2   -1    0    0  501    0  0.00000000000E+00  0.00000000000E+00  0.20074966558E+04  0.20074966558E+04  0.25500000920E-02 0. -1.
       -2   -1    0    0    0  501  0.00000000000E+00  0.00000000000E+00 -0.99842748274E+03  0.99842748275E+03  0.25500000920E-02 0.  1.
    10030    2    1    2    0    0  0.00000000000E+00  0.00000000000E+00  0.10090691731E+04  0.30059241386E+04  0.28314941870E+04 0.  0.
        4    1    3    3  502    0  0.11621791857E+03 -0.13337097421E+04  0.99339111284E+03  0.16670680241E+04  0.12699999809E+01 0.  1.
       -4    1    3    3    0  502 -0.11621791857E+03  0.13337097421E+04  0.15678060231E+02  0.13388561145E+04  0.12699999809E+01 0. -1.
</event>
<event>
 5   0  0.1832502E-05  0.2737590E+04  0.7818609E-02  0.8322911E-01
       -2   -1    0    0    0  501  0.00000000000E+00  0.00000000000E+00  0.93718431078E+03  0.93718431078E+03  0.25500000920E-02 0. -1.
        2   -1    0    0  501    0  0.00000000000E+00  0.00000000000E+00 -0.19991788720E+04  0.19991788720E+04  0.25500000920E-02 0.  1.
    10030    2    1    2    0    0  0.00000000000E+00  0.00000000000E+00 -0.10619945612E+04  0.29363631828E+04  0.27375895041E+04 0.  0.
        2    1    3    3  502    0 -0.93116005911E+03  0.71993609597E+03 -0.12804678425E+04  0.17392426322E+04  0.25500000920E-02 0.  1.
       -2    1    3    3    0  502  0.93116005911E+03 -0.71993609597E+03  0.21847328130E+03  0.11971205506E+04  0.25500000920E-02 0. -1.
</event>
<event>
 5   0  0.1832502E-05  0.2799439E+04  0.7818609E-02  0.8303443E-01
       -2   -1    0    0    0  501  0.00000000000E+00  0.00000000000E+00  0.98973197931E+03  0.98973197931E+03  0.25500000920E-02 0. -1.
        2   -1    0    0  501    0  0.00000000000E+00  0.00000000000E+00 -0.19795399623E+04  0.19795399623E+04  0.25500000920E-02 0.  1.
    10030    2    1    2    0    0  0.00000000000E+00  0.00000000000E+00 -0.98980798304E+03  0.29692719417E+04  0.27994385188E+04 0.  0.
        2    1    3    3  502    0  0.12670193055E+04 -0.54892097893E+03 -0.25173156166E+03  0.14035743446E+04  0.25500000920E-02 0. -1.
       -2    1    3    3    0  502 -0.12670193055E+04  0.54892097893E+03 -0.73807642138E+03  0.15656975971E+04  0.25500000920E-02 0.  1.
</event>
<event>
 5   0  0.1832502E-05  0.2757295E+04  0.7818609E-02  0.8316650E-01
        2   -1    0    0  501    0  0.00000000000E+00  0.00000000000E+00  0.90821978247E+03  0.90821978247E+03  0.25500000920E-02 0.  1.
       -2   -1    0    0    0  501  0.00000000000E+00  0.00000000000E+00 -0.20927413808E+04  0.20927413808E+04  0.25500000920E-02 0. -1.
    10030    2    1    2    0    0  0.00000000000E+00  0.00000000000E+00 -0.11845215983E+04  0.30009611633E+04  0.27572951395E+04 0.  0.
        2    1    3    3  502    0 -0.36438545741E+03 -0.66676499685E+03  0.65975276120E+03  0.10062932120E+04  0.25500000920E-02 0.  1.
       -2    1    3    3    0  502  0.36438545741E+03  0.66676499685E+03 -0.18442743595E+04  0.19946679513E+04  0.25500000920E-02 0. -1.
</event>
<event>
 5   0  0.1874272E-05  0.2639872E+04  0.7818609E-02  0.8354782E-01
       -2   -1    0    0    0  501  0.00000000000E+00  0.00000000000E+00  0.17096013145E+04  0.17096013145E+04  0.25500000920E-02 0. -1.
        2   -1    0    0  501    0  0.00000000000E+00  0.00000000000E+00 -0.10190864795E+04  0.10190864795E+04  0.25500000920E-02 0.  1.
    10030    2    1    2    0    0  0.00000000000E+00  0.00000000000E+00  0.69051483497E+03  0.27286877939E+04  0.26398724097E+04 0.  0.
        3    1    3    3  502    0 -0.66738765779E+03  0.60293698640E+02 -0.83018693315E+03  0.10668889211E+04  0.10100000352E+00 0.  1.
       -3    1    3    3    0  502  0.66738765779E+03 -0.60293698640E+02  0.15207017681E+04  0.16617988728E+04  0.10100000352E+00 0. -1.
</event>
<event>
 5   0  0.1923559E-05  0.2800874E+04  0.7818609E-02  0.8302997E-01
        2   -1    0    0  501    0  0.00000000000E+00  0.00000000000E+00  0.14659290629E+04  0.14659290629E+04  0.25500000920E-02 0. -1.
       -2   -1    0    0    0  501  0.00000000000E+00  0.00000000000E+00 -0.13378712851E+04  0.13378712851E+04  0.25500000920E-02 0.  1.
    10030    2    1    2    0    0  0.00000000000E+00  0.00000000000E+00  0.12805777778E+03  0.28038003480E+04  0.28008744343E+04 0.  0.
        4    1    3    3  502    0 -0.12753978291E+04 -0.24700879660E+03 -0.45955652180E+03  0.13779864940E+04  0.12699999809E+01 0.  1.
       -4    1    3    3    0  502  0.12753978291E+04  0.24700879660E+03  0.58761429958E+03  0.14258138539E+04  0.12699999809E+01 0. -1.
</event>
<event>
 5   0  0.1904553E-05  0.2823782E+04  0.7818609E-02  0.8295923E-01
        2   -1    0    0  501    0  0.00000000000E+00  0.00000000000E+00  0.18673423793E+04  0.18673423793E+04  0.25500000920E-02 0.  1.
       -2   -1    0    0    0  501  0.00000000000E+00  0.00000000000E+00 -0.10675257514E+04  0.10675257514E+04  0.25500000920E-02 0. -1.
    10030    2    1    2    0    0  0.00000000000E+00  0.00000000000E+00  0.79981662795E+03  0.29348681307E+04  0.28237819155E+04 0.  0.
        1    1    3    3  502    0 -0.25599479717E+03  0.88956982571E+03 -0.70813108419E+03  0.11654687655E+04  0.50400001928E-02 0. -1.
       -1    1    3    3    0  502  0.25599479717E+03 -0.88956982571E+03  0.15079477121E+04  0.17693993652E+04  0.50400001928E-02 0.  1.
</event>
<event>
 5   0  0.7388013E-06  0.2788067E+04  0.7818609E-02  0.8306983E-01
       -1   -1    0    0    0  501  0.00000000000E+00  0.00000000000E+00  0.94716972557E+03  0.94716972558E+03  0.50400001928E-02 0.  1.
        1   -1    0    0  501    0  0.00000000000E+00  0.00000000000E+00 -0.20517224080E+04  0.20517224080E+04  0.50400001928E-02 0. -1.
    10030    2    1    2    0    0  0.00000000000E+00  0.00000000000E+00 -0.11045526824E+04  0.29988921336E+04  0.27880669649E+04 0.  0.
        1    1    3    3  502    0  0.17300692021E+02 -0.75889896178E+03 -0.18099216280E+04  0.19626622857E+04  0.50400001928E-02 0. -1.
       -1    1    3    3    0  502 -0.17300692021E+02  0.75889896178E+03  0.70536894561E+03  0.10362298479E+04  0.50400001928E-02 0.  1.
</event>
<event>
 5   0  0.7555871E-06  0.2782631E+04  0.7818609E-02  0.8308681E-01
       -1   -1    0    0    0  501  0.00000000000E+00  0.00000000000E+00  0.16066007006E+04  0.16066007007E+04  0.50400001928E-02 0.  1.
        1   -1    0    0  501    0  0.00000000000E+00  0.00000000000E+00 -0.12048783415E+04  0.12048783415E+04  0.50400001928E-02 0. -1.
    10030    2    1    2    0    0  0.00000000000E+00  0.00000000000E+00  0.40172235917E+03  0.28114790421E+04  0.27826306889E+04 0.  0.
        3    1    3    3  502    0  0.10673343624E+03 -0.18592411764E+03  0.15898125428E+04  0.16042018998E+04  0.10100000352E+00 0.  1.
       -3    1    3    3    0  502 -0.10673343624E+03  0.18592411764E+03 -0.11880901836E+04  0.12072771424E+04  0.10100000352E+00 0. -1.
</event>
<event>
 5   0  0.7388013E-06  0.2691994E+04  0.7818609E-02  0.8337607E-01
       -1   -1    0    0    0  501  0.00000000000E+00  0.00000000000E+00  0.17101464245E+04  0.17101464246E+04  0.50400001928E-02 0.  1.
        1   -1    0    0  501    0  0.00000000000E+00  0.00000000000E+00 -0.10593874139E+04  0.10593874139E+04  0.50400001928E-02 0. -1.
    10030    2    1    2    0    0  0.00000000000E+00  0.00000000000E+00  0.65075901063E+03  0.27695338385E+04  0.26919937579E+04 0.  0.
        1    1    3    3  502    0 -0.11101228928E+03  0.11028869469E+04 -0.46017430140E+03  0.12001848748E+04  0.50400001928E-02 0. -1.
       -1    1    3    3    0  502  0.11101228928E+03 -0.11028869469E+04  0.11109333120E+04  0.15693489637E+04  0.50400001928E-02 0.  1.
</event>
<event>
 5   0  0.1923559E-05  0.2713272E+04  0.7818609E-02  0.8330712E-01
       -2   -1    0    0    0  501  0.00000000000E+00  0.00000000000E+00  0.14033886247E+04  0.14033886247E+04  0.25500000920E-02 0.  1.
        2   -1    0    0  501    0  0.00000000000E+00  0.00000000000E+00 -0.13114405349E+04  0.13114405349E+04  0.25500000920E-02 0. -1.
    10030    2    1    2    0    0  0.00000000000E+00  0.00000000000E+00  0.91948089755E+02  0.27148291597E+04  0.27132716257E+04 0.  0.
        4    1    3    3  502    0 -0.16599938953E+03 -0.12386705910E+03  0.13874749265E+04  0.14028496464E+04  0.12699999809E+01 0.  1.
       -4    1    3    3    0  502  0.16599938953E+03  0.12386705910E+03 -0.12955268368E+04  0.13119795133E+04  0.12699999809E+01 0. -1.
</event>
<event>
 5   0  0.1832502E-05  0.2844955E+04  0.7818609E-02  0.8289446E-01
       -2   -1    0    0    0  501  0.00000000000E+00  0.00000000000E+00  0.12519018867E+04  0.12519018867E+04  0.25500000920E-02 0. -1.
        2   -1    0    0  501    0  0.00000000000E+00  0.00000000000E+00 -0.16162942375E+04  0.16162942375E+04  0.25500000920E-02 0.  1.
    10030    2    1    2    0    0  0.00000000000E+00  0.00000000000E+00 -0.36439235076E+03  0.28681961242E+04  0.28449546959E+04 0.  0.
        2    1    3    3  502    0 -0.13024426702E+04  0.15173070045E+03 -0.73811970609E+03  0.15047258272E+04  0.25500000920E-02 0.  1.
       -2    1    3    3    0  502  0.13024426702E+04 -0.15173070045E+03  0.37372735533E+03  0.13634702970E+04  0.25500000920E-02 0. -1.
</event>
<event>
 5   0  0.1832502E-05  0.2786841E+04  0.7818609E-02  0.8307365E-01
       -2   -1    0    0    0  501  0.00000000000E+00  0.00000000000E+00  0.14739377772E+04  0.14739377772E+04  0.25500000920E-02 0. -1.
        2   -1    0    0  501    0  0.00000000000E+00  0.00000000000E+00 -0.13173014302E+04  0.13173014302E+04  0.25500000920E-02 0.  1.
    10030    2    1    2    0    0  0.00000000000E+00  0.00000000000E+00  0.15663634697E+03  0.27912392074E+04  0.27868407504E+04 0.  0.
        2    1    3    3  502    0  0.63035165035E+03  0.11158153765E+04  0.62620364169E+03  0.14263653664E+04  0.25500000920E-02 0.  1.
       -2    1    3    3    0  502 -0.63035165035E+03 -0.11158153765E+04 -0.46956729472E+03  0.13648738410E+04  0.25500000920E-02 0. -1.
</event>
<event>
 5   0  0.1904553E-05  0.2765725E+04  0.7818609E-02  0.8313989E-01
        2   -1    0    0  501    0  0.00000000000E+00  0.00000000000E+00  0.21438348177E+04  0.21438348177E+04  0.25500000920E-02 0. -1.
       -2   -1    0    0    0  501  0.00000000000E+00  0.00000000000E+00 -0.89200398265E+03  0.89200398265E+03  0.25500000920E-02 0.  1.
    10030    2    1    2    0    0  0.00000000000E+00  0.00000000000E+00  0.12518308351E+04  0.30358388004E+04  0.27657253628E+04 0.  0.
        1    1    3    3  502    0 -0.94510061867E+03 -0.31623678774E+03  0.16782365118E+04  0.19518449413E+04  0.50400001928E-02 0. -1.
       -1    1    3    3    0  502  0.94510061867E+03  0.31623678774E+03 -0.42640567673E+03  0.10839938591E+04  0.50400001928E-02 0.  1.
</event>
<event>
 5   0  0.1814230E-05  0.2832059E+04  0.7818609E-02  0.8293384E-01
       -2   -1    0    0    0  501  0.00000000000E+00  0.00000000000E+00  0.13198500746E+04  0.13198500746E+04  0.25500000920E-02 0.  1.
        2   -1    0    0  501    0  0.00000000000E+00  0.00000000000E+00 -0.15192175259E+04  0.15192175259E+04  0.25500000920E-02 0. -1.
    10030    2    1    2    0    0  0.00000000000E+00  0.00000000000E+00 -0.19936745133E+03  0.28390676004E+04  0.28320588728E+04 0.  0.
        5    1    3    3  502    0 -0.16814181897E+03  0.12786177570E+03  0.13039588860E+04  0.13209659993E+04  0.46999998093E+01 0.  1.
       -5    1    3    3    0  502  0.16814181897E+03 -0.12786177570E+03 -0.15033263373E+04  0.15181016011E+04  0.46999998093E+01 0. -1.
</event>
<event>
 5   0  0.7681342E-06  0.2720053E+04  0.7818609E-02  0.8328528E-01
       -1   -1    0    0    0  501  0.00000000000E+00  0.00000000000E+00  0.98316065578E+03  0.98316065580E+03  0.50400001928E-02 0.  1.
        1   -1    0    0  501    0  0.00000000000E+00  0.00000000000E+00 -0.18813533739E+04  0.18813533739E+04  0.50400001928E-02 0. -1.
    10030    2    1    2    0    0  0.00000000000E+00  0.00000000000E+00 -0.89819271808E+03  0.28645140297E+04  0.27200533942E+04 0.  0.
        2    1    3    3  502    0  0.13844181058E+02  0.50347989042E+03  0.88132272277E+03  0.10150928052E+04  0.25500000920E-02 0.  1.
       -2    1    3    3    0  502 -0.13844181058E+02 -0.50347989042E+03 -0.17795154409E+04  0.18494212245E+04  0.25500000920E-02 0. -1.
</event>
<event>
 5   0  0.7555871E-06  0.2968312E+04  0.7818609E-02  0.8252838E-01
        1   -1    0    0  501    0  0.00000000000E+00  0.00000000000E+00  0.11048303250E+04  0.11048303250E+04  0.50400001928E-02 0.  1.
       -1   -1    0    0    0  501  0.00000000000E+00  0.00000000000E+00 -0.19937176710E+04  0.19937176710E+04  0.50400001928E-02 0. -1.
    10030    2    1    2    0    0  0.00000000000E+00  0.00000000000E+00 -0.88888734596E+03  0.30985479960E+04  0.29683124785E+04 0.  0.
        3    1    3    3  502    0  0.28058122966E+03 -0.38390241397E+03 -0.19120494622E+04  0.19702893305E+04  0.10100000352E+00 0. -1.
       -3    1    3    3    0  502 -0.28058122966E+03  0.38390241397E+03  0.10231621163E+04  0.11282586655E+04  0.10100000352E+00 0.  1.
</event>
<event>
 5   0  0.7388013E-06  0.2841867E+04  0.7818609E-02  0.8290387E-01
        1   -1    0    0  501    0  0.00000000000E+00  0.00000000000E+00  0.15502427123E+04  0.15502427123E+04  0.50400001928E-02 0. -1.
       -1   -1    0    0    0  501  0.00000000000E+00  0.00000000000E+00 -0.13024101184E+04  0.13024101184E+04  0.50400001928E-02 0.  1.
    10030    2    1    2    0    0  0.00000000000E+00  0.00000000000E+00  0.24783259386E+03  0.28526528307E+04  0.28418668474E+04 0.  0.
        1    1    3    3  502    0  0.38944983452E+03 -0.41430547349E+03  0.14310612531E+04  0.15398884730E+04  0.50400001928E-02 0. -1.
       -1    1    3    3    0  502 -0.38944983452E+03  0.41430547349E+03 -0.11832286592E+04  0.13127643578E+04  0.50400001928E-02 0.  1.
</event>
<event>
 5   0  0.7681342E-06  0.2791148E+04  0.7818609E-02  0.8306022E-01
       -1   -1    0    0    0  501  0.00000000000E+00  0.00000000000E+00  0.12837599526E+04  0.12837599526E+04  0.50400001928E-02 0.  1.
        1   -1    0    0  501    0  0.00000000000E+00  0.00000000000E+00 -0.15171267272E+04  0.15171267272E+04  0.50400001928E-02 0. -1.
    10030    2    1    2    0    0  0.00000000000E+00  0.00000000000E+00 -0.23336677457E+03  0.28008866798E+04  0.27911478179E+04 0.  0.
        2    1    3    3  502    0  0.38194579055E+03 -0.11013383634E+04  0.65332556565E+03  0.13362870472E+04  0.25500000920E-02 0.  1.
       -2    1    3    3    0  502 -0.38194579055E+03  0.11013383634E+04 -0.88669234022E+03  0.14645996326E+04  0.25500000920E-02 0. -1.
</event>
<event>
 5   0  0.1874272E-05  0.2109139E+04  0.7818609E-02  0.8557228E-01
       -2   -1    0    0    0  501  0.00000000000E+00  0.00000000000E+00  0.91107893155E+03  0.91107893155E+03  0.25500000920E-02 0.  1.
        2   -1    0    0  501    0  0.00000000000E+00  0.00000000000E+00 -0.12206589630E+04  0.12206589630E+04  0.25500000920E-02 0. -1.
    10030    2    1    2    0    0  0.00000000000E+00  0.00000000000E+00 -0.30958003145E+03  0.21317378946E+04  0.21091388421E+04 0.  0.
        3    1    3    3  502    0  0.10050729209E+04 -0.16595970301E+03 -0.43048081113E+03  0.11059059356E+04  0.10100000352E+00 0. -1.
       -3    1    3    3    0  502 -0.10050729209E+04  0.16595970301E+03  0.12090077969E+03  0.10258319590E+04  0.10100000352E+00 0.  1.
</event>
<event>
 5   0  0.7681342E-06  0.2512299E+04  0.7818609E-02  0.8398617E-01
       -1   -1    0    0    0  501  0.00000000000E+00  0.00000000000E+00  0.16438921103E+04  0.16438921103E+04  0.50400001928E-02 0. -1.
        1   -1    0    0  501    0  0.00000000000E+00  0.00000000000E+00 -0.95986356829E+03  0.95986356830E+03  0.50400001928E-02 0.  1.
    10030    2    1    2    0    0  0.00000000000E+00  0.00000000000E+00  0.68402854200E+03  0.26037556786E+04  0.25122994622E+04 0.  0.
        2    1    3    3  502    0  0.69526200955E+03  0.32953883985E+03 -0.68707064659E+03  0.10315285659E+04  0.25500000920E-02 0.  1.
       -2    1    3    3    0  502 -0.69526200955E+03 -0.32953883985E+03  0.13710991886E+04  0.15722271127E+04  0.25500000920E-02 0. -1.
</event>
<event>
 5   0  0.1814230E-05  0.2832443E+04  0.7818609E-02  0.8293266E-01
        2   -1    0    0  501    0  0.00000000000E+00  0.00000000000E+00  0.14609662901E+04  0.14609662901E+04  0.25500000920E-02 0. -1.
       -2   -1    0    0    0  501  0.00000000000E+00  0.00000000000E+00 -0.13728467888E+04  0.13728467888E+04  0.25500000920E-02 0.  1.
    10030    2    1    2    0    0  0.00000000000E+00  0.00000000000E+00  0.88119501296E+02  0.28338130789E+04  0.28324426773E+04 0.  0.
        5    1    3    3  502    0  0.73000440928E+03  0.33492092077E+03 -0.11229446240E+04  0.13806176804E+04  0.46999998093E+01 0.  1.
       -5    1    3    3    0  502 -0.73000440928E+03 -0.33492092077E+03  0.12110641253E+04  0.14531953986E+04  0.46999998093E+01 0. -1.
</event>
<event>
 5   0  0.1904553E-05  0.2612862E+04  0.7818609E-02  0.8363845E-01
        2   -1    0    0  501    0  0.00000000000E+00  0.00000000000E+00  0.14340334268E+04  0.14340334268E+04  0.25500000920E-02 0.  1.
       -2   -1    0    0    0  501  0.00000000000E+00  0.00000000000E+00 -0.11901830656E+04  0.11901830656E+04  0.25500000920E-02 0. -1.
    10030    2    1    2    0    0  0.00000000000E+00  0.00000000000E+00  0.24385036122E+03  0.26242164925E+04  0.26128622621E+04 0.  0.
        1    1    3    3  502    0 -0.81442376569E+03  0.10054105306E+04  0.30333649125E+03  0.13289655496E+04  0.50400001928E-02 0. -1.
       -1    1    3    3    0  502  0.81442376569E+03 -0.10054105306E+04 -0.59486130023E+02  0.12952509428E+04  0.50400001928E-02 0.  1.
</event>
<event>
 5   0  0.7613444E-06  0.2701601E+04  0.7818609E-02  0.8334486E-01
        1   -1    0    0  501    0  0.00000000000E+00  0.00000000000E+00  0.15988305270E+04  0.15988305270E+04  0.50400001928E-02 0.  1.
       -1   -1    0    0    0  501  0.00000000000E+00  0.00000000000E+00 -0.11412480658E+04  0.11412480658E+04  0.50400001928E-02 0. -1.
    10030    2    1    2    0    0  0.00000000000E+00  0.00000000000E+00  0.45758246122E+03  0.27400785928E+04  0.27016011893E+04 0.  0.
        5    1    3    3  502    0  0.62446038052E+03 -0.14451204857E+03 -0.97717914203E+03  0.11686469375E+04  0.46999998093E+01 0. -1.
       -5    1    3    3    0  502 -0.62446038052E+03  0.14451204857E+03  0.14347616032E+04  0.15714316553E+04  0.46999998093E+01 0.  1.
</event>
<event>
 5   0  0.7555871E-06  0.2764596E+04  0.7818609E-02  0.8314345E-01
       -1   -1    0    0    0  501  0.00000000000E+00  0.00000000000E+00  0.14488013520E+04  0.14488013520E+04  0.50400001928E-02 0. -1.
        1   -1    0    0  501    0  0.00000000000E+00  0.00000000000E+00 -0.13188477519E+04  0.13188477519E+04  0.50400001928E-02 0.  1.
    10030    2    1    2    0    0  0.00000000000E+00  0.00000000000E+00  0.12995360008E+03  0.27676491039E+04  0.27645964668E+04 0.  0.
        3    1    3    3  502    0 -0.54194993617E+03  0.22433630565E+03  0.13180425153E+04  0.14426616352E+04  0.10100000352E+00 0. -1.
       -3    1    3    3    0  502  0.54194993617E+03 -0.22433630565E+03 -0.11880889153E+04  0.13249874687E+04  0.10100000352E+00 0.  1.
</event>
<event>
 5   0  0.7388013E-06  0.2795961E+04  0.7818609E-02  0.8304523E-01
        1   -1    0    0  501    0  0.00000000000E+00  0.00000000000E+00  0.14373872629E+04  0.14373872630E+04  0.50400001928E-02 0.  1.
       -1   -1    0    0    0  501  0.00000000000E+00  0.00000000000E+00 -0.13596545165E+04  0.13596545165E+04  0.50400001928E-02 0. -1.
    10030    2    1    2    0    0  0.00000000000E+00  0.00000000000E+00  0.77732746469E+02  0.27970417794E+04  0.27959614332E+04 0.  0.
        1    1    3    3  502    0 -0.65695243085E+03  0.11630193875E+04  0.45151756630E+03  0.14099889024E+04  0.50400001928E-02 0.  1.
       -1    1    3    3    0  502  0.65695243085E+03 -0.11630193875E+04 -0.37378481983E+03  0.13870528771E+04  0.50400001928E-02 0. -1.
</event>
<event>
 5   0  0.7613444E-06  0.2742511E+04  0.7818609E-02  0.8321342E-01
        1   -1    0    0  501    0  0.00000000000E+00  0.00000000000E+00  0.26743281081E+04  0.26743281081E+04  0.50400001928E-02 0.  1.
       -1   -1    0    0    0  501  0.00000000000E+00  0.00000000000E+00 -0.70310805513E+03  0.70310805515E+03  0.50400001928E-02 0. -1.
    10030    2    1    2    0    0  0.00000000000E+00  0.00000000000E+00  0.19712200530E+04  0.33774361633E+04  0.27425109917E+04 0.  0.
        5    1    3    3  502    0 -0.11703822271E+04  0.69855798999E+03  0.11705080703E+04  0.17966326991E+04  0.46999998093E+01 0.  1.
       -5    1    3    3    0  502  0.11703822271E+04 -0.69855798999E+03  0.80071198269E+03  0.15808034641E+04  0.46999998093E+01 0. -1.
</event>
<event>
 5   0  0.1832502E-05  0.2859126E+04  0.7818609E-02  0.8285144E-01
        2   -1    0    0  501    0  0.00000000000E+00  0.00000000000E+00  0.12545462447E+04  0.12545462447E+04  0.25500000920E-02 0. -1.
       -2   -1    0    0    0  501  0.00000000000E+00  0.00000000000E+00 -0.16289953995E+04  0.16289953995E+04  0.25500000920E-02 0.  1.
    10030    2    1    2    0    0  0.00000000000E+00  0.00000000000E+00 -0.37444915479E+03  0.28835416441E+04  0.28591257832E+04 0.  0.
        2    1    3    3  502    0  0.97105545369E+03  0.89682912773E+03 -0.73629904215E+03  0.15130721919E+04  0.25500000920E-02 0.  1.
       -2    1    3    3    0  502 -0.97105545369E+03 -0.89682912773E+03  0.36184988736E+03  0.13704694522E+04  0.25500000920E-02 0. -1.
</event>
<event>
 5   0  0.7681342E-06  0.2982798E+04  0.7818609E-02  0.8248660E-01
        1   -1    0    0  501    0  0.00000000000E+00  0.00000000000E+00  0.24395232738E+04  0.24395232738E+04  0.50400001928E-02 0.  1.
       -1   -1    0    0    0  501  0.00000000000E+00  0.00000000000E+00 -0.91176432135E+03  0.91176432137E+03  0.50400001928E-02 0. -1.
    10030    2    1    2    0    0  0.00000000000E+00  0.00000000000E+00  0.15277589524E+04  0.33512875951E+04  0.29827975340E+04 0.  0.
        2    1    3    3  502    0 -0.11350324145E+04 -0.55183987703E+03  0.16566821843E+04  0.20826477599E+04  0.25500000920E-02 0.  1.
       -2    1    3    3    0  502  0.11350324145E+04  0.55183987703E+03 -0.12892323187E+03  0.12686398353E+04  0.25500000920E-02 0. -1.
</event>
<event>
 5   0  0.1814230E-05  0.2741119E+04  0.7818609E-02  0.8321785E-01
        2   -1    0    0  501    0  0.00000000000E+00  0.00000000000E+00  0.22415902797E+04  0.22415902797E+04  0.25500000920E-02 0. -1.
       -2   -1    0    0    0  501  0.00000000000E+00  0.00000000000E+00 -0.83799116290E+03  0.83799116290E+03  0.25500000920E-02 0.  1.
    10030    2    1    2    0    0  0.00000000000E+00  0.00000000000E+00  0.14035991168E+04  0.30795814426E+04  0.27411186368E+04 0.  0.
        5    1    3    3  502    0  0.57429127573E+03  0.12366583756E+04  0.85778218884E+03  0.16108838508E+04  0.46999998093E+01 0.  1.
       -5    1    3    3    0  502 -0.57429127573E+03 -0.12366583756E+04  0.54581692793E+03  0.14686975918E+04  0.46999998093E+01 0. -1.
</event>
<event>
 5   0  0.7388013E-06  0.2866841E+04  0.7818609E-02  0.8282812E-01
       -1   -1    0    0    0  501  0.00000000000E+00  0.00000000000E+00  0.15488001482E+04  0.15488001482E+04  0.50400001928E-02 0.  1.
        1   -1    0    0  501    0  0.00000000000E+00  0.00000000000E+00 -0.13266358660E+04  0.13266358660E+04  0.50400001928E-02 0. -1.
    10030    2    1    2    0    0  0.00000000000E+00  0.00000000000E+00  0.22216428221E+03  0.28754360141E+04  0.28668406484E+04 0.  0.
        1    1    3    3  502    0  0.26039372315E+03 -0.11976034399E+04  0.85670518597E+03  0.14953269428E+04  0.50400001928E-02 0.  1.
       -1    1    3    3    0  502 -0.26039372315E+03  0.11976034399E+04 -0.63454090376E+03  0.13801090713E+04  0.50400001928E-02 0. -1.
</event>
<event>
 5   0  0.1874272E-05  0.2798371E+04  0.7818609E-02  0.8303774E-01
        2   -1    0    0  501    0  0.00000000000E+00  0.00000000000E+00  0.14610409801E+04  0.14610409801E+04  0.25500000920E-02 0.  1.
       -2   -1    0    0    0  501  0.00000000000E+00  0.00000000000E+00 -0.13399492310E+04  0.13399492310E+04  0.25500000920E-02 0. -1.
    10030    2    1    2    0    0  0.00000000000E+00  0.00000000000E+00  0.12109174908E+03  0.28009902111E+04  0.27983714820E+04 0.  0.
        3    1    3    3  502    0  0.66249367448E+03 -0.17478148116E+03 -0.11605442385E+04  0.13477052254E+04  0.10100000352E+00 0. -1.
       -3    1    3    3    0  502 -0.66249367448E+03  0.17478148116E+03  0.12816359876E+04  0.14532849857E+04  0.10100000352E+00 0.  1.
</event>
<event>
 5   0  0.1814230E-05  0.2613451E+04  0.7818609E-02  0.8363646E-01
       -2   -1    0    0    0  501  0.00000000000E+00  0.00000000000E+00  0.81848083373E+03  0.81848083373E+03  0.25500000920E-02 0.  1.
        2   -1    0    0  501    0  0.00000000000E+00  0.00000000000E+00 -0.20862211648E+04  0.20862211648E+04  0.25500000920E-02 0. -1.
    10030    2    1    2    0    0  0.00000000000E+00  0.00000000000E+00 -0.12677403310E+04  0.29047019985E+04  0.26134513872E+04 0.  0.
        5    1    3    3  502    0  0.99941478018E+02  0.20597938618E+03 -0.20637465979E+04  0.20764122705E+04  0.46999998093E+01 0. -1.
       -5    1    3    3    0  502 -0.99941478018E+02 -0.20597938618E+03  0.79600626690E+03  0.82828972800E+03  0.46999998093E+01 0.  1.
</event>
<event>
 5   0  0.1814230E-05  0.2752945E+04  0.7818609E-02  0.8318028E-01
       -2   -1    0    0    0  501  0.00000000000E+00  0.00000000000E+00  0.70578677382E+03  0.70578677382E+03  0.25500000920E-02 0. -1.
        2   -1    0    0  501    0  0.00000000000E+00  0.00000000000E+00 -0.26844877722E+04  0.26844877722E+04  0.25500000920E-02 0.  1.
    10030    2    1    2    0    0  0.00000000000E+00  0.00000000000E+00 -0.19787009984E+04  0.33902745460E+04  0.27529445793E+04 0.  0.
        5    1    3    3  502    0  0.58859433589E+03  0.97901128724E+03 -0.19350876465E+04  0.22471076259E+04  0.46999998093E+01 0.  1.
       -5    1    3    3    0  502 -0.58859433589E+03 -0.97901128724E+03 -0.43613351873E+02  0.11431669201E+04  0.46999998093E+01 0. -1.
</event>
<event>
 5   0  0.1874272E-05  0.2773988E+04  0.7818609E-02  0.8311390E-01
       -2   -1    0    0    0  501  0.00000000000E+00  0.00000000000E+00  0.13637212456E+04  0.13637212456E+04  0.25500000920E-02 0. -1.
        2   -1    0    0  501    0  0.00000000000E+00  0.00000000000E+00 -0.14106637662E+04  0.14106637662E+04  0.25500000920E-02 0.  1.
    10030    2    1    2    0    0  0.00000000000E+00  0.00000000000E+00 -0.46942520571E+02  0.27743850119E+04  0.27739878503E+04 0.  0.
        3    1    3    3  502    0  0.15466055898E+03  0.12970694634E+04 -0.48984592230E+03  0.13950835528E+04  0.10100000352E+00 0.  1.
       -3    1    3    3    0  502 -0.15466055898E+03 -0.12970694634E+04  0.44290340172E+03  0.13793014591E+04  0.10100000352E+00 0. -1.
</event>
<event>
 5   0  0.7388013E-06  0.1857316E+04  0.7818609E-02  0.8676399E-01
       -1   -1    0    0    0  501  0.00000000000E+00  0.00000000000E+00  0.75888197886E+03  0.75888197887E+03  0.50400001928E-02 0. -1.
        1   -1    0    0  501    0  0.00000000000E+00  0.00000000000E+00 -0.11364164351E+04  0.11364164351E+04  0.50400001928E-02 0.  1.
    10030    2    1    2    0    0  0.00000000000E+00  0.00000000000E+00 -0.37753445624E+03  0.18952984140E+04  0.18573162930E+04 0.  0.
        1    1    3    3  502    0 -0.70868369124E+01 -0.39766035214E+03 -0.10451077926E+04  0.11182281865E+04  0.50400001928E-02 0.  1.
       -1    1    3    3    0  502  0.70868369124E+01  0.39766035214E+03  0.66757333638E+03  0.77707022745E+03  0.50400001928E-02 0. -1.
</event>
<event>
 5   0  0.7509685E-06  0.2791027E+04  0.7818609E-02  0.8306060E-01
        1   -1    0    0  501    0  0.00000000000E+00  0.00000000000E+00  0.81459931122E+03  0.81459931124E+03  0.50400001928E-02 0. -1.
       -1   -1    0    0    0  501  0.00000000000E+00  0.00000000000E+00 -0.23906942232E+04  0.23906942232E+04  0.50400001928E-02 0.  1.
    10030    2    1    2    0    0  0.00000000000E+00  0.00000000000E+00 -0.15760949119E+04  0.32052935344E+04  0.27910269562E+04 0.  0.
        4    1    3    3  502    0  0.62278899310E+03  0.88946981130E+03  0.21866848104E+03  0.11076281834E+04  0.12699999809E+01 0. -1.
       -4    1    3    3    0  502 -0.62278899310E+03 -0.88946981130E+03 -0.17947633930E+04  0.20976653510E+04  0.12699999809E+01 0.  1.
</event>
<event>
 5   0  0.7613444E-06  0.2745420E+04  0.7818609E-02  0.8320416E-01
        1   -1    0    0  501    0  0.00000000000E+00  0.00000000000E+00  0.13787565631E+04  0.13787565631E+04  0.50400001928E-02 0.  1.
       -1   -1    0    0    0  501  0.00000000000E+00  0.00000000000E+00 -0.13666901230E+04  0.13666901230E+04  0.50400001928E-02 0. -1.
    10030    2    1    2    0    0  0.00000000000E+00  0.00000000000E+00  0.12066440069E+02  0.27454466861E+04  0.27454201696E+04 0.  0.
        5    1    3    3  502    0 -0.75446044503E+03 -0.10435833026E+04 -0.46940192869E+03  0.13706337706E+04  0.46999998093E+01 0. -1.
       -5    1    3    3    0  502  0.75446044503E+03  0.10435833026E+04  0.48146836876E+03  0.13748129155E+04  0.46999998093E+01 0.  1.
</event>
<event>
 5   0  0.1832502E-05  0.2792798E+04  0.7818609E-02  0.8305508E-01
        2   -1    0    0  501    0  0.00000000000E+00  0.00000000000E+00  0.15409979134E+04  0.15409979134E+04  0.25500000920E-02 0. -1.
       -2   -1    0    0    0  501  0.00000000000E+00  0.00000000000E+00 -0.12653688843E+04  0.12653688843E+04  0.25500000920E-02 0.  1.
    10030    2    1    2    0    0  0.00000000000E+00  0.00000000000E+00  0.27562902907E+03  0.28063667977E+04  0.27927984606E+04 0.  0.
        2    1    3    3  502    0 -0.35028985120E+03 -0.10231159170E+04  0.10255439515E+04  0.14903722877E+04  0.25500000920E-02 0. -1.
       -2    1    3    3    0  502  0.35028985120E+03  0.10231159170E+04 -0.74991492239E+03  0.13159945100E+04  0.25500000920E-02 0.  1.
</event>
<event>
 5   0  0.7555871E-06  0.2583997E+04  0.7818609E-02  0.8373657E-01
        1   -1    0    0  501    0  0.00000000000E+00  0.00000000000E+00  0.20164564939E+04  0.20164564939E+04  0.50400001928E-02 0.  1.
       -1   -1    0    0    0  501  0.00000000000E+00  0.00000000000E+00 -0.82781859758E+03  0.82781859760E+03  0.50400001928E-02 0. -1.
    10030    2    1    2    0    0  0.00000000000E+00  0.00000000000E+00  0.11886378963E+04  0.28442750915E+04  0.25839970487E+04 0.  0.
        3    1    3    3  502    0 -0.92398222936E+03  0.62890305888E+03 -0.11903188811E+03  0.11240243851E+04  0.10100000352E+00 0. -1.
       -3    1    3    3    0  502  0.92398222936E+03 -0.62890305888E+03  0.13076697844E+04  0.17202507064E+04  0.10100000352E+00 0.  1.
</event>
<event>
 5   0  0.7509685E-06  0.2621845E+04  0.7818609E-02  0.8360819E-01
        1   -1    0    0  501    0  0.00000000000E+00  0.00000000000E+00  0.15378526328E+04  0.15378526328E+04  0.50400001928E-02 0. -1.
       -1   -1    0    0    0  501  0.00000000000E+00  0.00000000000E+00 -0.11174788195E+04  0.11174788195E+04  0.50400001928E-02 0.  1.
    10030    2    1    2    0    0  0.00000000000E+00  0.00000000000E+00  0.42037381337E+03  0.26553314523E+04  0.26218449570E+04 0.  0.
        4    1    3    3  502    0  0.10342068935E+04 -0.51442576734E+03 -0.41764878464E+03  0.12282710975E+04  0.12699999809E+01 0.  1.
       -4    1    3    3    0  502 -0.10342068935E+04  0.51442576734E+03  0.83802259802E+03  0.14270603548E+04  0.12699999809E+01 0. -1.
</event>
<event>
 5   0  0.1923559E-05  0.2796603E+04  0.7818609E-02  0.8304324E-01
        2   -1    0    0  501    0  0.00000000000E+00  0.00000000000E+00  0.16209676003E+04  0.16209676003E+04  0.25500000920E-02 0.  1.
       -2   -1    0    0    0  501  0.00000000000E+00  0.00000000000E+00 -0.12062223775E+04  0.12062223775E+04  0.25500000920E-02 0. -1.
    10030    2    1    2    0    0  0.00000000000E+00  0.00000000000E+00  0.41474522280E+03  0.28271899778E+04  0.27966032201E+04 0.  0.
        4    1    3    3  502    0 -0.31570746275E+03 -0.53513784902E+03  0.14737512438E+04  0.15993711455E+04  0.12699999809E+01 0.  1.
       -4    1    3    3    0  502  0.31570746275E+03  0.53513784902E+03 -0.10590060210E+04  0.12278188323E+04  0.12699999809E+01 0. -1.
</event>
<event>
 5   0  0.7509685E-06  0.1940216E+04  0.7818609E-02  0.8635093E-01
       -1   -1    0    0    0  501  0.00000000000E+00  0.00000000000E+00  0.77923894293E+03  0.77923894295E+03  0.50400001928E-02 0.  1.
        1   -1    0    0  501    0  0.00000000000E+00  0.00000000000E+00 -0.12077293215E+04  0.12077293215E+04  0.50400001928E-02 0. -1.
    10030    2    1    2    0    0  0.00000000000E+00  0.00000000000E+00 -0.42849037856E+03  0.19869682644E+04  0.19402161940E+04 0.  0.
        4    1    3    3  502    0  0.45914892340E+03  0.22240974336E+03 -0.10592483298E+04  0.11757093454E+04  0.12699999809E+01 0. -1.
       -4    1    3    3    0  502 -0.45914892340E+03 -0.22240974336E+03  0.63075795123E+03  0.81125891905E+03  0.12699999809E+01 0.  1.
</event>
<event>
 5   0  0.7509685E-06  0.2774657E+04  0.7818609E-02  0.8311180E-01
       -1   -1    0    0    0  501  0.00000000000E+00  0.00000000000E+00  0.12460396782E+04  0.12460396782E+04  0.50400001928E-02 0.  1.
        1   -1    0    0  501    0  0.00000000000E+00  0.00000000000E+00 -0.15446383775E+04  0.15446383775E+04  0.50400001928E-02 0. -1.
    10030    2    1    2    0    0  0.00000000000E+00  0.00000000000E+00 -0.29859869926E+03  0.27906780557E+04  0.27746572451E+04 0.  0.
        4    1    3    3  502    0  0.80228958083E+02 -0.69380375904E+03 -0.13549193849E+04  0.15243387072E+04  0.12699999809E+01 0. -1.
       -4    1    3    3    0  502 -0.80228958083E+02  0.69380375904E+03  0.10563206857E+04  0.12663393485E+04  0.12699999809E+01 0.  1.
</event>
<event>
 5   0  0.7388013E-06  0.1835350E+04  0.7818609E-02  0.8687724E-01
        1   -1    0    0  501    0  0.00000000000E+00  0.00000000000E+00  0.60606716552E+03  0.60606716554E+03  0.50400001928E-02 0.  1.
       -1   -1    0    0    0  501  0.00000000000E+00  0.00000000000E+00 -0.13894948221E+04  0.13894948221E+04  0.50400001928E-02 0. -1.
    10030    2    1    2    0    0  0.00000000000E+00  0.00000000000E+00 -0.78342765654E+03  0.19955619876E+04  0.18353497632E+04 0.  0.
        1    1    3    3  502    0  0.37295082083E+03  0.22813437358E+03  0.48555642118E+03  0.65337787331E+03  0.50400001928E-02 0.  1.
       -1    1    3    3    0  502 -0.37295082083E+03 -0.22813437358E+03 -0.12689840777E+04  0.13421841143E+04  0.50400001928E-02 0. -1.
</event>
<event>
 5   0  0.1904553E-05  0.2831219E+04  0.7818609E-02  0.8293641E-01
       -2   -1    0    0    0  501  0.00000000000E+00  0.00000000000E+00  0.14850649343E+04  0.14850649343E+04  0.25500000920E-02 0. -1.
        2   -1    0    0  501    0  0.00000000000E+00  0.00000000000E+00 -0.13494025947E+04  0.13494025947E+04  0.25500000920E-02 0.  1.
    10030    2    1    2    0    0  0.00000000000E+00  0.00000000000E+00  0.13566233962E+03  0.28344675290E+04  0.28312191548E+04 0.  0.
        1    1    3    3  502    0 -0.12342197225E+04  0.18567322158E+03 -0.60090048794E+03  0.13852271529E+04  0.50400001928E-02 0.  1.
       -1    1    3    3    0  502  0.12342197225E+04 -0.18567322158E+03  0.73656282756E+03  0.14492403761E+04  0.50400001928E-02 0. -1.
</event>
<event>
 5   0  0.7555871E-06  0.3053219E+04  0.7818609E-02  0.8228695E-01
       -1   -1    0    0    0  501  0.00000000000E+00  0.00000000000E+00  0.13195459938E+04  0.13195459938E+04  0.50400001928E-02 0.  1.
        1   -1    0    0  501    0  0.00000000000E+00  0.00000000000E+00 -0.17661650315E+04  0.17661650315E+04  0.50400001928E-02 0. -1.
    10030    2    1    2    0    0  0.00000000000E+00  0.00000000000E+00 -0.44661903772E+03  0.30857110254E+04  0.30532186242E+04 0.  0.
        3    1    3    3  502    0  0.13085268657E+04  0.75626217598E+03 -0.44091683212E+03  0.15743515173E+04  0.10100000352E+00 0.  1.
       -3    1    3    3    0  502 -0.13085268657E+04 -0.75626217598E+03 -0.57022056077E+01  0.15113595080E+04  0.10100000352E+00 0. -1.
</event>
<event>
 5   0  0.1832502E-05  0.2752124E+04  0.7818609E-02  0.8318288E-01
        2   -1    0    0  501    0  0.00000000000E+00  0.00000000000E+00  0.18654359354E+04  0.18654359354E+04  0.25500000920E-02 0.  1.
       -2   -1    0    0    0  501  0.00000000000E+00  0.00000000000E+00 -0.10150694619E+04  0.10150694619E+04  0.25500000920E-02 0. -1.
    10030    2    1    2    0    0  0.00000000000E+00  0.00000000000E+00  0.85036647355E+03  0.28805053973E+04  0.27521243076E+04 0.  0.
        2    1    3    3  502    0  0.11175550861E+04  0.45208399774E+03  0.11196385134E+04  0.16452658485E+04  0.25500000920E-02 0.  1.
       -2    1    3    3    0  502 -0.11175550861E+04 -0.45208399774E+03 -0.26927203983E+03  0.12352395488E+04  0.25500000920E-02 0. -1.
</event>
<event>
 5   0  0.1874272E-05  0.2724181E+04  0.7818609E-02  0.8327201E-01
        2   -1    0    0  501    0  0.00000000000E+00  0.00000000000E+00  0.11707185297E+04  0.11707185297E+04  0.25500000920E-02 0.  1.
       -2   -1    0    0    0  501  0.00000000000E+00  0.00000000000E+00 -0.15847455874E+04  0.15847455874E+04  0.25500000920E-02 0. -1.
    10030    2    1    2    0    0  0.00000000000E+00  0.00000000000E+00 -0.41402705771E+03  0.27554641170E+04  0.27241813625E+04 0.  0.
        3    1    3    3  502    0 -0.32482945173E+03 -0.10347723283E+04 -0.10405047065E+04  0.15029697264E+04  0.10100000352E+00 0. -1.
       -3    1    3    3    0  502  0.32482945173E+03  0.10347723283E+04  0.62647764875E+03  0.12524943907E+04  0.10100000352E+00 0.  1.
</event>
<event>
 5   0  0.7613444E-06  0.2763519E+04  0.7818609E-02  0.8314684E-01
        1   -1    0    0  501    0  0.00000000000E+00  0.00000000000E+00  0.18334443808E+04  0.18334443809E+04  0.50400001928E-02 0.  1.
       -1   -1    0    0    0  501  0.00000000000E+00  0.00000000000E+00 -0.10413514663E+04  0.10413514664E+04  0.50400001928E-02 0. -1.
    10030    2    1    2    0    0  0.00000000000E+00  0.00000000000E+00  0.79209291450E+03  0.28747958472E+04  0.27635194911E+04 0.  0.
        5    1    3    3  502    0 -0.10309124034E+04  0.91585045630E+03  0.30490903104E+03  0.14122868154E+04  0.46999998093E+01 0. -1.
       -5    1    3    3    0  502  0.10309124034E+04 -0.91585045630E+03  0.48718388346E+03  0.14625090318E+04  0.46999998093E+01 0.  1.
</event>
<event>
 5   0  0.1923559E-05  0.2769420E+04  0.7818609E-02  0.8312826E-01
        2   -1    0    0  501    0  0.00000000000E+00  0.00000000000E+00  0.15475339703E+04  0.15475339703E+04  0.25500000920E-02 0. -1.
       -2   -1    0    0    0  501  0.00000000000E+00  0.00000000000E+00 -0.12390176630E+04  0.12390176630E+04  0.25500000920E-02 0.  1.
    10030    2    1    2    0    0  0.00000000000E+00  0.00000000000E+00  0.30851630733E+03  0.27865516333E+04  0.27694201006E+04 0.  0.
        4    1    3    3  502    0  0.16873229738E+03 -0.82549336745E+03 -0.95140719404E+03  0.12708607908E+04  0.12699999809E+01 0.  1.
       -4    1    3    3    0  502 -0.16873229738E+03  0.82549336745E+03  0.12599235014E+04  0.15156908425E+04  0.12699999809E+01 0. -1.
</event>
<event>
 5   0  0.1923559E-05  0.2800657E+04  0.7818609E-02  0.8303064E-01
        2   -1    0    0  501    0  0.00000000000E+00  0.00000000000E+00  0.22518009276E+04  0.22518009276E+04  0.25500000920E-02 0.  1.
       -2   -1    0    0    0  501  0.00000000000E+00  0.00000000000E+00 -0.87082299169E+03  0.87082299169E+03  0.25500000920E-02 0. -1.
    10030    2    1    2    0    0  0.00000000000E+00  0.00000000000E+00  0.13809779359E+04  0.31226239193E+04  0.28006570804E+04 0.  0.
        4    1    3    3  502    0 -0.26166312154E+03  0.47254827351E+03  0.21309691663E+04  0.21983631776E+04  0.12699999809E+01 0.  1.
       -4    1    3    3    0  502  0.26166312154E+03 -0.47254827351E+03 -0.74999123042E+03  0.92426074166E+03  0.12699999809E+01 0. -1.
</event>
<event>
 5   0  0.1832502E-05  0.2817091E+04  0.7818609E-02  0.8297982E-01
       -2   -1    0    0    0  501  0.00000000000E+00  0.00000000000E+00  0.12901838714E+04  0.12901838714E+04  0.25500000920E-02 0.  1.
        2   -1    0    0  501    0  0.00000000000E+00  0.00000000000E+00 -0.15377658746E+04  0.15377658746E+04  0.25500000920E-02 0. -1.
    10030    2    1    2    0    0  0.00000000000E+00  0.00000000000E+00 -0.24758200316E+03  0.28279497460E+04  0.28170912157E+04 0.  0.
        2    1    3    3  502    0 -0.99601363560E+03  0.35258781498E+03 -0.10588530075E+04  0.14958378993E+04  0.25500000920E-02 0. -1.
       -2    1    3    3    0  502  0.99601363560E+03 -0.35258781498E+03  0.81127100433E+03  0.13321118467E+04  0.25500000920E-02 0.  1.
</event>
<event>
 5   0  0.7613444E-06  0.2813464E+04  0.7818609E-02  0.8299101E-01
       -1   -1    0    0    0  501  0.00000000000E+00  0.00000000000E+00  0.14486760118E+04  0.14486760118E+04  0.50400001928E-02 0.  1.
        1   -1    0    0  501    0  0.00000000000E+00  0.00000000000E+00 -0.13660020463E+04  0.13660020463E+04  0.50400001928E-02 0. -1.
    10030    2    1    2    0    0  0.00000000000E+00  0.00000000000E+00  0.82673965448E+02  0.28146780581E+04  0.28134636281E+04 0.  0.
        5    1    3    3  502    0 -0.11310406905E+04  0.39877015763E+02  0.87717896813E+03  0.14318897485E+04  0.46999998093E+01 0.  1.
       -5    1    3    3    0  502  0.11310406905E+04 -0.39877015763E+02 -0.79450500268E+03  0.13827883096E+04  0.46999998093E+01 0. -1.
</event>
<event>
 5   0  0.1874272E-05  0.2800180E+04  0.7818609E-02  0.8303212E-01
       -2   -1    0    0    0  501  0.00000000000E+00  0.00000000000E+00  0.81001644445E+03  0.81001644445E+03  0.25500000920E-02 0.  1.
        2   -1    0    0  501    0  0.00000000000E+00  0.00000000000E+00 -0.24200151740E+04  0.24200151740E+04  0.25500000920E-02 0. -1.
    10030    2    1    2    0    0  0.00000000000E+00  0.00000000000E+00 -0.16099987296E+04  0.32300316185E+04  0.28001800562E+04 0.  0.
        3    1    3    3  502    0  0.62278253222E+03  0.48531030438E+03  0.52872186334E+03  0.95022681132E+03  0.10100000352E+00 0.  1.
       -3    1    3    3    0  502 -0.62278253222E+03 -0.48531030438E+03 -0.21387205929E+04  0.22798048071E+04  0.10100000352E+00 0. -1.
</event>
<event>
 5   0  0.7555871E-06  0.2801425E+04  0.7818609E-02  0.8302826E-01
        1   -1    0    0  501    0  0.00000000000E+00  0.00000000000E+00  0.12243334366E+04  0.12243334366E+04  0.50400001928E-02 0.  1.
       -1   -1    0    0    0  501  0.00000000000E+00  0.00000000000E+00 -0.16025004751E+04  0.16025004751E+04  0.50400001928E-02 0. -1.
    10030    2    1    2    0    0  0.00000000000E+00  0.00000000000E+00 -0.37816703848E+03  0.28268339117E+04  0.28014245760E+04 0.  0.
        3    1    3    3  502    0  0.82194117974E+03 -0.30784044454E+03 -0.12906082039E+04  0.15607762775E+04  0.10100000352E+00 0. -1.
       -3    1    3    3    0  502 -0.82194117974E+03  0.30784044454E+03  0.91244116547E+03  0.12660576341E+04  0.10100000352E+00 0.  1.
</event>
<event>
 5   0  0.1923559E-05  0.2823936E+04  0.7818609E-02  0.8295875E-01
        2   -1    0    0  501    0  0.00000000000E+00  0.00000000000E+00  0.23781440482E+04  0.23781440482E+04  0.25500000920E-02 0. -1.
       -2   -1    0    0    0  501  0.00000000000E+00  0.00000000000E+00 -0.83832361166E+03  0.83832361166E+03  0.25500000920E-02 0.  1.
    10030    2    1    2    0    0  0.00000000000E+00  0.00000000000E+00  0.15398204366E+04  0.32164676599E+04  0.28239364777E+04 0.  0.
        4    1    3    3  502    0  0.13328162818E+04 -0.44830141857E+03  0.91523578242E+03  0.16778055767E+04  0.12699999809E+01 0. -1.
       -4    1    3    3    0  502 -0.13328162818E+04  0.44830141857E+03  0.62458465415E+03  0.15386620832E+04  0.12699999809E+01 0.  1.
</event>
<event>
 5   0  0.7509685E-06  0.2819921E+04  0.7818609E-02  0.8297110E-01
        1   -1    0    0  501    0  0.00000000000E+00  0.00000000000E+00  0.22311925720E+04  0.22311925721E+04  0.50400001928E-02 0.  1.
       -1   -1    0    0    0  501  0.00000000000E+00  0.00000000000E+00 -0.89099825260E+03  0.89099825261E+03  0.50400001928E-02 0. -1.
    10030    2    1    2    0    0  0.00000000000E+00  0.00000000000E+00  0.13401943194E+04  0.31221908247E+04  0.28199210506E+04 0.  0.
        4    1    3    3  502    0 -0.12694190039E+04 -0.33815516229E+03  0.12370540761E+04  0.18044605624E+04  0.12699999809E+01 0.  1.
       -4    1    3    3    0  502  0.12694190039E+04  0.33815516229E+03  0.10314024338E+03  0.13177302622E+04  0.12699999809E+01 0. -1.
</event>
<event>
 5   0  0.7555871E-06  0.2754082E+04  0.7818609E-02  0.8317668E-01
        1   -1    0    0  501    0  0.00000000000E+00  0.00000000000E+00  0.24862700675E+04  0.24862700675E+04  0.50400001928E-02 0. -1.
       -1   -1    0    0    0  501  0.00000000000E+00  0.00000000000E+00 -0.76268532655E+03  0.76268532657E+03  0.50400001928E-02 0.  1.
    10030    2    1    2    0    0  0.00000000000E+00  0.00000000000E+00  0.17235847409E+04  0.32489553940E+04  0.27540818422E+04 0.  0.
        3    1    3    3  502    0 -0.11114055714E+04  0.97993998314E+02 -0.90337721222E+02  0.11193686086E+04  0.10100000352E+00 0.  1.
       -3    1    3    3    0  502  0.11114055714E+04 -0.97993998314E+02  0.18139224621E+04  0.21295867854E+04  0.10100000352E+00 0. -1.
</event>
<event>
 5   0  0.1832502E-05  0.2827360E+04  0.7818609E-02  0.8294824E-01
       -2   -1    0    0    0  501  0.00000000000E+00  0.00000000000E+00  0.11200281489E+04  0.11200281489E+04  0.25500000920E-02 0.  1.
        2   -1    0    0  501    0  0.00000000000E+00  0.00000000000E+00 -0.17843217855E+04  0.17843217855E+04  0.25500000920E-02 0. -1.
    10030    2    1    2    0    0  0.00000000000E+00  0.00000000000E+00 -0.66429363658E+03  0.29043499345E+04  0.28273596351E+04 0.  0.
        2    1    3    3  502    0  0.69219717075E+03  0.38981168849E+03 -0.15333480352E+04  0.17269181430E+04  0.25500000920E-02 0. -1.
       -2    1    3    3    0  502 -0.69219717075E+03 -0.38981168849E+03  0.86905439863E+03  0.11774317914E+04  0.25500000920E-02 0.  1.
</event>
<event>
 5   0  0.7555871E-06  0.2904987E+04  0.7818609E-02  0.8271395E-01
       -1   -1    0    0    0  501  0.00000000000E+00  0.00000000000E+00  0.13253737035E+04  0.13253737035E+04  0.50400001928E-02 0. -1.
        1   -1    0    0  501    0  0.00000000000E+00  0.00000000000E+00 -0.15918051541E+04  0.15918051541E+04  0.50400001928E-02 0.  1.
    10030    2    1    2    0    0  0.00000000000E+00  0.00000000000E+00 -0.26643145057E+03  0.29171788576E+04  0.29049865352E+04 0.  0.
        3    1    3    3  502    0  0.14043961432E+04  0.22487270758E+03 -0.42913952366E+03  0.14856167078E+04  0.10100000352E+00 0.  1.
       -3    1    3    3    0  502 -0.14043961432E+04 -0.22487270758E+03  0.16270807309E+03  0.14315621498E+04  0.10100000352E+00 0. -1.
</event>
<event>
 5   0  0.1923559E-05  0.2709957E+04  0.7818609E-02  0.8331782E-01
        2   -1    0    0  501    0  0.00000000000E+00  0.00000000000E+00  0.13526728920E+04  0.13526728920E+04  0.25500000920E-02 0. -1.
       -2   -1    0    0    0  501  0.00000000000E+00  0.00000000000E+00 -0.13572879144E+04  0.13572879144E+04  0.25500000920E-02 0.  1.
    10030    2    1    2    0    0  0.00000000000E+00  0.00000000000E+00 -0.46150223500E+01  0.27099608064E+04  0.27099568767E+04 0.  0.
        4    1    3    3  502    0 -0.45218720325E+03 -0.12593430759E+04 -0.21572456336E+03  0.13553438492E+04  0.12699999809E+01 0.  1.
       -4    1    3    3    0  502  0.45218720325E+03  0.12593430759E+04  0.21110954101E+03  0.13546169572E+04  0.12699999809E+01 0. -1.
</event>
<event>
 5   0  0.1904553E-05  0.2826663E+04  0.7818609E-02  0.8295038E-01
       -2   -1    0    0    0  501  0.00000000000E+00  0.00000000000E+00  0.28538716579E+04  0.28538716579E+04  0.25500000920E-02 0. -1.
        2   -1    0    0  501    0  0.00000000000E+00  0.00000000000E+00 -0.69992858312E+03  0.69992858313E+03  0.25500000920E-02 0.  1.
    10030    2    1    2    0    0  0.00000000000E+00  0.00000000000E+00  0.21539430748E+04  0.35538002411E+04  0.28266632951E+04 0.  0.
        1    1    3    3  502    0 -0.66060968708E+03 -0.12001405644E+04  0.64006620897E+03  0.15120936760E+04  0.50400001928E-02 0.  1.
       -1    1    3    3    0  502  0.66060968708E+03  0.12001405644E+04  0.15138768658E+04  0.20417065651E+04  0.50400001928E-02 0. -1.
</event>
<event>
 5   0  0.1874272E-05  0.2907942E+04  0.7818609E-02  0.8270518E-01
       -2   -1    0    0    0  501  0.00000000000E+00  0.00000000000E+00  0.16698953476E+04  0.16698953476E+04  0.25500000920E-02 0. -1.
        2   -1    0    0  501    0  0.00000000000E+00  0.00000000000E+00 -0.12659664072E+04  0.12659664072E+04  0.25500000920E-02 0.  1.
    10030    2    1    2    0    0  0.00000000000E+00  0.00000000000E+00  0.40392894044E+03  0.29358617548E+04  0.29079418244E+04 0.  0.
        3    1    3    3  502    0  0.97219259144E+03 -0.51590832974E+03  0.11611980872E+04  0.15999065121E+04  0.10100000352E+00 0. -1.
       -3    1    3    3    0  502 -0.97219259144E+03  0.51590832974E+03 -0.75726914678E+03  0.13359552427E+04  0.10100000352E+00 0.  1.
</event>
<event>
 5   0  0.1874272E-05  0.2807520E+04  0.7818609E-02  0.8300937E-01
        2   -1    0    0  501    0  0.00000000000E+00  0.00000000000E+00  0.26609032575E+04  0.26609032575E+04  0.25500000920E-02 0.  1.
       -2   -1    0    0    0  501  0.00000000000E+00  0.00000000000E+00 -0.74055388159E+03  0.74055388160E+03  0.25500000920E-02 0. -1.
    10030    2    1    2    0    0  0.00000000000E+00  0.00000000000E+00  0.19203493759E+04  0.34014571391E+04  0.28075200700E+04 0.  0.
        3    1    3    3  502    0 -0.10688379695E+03 -0.11586895059E+04  0.88502632805E+01  0.11636424942E+04  0.10100000352E+00 0. -1.
       -3    1    3    3    0  502  0.10688379695E+03  0.11586895059E+04  0.19114991127E+04  0.22378146449E+04  0.10100000352E+00 0.  1.
</event>
<event>
 5   0  0.1814230E-05  0.2406614E+04  0.7818609E-02  0.8437032E-01
       -2   -1    0    0    0  501  0.00000000000E+00  0.00000000000E+00  0.81791370834E+03  0.81791370834E+03  0.25500000920E-02 0. -1.
        2   -1    0    0  501    0  0.00000000000E+00  0.00000000000E+00 -0.17702939467E+04  0.17702939467E+04  0.25500000920E-02 0.  1.
    10030    2    1    2    0    0  0.00000000000E+00  0.00000000000E+00 -0.95238023838E+03  0.25882076551E+04  0.24066139589E+04 0.  0.
        5    1    3    3  502    0 -0.53179624422E+03  0.87957531776E+03 -0.11490730240E+04  0.15417038916E+04  0.46999998093E+01 0.  1.
       -5    1    3    3    0  502  0.53179624422E+03 -0.87957531776E+03  0.19669278562E+03  0.10465037634E+04  0.46999998093E+01 0. -1.
</event>
<event>
 5   0  0.7555871E-06  0.2803321E+04  0.7818609E-02  0.8302238E-01
       -1   -1    0    0    0  501  0.00000000000E+00  0.00000000000E+00  0.14079395084E+04  0.14079395084E+04  0.50400001928E-02 0.  1.
        1   -1    0    0  501    0  0.00000000000E+00  0.00000000000E+00 -0.13954098852E+04  0.13954098852E+04  0.50400001928E-02 0. -1.
    10030    2    1    2    0    0  0.00000000000E+00  0.00000000000E+00  0.12529623186E+02  0.28033493937E+04  0.28033213928E+04 0.  0.
        3    1    3    3  502    0 -0.40465980236E+03 -0.54315027742E+03 -0.12208949178E+04  0.13961898832E+04  0.10100000352E+00 0. -1.
       -3    1    3    3    0  502  0.40465980236E+03  0.54315027742E+03  0.12334245410E+04  0.14071595105E+04  0.10100000352E+00 0.  1.
</event>
<event>
 5   0  0.7509685E-06  0.2786148E+04  0.7818609E-02  0.8307582E-01
       -1   -1    0    0    0  501  0.00000000000E+00  0.00000000000E+00  0.10732550170E+04  0.10732550170E+04  0.50400001928E-02 0. -1.
        1   -1    0    0  501    0  0.00000000000E+00  0.00000000000E+00 -0.18081957589E+04  0.18081957589E+04  0.50400001928E-02 0.  1.
    10030    2    1    2    0    0  0.00000000000E+00  0.00000000000E+00 -0.73494074195E+03  0.28814507759E+04  0.27861480003E+04 0.  0.
        4    1    3    3  502    0 -0.51558050461E+03 -0.10050773864E+03 -0.17018479285E+04  0.17810707586E+04  0.12699999809E+01 0.  1.
       -4    1    3    3    0  502  0.51558050461E+03  0.10050773864E+03  0.96690718657E+03  0.11003800174E+04  0.12699999809E+01 0. -1.
</event>
<event>
 5   0  0.1923559E-05  0.2726874E+04  0.7818609E-02  0.8326338E-01
        2   -1    0    0  501    0  0.00000000000E+00  0.00000000000E+00  0.14828686489E+04  0.14828686489E+04  0.25500000920E-02 0.  1.
       -2   -1    0    0    0  501  0.00000000000E+00  0.00000000000E+00 -0.12536241913E+04  0.12536241913E+04  0.25500000920E-02 0. -1.
    10030    2    1    2    0    0  0.00000000000E+00  0.00000000000E+00  0.22924445758E+03  0.27364928403E+04  0.27268736758E+04 0.  0.
        4    1    3    3  502    0 -0.91024148333E+03  0.98328293777E+03 -0.13840506606E+03  0.13470495421E+04  0.12699999809E+01 0. -1.
       -4    1    3    3    0  502  0.91024148333E+03 -0.98328293777E+03  0.36764952364E+03  0.13894432982E+04  0.12699999809E+01 0.  1.
</event>
<event>
 5   0  0.7555871E-06  0.2785566E+04  0.7818609E-02  0.8307764E-01
        1   -1    0    0  501    0  0.00000000000E+00  0.00000000000E+00  0.21294255905E+04  0.21294255905E+04  0.50400001928E-02 0.  1.
       -1   -1    0    0    0  501  0.00000000000E+00  0.00000000000E+00 -0.91097071560E+03  0.91097071562E+03  0.50400001928E-02 0. -1.
    10030    2    1    2    0    0  0.00000000000E+00  0.00000000000E+00  0.12184548749E+04  0.30403963061E+04  0.27855659059E+04 0.  0.
        3    1    3    3  502    0  0.37398608490E+03  0.56324843025E+03 -0.71984236070E+03  0.98756641312E+03  0.10100000352E+00 0. -1.
       -3    1    3    3    0  502 -0.37398608490E+03 -0.56324843025E+03  0.19382972356E+04  0.20528298930E+04  0.10100000352E+00 0.  1.
</event>
<event>
 5   0  0.7681342E-06  0.2827358E+04  0.7818609E-02  0.8294825E-01
        1   -1    0    0  501    0  0.00000000000E+00  0.00000000000E+00  0.15760181837E+04  0.15760181837E+04  0.50400001928E-02 0. -1.
       -1   -1    0    0    0  501  0.00000000000E+00  0.00000000000E+00 -0.12680617009E+04  0.12680617009E+04  0.50400001928E-02 0.  1.
    10030    2    1    2    0    0  0.00000000000E+00  0.00000000000E+00  0.30795648279E+03  0.28440798846E+04  0.28273579884E+04 0.  0.
        2    1    3    3  502    0 -0.14080166881E+04 -0.11304568925E+03  0.21086335731E+03  0.14281994529E+04  0.25500000920E-02 0.  1.
       -2    1    3    3    0  502  0.14080166881E+04  0.11304568925E+03  0.97093125479E+02  0.14158804317E+04  0.25500000920E-02 0. -1.
</event>
<event>
 5   0  0.7613444E-06  0.2819325E+04  0.7818609E-02  0.8297294E-01
       -1   -1    0    0    0  501  0.00000000000E+00  0.00000000000E+00  0.90507145803E+03  0.90507145804E+03  0.50400001928E-02 0. -1.
        1   -1    0    0  501    0  0.00000000000E+00  0.00000000000E+00 -0.21955707521E+04  0.21955707521E+04  0.50400001928E-02 0.  1.
    10030    2    1    2    0    0  0.00000000000E+00  0.00000000000E+00 -0.12904992941E+04  0.31006422101E+04  0.28193250411E+04 0.  0.
        5    1    3    3  502    0 -0.64334765525E+03 -0.20861079439E+02  0.73399897288E+03  0.97627248878E+03  0.46999998093E+01 0. -1.
       -5    1    3    3    0  502  0.64334765525E+03  0.20861079439E+02 -0.20244982669E+04  0.21243697214E+04  0.46999998093E+01 0.  1.
</event>
<event>
 5   0  0.7555871E-06  0.2789216E+04  0.7818609E-02  0.8306624E-01
       -1   -1    0    0    0  501  0.00000000000E+00  0.00000000000E+00  0.80955998184E+03  0.80955998186E+03  0.50400001928E-02 0.  1.
        1   -1    0    0  501    0  0.00000000000E+00  0.00000000000E+00 -0.24024553472E+04  0.24024553472E+04  0.50400001928E-02 0. -1.
    10030    2    1    2    0    0  0.00000000000E+00  0.00000000000E+00 -0.15928953653E+04  0.32120153290E+04  0.27892161675E+04 0.  0.
        3    1    3    3  502    0 -0.12589989897E+04 -0.59946813038E+03 -0.77092505441E+03  0.15933505405E+04  0.10100000352E+00 0. -1.
       -3    1    3    3    0  502  0.12589989897E+04  0.59946813038E+03 -0.82197031091E+03  0.16186647885E+04  0.10100000352E+00 0.  1.
</event>
<event>
 5   0  0.7613444E-06  0.2886271E+04  0.7818609E-02  0.8276974E-01
        1   -1    0    0  501    0  0.00000000000E+00  0.00000000000E+00  0.12377383214E+04  0.12377383214E+04  0.50400001928E-02 0. -1.
       -1   -1    0    0    0  501  0.00000000000E+00  0.00000000000E+00 -0.16826170581E+04  0.16826170581E+04  0.50400001928E-02 0.  1.
    10030    2    1    2    0    0  0.00000000000E+00  0.00000000000E+00 -0.44487873670E+03  0.29203553794E+04  0.28862706823E+04 0.  0.
        5    1    3    3  502    0 -0.53058841914E+03  0.58901405060E+03 -0.14425638215E+04  0.16460480222E+04  0.46999998093E+01 0.  1.
       -5    1    3    3    0  502  0.53058841914E+03 -0.58901405060E+03  0.99768508477E+03  0.12743073572E+04  0.46999998093E+01 0. -1.
</event>
<event>
 5   0  0.7681342E-06  0.2838956E+04  0.7818609E-02  0.8291275E-01
       -1   -1    0    0    0  501  0.00000000000E+00  0.00000000000E+00  0.10638717645E+04  0.10638717645E+04  0.50400001928E-02 0.  1.
        1   -1    0    0  501    0  0.00000000000E+00  0.00000000000E+00 -0.18939485969E+04  0.18939485969E+04  0.50400001928E-02 0. -1.
    10030    2    1    2    0    0  0.00000000000E+00  0.00000000000E+00 -0.83007683244E+03  0.29578203614E+04  0.28389564531E+04 0.  0.
        2    1    3    3  502    0  0.34014012480E+03 -0.13155736599E+04  0.12621885997E+02  0.13588924428E+04  0.25500000920E-02 0.  1.
       -2    1    3    3    0  502 -0.34014012480E+03  0.13155736599E+04 -0.84269871844E+03  0.15989279187E+04  0.25500000920E-02 0. -1.
</event>
<event>
 5   0  0.7681342E-06  0.2840715E+04  0.7818609E-02  0.8290738E-01
       -1   -1    0    0    0  501  0.00000000000E+00  0.00000000000E+00  0.21512412287E+04  0.21512412287E+04  0.50400001928E-02 0.  1.
        1   -1    0    0  501    0  0.00000000000E+00  0.00000000000E+00 -0.93779126229E+03  0.93779126230E+03  0.50400001928E-02 0. -1.
    10030    2    1    2    0    0  0.00000000000E+00  0.00000000000E+00  0.12134499664E+04  0.30890324910E+04  0.28407148589E+04 0.  0.
        2    1    3    3  502    0  0.11209925392E+04 -0.59443865184E+03 -0.87376987237E+02  0.12718554641E+04  0.25500000920E-02 0. -1.
       -2    1    3    3    0  502 -0.11209925392E+04  0.59443865184E+03  0.13008269536E+04  0.18171770269E+04  0.25500000920E-02 0.  1.
</event>
<event>
 5   0  0.1814230E-05  0.2738880E+04  0.7818609E-02  0.8322499E-01
        2   -1    0    0  501    0  0.00000000000E+00  0.00000000000E+00  0.13086100761E+04  0.13086100761E+04  0.25500000920E-02 0.  1.
       -2   -1    0    0    0  501  0.00000000000E+00  0.00000000000E+00 -0.14330973098E+04  0.14330973098E+04  0.25500000920E-02 0. -1.
    10030    2    1    2    0    0  0.00000000000E+00  0.00000000000E+00 -0.12448723373E+03  0.27417073860E+04  0.27388797562E+04 0.  0.
        5    1    3    3  502    0  0.12507970916E+04 -0.46881476424E+03  0.23983413233E+03  0.13571378517E+04  0.46999998093E+01 0.  1.
       -5    1    3    3    0  502 -0.12507970916E+04  0.46881476424E+03 -0.36432136606E+03  0.13845695343E+04  0.46999998093E+01 0. -1.
</event>
<event>
 5   0  0.7555871E-06  0.2834999E+04  0.7818609E-02  0.8292484E-01
        1   -1    0    0  501    0  0.00000000000E+00  0.00000000000E+00  0.19726450672E+04  0.19726450672E+04  0.50400001928E-02 0. -1.
       -1   -1    0    0    0  501  0.00000000000E+00  0.00000000000E+00 -0.10185839247E+04  0.10185839247E+04  0.50400001928E-02 0.  1.
    10030    2    1    2    0    0  0.00000000000E+00  0.00000000000E+00  0.95406114254E+03  0.29912289919E+04  0.28349988039E+04 0.  0.
        3    1    3    3  502    0  0.74562304181E+03  0.12438491354E+03  0.17422270798E+04  0.18991525834E+04  0.10100000352E+00 0. -1.
       -3    1    3    3    0  502 -0.74562304181E+03 -0.12438491354E+03 -0.78816593727E+03  0.10920764085E+04  0.10100000352E+00 0.  1.
</event>
<event>
 5   0  0.1814230E-05  0.2821864E+04  0.7818609E-02  0.8296512E-01
        2   -1    0    0  501    0  0.00000000000E+00  0.00000000000E+00  0.95041038010E+03  0.95041038010E+03  0.25500000920E-02 0.  1.
       -2   -1    0    0    0  501  0.00000000000E+00  0.00000000000E+00 -0.20945995572E+04  0.20945995572E+04  0.25500000920E-02 0. -1.
    10030    2    1    2    0    0  0.00000000000E+00  0.00000000000E+00 -0.11441891771E+04  0.30450099373E+04  0.28218640374E+04 0.  0.
        5    1    3    3  502    0 -0.53344732076E+03 -0.12366006608E+04 -0.11816344580E+03  0.13519363625E+04  0.46999998093E+01 0.  1.
       -5    1    3    3    0  502  0.53344732076E+03  0.12366006608E+04 -0.10260257313E+04  0.16930735748E+04  0.46999998093E+01 0. -1.
</event>
<event>
 5   0  0.7555871E-06  0.1888001E+04  0.7818609E-02  0.8660852E-01
       -1   -1    0    0    0  501  0.00000000000E+00  0.00000000000E+00  0.12431005699E+04  0.12431005699E+04  0.50400001928E-02 0. -1.
        1   -1    0    0  501    0  0.00000000000E+00  0.00000000000E+00 -0.71686624987E+03  0.71686624988E+03  0.50400001928E-02 0.  1.
    10030    2    1    2    0    0  0.00000000000E+00  0.00000000000E+00  0.52623431999E+03  0.19599668198E+04  0.18880008938E+04 0.  0.
        3    1    3    3  502    0  0.28593094968E+03  0.25917748844E+03  0.11574705357E+04  0.12201096384E+04  0.10100000352E+00 0. -1.
       -3    1    3    3    0  502 -0.28593094968E+03 -0.25917748844E+03 -0.63123621573E+03  0.73985718133E+03  0.10100000352E+00 0.  1.
</event>
<event>
 5   0  0.1923559E-05  0.2664791E+04  0.7818609E-02  0.8346520E-01
       -2   -1    0    0    0  501  0.00000000000E+00  0.00000000000E+00  0.17798808821E+04  0.17798808821E+04  0.25500000920E-02 0. -1.
        2   -1    0    0  501    0  0.00000000000E+00  0.00000000000E+00 -0.99741372952E+03  0.99741372952E+03  0.25500000920E-02 0.  1.
    10030    2    1    2    0    0  0.00000000000E+00  0.00000000000E+00  0.78246715256E+03  0.27772946116E+04  0.26647908951E+04 0.  0.
        4    1    3    3  502    0 -0.10004240209E+04  0.80453944446E+03  0.76286025294E+03  0.14933483578E+04  0.12699999809E+01 0. -1.
       -4    1    3    3    0  502  0.10004240209E+04 -0.80453944446E+03  0.19606899619E+02  0.12839462538E+04  0.12699999809E+01 0.  1.
</event>
<event>
 5   0  0.7509685E-06  0.2811553E+04  0.7818609E-02  0.8299691E-01
        1   -1    0    0  501    0  0.00000000000E+00  0.00000000000E+00  0.14641709068E+04  0.14641709068E+04  0.50400001928E-02 0. -1.
       -1   -1    0    0    0  501  0.00000000000E+00  0.00000000000E+00 -0.13497105313E+04  0.13497105313E+04  0.50400001928E-02 0.  1.
    10030    2    1    2    0    0  0.00000000000E+00  0.00000000000E+00  0.11446037557E+03  0.28138814381E+04  0.28115525195E+04 0.  0.
        4    1    3    3  502    0 -0.78933889138E+03  0.96654922872E+03 -0.59055550632E+03  0.13805907127E+04  0.12699999809E+01 0.  1.
       -4    1    3    3    0  502  0.78933889138E+03 -0.96654922872E+03  0.70501588189E+03  0.14332907254E+04  0.12699999809E+01 0. -1.
</event>
<event>
 5   0  0.1923559E-05  0.2837860E+04  0.7818609E-02  0.8291610E-01
        2   -1    0    0  501    0  0.00000000000E+00  0.00000000000E+00  0.18756831576E+04  0.18756831576E+04  0.25500000920E-02 0.  1.
       -2   -1    0    0    0  501  0.00000000000E+00  0.00000000000E+00 -0.10734021630E+04  0.10734021630E+04  0.25500000920E-02 0. -1.
    10030    2    1    2    0    0  0.00000000000E+00  0.00000000000E+00  0.80228099461E+03  0.29490853206E+04  0.28378600096E+04 0.  0.
        4    1    3    3  502    0  0.29671954429E+03  0.13559633333E+04  0.95183725420E+02  0.13913089534E+04  0.12699999809E+01 0. -1.
       -4    1    3    3    0  502 -0.29671954429E+03 -0.13559633333E+04  0.70709726919E+03  0.15577763672E+04  0.12699999809E+01 0.  1.
</event>
<event>
 5   0  0.1832502E-05  0.2809155E+04  0.7818609E-02  0.8300432E-01
       -2   -1    0    0    0  501  0.00000000000E+00  0.00000000000E+00  0.10048888236E+04  0.10048888236E+04  0.25500000920E-02 0.  1.
        2   -1    0    0  501    0  0.00000000000E+00  0.00000000000E+00 -0.19632405386E+04  0.19632405386E+04  0.25500000920E-02 0. -1.
    10030    2    1    2    0    0  0.00000000000E+00  0.00000000000E+00 -0.95835171496E+03  0.29681293622E+04  0.28091553715E+04 0.  0.
        2    1    3    3  502    0 -0.27605449185E+03 -0.78764526967E+03  0.71446722865E+03  0.10986603543E+04  0.25500000920E-02 0.  1.
       -2    1    3    3    0  502  0.27605449185E+03  0.78764526967E+03 -0.16728189436E+04  0.18694690079E+04  0.25500000920E-02 0. -1.
</event>
<event>
 5   0  0.7388013E-06  0.2798964E+04  0.7818609E-02  0.8303590E-01
        1   -1    0    0  501    0  0.00000000000E+00  0.00000000000E+00  0.16311591207E+04  0.16311591207E+04  0.50400001928E-02 0. -1.
       -1   -1    0    0    0  501  0.00000000000E+00  0.00000000000E+00 -0.12007108798E+04  0.12007108798E+04  0.50400001928E-02 0.  1.
    10030    2    1    2    0    0  0.00000000000E+00  0.00000000000E+00  0.43044824082E+03  0.28318700005E+04  0.27989644535E+04 0.  0.
        1    1    3    3  502    0 -0.59663647518E+03  0.11155995583E+04  0.82060033781E+03  0.15079530405E+04  0.50400001928E-02 0. -1.
       -1    1    3    3    0  502  0.59663647518E+03 -0.11155995583E+04 -0.39015209698E+03  0.13239169600E+04  0.50400001928E-02 0.  1.
</event>
<event>
 5   0  0.7388013E-06  0.2788494E+04  0.7818609E-02  0.8306849E-01
        1   -1    0    0  501    0  0.00000000000E+00  0.00000000000E+00  0.10741803809E+04  0.10741803809E+04  0.50400001928E-02 0. -1.
       -1   -1    0    0    0  501  0.00000000000E+00  0.00000000000E+00 -0.18096817212E+04  0.18096817212E+04  0.50400001928E-02 0.  1.
    10030    2    1    2    0    0  0.00000000000E+00  0.00000000000E+00 -0.73550134030E+03  0.28838621020E+04  0.27884939308E+04 0.  0.
        1    1    3    3  502    0 -0.69826806687E+03 -0.11462579304E+04  0.22568015095E+02  0.13423840179E+04  0.50400001928E-02 0. -1.
       -1    1    3    3    0  502  0.69826806687E+03  0.11462579304E+04 -0.75806935539E+03  0.15414780841E+04  0.50400001928E-02 0.  1.
</event>
<event>
 5   0  0.1814230E-05  0.2494200E+04  0.7818609E-02  0.8405055E-01
       -2   -1    0    0    0  501  0.00000000000E+00  0.00000000000E+00  0.10590140592E+04  0.10590140592E+04  0.25500000920E-02 0. -1.
        2   -1    0    0  501    0  0.00000000000E+00  0.00000000000E+00 -0.14685911976E+04  0.14685911976E+04  0.25500000920E-02 0.  1.
    10030    2    1    2    0    0  0.00000000000E+00  0.00000000000E+00 -0.40957713842E+03  0.25276052568E+04  0.24942002530E+04 0.  0.
        5    1    3    3  502    0  0.47309262994E+03  0.14636304300E+03  0.95509186872E+03  0.10758537747E+04  0.46999998093E+01 0. -1.
       -5    1    3    3    0  502 -0.47309262994E+03 -0.14636304300E+03 -0.13646690071E+04  0.14517514821E+04  0.46999998093E+01 0.  1.
</event>
<event>
 5   0  0.1874272E-05  0.2775468E+04  0.7818609E-02  0.8310925E-01
        2   -1    0    0  501    0  0.00000000000E+00  0.00000000000E+00  0.13125737128E+04  0.13125737128E+04  0.25500000920E-02 0.  1.
       -2   -1    0    0    0  501  0.00000000000E+00  0.00000000000E+00 -0.14671977472E+04  0.14671977472E+04  0.25500000920E-02 0. -1.
    10030    2    1    2    0    0  0.00000000000E+00  0.00000000000E+00 -0.15462403440E+03  0.27797714600E+04  0.27754676683E+04 0.  0.
        3    1    3    3  502    0 -0.42047020126E+03 -0.10506337698E+04 -0.88178770096E+03  0.14346344720E+04  0.10100000352E+00 0. -1.
       -3    1    3    3    0  502  0.42047020126E+03  0.10506337698E+04  0.72716366656E+03  0.13451369880E+04  0.10100000352E+00 0.  1.
</event>
<event>
 5   0  0.1814230E-05  0.2903011E+04  0.7818609E-02  0.8271982E-01
        2   -1    0    0  501    0  0.00000000000E+00  0.00000000000E+00  0.21208893082E+04  0.21208893082E+04  0.25500000920E-02 0. -1.
       -2   -1    0    0    0  501  0.00000000000E+00  0.00000000000E+00 -0.99338930616E+03  0.99338930616E+03  0.25500000920E-02 0.  1.
    10030    2    1    2    0    0  0.00000000000E+00  0.00000000000E+00  0.11275000021E+04  0.31142786144E+04  0.29030113733E+04 0.  0.
        5    1    3    3  502    0 -0.13217214558E+04  0.39850701961E+03  0.10448166809E+04  0.17313057032E+04  0.46999998093E+01 0. -1.
       -5    1    3    3    0  502  0.13217214558E+04 -0.39850701961E+03  0.82683321153E+02  0.13829729111E+04  0.46999998093E+01 0.  1.
</event>
<event>
 5   0  0.7681342E-06  0.2814832E+04  0.7818609E-02  0.8298678E-01
       -1   -1    0    0    0  501  0.00000000000E+00  0.00000000000E+00  0.13968484320E+04  0.13968484320E+04  0.50400001928E-02 0.  1.
        1   -1    0    0  501    0  0.00000000000E+00  0.00000000000E+00 -0.14180637082E+04  0.14180637082E+04  0.50400001928E-02 0. -1.
    10030    2    1    2    0    0  0.00000000000E+00  0.00000000000E+00 -0.21215276215E+02  0.28149121403E+04  0.28148321921E+04 0.  0.
        2    1    3    3  502    0  0.79367718625E+03  0.11545397970E+04  0.12331572564E+03  0.14064467238E+04  0.25500000920E-02 0.  1.
       -2    1    3    3    0  502 -0.79367718625E+03 -0.11545397970E+04 -0.14453100186E+03  0.14084654164E+04  0.25500000920E-02 0. -1.
</event>
<event>
 5   0  0.1923559E-05  0.2859749E+04  0.7818609E-02  0.8284955E-01
        2   -1    0    0  501    0  0.00000000000E+00  0.00000000000E+00  0.22710293179E+04  0.22710293179E+04  0.25500000920E-02 0. -1.
       -2   -1    0    0    0  501  0.00000000000E+00  0.00000000000E+00 -0.90027067180E+03  0.90027067180E+03  0.25500000920E-02 0.  1.
    10030    2    1    2    0    0  0.00000000000E+00  0.00000000000E+00  0.13707586461E+04  0.31712999897E+04  0.28597490028E+04 0.  0.
        4    1    3    3  502    0  0.71700682244E+03 -0.42035270987E+02  0.20564719960E+04  0.21782893359E+04  0.12699999809E+01 0. -1.
       -4    1    3    3    0  502 -0.71700682244E+03  0.42035270987E+02 -0.68571334994E+03  0.99301065382E+03  0.12699999809E+01 0.  1.
</event>
<event>
 5   0  0.7555871E-06  0.2493198E+04  0.7818609E-02  0.8405413E-01
        1   -1    0    0  501    0  0.00000000000E+00  0.00000000000E+00  0.24533840853E+04  0.24533840853E+04  0.50400001928E-02 0.  1.
       -1   -1    0    0    0  501  0.00000000000E+00  0.00000000000E+00 -0.63341464134E+03  0.63341464136E+03  0.50400001928E-02 0. -1.
    10030    2    1    2    0    0  0.00000000000E+00  0.00000000000E+00  0.18199694440E+04  0.30867987267E+04  0.24931982677E+04 0.  0.
        3    1    3    3  502    0  0.11558521010E+04  0.42374463819E+03  0.11527756078E+04  0.16865483123E+04  0.10100000352E+00 0.  1.
       -3    1    3    3    0  502 -0.11558521010E+04 -0.42374463819E+03  0.66719383618E+03  0.14002504144E+04  0.10100000352E+00 0. -1.
</event>
<event>
 5   0  0.1874272E-05  0.2848452E+04  0.7818609E-02  0.8288382E-01
        2   -1    0    0  501    0  0.00000000000E+00  0.00000000000E+00  0.21213750369E+04  0.21213750369E+04  0.25500000920E-02 0. -1.
       -2   -1    0    0    0  501  0.00000000000E+00  0.00000000000E+00 -0.95618129101E+03  0.95618129101E+03  0.25500000920E-02 0.  1.
    10030    2    1    2    0    0  0.00000000000E+00  0.00000000000E+00  0.11651937459E+04  0.30775563279E+04  0.28484515945E+04 0.  0.
        3    1    3    3  502    0  0.72880399545E+03 -0.42200779768E+03  0.18235291694E+04  0.20086075990E+04  0.10100000352E+00 0. -1.
       -3    1    3    3    0  502 -0.72880399545E+03  0.42200779768E+03 -0.65833542345E+03  0.10689487289E+04  0.10100000352E+00 0.  1.
</event>
<event>
 5   0  0.7388013E-06  0.2792121E+04  0.7818609E-02  0.8305719E-01
       -1   -1    0    0    0  501  0.00000000000E+00  0.00000000000E+00  0.85012557192E+03  0.85012557194E+03  0.50400001928E-02 0. -1.
        1   -1    0    0  501    0  0.00000000000E+00  0.00000000000E+00 -0.22925842748E+04  0.22925842748E+04  0.50400001928E-02 0.  1.
    10030    2    1    2    0    0  0.00000000000E+00  0.00000000000E+00 -0.14424587028E+04  0.31427098467E+04  0.27921207121E+04 0.  0.
        1    1    3    3  502    0  0.37087989594E+02 -0.13948694652E+04 -0.67154908003E+03  0.15485523920E+04  0.50400001928E-02 0.  1.
       -1    1    3    3    0  502 -0.37087989594E+02  0.13948694652E+04 -0.77090962280E+03  0.15941574547E+04  0.50400001928E-02 0. -1.
</event>
<event>
 5   0  0.1814230E-05  0.2776454E+04  0.7818609E-02  0.8310616E-01
       -2   -1    0    0    0  501  0.00000000000E+00  0.00000000000E+00  0.78341869486E+03  0.78341869486E+03  0.25500000920E-02 0. -1.
        2   -1    0    0  501    0  0.00000000000E+00  0.00000000000E+00 -0.24599545564E+04  0.24599545564E+04  0.25500000920E-02 0.  1.
    10030    2    1    2    0    0  0.00000000000E+00  0.00000000000E+00 -0.16765358616E+04  0.32433732513E+04  0.27764541329E+04 0.  0.
        5    1    3    3  502    0 -0.34634625131E+03  0.10948555053E+04 -0.17495072155E+04  0.20927163903E+04  0.46999998093E+01 0.  1.
       -5    1    3    3    0  502  0.34634625131E+03 -0.10948555053E+04  0.72971353913E+02  0.11506568610E+04  0.46999998093E+01 0. -1.
</event>
<event>
 5   0  0.7509685E-06  0.2804352E+04  0.7818609E-02  0.8301918E-01
       -1   -1    0    0    0  501  0.00000000000E+00  0.00000000000E+00  0.68927463510E+03  0.68927463511E+03  0.50400001928E-02 0.  1.
        1   -1    0    0  501    0  0.00000000000E+00  0.00000000000E+00 -0.28524157561E+04  0.28524157561E+04  0.50400001928E-02 0. -1.
    10030    2    1    2    0    0  0.00000000000E+00  0.00000000000E+00 -0.21631411210E+04  0.35416903913E+04  0.28043522100E+04 0.  0.
        4    1    3    3  502    0 -0.84026188433E+03 -0.33055061470E+03  0.27323366366E+03  0.94337796825E+03  0.12699999809E+01 0.  1.
       -4    1    3    3    0  502  0.84026188433E+03  0.33055061470E+03 -0.24363747847E+04  0.25983124230E+04  0.12699999809E+01 0. -1.
</event>
<event>
 5   0  0.1832502E-05  0.2776663E+04  0.7818609E-02  0.8310550E-01
        2   -1    0    0  501    0  0.00000000000E+00  0.00000000000E+00  0.15147713753E+04  0.15147713753E+04  0.25500000920E-02 0. -1.
       -2   -1    0    0    0  501  0.00000000000E+00  0.00000000000E+00 -0.12724459911E+04  0.12724459911E+04  0.25500000920E-02 0.  1.
    10030    2    1    2    0    0  0.00000000000E+00  0.00000000000E+00  0.24232538420E+03  0.27872173665E+04  0.27766632954E+04 0.  0.
        2    1    3    3  502    0 -0.52903694547E+02  0.13270907169E+04  0.52704623383E+03  0.14288968837E+04  0.25500000920E-02 0. -1.
       -2    1    3    3    0  502  0.52903694547E+02 -0.13270907169E+04 -0.28472084964E+03  0.13583204828E+04  0.25500000920E-02 0.  1.
</event>
<event>
 5   0  0.1874272E-05  0.2690622E+04  0.7818609E-02  0.8338054E-01
       -2   -1    0    0    0  501  0.00000000000E+00  0.00000000000E+00  0.76309435693E+03  0.76309435694E+03  0.25500000920E-02 0. -1.
        2   -1    0    0  501    0  0.00000000000E+00  0.00000000000E+00 -0.23717401025E+04  0.23717401025E+04  0.25500000920E-02 0.  1.
    10030    2    1    2    0    0  0.00000000000E+00  0.00000000000E+00 -0.16086457456E+04  0.31348344595E+04  0.26906218526E+04 0.  0.
        3    1    3    3  502    0 -0.87851998824E+03 -0.33443222295E+03 -0.19256151627E+04  0.21428103151E+04  0.10100000352E+00 0.  1.
       -3    1    3    3    0  502  0.87851998824E+03  0.33443222295E+03  0.31696941708E+03  0.99202414439E+03  0.10100000352E+00 0. -1.
</event>
<event>
 5   0  0.7613444E-06  0.2818895E+04  0.7818609E-02  0.8297426E-01
       -1   -1    0    0    0  501  0.00000000000E+00  0.00000000000E+00  0.10439927463E+04  0.10439927464E+04  0.50400001928E-02 0.  1.
        1   -1    0    0  501    0  0.00000000000E+00  0.00000000000E+00 -0.19028317847E+04  0.19028317847E+04  0.50400001928E-02 0. -1.
    10030    2    1    2    0    0  0.00000000000E+00  0.00000000000E+00 -0.85883903832E+03  0.29468245310E+04  0.28188952309E+04 0.  0.
        5    1    3    3  502    0 -0.92922940689E+03  0.51805953120E+03  0.53701835657E+03  0.11917482007E+04  0.46999998093E+01 0.  1.
       -5    1    3    3    0  502  0.92922940689E+03 -0.51805953120E+03 -0.13958573949E+04  0.17550763304E+04  0.46999998093E+01 0. -1.
</event>
<event>
 5   0  0.6288000E-06  0.2984772E+04  0.7818609E-02  0.8248093E-01
        4   -1    0    0  501    0  0.00000000000E+00  0.00000000000E+00  0.15688529321E+04  0.15688534461E+04  0.12699999809E+01 0.  1.
       -4   -1    0    0    0  501  0.00000000000E+00  0.00000000000E+00 -0.14196451061E+04  0.14196456742E+04  0.12699999809E+01 0. -1.
    10030    2    1    2    0    0  0.00000000000E+00  0.00000000000E+00  0.14920782601E+03  0.29884991203E+04  0.29847720209E+04 0.  0.
        1    1    3    3  502    0  0.61692787104E+03 -0.28814602779E+03 -0.12550558270E+04  0.14278631799E+04  0.50400001928E-02 0. -1.
       -1    1    3    3    0  502 -0.61692787104E+03  0.28814602779E+03  0.14042636530E+04  0.15606359405E+04  0.50400001928E-02 0.  1.
</event>
<event>
 5   0  0.1923559E-05  0.2984023E+04  0.7818609E-02  0.8248308E-01
       -2   -1    0    0    0  501  0.00000000000E+00  0.00000000000E+00  0.13265417083E+04  0.13265417083E+04  0.25500000920E-02 0. -1.
        2   -1    0    0  501    0  0.00000000000E+00  0.00000000000E+00 -0.16781220089E+04  0.16781220089E+04  0.25500000920E-02 0.  1.
    10030    2    1    2    0    0  0.00000000000E+00  0.00000000000E+00 -0.35158030065E+03  0.30046637172E+04  0.29840233487E+04 0.  0.
        4    1    3    3  502    0  0.13271456547E+04 -0.66468702885E+03 -0.32840630640E+03  0.15201897086E+04  0.12699999809E+01 0.  1.
       -4    1    3    3    0  502 -0.13271456547E+04  0.66468702885E+03 -0.23173994246E+02  0.14844740086E+04  0.12699999809E+01 0. -1.
</event>
<event>
 5   0  0.1832502E-05  0.2829907E+04  0.7818609E-02  0.8294043E-01
        2   -1    0    0  501    0  0.00000000000E+00  0.00000000000E+00  0.18248945188E+04  0.18248945188E+04  0.25500000920E-02 0.  1.
       -2   -1    0    0    0  501  0.00000000000E+00  0.00000000000E+00 -0.10971006938E+04  0.10971006938E+04  0.25500000920E-02 0. -1.
    10030    2    1    2    0    0  0.00000000000E+00  0.00000000000E+00  0.72779382505E+03  0.29219952126E+04  0.28299067424E+04 0.  0.
        2    1    3    3  502    0 -0.68513746757E+03  0.12347090196E+04  0.27054850925E+03  0.14377469209E+04  0.25500000920E-02 0. -1.
       -2    1    3    3    0  502  0.68513746757E+03 -0.12347090196E+04  0.45724531581E+03  0.14842482917E+04  0.25500000920E-02 0.  1.
</event>
<event>
 5   0  0.7681342E-06  0.2756682E+04  0.7818609E-02  0.8316845E-01
       -1   -1    0    0    0  501  0.00000000000E+00  0.00000000000E+00  0.10455675245E+04  0.10455675246E+04  0.50400001928E-02 0.  1.
        1   -1    0    0  501    0  0.00000000000E+00  0.00000000000E+00 -0.18170258839E+04  0.18170258839E+04  0.50400001928E-02 0. -1.
    10030    2    1    2    0    0  0.00000000000E+00  0.00000000000E+00 -0.77145835937E+03  0.28625934085E+04  0.27566815235E+04 0.  0.
        2    1    3    3  502    0  0.30608231080E+03  0.67982255241E+02  0.10080438212E+04  0.10556800241E+04  0.25500000920E-02 0.  1.
       -2    1    3    3    0  502 -0.30608231080E+03 -0.67982255241E+02 -0.17795021805E+04  0.18069133843E+04  0.25500000920E-02 0. -1.
</event>
<event>
 5   0  0.1832502E-05  0.2795271E+04  0.7818609E-02  0.8304738E-01
        2   -1    0    0  501    0  0.00000000000E+00  0.00000000000E+00  0.10367496105E+04  0.10367496105E+04  0.25500000920E-02 0. -1.
       -2   -1    0    0    0  501  0.00000000000E+00  0.00000000000E+00 -0.18841435204E+04  0.18841435204E+04  0.25500000920E-02 0.  1.
    10030    2    1    2    0    0  0.00000000000E+00  0.00000000000E+00 -0.84739390995E+03  0.29208931309E+04  0.27952710501E+04 0.  0.
        2    1    3    3  502    0  0.11066533326E+04  0.80274759104E+03 -0.12030439319E+03  0.13724279363E+04  0.25500000920E-02 0. -1.
       -2    1    3    3    0  502 -0.11066533326E+04 -0.80274759104E+03 -0.72708951676E+03  0.15484651946E+04  0.25500000920E-02 0.  1.
</event>
<event>
 5   0  0.1814230E-05  0.2218556E+04  0.7818609E-02  0.8510744E-01
       -2   -1    0    0    0  501  0.00000000000E+00  0.00000000000E+00  0.69268135562E+03  0.69268135562E+03  0.25500000920E-02 0.  1.
        2   -1    0    0  501    0  0.00000000000E+00  0.00000000000E+00 -0.17764263150E+04  0.17764263150E+04  0.25500000920E-02 0. -1.
    10030    2    1    2    0    0  0.00000000000E+00  0.00000000000E+00 -0.10837449594E+04  0.24691076707E+04  0.22185557357E+04 0.  0.
        5    1    3    3  502    0 -0.46893150320E+02 -0.51092985774E+03  0.55267320486E+03  0.75413397248E+03  0.46999998093E+01 0.  1.
       -5    1    3    3    0  502  0.46893150320E+02  0.51092985774E+03 -0.16364181643E+04  0.17149736982E+04  0.46999998093E+01 0. -1.
</event>
<event>
 5   0  0.1923559E-05  0.2823612E+04  0.7818609E-02  0.8295975E-01
       -2   -1    0    0    0  501  0.00000000000E+00  0.00000000000E+00  0.14106649788E+04  0.14106649788E+04  0.25500000920E-02 0. -1.
        2   -1    0    0  501    0  0.00000000000E+00  0.00000000000E+00 -0.14129481361E+04  0.14129481361E+04  0.25500000920E-02 0.  1.
    10030    2    1    2    0    0  0.00000000000E+00  0.00000000000E+00 -0.22831572859E+01  0.28236131149E+04  0.28236121918E+04 0.  0.
        4    1    3    3  502    0 -0.13830645903E+04 -0.10813750814E+02 -0.28435579744E+03  0.14120355628E+04  0.12699999809E+01 0.  1.
       -4    1    3    3    0  502  0.13830645903E+04  0.10813750814E+02  0.28207264015E+03  0.14115775520E+04  0.12699999809E+01 0. -1.
</event>
<event>
 5   0  0.1832502E-05  0.2724674E+04  0.7818609E-02  0.8327043E-01
       -2   -1    0    0    0  501  0.00000000000E+00  0.00000000000E+00  0.10582277010E+04  0.10582277010E+04  0.25500000920E-02 0. -1.
        2   -1    0    0  501    0  0.00000000000E+00  0.00000000000E+00 -0.17538398604E+04  0.17538398604E+04  0.25500000920E-02 0.  1.
    10030    2    1    2    0    0  0.00000000000E+00  0.00000000000E+00 -0.69561215945E+03  0.28120675614E+04  0.27246738692E+04 0.  0.
        2    1    3    3  502    0  0.96817292066E+03  0.78647510913E+03  0.21754118090E+03  0.12661856368E+04  0.25500000920E-02 0. -1.
       -2    1    3    3    0  502 -0.96817292066E+03 -0.78647510913E+03 -0.91315334034E+03  0.15458819245E+04  0.25500000920E-02 0.  1.
</event>
<event>
 5   0  0.1814230E-05  0.2810564E+04  0.7818609E-02  0.8299996E-01
       -2   -1    0    0    0  501  0.00000000000E+00  0.00000000000E+00  0.11416846219E+04  0.11416846220E+04  0.25500000920E-02 0.  1.
        2   -1    0    0  501    0  0.00000000000E+00  0.00000000000E+00 -0.17297395728E+04  0.17297395728E+04  0.25500000920E-02 0. -1.
    10030    2    1    2    0    0  0.00000000000E+00  0.00000000000E+00 -0.58805495086E+03  0.28714241948E+04  0.28105636945E+04 0.  0.
        5    1    3    3  502    0 -0.93604205419E+03 -0.61488050028E+03  0.57320122302E+03  0.12581075029E+04  0.46999998093E+01 0.  1.
       -5    1    3    3    0  502  0.93604205419E+03  0.61488050028E+03 -0.11612561739E+04  0.16133166919E+04  0.46999998093E+01 0. -1.
</event>
<event>
 5   0  0.7388013E-06  0.2813603E+04  0.7818609E-02  0.8299058E-01
        1   -1    0    0  501    0  0.00000000000E+00  0.00000000000E+00  0.10180511917E+04  0.10180511917E+04  0.50400001928E-02 0. -1.
       -1   -1    0    0    0  501  0.00000000000E+00  0.00000000000E+00 -0.19439989529E+04  0.19439989529E+04  0.50400001928E-02 0.  1.
    10030    2    1    2    0    0  0.00000000000E+00  0.00000000000E+00 -0.92594776122E+03  0.29620501446E+04  0.28136029930E+04 0.  0.
        1    1    3    3  502    0  0.90381656933E+03 -0.81662661143E+02  0.66870071766E+03  0.11272594338E+04  0.50400001928E-02 0. -1.
       -1    1    3    3    0  502 -0.90381656933E+03  0.81662661143E+02 -0.15946484789E+04  0.18347907108E+04  0.50400001928E-02 0.  1.
</event>
<event>
 5   0  0.1874272E-05  0.2319520E+04  0.7818609E-02  0.8470264E-01
       -2   -1    0    0    0  501  0.00000000000E+00  0.00000000000E+00  0.10821700902E+04  0.10821700902E+04  0.25500000920E-02 0. -1.
        2   -1    0    0  501    0  0.00000000000E+00  0.00000000000E+00 -0.12429134549E+04  0.12429134549E+04  0.25500000920E-02 0.  1.
    10030    2    1    2    0    0  0.00000000000E+00  0.00000000000E+00 -0.16074336471E+03  0.23250835452E+04  0.23195204381E+04 0.  0.
        3    1    3    3  502    0 -0.67900773479E+03  0.84373529044E+03  0.33547629513E+03  0.11337923527E+04  0.10100000352E+00 0.  1.
       -3    1    3    3    0  502  0.67900773479E+03 -0.84373529044E+03 -0.49621965985E+03  0.11912911925E+04  0.10100000352E+00 0. -1.
</event>
<event>
 5   0  0.7388013E-06  0.2782675E+04  0.7818609E-02  0.8308667E-01
        1   -1    0    0  501    0  0.00000000000E+00  0.00000000000E+00  0.22470208511E+04  0.22470208511E+04  0.50400001928E-02 0.  1.
       -1   -1    0    0    0  501  0.00000000000E+00  0.00000000000E+00 -0.86150544633E+03  0.86150544634E+03  0.50400001928E-02 0. -1.
    10030    2    1    2    0    0  0.00000000000E+00  0.00000000000E+00  0.13855154048E+04  0.31085262974E+04  0.27826754761E+04 0.  0.
        1    1    3    3  502    0 -0.11506602589E+04 -0.52706675971E+03  0.47152956354E+02  0.12665077188E+04  0.50400001928E-02 0.  1.
       -1    1    3    3    0  502  0.11506602589E+04  0.52706675971E+03  0.13383624484E+04  0.18420185786E+04  0.50400001928E-02 0. -1.
</event>
<event>
 5   0  0.1832502E-05  0.2837873E+04  0.7818609E-02  0.8291606E-01
        2   -1    0    0  501    0  0.00000000000E+00  0.00000000000E+00  0.19314322088E+04  0.19314322088E+04  0.25500000920E-02 0.  1.
       -2   -1    0    0    0  501  0.00000000000E+00  0.00000000000E+00 -0.10424291459E+04  0.10424291459E+04  0.25500000920E-02 0. -1.
    10030    2    1    2    0    0  0.00000000000E+00  0.00000000000E+00  0.88900306294E+03  0.29738613547E+04  0.28378733078E+04 0.  0.
        2    1    3    3  502    0  0.77493816155E+03 -0.99662982074E+01  0.16900504650E+04  0.18592737979E+04  0.25500000920E-02 0.  1.
       -2    1    3    3    0  502 -0.77493816155E+03  0.99662982074E+01 -0.80104740209E+03  0.11145875568E+04  0.25500000920E-02 0. -1.
</event>
<event>
 5   0  0.1814230E-05  0.2946997E+04  0.7818609E-02  0.8259030E-01
       -2   -1    0    0    0  501  0.00000000000E+00  0.00000000000E+00  0.11608901533E+04  0.11608901533E+04  0.25500000920E-02 0. -1.
        2   -1    0    0  501    0  0.00000000000E+00  0.00000000000E+00 -0.18702873697E+04  0.18702873697E+04  0.25500000920E-02 0.  1.
    10030    2    1    2    0    0  0.00000000000E+00  0.00000000000E+00 -0.70939721639E+03  0.30311775231E+04  0.29469972456E+04 0.  0.
        5    1    3    3  502    0  0.83875553011E+03  0.42831518881E+01  0.89137137746E+03  0.12239665875E+04  0.46999998093E+01 0. -1.
       -5    1    3    3    0  502 -0.83875553011E+03 -0.42831518881E+01 -0.16007685939E+04  0.18072109356E+04  0.46999998093E+01 0.  1.
</event>
<event>
 5   0  0.7555871E-06  0.2777389E+04  0.7818609E-02  0.8310323E-01
       -1   -1    0    0    0  501  0.00000000000E+00  0.00000000000E+00  0.68997136203E+03  0.68997136205E+03  0.50400001928E-02 0. -1.
        1   -1    0    0  501    0  0.00000000000E+00  0.00000000000E+00 -0.27950035938E+04  0.27950035938E+04  0.50400001928E-02 0.  1.
    10030    2    1    2    0    0  0.00000000000E+00  0.00000000000E+00 -0.21050322317E+04  0.34849749558E+04  0.27773890160E+04 0.  0.
        3    1    3    3  502    0  0.78001038707E+03 -0.10621946292E+04 -0.50299310646E+03  0.14105586516E+04  0.10100000352E+00 0.  1.
       -3    1    3    3    0  502 -0.78001038707E+03  0.10621946292E+04 -0.16020391253E+04  0.20744163042E+04  0.10100000352E+00 0. -1.
</event>
<event>
 5   0  0.7388013E-06  0.2860654E+04  0.7818609E-02  0.8284681E-01
        1   -1    0    0  501    0  0.00000000000E+00  0.00000000000E+00  0.20202868338E+04  0.20202868338E+04  0.50400001928E-02 0.  1.
       -1   -1    0    0    0  501  0.00000000000E+00  0.00000000000E+00 -0.10126458025E+04  0.10126458025E+04  0.50400001928E-02 0. -1.
    10030    2    1    2    0    0  0.00000000000E+00  0.00000000000E+00  0.10076410313E+04  0.30329326363E+04  0.28606537590E+04 0.  0.
        1    1    3    3  502    0  0.13880689678E+03 -0.69187298036E+03  0.18228850076E+04  0.19547033858E+04  0.50400001928E-02 0.  1.
       -1    1    3    3    0  502 -0.13880689678E+03  0.69187298036E+03 -0.81524397638E+03  0.10782292505E+04  0.50400001928E-02 0. -1.
</event>
<event>
 5   0  0.7613444E-06  0.2682032E+04  0.7818609E-02  0.8340859E-01
       -1   -1    0    0    0  501  0.00000000000E+00  0.00000000000E+00  0.97895806369E+03  0.97895806370E+03  0.50400001928E-02 0. -1.
        1   -1    0    0  501    0  0.00000000000E+00  0.00000000000E+00 -0.18369771376E+04  0.18369771376E+04  0.50400001928E-02 0.  1.
    10030    2    1    2    0    0  0.00000000000E+00  0.00000000000E+00 -0.85801907393E+03  0.28159352013E+04  0.26820317535E+04 0.  0.
        5    1    3    3  502    0 -0.95455913102E+02  0.21983897741E+03  0.95628054612E+03  0.98586793244E+03  0.46999998093E+01 0. -1.
       -5    1    3    3    0  502  0.95455913102E+02 -0.21983897741E+03 -0.18142996201E+04  0.18300672689E+04  0.46999998093E+01 0.  1.
</event>
<event>
 5   0  0.7555871E-06  0.2759782E+04  0.7818609E-02  0.8315864E-01
        1   -1    0    0  501    0  0.00000000000E+00  0.00000000000E+00  0.16148640440E+04  0.16148640440E+04  0.50400001928E-02 0. -1.
       -1   -1    0    0    0  501  0.00000000000E+00  0.00000000000E+00 -0.11791083912E+04  0.11791083912E+04  0.50400001928E-02 0.  1.
    10030    2    1    2    0    0  0.00000000000E+00  0.00000000000E+00  0.43575565287E+03  0.27939724352E+04  0.27597824153E+04 0.  0.
        3    1    3    3  502    0 -0.88062780367E+03 -0.14468854079E+03  0.12833704276E+04  0.15631633846E+04  0.10100000352E+00 0. -1.
       -3    1    3    3    0  502  0.88062780367E+03  0.14468854079E+03 -0.84761477473E+03  0.12308090506E+04  0.10100000352E+00 0.  1.
</event>
<event>
 5   0  0.1814230E-05  0.1855018E+04  0.7818609E-02  0.8677576E-01
       -2   -1    0    0    0  501  0.00000000000E+00  0.00000000000E+00  0.69046420727E+03  0.69046420727E+03  0.25500000920E-02 0. -1.
        2   -1    0    0  501    0  0.00000000000E+00  0.00000000000E+00 -0.12459348333E+04  0.12459348333E+04  0.25500000920E-02 0.  1.
    10030    2    1    2    0    0  0.00000000000E+00  0.00000000000E+00 -0.55547062606E+03  0.19363990406E+04  0.18550184980E+04 0.  0.
        5    1    3    3  502    0 -0.79299445421E+03  0.30204254083E+02 -0.77890057817E+03  0.11119625453E+04  0.46999998093E+01 0.  1.
       -5    1    3    3    0  502  0.79299445421E+03 -0.30204254083E+02  0.22342995211E+03  0.82443649535E+03  0.46999998093E+01 0. -1.
</event>
<event>
 5   0  0.1814230E-05  0.2299006E+04  0.7818609E-02  0.8478313E-01
       -2   -1    0    0    0  501  0.00000000000E+00  0.00000000000E+00  0.13104279891E+04  0.13104279891E+04  0.25500000920E-02 0. -1.
        2   -1    0    0  501    0  0.00000000000E+00  0.00000000000E+00 -0.10083404463E+04  0.10083404463E+04  0.25500000920E-02 0.  1.
    10030    2    1    2    0    0  0.00000000000E+00  0.00000000000E+00  0.30208754286E+03  0.23187684354E+04  0.22990063448E+04 0.  0.
        5    1    3    3  502    0  0.59807153729E+03  0.66076704741E+03 -0.58116686219E+03  0.10639923244E+04  0.46999998093E+01 0.  1.
       -5    1    3    3    0  502 -0.59807153729E+03 -0.66076704741E+03  0.88325440505E+03  0.12547761110E+04  0.46999998093E+01 0. -1.
</event>
<event>
 5   0  0.7388013E-06  0.2769303E+04  0.7818609E-02  0.8312863E-01
        1   -1    0    0  501    0  0.00000000000E+00  0.00000000000E+00  0.13628017596E+04  0.13628017596E+04  0.50400001928E-02 0.  1.
       -1   -1    0    0    0  501  0.00000000000E+00  0.00000000000E+00 -0.14068511193E+04  0.14068511193E+04  0.50400001928E-02 0. -1.
    10030    2    1    2    0    0  0.00000000000E+00  0.00000000000E+00 -0.44049359749E+02  0.27696528789E+04  0.27693025699E+04 0.  0.
        1    1    3    3  502    0  0.10597673401E+03  0.26814295891E+02 -0.14025286347E+04  0.14067823733E+04  0.50400001928E-02 0. -1.
       -1    1    3    3    0  502 -0.10597673401E+03 -0.26814295891E+02  0.13584792750E+04  0.13628705056E+04  0.50400001928E-02 0.  1.
</event>
<event>
 5   0  0.6288000E-06  0.1718230E+04  0.7818609E-02  0.8751035E-01
        3   -1    0    0  501    0  0.00000000000E+00  0.00000000000E+00  0.64264476980E+03  0.64264477774E+03  0.10100000352E+00 0. -1.
       -3   -1    0    0    0  501  0.00000000000E+00  0.00000000000E+00 -0.11485012412E+04  0.11485012456E+04  0.10100000352E+00 0.  1.
    10030    2    1    2    0    0  0.00000000000E+00  0.00000000000E+00 -0.50585647140E+03  0.17911460234E+04  0.17182297016E+04 0.  0.
        2    1    3    3  502    0 -0.71919796315E+03 -0.23003569172E+03 -0.68009363396E+03  0.10162133047E+04  0.25500000920E-02 0.  1.
       -2    1    3    3    0  502  0.71919796315E+03  0.23003569172E+03  0.17423716257E+03  0.77493271869E+03  0.25500000920E-02 0. -1.
</event>
<event>
 5   0  0.1874272E-05  0.2996855E+04  0.7818609E-02  0.8244629E-01
       -2   -1    0    0    0  501  0.00000000000E+00  0.00000000000E+00  0.92949164628E+03  0.92949164628E+03  0.25500000920E-02 0. -1.
        2   -1    0    0  501    0  0.00000000000E+00  0.00000000000E+00 -0.24156060838E+04  0.24156060838E+04  0.25500000920E-02 0.  1.
    10030    2    1    2    0    0  0.00000000000E+00  0.00000000000E+00 -0.14861144375E+04  0.33450977300E+04  0.29968554690E+04 0.  0.
        3    1    3    3  502    0  0.34959006807E+03  0.58741426293E+03  0.74531295536E+03  0.10113160454E+04  0.10100000352E+00 0. -1.
       -3    1    3    3    0  502 -0.34959006807E+03 -0.58741426293E+03 -0.22314273928E+04  0.23337816847E+04  0.10100000352E+00 0.  1.
</event>
<event>
 5   0  0.1814230E-05  0.2798514E+04  0.7818609E-02  0.8303730E-01
        2   -1    0    0  501    0  0.00000000000E+00  0.00000000000E+00  0.28946923832E+04  0.28946923832E+04  0.25500000920E-02 0. -1.
       -2   -1    0    0    0  501  0.00000000000E+00  0.00000000000E+00 -0.67638261589E+03  0.67638261589E+03  0.25500000920E-02 0.  1.
    10030    2    1    2    0    0  0.00000000000E+00  0.00000000000E+00  0.22183097673E+04  0.35710749991E+04  0.27985136100E+04 0.  0.
        5    1    3    3  502    0 -0.34882035593E+03  0.63000157999E+03 -0.42175705765E+03  0.83455301640E+03  0.46999998093E+01 0.  1.
       -5    1    3    3    0  502  0.34882035593E+03 -0.63000157999E+03  0.26400668250E+04  0.27365219827E+04  0.46999998093E+01 0. -1.
</event>
<event>
 5   0  0.1923559E-05  0.2789294E+04  0.7818609E-02  0.8306600E-01
        2   -1    0    0  501    0  0.00000000000E+00  0.00000000000E+00  0.25533784215E+04  0.25533784215E+04  0.25500000920E-02 0. -1.
       -2   -1    0    0    0  501  0.00000000000E+00  0.00000000000E+00 -0.76175180167E+03  0.76175180167E+03  0.25500000920E-02 0.  1.
    10030    2    1    2    0    0  0.00000000000E+00  0.00000000000E+00  0.17916266199E+04  0.33151302232E+04  0.27892942569E+04 0.  0.
        4    1    3    3  502    0  0.79891514376E+03 -0.76650944023E+03  0.19037708355E+04  0.22023049598E+04  0.12699999809E+01 0. -1.
       -4    1    3    3    0  502 -0.79891514376E+03  0.76650944023E+03 -0.11214421565E+03  0.11128252634E+04  0.12699999809E+01 0.  1.
</event>
<event>
 5   0  0.7555871E-06  0.2773763E+04  0.7818609E-02  0.8311461E-01
        1   -1    0    0  501    0  0.00000000000E+00  0.00000000000E+00  0.11256533932E+04  0.11256533932E+04  0.50400001928E-02 0. -1.
       -1   -1    0    0    0  501  0.00000000000E+00  0.00000000000E+00 -0.17087318578E+04  0.17087318579E+04  0.50400001928E-02 0.  1.
    10030    2    1    2    0    0  0.00000000000E+00  0.00000000000E+00 -0.58307846461E+03  0.28343852511E+04  0.27737626531E+04 0.  0.
        3    1    3    3  502    0 -0.60310323498E+03  0.11903904289E+04 -0.67752069153E+03  0.14965951967E+04  0.10100000352E+00 0. -1.
       -3    1    3    3    0  502  0.60310323498E+03 -0.11903904289E+04  0.94442226926E+02  0.13377900544E+04  0.10100000352E+00 0.  1.
</event>
<event>
 5   0  0.7509685E-06  0.2418023E+04  0.7818609E-02  0.8432787E-01
        1   -1    0    0  501    0  0.00000000000E+00  0.00000000000E+00  0.16211777729E+04  0.16211777729E+04  0.50400001928E-02 0. -1.
       -1   -1    0    0    0  501  0.00000000000E+00  0.00000000000E+00 -0.90163405156E+03  0.90163405158E+03  0.50400001928E-02 0.  1.
    10030    2    1    2    0    0  0.00000000000E+00  0.00000000000E+00  0.71954372137E+03  0.25228118245E+04  0.24180232288E+04 0.  0.
        4    1    3    3  502    0 -0.10156683001E+04  0.33710435672E+03 -0.22717888671E+03  0.10939987672E+04  0.12699999809E+01 0.  1.
       -4    1    3    3    0  502  0.10156683001E+04 -0.33710435672E+03  0.94672260808E+03  0.14288130573E+04  0.12699999809E+01 0. -1.
</event>
<event>
 5   0  0.7509685E-06  0.2733727E+04  0.7818609E-02  0.8324144E-01
       -1   -1    0    0    0  501  0.00000000000E+00  0.00000000000E+00  0.11575620933E+04  0.11575620934E+04  0.50400001928E-02 0.  1.
        1   -1    0    0  501    0  0.00000000000E+00  0.00000000000E+00 -0.16140092019E+04  0.16140092019E+04  0.50400001928E-02 0. -1.
    10030    2    1    2    0    0  0.00000000000E+00  0.00000000000E+00 -0.45644710860E+03  0.27715712953E+04  0.27337270314E+04 0.  0.
        4    1    3    3  502    0  0.98725182407E+03  0.76503596481E+03  0.33477283056E+03  0.12930663759E+04  0.12699999809E+01 0.  1.
       -4    1    3    3    0  502 -0.98725182407E+03 -0.76503596481E+03 -0.79121993916E+03  0.14785049194E+04  0.12699999809E+01 0. -1.
</event>
<event>
 5   0  0.7509685E-06  0.1816124E+04  0.7818609E-02  0.8697772E-01
       -1   -1    0    0    0  501  0.00000000000E+00  0.00000000000E+00  0.11549946129E+04  0.11549946130E+04  0.50400001928E-02 0.  1.
        1   -1    0    0  501    0  0.00000000000E+00  0.00000000000E+00 -0.71392249181E+03  0.71392249183E+03  0.50400001928E-02 0. -1.
    10030    2    1    2    0    0  0.00000000000E+00  0.00000000000E+00  0.44107212113E+03  0.18689171048E+04  0.18161240400E+04 0.  0.
        4    1    3    3  502    0  0.11968919364E+03  0.80225568136E+03 -0.19954014731E+03  0.83531884011E+03  0.12699999809E+01 0. -1.
       -4    1    3    3    0  502 -0.11968919364E+03 -0.80225568136E+03  0.64061226844E+03  0.10335982647E+04  0.12699999809E+01 0.  1.
</event>
<event>
 5   0  0.7388013E-06  0.2773967E+04  0.7818609E-02  0.8311396E-01
       -1   -1    0    0    0  501  0.00000000000E+00  0.00000000000E+00  0.10648261898E+04  0.10648261898E+04  0.50400001928E-02 0. -1.
        1   -1    0    0  501    0  0.00000000000E+00  0.00000000000E+00 -0.18066083079E+04  0.18066083079E+04  0.50400001928E-02 0.  1.
    10030    2    1    2    0    0  0.00000000000E+00  0.00000000000E+00 -0.74178211810E+03  0.28714344977E+04  0.27739674410E+04 0.  0.
        1    1    3    3  502    0 -0.11324572627E+04 -0.74582590339E+03 -0.67269696711E+03  0.15136832362E+04  0.50400001928E-02 0.  1.
       -1    1    3    3    0  502  0.11324572627E+04  0.74582590339E+03 -0.69085150986E+02  0.13577512615E+04  0.50400001928E-02 0. -1.
</event>
<event>
 5   0  0.7613444E-06  0.2695521E+04  0.7818609E-02  0.8336460E-01
        1   -1    0    0  501    0  0.00000000000E+00  0.00000000000E+00  0.21439404767E+04  0.21439404767E+04  0.50400001928E-02 0. -1.
       -1   -1    0    0    0  501  0.00000000000E+00  0.00000000000E+00 -0.84725197388E+03  0.84725197389E+03  0.50400001928E-02 0.  1.
    10030    2    1    2    0    0  0.00000000000E+00  0.00000000000E+00  0.12966885028E+04  0.29911924506E+04  0.26955205811E+04 0.  0.
        5    1    3    3  502    0 -0.13028847755E+04  0.19956886676E+03  0.96044000486E+03  0.16308904205E+04  0.46999998093E+01 0. -1.
       -5    1    3    3    0  502  0.13028847755E+04 -0.19956886676E+03  0.33624849798E+03  0.13603020301E+04  0.46999998093E+01 0.  1.
</event>
<event>
 5   0  0.1923559E-05  0.2768787E+04  0.7818609E-02  0.8313025E-01
        2   -1    0    0  501    0  0.00000000000E+00  0.00000000000E+00  0.11346414456E+04  0.11346414456E+04  0.25500000920E-02 0. -1.
       -2   -1    0    0    0  501  0.00000000000E+00  0.00000000000E+00 -0.16891200990E+04  0.16891200990E+04  0.25500000920E-02 0.  1.
    10030    2    1    2    0    0  0.00000000000E+00  0.00000000000E+00 -0.55447865331E+03  0.28237615446E+04  0.27687872226E+04 0.  0.
        4    1    3    3  502    0 -0.24758184605E+03 -0.97835656350E+03 -0.12437184949E+04  0.16016602771E+04  0.12699999809E+01 0.  1.
       -4    1    3    3    0  502  0.24758184605E+03  0.97835656350E+03  0.68923984160E+03  0.12221012675E+04  0.12699999809E+01 0. -1.
</event>
<event>
 5   0  0.6288000E-06  0.2788995E+04  0.7818609E-02  0.8306693E-01
       -3   -1    0    0    0  501  0.00000000000E+00  0.00000000000E+00  0.16856003932E+04  0.16856003962E+04  0.10100000352E+00 0.  1.
        3   -1    0    0  501    0  0.00000000000E+00  0.00000000000E+00 -0.11536678212E+04  0.11536678256E+04  0.10100000352E+00 0. -1.
    10030    2    1    2    0    0  0.00000000000E+00  0.00000000000E+00  0.53193257195E+03  0.28392682218E+04  0.27889947605E+04 0.  0.
        2    1    3    3  502    0  0.13248136062E+02  0.27853383234E+03 -0.11249959375E+04  0.11590394593E+04  0.25500000920E-02 0. -1.
       -2    1    3    3    0  502 -0.13248136062E+02 -0.27853383234E+03  0.16569285094E+04  0.16802287625E+04  0.25500000920E-02 0.  1.
</event>
<event>
 5   0  0.1923559E-05  0.2863897E+04  0.7818609E-02  0.8283701E-01
        2   -1    0    0  501    0  0.00000000000E+00  0.00000000000E+00  0.19934038017E+04  0.19934038017E+04  0.25500000920E-02 0.  1.
       -2   -1    0    0    0  501  0.00000000000E+00  0.00000000000E+00 -0.10286307263E+04  0.10286307263E+04  0.25500000920E-02 0. -1.
    10030    2    1    2    0    0  0.00000000000E+00  0.00000000000E+00  0.96477307539E+03  0.30220345280E+04  0.28638969257E+04 0.  0.
        4    1    3    3  502    0 -0.77140145608E+03 -0.10406502336E+02  0.17553596814E+04  0.19174091180E+04  0.12699999809E+01 0.  1.
       -4    1    3    3    0  502  0.77140145608E+03  0.10406502336E+02 -0.79058660606E+03  0.11046254099E+04  0.12699999809E+01 0. -1.
</event>
<event>
 5   0  0.7388013E-06  0.2778553E+04  0.7818609E-02  0.8309958E-01
       -1   -1    0    0    0  501  0.00000000000E+00  0.00000000000E+00  0.15362226841E+04  0.15362226841E+04  0.50400001928E-02 0. -1.
        1   -1    0    0  501    0  0.00000000000E+00  0.00000000000E+00 -0.12563863005E+04  0.12563863005E+04  0.50400001928E-02 0.  1.
    10030    2    1    2    0    0  0.00000000000E+00  0.00000000000E+00  0.27983638362E+03  0.27926089846E+04  0.27785529578E+04 0.  0.
        1    1    3    3  502    0 -0.24671098048E+03  0.99502514656E+03  0.10822902386E+04  0.14907358957E+04  0.50400001928E-02 0. -1.
       -1    1    3    3    0  502  0.24671098048E+03 -0.99502514656E+03 -0.80245385501E+03  0.13018730889E+04  0.50400001928E-02 0.  1.
</event>
<event>
 5   0  0.1904553E-05  0.3291352E+04  0.7818609E-02  0.8165099E-01
        2   -1    0    0  501    0  0.00000000000E+00  0.00000000000E+00  0.24868672386E+04  0.24868672386E+04  0.25500000920E-02 0. -1.
       -2   -1    0    0    0  501  0.00000000000E+00  0.00000000000E+00 -0.10890206869E+04  0.10890206869E+04  0.25500000920E-02 0.  1.
    10030    2    1    2    0    0  0.00000000000E+00  0.00000000000E+00  0.13978465518E+04  0.35758879255E+04  0.32913522257E+04 0.  0.
        1    1    3    3  502    0 -0.65931155451E+03 -0.35740276073E+02 -0.93880005057E+03  0.11477432763E+04  0.50400001928E-02 0.  1.
       -1    1    3    3    0  502  0.65931155451E+03  0.35740276073E+02  0.23366466024E+04  0.24281446492E+04  0.50400001928E-02 0. -1.
</event>
<event>
 5   0  0.7555871E-06  0.2645183E+04  0.7818609E-02  0.8353013E-01
       -1   -1    0    0    0  501  0.00000000000E+00  0.00000000000E+00  0.57717500119E+03  0.57717500121E+03  0.50400001928E-02 0.  1.
        1   -1    0    0  501    0  0.00000000000E+00  0.00000000000E+00 -0.30307078269E+04  0.30307078269E+04  0.50400001928E-02 0. -1.
    10030    2    1    2    0    0  0.00000000000E+00  0.00000000000E+00 -0.24535328257E+04  0.36078828281E+04  0.26451833915E+04 0.  0.
        3    1    3    3  502    0  0.21360929685E+02  0.23344670303E+03  0.54861295638E+03  0.59659855731E+03  0.10100000352E+00 0.  1.
       -3    1    3    3    0  502 -0.21360929685E+02 -0.23344670303E+03 -0.30021457821E+04  0.30112842708E+04  0.10100000352E+00 0. -1.
</event>
<event>
 5   0  0.1832502E-05  0.2815581E+04  0.7818609E-02  0.8298448E-01
       -2   -1    0    0    0  501  0.00000000000E+00  0.00000000000E+00  0.10012562255E+04  0.10012562255E+04  0.25500000920E-02 0. -1.
        2   -1    0    0  501    0  0.00000000000E+00  0.00000000000E+00 -0.19793868847E+04  0.19793868847E+04  0.25500000920E-02 0.  1.
    10030    2    1    2    0    0  0.00000000000E+00  0.00000000000E+00 -0.97813065927E+03  0.29806431102E+04  0.28155805376E+04 0.  0.
        2    1    3    3  502    0 -0.91113825774E+03 -0.37412638133E+03  0.57575008844E+03  0.11408907214E+04  0.25500000920E-02 0. -1.
       -2    1    3    3    0  502  0.91113825774E+03  0.37412638133E+03 -0.15538807477E+04  0.18397523888E+04  0.25500000920E-02 0.  1.
</event>
<event>
 5   0  0.7388013E-06  0.3178046E+04  0.7818609E-02  0.8194639E-01
       -1   -1    0    0    0  501  0.00000000000E+00  0.00000000000E+00  0.16300406923E+04  0.16300406923E+04  0.50400001928E-02 0. -1.
        1   -1    0    0  501    0  0.00000000000E+00  0.00000000000E+00 -0.15490375585E+04  0.15490375585E+04  0.50400001928E-02 0.  1.
    10030    2    1    2    0    0  0.00000000000E+00  0.00000000000E+00  0.81003133849E+02  0.31790782508E+04  0.31780461005E+04 0.  0.
        1    1    3    3  502    0 -0.90292736994E+03  0.12462770249E+04 -0.35524036112E+03  0.15794555937E+04  0.50400001928E-02 0. -1.
       -1    1    3    3    0  502  0.90292736994E+03 -0.12462770249E+04  0.43624349497E+03  0.15996226571E+04  0.50400001928E-02 0.  1.
</event>
<event>
 5   0  0.7555871E-06  0.2844135E+04  0.7818609E-02  0.8289696E-01
        1   -1    0    0  501    0  0.00000000000E+00  0.00000000000E+00  0.18733757075E+04  0.18733757075E+04  0.50400001928E-02 0. -1.
       -1   -1    0    0    0  501  0.00000000000E+00  0.00000000000E+00 -0.10794823595E+04  0.10794823595E+04  0.50400001928E-02 0.  1.
    10030    2    1    2    0    0  0.00000000000E+00  0.00000000000E+00  0.79389334802E+03  0.29528580670E+04  0.28441350383E+04 0.  0.
        3    1    3    3  502    0 -0.65674678066E+03 -0.11894717610E+03  0.17006603322E+04  0.18269401578E+04  0.10100000352E+00 0. -1.
       -3    1    3    3    0  502  0.65674678066E+03  0.11894717610E+03 -0.90676698414E+03  0.11259179092E+04  0.10100000352E+00 0.  1.
</event>
<event>
 5   0  0.7388013E-06  0.2906338E+04  0.7818609E-02  0.8270994E-01
        1   -1    0    0  501    0  0.00000000000E+00  0.00000000000E+00  0.18410330710E+04  0.18410330710E+04  0.50400001928E-02 0. -1.
       -1   -1    0    0    0  501  0.00000000000E+00  0.00000000000E+00 -0.11470191729E+04  0.11470191729E+04  0.50400001928E-02 0.  1.
    10030    2    1    2    0    0  0.00000000000E+00  0.00000000000E+00  0.69401389803E+03  0.29880522439E+04  0.29063380605E+04 0.  0.
        1    1    3    3  502    0  0.75184583636E+02 -0.97661985381E+03 -0.75660786289E+03  0.12376972646E+04  0.50400001928E-02 0.  1.
       -1    1    3    3    0  502 -0.75184583636E+02  0.97661985381E+03  0.14506217609E+04  0.17503549794E+04  0.50400001928E-02 0. -1.
</event>
<event>
 5   0  0.1814230E-05  0.2786281E+04  0.7818609E-02  0.8307540E-01
        2   -1    0    0  501    0  0.00000000000E+00  0.00000000000E+00  0.21945323621E+04  0.21945323621E+04  0.25500000920E-02 0.  1.
       -2   -1    0    0    0  501  0.00000000000E+00  0.00000000000E+00 -0.88439807539E+03  0.88439807540E+03  0.25500000920E-02 0. -1.
    10030    2    1    2    0    0  0.00000000000E+00  0.00000000000E+00  0.13101342867E+04  0.30789304375E+04  0.27862808167E+04 0.  0.
        5    1    3    3  502    0 -0.12653301733E+04  0.53668545485E+03  0.90638945475E+03  0.16464068934E+04  0.46999998093E+01 0. -1.
       -5    1    3    3    0  502  0.12653301733E+04 -0.53668545485E+03  0.40374483194E+03  0.14325235441E+04  0.46999998093E+01 0.  1.
</event>
<event>
 5   0  0.1874272E-05  0.2831702E+04  0.7818609E-02  0.8293493E-01
        2   -1    0    0  501    0  0.00000000000E+00  0.00000000000E+00  0.21236563620E+04  0.21236563620E+04  0.25500000920E-02 0.  1.
       -2   -1    0    0    0  501  0.00000000000E+00  0.00000000000E+00 -0.94395381653E+03  0.94395381654E+03  0.25500000920E-02 0. -1.
    10030    2    1    2    0    0  0.00000000000E+00  0.00000000000E+00  0.11797025455E+04  0.30676101785E+04  0.28317016283E+04 0.  0.
        3    1    3    3  502    0  0.11252936000E+04  0.36877457047E+01  0.15207001554E+04  0.18917791252E+04  0.10100000352E+00 0.  1.
       -3    1    3    3    0  502 -0.11252936000E+04 -0.36877457047E+01 -0.34099760997E+03  0.11758310533E+04  0.10100000352E+00 0. -1.
</event>
<event>
 5   0  0.1904553E-05  0.2913183E+04  0.7818609E-02  0.8268966E-01
        2   -1    0    0  501    0  0.00000000000E+00  0.00000000000E+00  0.24587995833E+04  0.24587995833E+04  0.25500000920E-02 0. -1.
       -2   -1    0    0    0  501  0.00000000000E+00  0.00000000000E+00 -0.86288420781E+03  0.86288420781E+03  0.25500000920E-02 0.  1.
    10030    2    1    2    0    0  0.00000000000E+00  0.00000000000E+00  0.15959153755E+04  0.33216837912E+04  0.29131833658E+04 0.  0.
        1    1    3    3  502    0 -0.94399860869E+03  0.91324757096E+02 -0.46258939886E+03  0.10552073429E+04  0.50400001928E-02 0.  1.
       -1    1    3    3    0  502  0.94399860869E+03 -0.91324757096E+02  0.20585047744E+04  0.22664764483E+04  0.50400001928E-02 0. -1.
</event>
<event>
 5   0  0.7681342E-06  0.2796485E+04  0.7818609E-02  0.8304361E-01
        1   -1    0    0  501    0  0.00000000000E+00  0.00000000000E+00  0.19412614335E+04  0.19412614335E+04  0.50400001928E-02 0. -1.
       -1   -1    0    0    0  501  0.00000000000E+00  0.00000000000E+00 -0.10071192127E+04  0.10071192127E+04  0.50400001928E-02 0.  1.
    10030    2    1    2    0    0  0.00000000000E+00  0.00000000000E+00  0.93414222082E+03  0.29483806462E+04  0.27964847123E+04 0.  0.
        2    1    3    3  502    0 -0.47652428631E+03 -0.84333385189E+03 -0.59606202631E+03  0.11373554064E+04  0.25500000920E-02 0.  1.
       -2    1    3    3    0  502  0.47652428631E+03  0.84333385189E+03  0.15302042471E+04  0.18110252398E+04  0.25500000920E-02 0. -1.
</event>
<event>
 5   0  0.7388013E-06  0.2788732E+04  0.7818609E-02  0.8306775E-01
        1   -1    0    0  501    0  0.00000000000E+00  0.00000000000E+00  0.15383946456E+04  0.15383946456E+04  0.50400001928E-02 0.  1.
       -1   -1    0    0    0  501  0.00000000000E+00  0.00000000000E+00 -0.12638215082E+04  0.12638215082E+04  0.50400001928E-02 0. -1.
    10030    2    1    2    0    0  0.00000000000E+00  0.00000000000E+00  0.27457313739E+03  0.28022161539E+04  0.27887317844E+04 0.  0.
        1    1    3    3  502    0  0.13284004436E+04  0.29364337472E+03  0.44434896662E+03  0.14311953655E+04  0.50400001928E-02 0.  1.
       -1    1    3    3    0  502 -0.13284004436E+04 -0.29364337472E+03 -0.16977582923E+03  0.13710207884E+04  0.50400001928E-02 0. -1.
</event>
<event>
 5   0  0.1814230E-05  0.2701150E+04  0.7818609E-02  0.8334632E-01
       -2   -1    0    0    0  501  0.00000000000E+00  0.00000000000E+00  0.92300790746E+03  0.92300790746E+03  0.25500000920E-02 0.  1.
        2   -1    0    0  501    0  0.00000000000E+00  0.00000000000E+00 -0.19762053849E+04  0.19762053849E+04  0.25500000920E-02 0. -1.
    10030    2    1    2    0    0  0.00000000000E+00  0.00000000000E+00 -0.10531974775E+04  0.28992132924E+04  0.27011502713E+04 0.  0.
        5    1    3    3  502    0  0.78500005457E+03 -0.52542847807E+03  0.50944163336E+03  0.10732441656E+04  0.46999998093E+01 0.  1.
       -5    1    3    3    0  502 -0.78500005457E+03  0.52542847807E+03 -0.15626391108E+04  0.18259691268E+04  0.46999998093E+01 0. -1.
</event>
<event>
 5   0  0.7613444E-06  0.2805458E+04  0.7818609E-02  0.8301576E-01
       -1   -1    0    0    0  501  0.00000000000E+00  0.00000000000E+00  0.90842729430E+03  0.90842729431E+03  0.50400001928E-02 0.  1.
        1   -1    0    0  501    0  0.00000000000E+00  0.00000000000E+00 -0.21659949299E+04  0.21659949299E+04  0.50400001928E-02 0. -1.
    10030    2    1    2    0    0  0.00000000000E+00  0.00000000000E+00 -0.12575676356E+04  0.30744222242E+04  0.28054581898E+04 0.  0.
        5    1    3    3  502    0  0.20451050080E+03  0.10494655769E+04  0.36624371364E+03  0.11302031188E+04  0.46999998093E+01 0.  1.
       -5    1    3    3    0  502 -0.20451050080E+03 -0.10494655769E+04 -0.16238113493E+04  0.19442191054E+04  0.46999998093E+01 0. -1.
</event>
<event>
 5   0  0.7509685E-06  0.2068198E+04  0.7818609E-02  0.8575383E-01
       -1   -1    0    0    0  501  0.00000000000E+00  0.00000000000E+00  0.73231709742E+03  0.73231709744E+03  0.50400001928E-02 0. -1.
        1   -1    0    0  501    0  0.00000000000E+00  0.00000000000E+00 -0.14602422399E+04  0.14602422399E+04  0.50400001928E-02 0.  1.
    10030    2    1    2    0    0  0.00000000000E+00  0.00000000000E+00 -0.72792514252E+03  0.21925593374E+04  0.20681976295E+04 0.  0.
        4    1    3    3  502    0  0.93447744075E+03  0.29916773471E+02  0.10443715192E+03  0.94077193422E+03  0.12699999809E+01 0. -1.
       -4    1    3    3    0  502 -0.93447744075E+03 -0.29916773471E+02 -0.83236229444E+03  0.12517874032E+04  0.12699999809E+01 0.  1.
</event>
<event>
 5   0  0.1814230E-05  0.2857461E+04  0.7818609E-02  0.8285648E-01
       -2   -1    0    0    0  501  0.00000000000E+00  0.00000000000E+00  0.87821944255E+03  0.87821944256E+03  0.25500000920E-02 0. -1.
        2   -1    0    0  501    0  0.00000000000E+00  0.00000000000E+00 -0.23243296319E+04  0.23243296319E+04  0.25500000920E-02 0.  1.
    10030    2    1    2    0    0  0.00000000000E+00  0.00000000000E+00 -0.14461101894E+04  0.32025490745E+04  0.28574614424E+04 0.  0.
        5    1    3    3  502    0  0.81518676962E+03  0.76204738813E+03  0.27688263548E+03  0.11497529191E+04  0.46999998093E+01 0. -1.
       -5    1    3    3    0  502 -0.81518676962E+03 -0.76204738813E+03 -0.17229928248E+04  0.20527961554E+04  0.46999998093E+01 0.  1.
</event>
<event>
 5   0  0.6288000E-06  0.2040332E+04  0.7818609E-02  0.8587993E-01
       -3   -1    0    0    0  501  0.00000000000E+00  0.00000000000E+00  0.10705535193E+04  0.10705535241E+04  0.10100000352E+00 0. -1.
        3   -1    0    0  501    0  0.00000000000E+00  0.00000000000E+00 -0.97215033660E+03  0.97215034185E+03  0.10100000352E+00 0.  1.
    10030    2    1    2    0    0  0.00000000000E+00  0.00000000000E+00  0.98403182718E+02  0.20427038659E+04  0.20403323008E+04 0.  0.
        3    1    3    3  502    0  0.92079623735E+02  0.95011947970E+03 -0.31112406757E+03  0.10039939633E+04  0.10100000352E+00 0.  1.
       -3    1    3    3    0  502 -0.92079623735E+02 -0.95011947970E+03  0.40952725029E+03  0.10387099026E+04  0.10100000352E+00 0. -1.
</event>
<event>
 5   0  0.1814230E-05  0.2736195E+04  0.7818609E-02  0.8323356E-01
        2   -1    0    0  501    0  0.00000000000E+00  0.00000000000E+00  0.15547880598E+04  0.15547880598E+04  0.25500000920E-02 0. -1.
       -2   -1    0    0    0  501  0.00000000000E+00  0.00000000000E+00 -0.12038237472E+04  0.12038237472E+04  0.25500000920E-02 0.  1.
    10030    2    1    2    0    0  0.00000000000E+00  0.00000000000E+00  0.35096431262E+03  0.27586118070E+04  0.27361950137E+04 0.  0.
        5    1    3    3  502    0  0.64344476254E+03 -0.91369514183E+03 -0.62016568183E+03  0.12780796288E+04  0.46999998093E+01 0.  1.
       -5    1    3    3    0  502 -0.64344476254E+03  0.91369514183E+03  0.97112999445E+03  0.14805321782E+04  0.46999998093E+01 0. -1.
</event>
<event>
 5   0  0.1923559E-05  0.2543487E+04  0.7818609E-02  0.8387655E-01
        2   -1    0    0  501    0  0.00000000000E+00  0.00000000000E+00  0.16923320541E+04  0.16923320541E+04  0.25500000920E-02 0. -1.
       -2   -1    0    0    0  501  0.00000000000E+00  0.00000000000E+00 -0.95568191208E+03  0.95568191209E+03  0.25500000920E-02 0.  1.
    10030    2    1    2    0    0  0.00000000000E+00  0.00000000000E+00  0.73665014204E+03  0.26480139662E+04  0.25434866883E+04 0.  0.
        4    1    3    3  502    0 -0.10353186769E+04 -0.73789061960E+03  0.40061904660E+03  0.13329908336E+04  0.12699999809E+01 0. -1.
       -4    1    3    3    0  502  0.10353186769E+04  0.73789061960E+03  0.33603109544E+03  0.13150231326E+04  0.12699999809E+01 0.  1.
</event>
<event>
 5   0  0.1904553E-05  0.2812653E+04  0.7818609E-02  0.8299351E-01
        2   -1    0    0  501    0  0.00000000000E+00  0.00000000000E+00  0.15375074749E+04  0.15375074749E+04  0.25500000920E-02 0. -1.
       -2   -1    0    0    0  501  0.00000000000E+00  0.00000000000E+00 -0.12863378041E+04  0.12863378041E+04  0.25500000920E-02 0.  1.
    10030    2    1    2    0    0  0.00000000000E+00  0.00000000000E+00  0.25116967071E+03  0.28238452790E+04  0.28126528325E+04 0.  0.
        1    1    3    3  502    0  0.83542945188E+03  0.97363285868E+03 -0.45277233074E+03  0.13604800976E+04  0.50400001928E-02 0.  1.
       -1    1    3    3    0  502 -0.83542945188E+03 -0.97363285868E+03  0.70394200145E+03  0.14633651814E+04  0.50400001928E-02 0. -1.
</event>
<event>
 5   0  0.1904553E-05  0.2764637E+04  0.7818609E-02  0.8314332E-01
        2   -1    0    0  501    0  0.00000000000E+00  0.00000000000E+00  0.11500325453E+04  0.11500325453E+04  0.25500000920E-02 0. -1.
       -2   -1    0    0    0  501  0.00000000000E+00  0.00000000000E+00 -0.16615222184E+04  0.16615222184E+04  0.25500000920E-02 0.  1.
    10030    2    1    2    0    0  0.00000000000E+00  0.00000000000E+00 -0.51148967310E+03  0.28115547637E+04  0.27646371378E+04 0.  0.
        1    1    3    3  502    0 -0.10848523363E+04  0.85534396336E+03 -0.30437622676E+03  0.14146246055E+04  0.50400001928E-02 0.  1.
       -1    1    3    3    0  502  0.10848523363E+04 -0.85534396336E+03 -0.20711344635E+03  0.13969301582E+04  0.50400001928E-02 0. -1.
</event>
<event>
 5   0  0.7681342E-06  0.2712390E+04  0.7818609E-02  0.8330996E-01
       -1   -1    0    0    0  501  0.00000000000E+00  0.00000000000E+00  0.11611379934E+04  0.11611379934E+04  0.50400001928E-02 0.  1.
        1   -1    0    0  501    0  0.00000000000E+00  0.00000000000E+00 -0.15840197654E+04  0.15840197654E+04  0.50400001928E-02 0. -1.
    10030    2    1    2    0    0  0.00000000000E+00  0.00000000000E+00 -0.42288177199E+03  0.27451577589E+04  0.27123904822E+04 0.  0.
        2    1    3    3  502    0 -0.33008271170E+03  0.81514989933E+03  0.83342710390E+03  0.12116206884E+04  0.25500000920E-02 0.  1.
       -2    1    3    3    0  502  0.33008271170E+03 -0.81514989933E+03 -0.12563088759E+04  0.15335370705E+04  0.25500000920E-02 0. -1.
</event>
<event>
 5   0  0.1904553E-05  0.2674687E+04  0.7818609E-02  0.8343265E-01
       -2   -1    0    0    0  501  0.00000000000E+00  0.00000000000E+00  0.10751304593E+04  0.10751304593E+04  0.25500000920E-02 0.  1.
        2   -1    0    0  501    0  0.00000000000E+00  0.00000000000E+00 -0.16635073111E+04  0.16635073111E+04  0.25500000920E-02 0. -1.
    10030    2    1    2    0    0  0.00000000000E+00  0.00000000000E+00 -0.58837685176E+03  0.27386377704E+04  0.26746868074E+04 0.  0.
        1    1    3    3  502    0  0.11357374807E+04  0.68092505668E+03 -0.48554951091E+03  0.14104314536E+04  0.50400001928E-02 0. -1.
       -1    1    3    3    0  502 -0.11357374807E+04 -0.68092505668E+03 -0.10282734086E+03  0.13282063168E+04  0.50400001928E-02 0.  1.
</event>
<event>
 5   0  0.7613444E-06  0.2755136E+04  0.7818609E-02  0.8317334E-01
       -1   -1    0    0    0  501  0.00000000000E+00  0.00000000000E+00  0.94752779775E+03  0.94752779776E+03  0.50400001928E-02 0. -1.
        1   -1    0    0  501    0  0.00000000000E+00  0.00000000000E+00 -0.20027843367E+04  0.20027843367E+04  0.50400001928E-02 0.  1.
    10030    2    1    2    0    0  0.00000000000E+00  0.00000000000E+00 -0.10552565389E+04  0.29503121344E+04  0.27551361722E+04 0.  0.
        5    1    3    3  502    0  0.76960969411E+03 -0.26769383132E+02  0.69550256573E+03  0.10376712341E+04  0.46999998093E+01 0. -1.
       -5    1    3    3    0  502 -0.76960969411E+03  0.26769383132E+02 -0.17507591046E+04  0.19126409003E+04  0.46999998093E+01 0.  1.
</event>
<event>
 5   0  0.7555871E-06  0.2726962E+04  0.7818609E-02  0.8326310E-01
        1   -1    0    0  501    0  0.00000000000E+00  0.00000000000E+00  0.16685721638E+04  0.16685721638E+04  0.50400001928E-02 0. -1.
       -1   -1    0    0    0  501  0.00000000000E+00  0.00000000000E+00 -0.11141741212E+04  0.11141741212E+04  0.50400001928E-02 0.  1.
    10030    2    1    2    0    0  0.00000000000E+00  0.00000000000E+00  0.55439804258E+03  0.27827462849E+04  0.27269616236E+04 0.  0.
        3    1    3    3  502    0 -0.47415342628E+03  0.35686162391E+03  0.15298728005E+04  0.16409395133E+04  0.10100000352E+00 0. -1.
       -3    1    3    3    0  502  0.47415342628E+03 -0.35686162391E+03 -0.97547475794E+03  0.11418067717E+04  0.10100000352E+00 0.  1.
</event>
<event>
 5   0  0.1923559E-05  0.2830613E+04  0.7818609E-02  0.8293827E-01
       -2   -1    0    0    0  501  0.00000000000E+00  0.00000000000E+00  0.10124508907E+04  0.10124508907E+04  0.25500000920E-02 0.  1.
        2   -1    0    0  501    0  0.00000000000E+00  0.00000000000E+00 -0.19784586933E+04  0.19784586933E+04  0.25500000920E-02 0. -1.
    10030    2    1    2    0    0  0.00000000000E+00  0.00000000000E+00 -0.96600780260E+03  0.29909095839E+04  0.28306128426E+04 0.  0.
        4    1    3    3  502    0  0.20010404162E+03 -0.13187513450E+04 -0.98302973839E+03  0.16569537763E+04  0.12699999809E+01 0. -1.
       -4    1    3    3    0  502 -0.20010404162E+03  0.13187513450E+04  0.17021935793E+02  0.13339558076E+04  0.12699999809E+01 0.  1.
</event>
<event>
 5   0  0.7388013E-06  0.2767829E+04  0.7818609E-02  0.8313326E-01
        1   -1    0    0  501    0  0.00000000000E+00  0.00000000000E+00  0.19463420871E+04  0.19463420871E+04  0.50400001928E-02 0.  1.
       -1   -1    0    0    0  501  0.00000000000E+00  0.00000000000E+00 -0.98400948354E+03  0.98400948355E+03  0.50400001928E-02 0. -1.
    10030    2    1    2    0    0  0.00000000000E+00  0.00000000000E+00  0.96233260354E+03  0.29303515706E+04  0.27678288039E+04 0.  0.
        1    1    3    3  502    0  0.75577629345E+02 -0.62134988391E+03 -0.82558203872E+03  0.10360373347E+04  0.50400001928E-02 0. -1.
       -1    1    3    3    0  502 -0.75577629345E+02  0.62134988391E+03  0.17879146423E+04  0.18943142359E+04  0.50400001928E-02 0.  1.
</event>
<event>
 5   0  0.1874272E-05  0.2278444E+04  0.7818609E-02  0.8486469E-01
        2   -1    0    0  501    0  0.00000000000E+00  0.00000000000E+00  0.19625291431E+04  0.19625291431E+04  0.25500000920E-02 0. -1.
       -2   -1    0    0    0  501  0.00000000000E+00  0.00000000000E+00 -0.66130309007E+03  0.66130309007E+03  0.25500000920E-02 0.  1.
    10030    2    1    2    0    0  0.00000000000E+00  0.00000000000E+00  0.13012260530E+04  0.26238322331E+04  0.22784438432E+04 0.  0.
        3    1    3    3  502    0 -0.87795946495E+03  0.26151019590E+02  0.14860751130E+04  0.17262433055E+04  0.10100000352E+00 0. -1.
       -3    1    3    3    0  502  0.87795946495E+03 -0.26151019590E+02 -0.18484906002E+03  0.89758892768E+03  0.10100000352E+00 0.  1.
</event>
<event>
 5   0  0.1874272E-05  0.2861672E+04  0.7818609E-02  0.8284373E-01
       -2   -1    0    0    0  501  0.00000000000E+00  0.00000000000E+00  0.14342568401E+04  0.14342568401E+04  0.25500000920E-02 0.  1.
        2   -1    0    0  501    0  0.00000000000E+00  0.00000000000E+00 -0.14274230410E+04  0.14274230410E+04  0.25500000920E-02 0. -1.
    10030    2    1    2    0    0  0.00000000000E+00  0.00000000000E+00  0.68337990703E+01  0.28616798811E+04  0.28616717214E+04 0.  0.
        3    1    3    3  502    0 -0.11688376539E+04  0.59365243903E+03 -0.56989666636E+03  0.14294708462E+04  0.10100000352E+00 0. -1.
       -3    1    3    3    0  502  0.11688376539E+04 -0.59365243903E+03  0.57673046543E+03  0.14322090349E+04  0.10100000352E+00 0.  1.
</event>
<event>
 5   0  0.1874272E-05  0.2758634E+04  0.7818609E-02  0.8316227E-01
       -2   -1    0    0    0  501  0.00000000000E+00  0.00000000000E+00  0.10173565099E+04  0.10173565099E+04  0.25500000920E-02 0.  1.
        2   -1    0    0  501    0  0.00000000000E+00  0.00000000000E+00 -0.18700582844E+04  0.18700582844E+04  0.25500000920E-02 0. -1.
    10030    2    1    2    0    0  0.00000000000E+00  0.00000000000E+00 -0.85270177447E+03  0.28874147943E+04  0.27586344227E+04 0.  0.
        3    1    3    3  502    0 -0.11468358187E+04  0.28843876251E+03  0.31678395148E+03  0.12242472777E+04  0.10100000352E+00 0. -1.
       -3    1    3    3    0  502  0.11468358187E+04 -0.28843876251E+03 -0.11694857260E+04  0.16631675166E+04  0.10100000352E+00 0.  1.
</event>
<event>
 5   0  0.7681342E-06  0.2757015E+04  0.7818609E-02  0.8316739E-01
       -1   -1    0    0    0  501  0.00000000000E+00  0.00000000000E+00  0.12522201280E+04  0.12522201280E+04  0.50400001928E-02 0.  1.
        1   -1    0    0  501    0  0.00000000000E+00  0.00000000000E+00 -0.15175314595E+04  0.15175314596E+04  0.50400001928E-02 0. -1.
    10030    2    1    2    0    0  0.00000000000E+00  0.00000000000E+00 -0.26531133155E+03  0.27697515876E+04  0.27570153707E+04 0.  0.
        2    1    3    3  502    0  0.56567987662E+03 -0.12541336567E+04 -0.46010580661E+02  0.13765761603E+04  0.25500000920E-02 0. -1.
       -2    1    3    3    0  502 -0.56567987662E+03  0.12541336567E+04 -0.21930075089E+03  0.13931754272E+04  0.25500000920E-02 0.  1.
</event>
<event>
 5   0  0.1814230E-05  0.2409893E+04  0.7818609E-02  0.8435809E-01
       -2   -1    0    0    0  501  0.00000000000E+00  0.00000000000E+00  0.83668632371E+03  0.83668632371E+03  0.25500000920E-02 0. -1.
        2   -1    0    0  501    0  0.00000000000E+00  0.00000000000E+00 -0.17352930200E+04  0.17352930200E+04  0.25500000920E-02 0.  1.
    10030    2    1    2    0    0  0.00000000000E+00  0.00000000000E+00 -0.89860669628E+03  0.25719793437E+04  0.24098928918E+04 0.  0.
        5    1    3    3  502    0  0.28466321828E+03 -0.31470344456E+03  0.75428940128E+03  0.86547443448E+03  0.46999998093E+01 0. -1.
       -5    1    3    3    0  502 -0.28466321828E+03  0.31470344456E+03 -0.16528960976E+04  0.17065049092E+04  0.46999998093E+01 0.  1.
</event>
<event>
 5   0  0.1814230E-05  0.2830885E+04  0.7818609E-02  0.8293743E-01
       -2   -1    0    0    0  501  0.00000000000E+00  0.00000000000E+00  0.73667167723E+03  0.73667167723E+03  0.25500000920E-02 0. -1.
        2   -1    0    0  501    0  0.00000000000E+00  0.00000000000E+00 -0.27196341870E+04  0.27196341870E+04  0.25500000920E-02 0.  1.
    10030    2    1    2    0    0  0.00000000000E+00  0.00000000000E+00 -0.19829625098E+04  0.34563058643E+04  0.28308850051E+04 0.  0.
        5    1    3    3  502    0 -0.53721325682E+03  0.21754699981E+03  0.58513807649E+03  0.82361000418E+03  0.46999998093E+01 0. -1.
       -5    1    3    3    0  502  0.53721325682E+03 -0.21754699981E+03 -0.25681005863E+04  0.26326958601E+04  0.46999998093E+01 0.  1.
</event>
<event>
 5   0  0.1923559E-05  0.1880437E+04  0.7818609E-02  0.8664656E-01
        2   -1    0    0  501    0  0.00000000000E+00  0.00000000000E+00  0.13223531477E+04  0.13223531477E+04  0.25500000920E-02 0. -1.
       -2   -1    0    0    0  501  0.00000000000E+00  0.00000000000E+00 -0.66851349777E+03  0.66851349778E+03  0.25500000920E-02 0.  1.
    10030    2    1    2    0    0  0.00000000000E+00  0.00000000000E+00  0.65383964993E+03  0.19908666455E+04  0.18804371067E+04 0.  0.
        4    1    3    3  502    0  0.39243236635E+03 -0.60745834425E+03 -0.30919756389E+03  0.78651989713E+03  0.12699999809E+01 0.  1.
       -4    1    3    3    0  502 -0.39243236635E+03  0.60745834425E+03  0.96303721382E+03  0.12043467484E+04  0.12699999809E+01 0. -1.
</event>
<event>
 5   0  0.1923559E-05  0.2790193E+04  0.7818609E-02  0.8306320E-01
       -2   -1    0    0    0  501  0.00000000000E+00  0.00000000000E+00  0.14024473273E+04  0.14024473273E+04  0.25500000920E-02 0.  1.
        2   -1    0    0  501    0  0.00000000000E+00  0.00000000000E+00 -0.13877840595E+04  0.13877840596E+04  0.25500000920E-02 0. -1.
    10030    2    1    2    0    0  0.00000000000E+00  0.00000000000E+00  0.14663267704E+02  0.27902313868E+04  0.27901928572E+04 0.  0.
        4    1    3    3  502    0  0.82197022474E+03 -0.90711010896E+03 -0.66186265758E+03  0.13915989331E+04  0.12699999809E+01 0. -1.
       -4    1    3    3    0  502 -0.82197022474E+03  0.90711010896E+03  0.67652592529E+03  0.13986324537E+04  0.12699999809E+01 0.  1.
</event>
<event>
 5   0  0.7509685E-06  0.2726351E+04  0.7818609E-02  0.8326505E-01
       -1   -1    0    0    0  501  0.00000000000E+00  0.00000000000E+00  0.11498053924E+04  0.11498053924E+04  0.50400001928E-02 0.  1.
        1   -1    0    0  501    0  0.00000000000E+00  0.00000000000E+00 -0.16161405995E+04  0.16161405995E+04  0.50400001928E-02 0. -1.
    10030    2    1    2    0    0  0.00000000000E+00  0.00000000000E+00 -0.46633520711E+03  0.27659459919E+04  0.27263508036E+04 0.  0.
        4    1    3    3  502    0  0.64161671575E+03  0.11099373747E+04 -0.70315860690E+03  0.14622129205E+04  0.12699999809E+01 0. -1.
       -4    1    3    3    0  502 -0.64161671575E+03 -0.11099373747E+04  0.23682339980E+03  0.13037330713E+04  0.12699999809E+01 0.  1.
</event>
<event>
 5   0  0.1874272E-05  0.2818284E+04  0.7818609E-02  0.8297614E-01
       -2   -1    0    0    0  501  0.00000000000E+00  0.00000000000E+00  0.12988358774E+04  0.12988358774E+04  0.25500000920E-02 0.  1.
        2   -1    0    0  501    0  0.00000000000E+00  0.00000000000E+00 -0.15288162089E+04  0.15288162089E+04  0.25500000920E-02 0. -1.
    10030    2    1    2    0    0  0.00000000000E+00  0.00000000000E+00 -0.22998033147E+03  0.28276520863E+04  0.28182841177E+04 0.  0.
        3    1    3    3  502    0 -0.19800462136E+03  0.76609001590E+03 -0.12848769560E+04  0.15089759921E+04  0.10100000352E+00 0. -1.
       -3    1    3    3    0  502  0.19800462136E+03 -0.76609001590E+03  0.10548966246E+04  0.13186760941E+04  0.10100000352E+00 0.  1.
</event>
<event>
 5   0  0.7509685E-06  0.2854055E+04  0.7818609E-02  0.8286680E-01
        1   -1    0    0  501    0  0.00000000000E+00  0.00000000000E+00  0.16868130756E+04  0.16868130756E+04  0.50400001928E-02 0. -1.
       -1   -1    0    0    0  501  0.00000000000E+00  0.00000000000E+00 -0.12072517263E+04  0.12072517263E+04  0.50400001928E-02 0.  1.
    10030    2    1    2    0    0  0.00000000000E+00  0.00000000000E+00  0.47956134929E+03  0.28940648019E+04  0.28540553586E+04 0.  0.
        4    1    3    3  502    0 -0.13534427252E+04 -0.10981350039E+03  0.68472588220E+03  0.15207620991E+04  0.12699999809E+01 0. -1.
       -4    1    3    3    0  502  0.13534427252E+04  0.10981350039E+03 -0.20516453291E+03  0.13733027029E+04  0.12699999809E+01 0.  1.
</event>
<event>
 5   0  0.1904553E-05  0.2242864E+04  0.7818609E-02  0.8500796E-01
       -2   -1    0    0    0  501  0.00000000000E+00  0.00000000000E+00  0.13245777884E+04  0.13245777884E+04  0.25500000920E-02 0.  1.
        2   -1    0    0  501    0  0.00000000000E+00  0.00000000000E+00 -0.94944188413E+03  0.94944188414E+03  0.25500000920E-02 0. -1.
    10030    2    1    2    0    0  0.00000000000E+00  0.00000000000E+00  0.37513590430E+03  0.22740196726E+04  0.22428639113E+04 0.  0.
        1    1    3    3  502    0  0.10193368141E+04  0.29715018651E+03 -0.17836646776E+03  0.10766431028E+04  0.50400001928E-02 0. -1.
       -1    1    3    3    0  502 -0.10193368141E+04 -0.29715018651E+03  0.55350237207E+03  0.11973765698E+04  0.50400001928E-02 0.  1.
</event>
<event>
 5   0  0.1832502E-05  0.2846357E+04  0.7818609E-02  0.8289019E-01
        2   -1    0    0  501    0  0.00000000000E+00  0.00000000000E+00  0.29060644786E+04  0.29060644786E+04  0.25500000920E-02 0.  1.
       -2   -1    0    0    0  501  0.00000000000E+00  0.00000000000E+00 -0.69696908657E+03  0.69696908658E+03  0.25500000920E-02 0. -1.
    10030    2    1    2    0    0  0.00000000000E+00  0.00000000000E+00  0.22090953921E+04  0.36030335652E+04  0.28463570438E+04 0.  0.
        2    1    3    3  502    0  0.82699276473E+03 -0.85371878536E+03  0.20953735038E+04  0.24090128513E+04  0.25500000920E-02 0.  1.
       -2    1    3    3    0  502 -0.82699276473E+03  0.85371878536E+03  0.11372188829E+03  0.11940207139E+04  0.25500000920E-02 0. -1.
</event>
<event>
 5   0  0.7388013E-06  0.2823701E+04  0.7818609E-02  0.8295948E-01
       -1   -1    0    0    0  501  0.00000000000E+00  0.00000000000E+00  0.10160452748E+04  0.10160452748E+04  0.50400001928E-02 0. -1.
        1   -1    0    0  501    0  0.00000000000E+00  0.00000000000E+00 -0.19618433473E+04  0.19618433473E+04  0.50400001928E-02 0.  1.
    10030    2    1    2    0    0  0.00000000000E+00  0.00000000000E+00 -0.94579807242E+03  0.29778886221E+04  0.28237008786E+04 0.  0.
        1    1    3    3  502    0 -0.59411615201E+03 -0.30623455499E+03 -0.17844171091E+04  0.19054915439E+04  0.50400001928E-02 0.  1.
       -1    1    3    3    0  502  0.59411615201E+03  0.30623455499E+03  0.83861903663E+03  0.10723970782E+04  0.50400001928E-02 0. -1.
</event>
<event>
 5   0  0.7681342E-06  0.2784033E+04  0.7818609E-02  0.8308243E-01
        1   -1    0    0  501    0  0.00000000000E+00  0.00000000000E+00  0.58177239445E+03  0.58177239448E+03  0.50400001928E-02 0.  1.
       -1   -1    0    0    0  501  0.00000000000E+00  0.00000000000E+00 -0.33307003629E+04  0.33307003629E+04  0.50400001928E-02 0. -1.
    10030    2    1    2    0    0  0.00000000000E+00  0.00000000000E+00 -0.27489279685E+04  0.39124727574E+04  0.27840327048E+04 0.  0.
        2    1    3    3  502    0 -0.32834723619E+03  0.72280609066E+03 -0.29813658980E+04  0.30852557706E+04  0.25500000920E-02 0. -1.
       -2    1    3    3    0  502  0.32834723619E+03 -0.72280609066E+03  0.23243792952E+03  0.82721698682E+03  0.25500000920E-02 0.  1.
</event>
<event>
 5   0  0.1923559E-05  0.2882689E+04  0.7818609E-02  0.8278047E-01
        2   -1    0    0  501    0  0.00000000000E+00  0.00000000000E+00  0.15852775704E+04  0.15852775704E+04  0.25500000920E-02 0. -1.
       -2   -1    0    0    0  501  0.00000000000E+00  0.00000000000E+00 -0.13104795157E+04  0.13104795157E+04  0.25500000920E-02 0.  1.
    10030    2    1    2    0    0  0.00000000000E+00  0.00000000000E+00  0.27479805468E+03  0.28957570861E+04  0.28826888717E+04 0.  0.
        4    1    3    3  502    0 -0.54535791060E+03  0.88955455828E+03 -0.86146763399E+03  0.13530893024E+04  0.12699999809E+01 0.  1.
       -4    1    3    3    0  502  0.54535791060E+03 -0.88955455828E+03  0.11362656887E+04  0.15426677837E+04  0.12699999809E+01 0. -1.
</event>
<event>
 5   0  0.1923559E-05  0.2635877E+04  0.7818609E-02  0.8356116E-01
        2   -1    0    0  501    0  0.00000000000E+00  0.00000000000E+00  0.11077307882E+04  0.11077307882E+04  0.25500000920E-02 0. -1.
       -2   -1    0    0    0  501  0.00000000000E+00  0.00000000000E+00 -0.15680364347E+04  0.15680364347E+04  0.25500000920E-02 0.  1.
    10030    2    1    2    0    0  0.00000000000E+00  0.00000000000E+00 -0.46030564645E+03  0.26757672229E+04  0.26358772625E+04 0.  0.
        4    1    3    3  502    0  0.44185141982E+03 -0.10050968275E+04 -0.97023198560E+03  0.14651976073E+04  0.12699999809E+01 0.  1.
       -4    1    3    3    0  502 -0.44185141982E+03  0.10050968275E+04  0.50992633914E+03  0.12105696155E+04  0.12699999809E+01 0. -1.
</event>
<event>
 5   0  0.7509685E-06  0.2735252E+04  0.7818609E-02  0.8323657E-01
        1   -1    0    0  501    0  0.00000000000E+00  0.00000000000E+00  0.11542069433E+04  0.11542069433E+04  0.50400001928E-02 0.  1.
       -1   -1    0    0    0  501  0.00000000000E+00  0.00000000000E+00 -0.16205079515E+04  0.16205079515E+04  0.50400001928E-02 0. -1.
    10030    2    1    2    0    0  0.00000000000E+00  0.00000000000E+00 -0.46630100823E+03  0.27747148948E+04  0.27352524778E+04 0.  0.
        4    1    3    3  502    0  0.12696197388E+04  0.48554905561E+03 -0.38601548139E+03  0.14130469671E+04  0.12699999809E+01 0. -1.
       -4    1    3    3    0  502 -0.12696197388E+04 -0.48554905561E+03 -0.80285526835E+02  0.13616679277E+04  0.12699999809E+01 0.  1.
</event>
<event>
 5   0  0.7681342E-06  0.2390556E+04  0.7818609E-02  0.8443048E-01
       -1   -1    0    0    0  501  0.00000000000E+00  0.00000000000E+00  0.71734540810E+03  0.71734540812E+03  0.50400001928E-02 0.  1.
        1   -1    0    0  501    0  0.00000000000E+00  0.00000000000E+00 -0.19916335106E+04  0.19916335106E+04  0.50400001928E-02 0. -1.
    10030    2    1    2    0    0  0.00000000000E+00  0.00000000000E+00 -0.12742881025E+04  0.27089789187E+04  0.23905557124E+04 0.  0.
        2    1    3    3  502    0  0.16587892128E+03 -0.87153398366E+03  0.27055014883E+03  0.92751532830E+03  0.25500000920E-02 0.  1.
       -2    1    3    3    0  502 -0.16587892128E+03  0.87153398366E+03 -0.15448382513E+04  0.17814635904E+04  0.25500000920E-02 0. -1.
</event>
<event>
 5   0  0.1814230E-05  0.2859682E+04  0.7818609E-02  0.8284975E-01
        2   -1    0    0  501    0  0.00000000000E+00  0.00000000000E+00  0.15401921423E+04  0.15401921423E+04  0.25500000920E-02 0.  1.
       -2   -1    0    0    0  501  0.00000000000E+00  0.00000000000E+00 -0.13273961735E+04  0.13273961735E+04  0.25500000920E-02 0. -1.
    10030    2    1    2    0    0  0.00000000000E+00  0.00000000000E+00  0.21279596879E+03  0.28675883158E+04  0.28596819097E+04 0.  0.
        5    1    3    3  502    0  0.58132400006E+03 -0.48087684353E+03 -0.11115559026E+04  0.13434130959E+04  0.46999998093E+01 0. -1.
       -5    1    3    3    0  502 -0.58132400006E+03  0.48087684353E+03  0.13243518714E+04  0.15241752199E+04  0.46999998093E+01 0.  1.
</event>
<event>
 5   0  0.1814230E-05  0.2883704E+04  0.7818609E-02  0.8277743E-01
        2   -1    0    0  501    0  0.00000000000E+00  0.00000000000E+00  0.19240982366E+04  0.19240982366E+04  0.25500000920E-02 0.  1.
       -2   -1    0    0    0  501  0.00000000000E+00  0.00000000000E+00 -0.10804733517E+04  0.10804733517E+04  0.25500000920E-02 0. -1.
    10030    2    1    2    0    0  0.00000000000E+00  0.00000000000E+00  0.84362488485E+03  0.30045715883E+04  0.28837037786E+04 0.  0.
        5    1    3    3  502    0  0.60516182881E+03 -0.25000278690E+03 -0.91662852283E+03  0.11264777722E+04  0.46999998093E+01 0. -1.
       -5    1    3    3    0  502 -0.60516182881E+03  0.25000278690E+03  0.17602534077E+04  0.18780938160E+04  0.46999998093E+01 0.  1.
</event>
<event>
 5   0  0.7613444E-06  0.1881620E+04  0.7818609E-02  0.8664060E-01
       -1   -1    0    0    0  501  0.00000000000E+00  0.00000000000E+00  0.13302028477E+04  0.13302028477E+04  0.50400001928E-02 0. -1.
        1   -1    0    0  501    0  0.00000000000E+00  0.00000000000E+00 -0.66540513221E+03  0.66540513223E+03  0.50400001928E-02 0.  1.
    10030    2    1    2    0    0  0.00000000000E+00  0.00000000000E+00  0.66479771552E+03  0.19956079800E+04  0.18816203674E+04 0.  0.
        5    1    3    3  502    0 -0.66205069524E+02 -0.93624899187E+03  0.40077478694E+03  0.10205820917E+04  0.46999998093E+01 0.  1.
       -5    1    3    3    0  502  0.66205069524E+02  0.93624899187E+03  0.26402292858E+03  0.97502588828E+03  0.46999998093E+01 0. -1.
</event>
<event>
 5   0  0.1832502E-05  0.2727393E+04  0.7818609E-02  0.8326171E-01
       -2   -1    0    0    0  501  0.00000000000E+00  0.00000000000E+00  0.14669285612E+04  0.14669285612E+04  0.25500000920E-02 0. -1.
        2   -1    0    0  501    0  0.00000000000E+00  0.00000000000E+00 -0.12677294888E+04  0.12677294888E+04  0.25500000920E-02 0.  1.
    10030    2    1    2    0    0  0.00000000000E+00  0.00000000000E+00  0.19919907244E+03  0.27346580500E+04  0.27273933306E+04 0.  0.
        2    1    3    3  502    0  0.64911334515E+02 -0.35223484709E+03 -0.12197266145E+04  0.12712261336E+04  0.25500000920E-02 0.  1.
       -2    1    3    3    0  502 -0.64911334515E+02  0.35223484709E+03  0.14189256869E+04  0.14634319164E+04  0.25500000920E-02 0. -1.
</event>
<event>
 5   0  0.7509685E-06  0.2859500E+04  0.7818609E-02  0.8285030E-01
       -1   -1    0    0    0  501  0.00000000000E+00  0.00000000000E+00  0.27057655750E+04  0.27057655750E+04  0.50400001928E-02 0.  1.
        1   -1    0    0  501    0  0.00000000000E+00  0.00000000000E+00 -0.75549244060E+03  0.75549244062E+03  0.50400001928E-02 0. -1.
    10030    2    1    2    0    0  0.00000000000E+00  0.00000000000E+00  0.19502731344E+04  0.34612580156E+04  0.28595002626E+04 0.  0.
        4    1    3    3  502    0 -0.90895398388E+03 -0.31401465287E+03 -0.30552050808E+03  0.10090326758E+04  0.12699999809E+01 0. -1.
       -4    1    3    3    0  502  0.90895398388E+03  0.31401465287E+03  0.22557936424E+04  0.24522253398E+04  0.12699999809E+01 0.  1.
</event>
<event>
 5   0  0.1874272E-05  0.2773034E+04  0.7818609E-02  0.8311690E-01
        2   -1    0    0  501    0  0.00000000000E+00  0.00000000000E+00  0.21042071475E+04  0.21042071475E+04  0.25500000920E-02 0.  1.
       -2   -1    0    0    0  501  0.00000000000E+00  0.00000000000E+00 -0.91361195471E+03  0.91361195471E+03  0.25500000920E-02 0. -1.
    10030    2    1    2    0    0  0.00000000000E+00  0.00000000000E+00  0.11905951928E+04  0.30178191022E+04  0.27730335773E+04 0.  0.
        3    1    3    3  502    0 -0.85225071991E+03  0.10936535244E+04  0.60010007224E+03  0.15108042322E+04  0.10100000352E+00 0.  1.
       -3    1    3    3    0  502  0.85225071991E+03 -0.10936535244E+04  0.59049512057E+03  0.15070148701E+04  0.10100000352E+00 0. -1.
</event>
<event>
 5   0  0.6288000E-06  0.2366790E+04  0.7818609E-02  0.8452042E-01
       -4   -1    0    0    0  501  0.00000000000E+00  0.00000000000E+00  0.17962968855E+04  0.17962973345E+04  0.12699999809E+01 0.  1.
        4   -1    0    0  501    0  0.00000000000E+00  0.00000000000E+00 -0.77961612592E+03  0.77961716034E+03  0.12699999809E+01 0. -1.
    10030    2    1    2    0    0  0.00000000000E+00  0.00000000000E+00  0.10166807596E+04  0.25759144948E+04  0.23667901719E+04 0.  0.
        2    1    3    3  502    0  0.74422253066E+02 -0.11290977259E+04  0.13128514094E+03  0.11391383299E+04  0.25500000920E-02 0. -1.
       -2    1    3    3    0  502 -0.74422253066E+02  0.11290977259E+04  0.88539561866E+03  0.14367761649E+04  0.25500000920E-02 0.  1.
</event>
<event>
 5   0  0.1832502E-05  0.3024772E+04  0.7818609E-02  0.8236692E-01
       -2   -1    0    0    0  501  0.00000000000E+00  0.00000000000E+00  0.10659872829E+04  0.10659872829E+04  0.25500000920E-02 0. -1.
        2   -1    0    0  501    0  0.00000000000E+00  0.00000000000E+00 -0.21457217061E+04  0.21457217061E+04  0.25500000920E-02 0.  1.
    10030    2    1    2    0    0  0.00000000000E+00  0.00000000000E+00 -0.10797344232E+04  0.32117089890E+04  0.30247724221E+04 0.  0.
        2    1    3    3  502    0  0.61770056525E+03 -0.12458006884E+04 -0.11713838176E+04  0.18181620917E+04  0.25500000920E-02 0.  1.
       -2    1    3    3    0  502 -0.61770056525E+03  0.12458006884E+04  0.91649394429E+02  0.13935468973E+04  0.25500000920E-02 0. -1.
</event>
<event>
 5   0  0.7555871E-06  0.2845533E+04  0.7818609E-02  0.8289270E-01
       -1   -1    0    0    0  501  0.00000000000E+00  0.00000000000E+00  0.12044176033E+04  0.12044176033E+04  0.50400001928E-02 0.  1.
        1   -1    0    0  501    0  0.00000000000E+00  0.00000000000E+00 -0.16807001940E+04  0.16807001940E+04  0.50400001928E-02 0. -1.
    10030    2    1    2    0    0  0.00000000000E+00  0.00000000000E+00 -0.47628259076E+03  0.28851177973E+04  0.28455332713E+04 0.  0.
        3    1    3    3  502    0 -0.80077930529E+03 -0.46241249451E+03 -0.13344751215E+04  0.16235444777E+04  0.10100000352E+00 0. -1.
       -3    1    3    3    0  502  0.80077930529E+03  0.46241249451E+03  0.85819253075E+03  0.12615733197E+04  0.10100000352E+00 0.  1.
</event>
<event>
 5   0  0.1832502E-05  0.2662334E+04  0.7818609E-02  0.8347331E-01
       -2   -1    0    0    0  501  0.00000000000E+00  0.00000000000E+00  0.15831359954E+04  0.15831359954E+04  0.25500000920E-02 0. -1.
        2   -1    0    0  501    0  0.00000000000E+00  0.00000000000E+00 -0.11193008588E+04  0.11193008588E+04  0.25500000920E-02 0.  1.
    10030    2    1    2    0    0  0.00000000000E+00  0.00000000000E+00  0.46383513659E+03  0.27024368542E+04  0.26623339229E+04 0.  0.
        2    1    3    3  502    0 -0.51322033527E+03  0.12141360397E+04  0.42041356204E+03  0.13835711035E+04  0.25500000920E-02 0.  1.
       -2    1    3    3    0  502  0.51322033527E+03 -0.12141360397E+04  0.43421574550E+02  0.13188657507E+04  0.25500000920E-02 0. -1.
</event>
<event>
 5   0  0.7613444E-06  0.2643272E+04  0.7818609E-02  0.8353650E-01
       -1   -1    0    0    0  501  0.00000000000E+00  0.00000000000E+00  0.81990719624E+03  0.81990719626E+03  0.50400001928E-02 0.  1.
        1   -1    0    0  501    0  0.00000000000E+00  0.00000000000E+00 -0.21303891490E+04  0.21303891490E+04  0.50400001928E-02 0. -1.
    10030    2    1    2    0    0  0.00000000000E+00  0.00000000000E+00 -0.13104819527E+04  0.29502963452E+04  0.26432717560E+04 0.  0.
        5    1    3    3  502    0  0.52078206185E+03 -0.12143895046E+04 -0.68567491845E+03  0.14886665203E+04  0.46999998093E+01 0. -1.
       -5    1    3    3    0  502 -0.52078206185E+03  0.12143895046E+04 -0.62480703427E+03  0.14616298249E+04  0.46999998093E+01 0.  1.
</event>
<event>
 5   0  0.7509685E-06  0.2796343E+04  0.7818609E-02  0.8304405E-01
       -1   -1    0    0    0  501  0.00000000000E+00  0.00000000000E+00  0.22372576553E+04  0.22372576553E+04  0.50400001928E-02 0.  1.
        1   -1    0    0  501    0  0.00000000000E+00  0.00000000000E+00 -0.87378570985E+03  0.87378570987E+03  0.50400001928E-02 0. -1.
    10030    2    1    2    0    0  0.00000000000E+00  0.00000000000E+00  0.13634719455E+04  0.31110433652E+04  0.27963431610E+04 0.  0.
        4    1    3    3  502    0  0.13944748239E+04 -0.99127543961E+02  0.65696224928E+03  0.15446641429E+04  0.12699999809E+01 0.  1.
       -4    1    3    3    0  502 -0.13944748239E+04  0.99127543961E+02  0.70650969618E+03  0.15663792223E+04  0.12699999809E+01 0. -1.
</event>
<event>
 5   0  0.1874272E-05  0.2819008E+04  0.7818609E-02  0.8297391E-01
        2   -1    0    0  501    0  0.00000000000E+00  0.00000000000E+00  0.16291995407E+04  0.16291995407E+04  0.25500000920E-02 0. -1.
       -2   -1    0    0    0  501  0.00000000000E+00  0.00000000000E+00 -0.12194339308E+04  0.12194339308E+04  0.25500000920E-02 0.  1.
    10030    2    1    2    0    0  0.00000000000E+00  0.00000000000E+00  0.40976560991E+03  0.28486334715E+04  0.28190077687E+04 0.  0.
        3    1    3    3  502    0  0.37209100071E+03  0.46579260944E+03  0.14955237858E+04  0.16099707674E+04  0.10100000352E+00 0. -1.
       -3    1    3    3    0  502 -0.37209100071E+03 -0.46579260944E+03 -0.10857581759E+04  0.12386627041E+04  0.10100000352E+00 0.  1.
</event>
<event>
 5   0  0.7555871E-06  0.2790189E+04  0.7818609E-02  0.8306321E-01
       -1   -1    0    0    0  501  0.00000000000E+00  0.00000000000E+00  0.11394783777E+04  0.11394783777E+04  0.50400001928E-02 0. -1.
        1   -1    0    0  501    0  0.00000000000E+00  0.00000000000E+00 -0.17080519950E+04  0.17080519950E+04  0.50400001928E-02 0.  1.
    10030    2    1    2    0    0  0.00000000000E+00  0.00000000000E+00 -0.56857361730E+03  0.28475303727E+04  0.27901887508E+04 0.  0.
        3    1    3    3  502    0 -0.24972968351E+03 -0.44762482824E+03 -0.16084712729E+04  0.16881684595E+04  0.10100000352E+00 0.  1.
       -3    1    3    3    0  502  0.24972968351E+03  0.44762482824E+03  0.10398976556E+04  0.11593619133E+04  0.10100000352E+00 0. -1.
</event>
<event>
 5   0  0.7681342E-06  0.2793421E+04  0.7818609E-02  0.8305314E-01
       -1   -1    0    0    0  501  0.00000000000E+00  0.00000000000E+00  0.84812392747E+03  0.84812392748E+03  0.50400001928E-02 0. -1.
        1   -1    0    0  501    0  0.00000000000E+00  0.00000000000E+00 -0.23001355142E+04  0.23001355142E+04  0.50400001928E-02 0.  1.
    10030    2    1    2    0    0  0.00000000000E+00  0.00000000000E+00 -0.14520115867E+04  0.31482594417E+04  0.27934208176E+04 0.  0.
        2    1    3    3  502    0 -0.64590822526E+03 -0.83789449672E+03 -0.17537250772E+04  0.20481250620E+04  0.25500000920E-02 0.  1.
       -2    1    3    3    0  502  0.64590822526E+03  0.83789449672E+03  0.30171349047E+03  0.11001343797E+04  0.25500000920E-02 0. -1.
</event>
<event>
 5   0  0.7681342E-06  0.2804855E+04  0.7818609E-02  0.8301763E-01
        1   -1    0    0  501    0  0.00000000000E+00  0.00000000000E+00  0.14142650990E+04  0.14142650990E+04  0.50400001928E-02 0.  1.
       -1   -1    0    0    0  501  0.00000000000E+00  0.00000000000E+00 -0.13906890190E+04  0.13906890190E+04  0.50400001928E-02 0. -1.
    10030    2    1    2    0    0  0.00000000000E+00  0.00000000000E+00  0.23576080030E+02  0.28049541180E+04  0.28048550360E+04 0.  0.
        2    1    3    3  502    0  0.80413879583E+03 -0.66267685460E+03 -0.92687343909E+03  0.13945874618E+04  0.25500000920E-02 0. -1.
       -2    1    3    3    0  502 -0.80413879583E+03  0.66267685460E+03  0.95044951912E+03  0.14103666562E+04  0.25500000920E-02 0.  1.
</event>
<event>
 5   0  0.1923559E-05  0.2752608E+04  0.7818609E-02  0.8318134E-01
        2   -1    0    0  501    0  0.00000000000E+00  0.00000000000E+00  0.13146797504E+04  0.13146797504E+04  0.25500000920E-02 0.  1.
       -2   -1    0    0    0  501  0.00000000000E+00  0.00000000000E+00 -0.14408170532E+04  0.14408170532E+04  0.25500000920E-02 0. -1.
    10030    2    1    2    0    0  0.00000000000E+00  0.00000000000E+00 -0.12613730279E+03  0.27554968036E+04  0.27526082205E+04 0.  0.
        4    1    3    3  502    0  0.26799046543E+03  0.10754122168E+04 -0.87994033530E+03  0.14151420184E+04  0.12699999809E+01 0. -1.
       -4    1    3    3    0  502 -0.26799046543E+03 -0.10754122168E+04  0.75380303251E+03  0.13403547852E+04  0.12699999809E+01 0.  1.
</event>
<event>
 5   0  0.7388013E-06  0.2789964E+04  0.7818609E-02  0.8306391E-01
       -1   -1    0    0    0  501  0.00000000000E+00  0.00000000000E+00  0.26189211182E+04  0.26189211182E+04  0.50400001928E-02 0. -1.
        1   -1    0    0  501    0  0.00000000000E+00  0.00000000000E+00 -0.74304450519E+03  0.74304450521E+03  0.50400001928E-02 0.  1.
    10030    2    1    2    0    0  0.00000000000E+00  0.00000000000E+00  0.18758766130E+04  0.33619656234E+04  0.27899641191E+04 0.  0.
        1    1    3    3  502    0 -0.71279865590E+03  0.97575856301E+03  0.17778200733E+04  0.21496118046E+04  0.50400001928E-02 0.  1.
       -1    1    3    3    0  502  0.71279865590E+03 -0.97575856301E+03  0.98056539698E+02  0.12123538189E+04  0.50400001928E-02 0. -1.
</event>
<event>
 5   0  0.7388013E-06  0.2696753E+04  0.7818609E-02  0.8336059E-01
        1   -1    0    0  501    0  0.00000000000E+00  0.00000000000E+00  0.27746207218E+04  0.27746207219E+04  0.50400001928E-02 0. -1.
       -1   -1    0    0    0  501  0.00000000000E+00  0.00000000000E+00 -0.65526743168E+03  0.65526743170E+03  0.50400001928E-02 0.  1.
    10030    2    1    2    0    0  0.00000000000E+00  0.00000000000E+00  0.21193532902E+04  0.34298881536E+04  0.26967525614E+04 0.  0.
        1    1    3    3  502    0 -0.25479578497E+03 -0.55441306678E+03 -0.46963695645E+03  0.76996987704E+03  0.50400001928E-02 0.  1.
       -1    1    3    3    0  502  0.25479578497E+03  0.55441306678E+03  0.25889902466E+04  0.26599182765E+04  0.50400001928E-02 0. -1.
</event>
<event>
 5   0  0.1814230E-05  0.2805275E+04  0.7818609E-02  0.8301633E-01
        2   -1    0    0  501    0  0.00000000000E+00  0.00000000000E+00  0.21289051316E+04  0.21289051316E+04  0.25500000920E-02 0. -1.
       -2   -1    0    0    0  501  0.00000000000E+00  0.00000000000E+00 -0.92413333899E+03  0.92413333899E+03  0.25500000920E-02 0.  1.
    10030    2    1    2    0    0  0.00000000000E+00  0.00000000000E+00  0.12047717926E+04  0.30530384706E+04  0.28052751791E+04 0.  0.
        5    1    3    3  502    0  0.29696378179E+03  0.64009082361E+03 -0.71689305342E+03  0.10059132618E+04  0.46999998093E+01 0.  1.
       -5    1    3    3    0  502 -0.29696378179E+03 -0.64009082361E+03  0.19216648460E+04  0.20471252088E+04  0.46999998093E+01 0. -1.
</event>
<event>
 5   0  0.1904553E-05  0.2791908E+04  0.7818609E-02  0.8305785E-01
       -2   -1    0    0    0  501  0.00000000000E+00  0.00000000000E+00  0.11710981590E+04  0.11710981590E+04  0.25500000920E-02 0.  1.
        2   -1    0    0  501    0  0.00000000000E+00  0.00000000000E+00 -0.16639829866E+04  0.16639829866E+04  0.25500000920E-02 0. -1.
    10030    2    1    2    0    0  0.00000000000E+00  0.00000000000E+00 -0.49288482757E+03  0.28350811457E+04  0.27919078869E+04 0.  0.
        1    1    3    3  502    0  0.95761235184E+03 -0.89398553335E+01  0.78493387722E+03  0.12382336327E+04  0.50400001928E-02 0.  1.
       -1    1    3    3    0  502 -0.95761235184E+03  0.89398553335E+01 -0.12778187048E+04  0.15968475130E+04  0.50400001928E-02 0. -1.
</event>
<event>
 5   0  0.1904553E-05  0.2795499E+04  0.7818609E-02  0.8304667E-01
        2   -1    0    0  501    0  0.00000000000E+00  0.00000000000E+00  0.18756424090E+04  0.18756424090E+04  0.25500000920E-02 0.  1.
       -2   -1    0    0    0  501  0.00000000000E+00  0.00000000000E+00 -0.10416184355E+04  0.10416184355E+04  0.25500000920E-02 0. -1.
    10030    2    1    2    0    0  0.00000000000E+00  0.00000000000E+00  0.83402397350E+03  0.29172608444E+04  0.27954990335E+04 0.  0.
        1    1    3    3  502    0 -0.71669244885E+03  0.47734959923E+03 -0.73193979603E+03  0.11301533397E+04  0.50400001928E-02 0. -1.
       -1    1    3    3    0  502  0.71669244885E+03 -0.47734959923E+03  0.15659637695E+04  0.17871075048E+04  0.50400001928E-02 0.  1.
</event>
<event>
 5   0  0.7555871E-06  0.2805327E+04  0.7818609E-02  0.8301616E-01
        1   -1    0    0  501    0  0.00000000000E+00  0.00000000000E+00  0.19785901707E+04  0.19785901708E+04  0.50400001928E-02 0.  1.
       -1   -1    0    0    0  501  0.00000000000E+00  0.00000000000E+00 -0.99437733585E+03  0.99437733587E+03  0.50400001928E-02 0. -1.
    10030    2    1    2    0    0  0.00000000000E+00  0.00000000000E+00  0.98421283489E+03  0.29729675066E+04  0.28053272342E+04 0.  0.
        3    1    3    3  502    0  0.21393211540E+03 -0.41230947283E+03 -0.91050185398E+03  0.10221446511E+04  0.10100000352E+00 0. -1.
       -3    1    3    3    0  502 -0.21393211540E+03  0.41230947283E+03  0.18947146889E+04  0.19508228556E+04  0.10100000352E+00 0.  1.
</event>
<event>
 5   0  0.1814230E-05  0.2907528E+04  0.7818609E-02  0.8270641E-01
        2   -1    0    0  501    0  0.00000000000E+00  0.00000000000E+00  0.11097201458E+04  0.11097201458E+04  0.25500000920E-02 0.  1.
       -2   -1    0    0    0  501  0.00000000000E+00  0.00000000000E+00 -0.19044706637E+04  0.19044706637E+04  0.25500000920E-02 0. -1.
    10030    2    1    2    0    0  0.00000000000E+00  0.00000000000E+00 -0.79475051783E+03  0.30141908095E+04  0.29075277901E+04 0.  0.
        5    1    3    3  502    0 -0.40440106401E+02  0.14501259867E+04 -0.29953836150E+03  0.14812987881E+04  0.46999998093E+01 0. -1.
       -5    1    3    3    0  502  0.40440106401E+02 -0.14501259867E+04 -0.49521215633E+03  0.15328920214E+04  0.46999998093E+01 0.  1.
</event>
<event>
 5   0  0.1832502E-05  0.2759530E+04  0.7818609E-02  0.8315944E-01
        2   -1    0    0  501    0  0.00000000000E+00  0.00000000000E+00  0.15498790581E+04  0.15498790581E+04  0.25500000920E-02 0.  1.
       -2   -1    0    0    0  501  0.00000000000E+00  0.00000000000E+00 -0.12283224249E+04  0.12283224249E+04  0.25500000920E-02 0. -1.
    10030    2    1    2    0    0  0.00000000000E+00  0.00000000000E+00  0.32155663322E+03  0.27782014830E+04  0.27595298171E+04 0.  0.
        2    1    3    3  502    0 -0.10185383506E+04 -0.40224368224E+03  0.10058210188E+04  0.14869082936E+04  0.25500000920E-02 0.  1.
       -2    1    3    3    0  502  0.10185383506E+04  0.40224368224E+03 -0.68426438559E+03  0.12912931894E+04  0.25500000920E-02 0. -1.
</event>
<event>
 5   0  0.7613444E-06  0.2800996E+04  0.7818609E-02  0.8302959E-01
       -1   -1    0    0    0  501  0.00000000000E+00  0.00000000000E+00  0.19096570872E+04  0.19096570872E+04  0.50400001928E-02 0. -1.
        1   -1    0    0  501    0  0.00000000000E+00  0.00000000000E+00 -0.10270923113E+04  0.10270923114E+04  0.50400001928E-02 0.  1.
    10030    2    1    2    0    0  0.00000000000E+00  0.00000000000E+00  0.88256477581E+03  0.29367493985E+04  0.28009956170E+04 0.  0.
        5    1    3    3  502    0  0.12791322618E+04 -0.54726422418E+03  0.60934648440E+03  0.15188820567E+04  0.46999998093E+01 0.  1.
       -5    1    3    3    0  502 -0.12791322618E+04  0.54726422418E+03  0.27321829141E+03  0.14178673418E+04  0.46999998093E+01 0. -1.
</event>
<event>
 5   0  0.1904553E-05  0.2778563E+04  0.7818609E-02  0.8309955E-01
       -2   -1    0    0    0  501  0.00000000000E+00  0.00000000000E+00  0.17033234437E+04  0.17033234437E+04  0.25500000920E-02 0. -1.
        2   -1    0    0  501    0  0.00000000000E+00  0.00000000000E+00 -0.11331392471E+04  0.11331392471E+04  0.25500000920E-02 0.  1.
    10030    2    1    2    0    0  0.00000000000E+00  0.00000000000E+00  0.57018419661E+03  0.28364626908E+04  0.27785626820E+04 0.  0.
        1    1    3    3  502    0 -0.10809574258E+04 -0.74487374764E+03 -0.17913316529E+03  0.13249130339E+04  0.50400001928E-02 0.  1.
       -1    1    3    3    0  502  0.10809574258E+04  0.74487374764E+03  0.74931736190E+03  0.15115496569E+04  0.50400001928E-02 0. -1.
</event>
<event>
 5   0  0.1923559E-05  0.2256234E+04  0.7818609E-02  0.8495380E-01
        2   -1    0    0  501    0  0.00000000000E+00  0.00000000000E+00  0.13315591304E+04  0.13315591304E+04  0.25500000920E-02 0. -1.
       -2   -1    0    0    0  501  0.00000000000E+00  0.00000000000E+00 -0.95575769163E+03  0.95575769163E+03  0.25500000920E-02 0.  1.
    10030    2    1    2    0    0  0.00000000000E+00  0.00000000000E+00  0.37580143878E+03  0.22873168220E+04  0.22562339247E+04 0.  0.
        4    1    3    3  502    0 -0.45046634807E+03  0.32387860510E+03  0.11836898242E+04  0.13072645082E+04  0.12699999809E+01 0. -1.
       -4    1    3    3    0  502  0.45046634807E+03 -0.32387860510E+03 -0.80788838544E+03  0.98005231382E+03  0.12699999809E+01 0.  1.
</event>
<event>
 5   0  0.1904553E-05  0.2918445E+04  0.7818609E-02  0.8267411E-01
       -2   -1    0    0    0  501  0.00000000000E+00  0.00000000000E+00  0.16883699668E+04  0.16883699668E+04  0.25500000920E-02 0. -1.
        2   -1    0    0  501    0  0.00000000000E+00  0.00000000000E+00 -0.12611749042E+04  0.12611749042E+04  0.25500000920E-02 0.  1.
    10030    2    1    2    0    0  0.00000000000E+00  0.00000000000E+00  0.42719506261E+03  0.29495448710E+04  0.29184446756E+04 0.  0.
        1    1    3    3  502    0  0.12157356735E+04 -0.72762726636E+03 -0.13922893083E+03  0.14236710863E+04  0.50400001928E-02 0. -1.
       -1    1    3    3    0  502 -0.12157356735E+04  0.72762726636E+03  0.56642399343E+03  0.15258737848E+04  0.50400001928E-02 0.  1.
</event>
<event>
 5   0  0.1832502E-05  0.2844378E+04  0.7818609E-02  0.8289622E-01
        2   -1    0    0  501    0  0.00000000000E+00  0.00000000000E+00  0.20048424544E+04  0.20048424544E+04  0.25500000920E-02 0. -1.
       -2   -1    0    0    0  501  0.00000000000E+00  0.00000000000E+00 -0.10088680325E+04  0.10088680325E+04  0.25500000920E-02 0.  1.
    10030    2    1    2    0    0  0.00000000000E+00  0.00000000000E+00  0.99597442194E+03  0.30137104869E+04  0.28443779372E+04 0.  0.
        2    1    3    3  502    0 -0.12265273136E+03  0.10833387974E+04  0.14655641068E+04  0.18266211412E+04  0.25500000920E-02 0. -1.
       -2    1    3    3    0  502  0.12265273136E+03 -0.10833387974E+04 -0.46958968485E+03  0.11870893457E+04  0.25500000920E-02 0.  1.
</event>
<event>
 5   0  0.7681342E-06  0.2596953E+04  0.7818609E-02  0.8369237E-01
        1   -1    0    0  501    0  0.00000000000E+00  0.00000000000E+00  0.15688234538E+04  0.15688234538E+04  0.50400001928E-02 0. -1.
       -1   -1    0    0    0  501  0.00000000000E+00  0.00000000000E+00 -0.10747171725E+04  0.10747171725E+04  0.50400001928E-02 0.  1.
    10030    2    1    2    0    0  0.00000000000E+00  0.00000000000E+00  0.49410628129E+03  0.26435406264E+04  0.25969532199E+04 0.  0.
        2    1    3    3  502    0  0.28332050233E+03 -0.69746111846E+03 -0.82990493717E+03  0.11204752222E+04  0.25500000920E-02 0. -1.
       -2    1    3    3    0  502 -0.28332050233E+03  0.69746111846E+03  0.13240112185E+04  0.15230654042E+04  0.25500000920E-02 0.  1.
</event>
<event>
 5   0  0.7681342E-06  0.2800397E+04  0.7818609E-02  0.8303145E-01
       -1   -1    0    0    0  501  0.00000000000E+00  0.00000000000E+00  0.11446964977E+04  0.11446964977E+04  0.50400001928E-02 0.  1.
        1   -1    0    0  501    0  0.00000000000E+00  0.00000000000E+00 -0.17127293257E+04  0.17127293257E+04  0.50400001928E-02 0. -1.
    10030    2    1    2    0    0  0.00000000000E+00  0.00000000000E+00 -0.56803282803E+03  0.28574258234E+04  0.28003965867E+04 0.  0.
        2    1    3    3  502    0  0.57152352770E+03 -0.16203549680E+02 -0.15881900233E+04  0.16879719334E+04  0.25500000920E-02 0. -1.
       -2    1    3    3    0  502 -0.57152352770E+03  0.16203549680E+02  0.10201571953E+04  0.11694538900E+04  0.25500000920E-02 0.  1.
</event>
<event>
 5   0  0.1904553E-05  0.2806136E+04  0.7818609E-02  0.8301366E-01
       -2   -1    0    0    0  501  0.00000000000E+00  0.00000000000E+00  0.89469915633E+03  0.89469915633E+03  0.25500000920E-02 0.  1.
        2   -1    0    0  501    0  0.00000000000E+00  0.00000000000E+00 -0.22002923669E+04  0.22002923669E+04  0.25500000920E-02 0. -1.
    10030    2    1    2    0    0  0.00000000000E+00  0.00000000000E+00 -0.13055932106E+04  0.30949915232E+04  0.28061359371E+04 0.  0.
        1    1    3    3  502    0 -0.67774404766E+03 -0.37686842900E+03  0.63685383630E+03  0.10034687916E+04  0.50400001928E-02 0.  1.
       -1    1    3    3    0  502  0.67774404766E+03  0.37686842900E+03 -0.19424470469E+04  0.20915227316E+04  0.50400001928E-02 0. -1.
</event>
<event>
 5   0  0.7388013E-06  0.2720747E+04  0.7818609E-02  0.8328305E-01
       -1   -1    0    0    0  501  0.00000000000E+00  0.00000000000E+00  0.10464643414E+04  0.10464643414E+04  0.50400001928E-02 0. -1.
        1   -1    0    0  501    0  0.00000000000E+00  0.00000000000E+00 -0.17684462921E+04  0.17684462921E+04  0.50400001928E-02 0.  1.
    10030    2    1    2    0    0  0.00000000000E+00  0.00000000000E+00 -0.72198195071E+03  0.28149106336E+04  0.27207469448E+04 0.  0.
        1    1    3    3  502    0 -0.10555839040E+04  0.37591337279E+03 -0.11590818907E+04  0.16121535509E+04  0.50400001928E-02 0.  1.
       -1    1    3    3    0  502  0.10555839040E+04 -0.37591337279E+03  0.43709994001E+03  0.12027570827E+04  0.50400001928E-02 0. -1.
</event>
<event>
 5   0  0.7613444E-06  0.2630162E+04  0.7818609E-02  0.8358027E-01
       -1   -1    0    0    0  501  0.00000000000E+00  0.00000000000E+00  0.11798289691E+04  0.11798289691E+04  0.50400001928E-02 0. -1.
        1   -1    0    0  501    0  0.00000000000E+00  0.00000000000E+00 -0.14658384361E+04  0.14658384361E+04  0.50400001928E-02 0.  1.
    10030    2    1    2    0    0  0.00000000000E+00  0.00000000000E+00 -0.28600946698E+03  0.26456674052E+04  0.26301624672E+04 0.  0.
        5    1    3    3  502    0 -0.29524829802E+03  0.63987608580E+03 -0.12598669975E+04  0.14435719255E+04  0.46999998093E+01 0.  1.
       -5    1    3    3    0  502  0.29524829802E+03 -0.63987608580E+03  0.97385753049E+03  0.12020954797E+04  0.46999998093E+01 0. -1.
</event>
<event>
 5   0  0.1874272E-05  0.2857353E+04  0.7818609E-02  0.8285680E-01
        2   -1    0    0  501    0  0.00000000000E+00  0.00000000000E+00  0.14355986014E+04  0.14355986014E+04  0.25500000920E-02 0.  1.
       -2   -1    0    0    0  501  0.00000000000E+00  0.00000000000E+00 -0.14217878435E+04  0.14217878435E+04  0.25500000920E-02 0. -1.
    10030    2    1    2    0    0  0.00000000000E+00  0.00000000000E+00  0.13810757881E+02  0.28573864449E+04  0.28573530686E+04 0.  0.
        3    1    3    3  502    0 -0.12858427929E+04  0.43734768057E+03  0.45013955774E+03  0.14308355298E+04  0.10100000352E+00 0.  1.
       -3    1    3    3    0  502  0.12858427929E+04 -0.43734768057E+03 -0.43632879985E+03  0.14265509151E+04  0.10100000352E+00 0. -1.
</event>
<event>
 5   0  0.7509685E-06  0.2798961E+04  0.7818609E-02  0.8303591E-01
       -1   -1    0    0    0  501  0.00000000000E+00  0.00000000000E+00  0.17703646038E+04  0.17703646038E+04  0.50400001928E-02 0.  1.
        1   -1    0    0  501    0  0.00000000000E+00  0.00000000000E+00 -0.11062951165E+04  0.11062951165E+04  0.50400001928E-02 0. -1.
    10030    2    1    2    0    0  0.00000000000E+00  0.00000000000E+00  0.66406948729E+03  0.28766597204E+04  0.27989610327E+04 0.  0.
        4    1    3    3  502    0 -0.70508649375E+02  0.11531093946E+04 -0.47977280571E+03  0.12509261783E+04  0.12699999809E+01 0. -1.
       -4    1    3    3    0  502  0.70508649375E+02 -0.11531093946E+04  0.11438422930E+04  0.16257335421E+04  0.12699999809E+01 0.  1.
</event>
<event>
 5   0  0.1832502E-05  0.2807563E+04  0.7818609E-02  0.8300924E-01
       -2   -1    0    0    0  501  0.00000000000E+00  0.00000000000E+00  0.86258365079E+03  0.86258365079E+03  0.25500000920E-02 0. -1.
        2   -1    0    0  501    0  0.00000000000E+00  0.00000000000E+00 -0.22845351761E+04  0.22845351761E+04  0.25500000920E-02 0.  1.
    10030    2    1    2    0    0  0.00000000000E+00  0.00000000000E+00 -0.14219515253E+04  0.31471188269E+04  0.28075631373E+04 0.  0.
        2    1    3    3  502    0 -0.51014657692E+03 -0.10353328375E+04  0.18468456984E+03  0.11688763856E+04  0.25500000920E-02 0. -1.
       -2    1    3    3    0  502  0.51014657692E+03  0.10353328375E+04 -0.16066360951E+04  0.19782424413E+04  0.25500000920E-02 0.  1.
</event>
<event>
 5   0  0.7388013E-06  0.2776512E+04  0.7818609E-02  0.8310598E-01
        1   -1    0    0  501    0  0.00000000000E+00  0.00000000000E+00  0.26546302243E+04  0.26546302243E+04  0.50400001928E-02 0. -1.
       -1   -1    0    0    0  501  0.00000000000E+00  0.00000000000E+00 -0.72599758668E+03  0.72599758670E+03  0.50400001928E-02 0.  1.
    10030    2    1    2    0    0  0.00000000000E+00  0.00000000000E+00  0.19286326376E+04  0.33806278110E+04  0.27765122988E+04 0.  0.
        1    1    3    3  502    0  0.44646815003E+03 -0.34887765743E+03  0.25074314888E+04  0.25706540218E+04  0.50400001928E-02 0. -1.
       -1    1    3    3    0  502 -0.44646815003E+03  0.34887765743E+03 -0.57879885124E+03  0.80997378913E+03  0.50400001928E-02 0.  1.
</event>
<event>
 5   0  0.7388013E-06  0.2385348E+04  0.7818609E-02  0.8445009E-01
        1   -1    0    0  501    0  0.00000000000E+00  0.00000000000E+00  0.84333586622E+03  0.84333586623E+03  0.50400001928E-02 0. -1.
       -1   -1    0    0    0  501  0.00000000000E+00  0.00000000000E+00 -0.16867197217E+04  0.16867197217E+04  0.50400001928E-02 0.  1.
    10030    2    1    2    0    0  0.00000000000E+00  0.00000000000E+00 -0.84338385546E+03  0.25300555879E+04  0.23853479726E+04 0.  0.
        1    1    3    3  502    0 -0.73631929666E+03  0.73572034732E+03  0.19588552195E+03  0.10591608347E+04  0.50400001928E-02 0. -1.
       -1    1    3    3    0  502  0.73631929666E+03 -0.73572034732E+03 -0.10392693774E+04  0.14708947532E+04  0.50400001928E-02 0.  1.
</event>
<event>
 5   0  0.1814230E-05  0.2759452E+04  0.7818609E-02  0.8315968E-01
       -2   -1    0    0    0  501  0.00000000000E+00  0.00000000000E+00  0.92282636771E+03  0.92282636771E+03  0.25500000920E-02 0. -1.
        2   -1    0    0  501    0  0.00000000000E+00  0.00000000000E+00 -0.20628414223E+04  0.20628414223E+04  0.25500000920E-02 0.  1.
    10030    2    1    2    0    0  0.00000000000E+00  0.00000000000E+00 -0.11400150546E+04  0.29856677901E+04  0.27594524507E+04 0.  0.
        5    1    3    3  502    0  0.75591781899E+03 -0.11141492119E+04 -0.24382712201E+03  0.13682887016E+04  0.46999998093E+01 0. -1.
       -5    1    3    3    0  502 -0.75591781899E+03  0.11141492119E+04 -0.89618793263E+03  0.16173790885E+04  0.46999998093E+01 0.  1.
</event>
<event>
 5   0  0.7555871E-06  0.2770665E+04  0.7818609E-02  0.8312434E-01
        1   -1    0    0  501    0  0.00000000000E+00  0.00000000000E+00  0.13906946409E+04  0.13906946409E+04  0.50400001928E-02 0.  1.
       -1   -1    0    0    0  501  0.00000000000E+00  0.00000000000E+00 -0.13799911771E+04  0.13799911771E+04  0.50400001928E-02 0. -1.
    10030    2    1    2    0    0  0.00000000000E+00  0.00000000000E+00  0.10703463763E+02  0.27706858180E+04  0.27706651436E+04 0.  0.
        3    1    3    3  502    0  0.98590128833E+03  0.55728520326E+03 -0.79251271545E+03  0.13822606710E+04  0.10100000352E+00 0. -1.
       -3    1    3    3    0  502 -0.98590128833E+03 -0.55728520326E+03  0.80321617922E+03  0.13884251470E+04  0.10100000352E+00 0.  1.
</event>
<event>
 5   0  0.7613444E-06  0.2705211E+04  0.7818609E-02  0.8333316E-01
       -1   -1    0    0    0  501  0.00000000000E+00  0.00000000000E+00  0.16660069029E+04  0.16660069029E+04  0.50400001928E-02 0.  1.
        1   -1    0    0  501    0  0.00000000000E+00  0.00000000000E+00 -0.10981597001E+04  0.10981597001E+04  0.50400001928E-02 0. -1.
    10030    2    1    2    0    0  0.00000000000E+00  0.00000000000E+00  0.56784720279E+03  0.27641666030E+04  0.27052110017E+04 0.  0.
        5    1    3    3  502    0 -0.80078232483E+03  0.46792989421E+03 -0.72206753845E+03  0.11754209194E+04  0.46999998093E+01 0. -1.
       -5    1    3    3    0  502  0.80078232483E+03 -0.46792989421E+03  0.12899147412E+04  0.15887456836E+04  0.46999998093E+01 0.  1.
</event>
<event>
 5   0  0.1832502E-05  0.2739129E+04  0.7818609E-02  0.8322420E-01
        2   -1    0    0  501    0  0.00000000000E+00  0.00000000000E+00  0.12067014076E+04  0.12067014076E+04  0.25500000920E-02 0.  1.
       -2   -1    0    0    0  501  0.00000000000E+00  0.00000000000E+00 -0.15544080009E+04  0.15544080009E+04  0.25500000920E-02 0. -1.
    10030    2    1    2    0    0  0.00000000000E+00  0.00000000000E+00 -0.34770659326E+03  0.27611094085E+04  0.27391285641E+04 0.  0.
        2    1    3    3  502    0  0.10873394807E+04 -0.50663323836E+02 -0.10116864645E+04  0.14860630610E+04  0.25500000920E-02 0.  1.
       -2    1    3    3    0  502 -0.10873394807E+04  0.50663323836E+02  0.66397987127E+03  0.12750463475E+04  0.25500000920E-02 0. -1.
</event>
<event>
 5   0  0.1923559E-05  0.2686535E+04  0.7818609E-02  0.8339387E-01
        2   -1    0    0  501    0  0.00000000000E+00  0.00000000000E+00  0.18594148388E+04  0.18594148388E+04  0.25500000920E-02 0. -1.
       -2   -1    0    0    0  501  0.00000000000E+00  0.00000000000E+00 -0.97039542112E+03  0.97039542113E+03  0.25500000920E-02 0.  1.
    10030    2    1    2    0    0  0.00000000000E+00  0.00000000000E+00  0.88901941770E+03  0.28298102600E+04  0.26865350514E+04 0.  0.
        4    1    3    3  502    0 -0.53834542067E+03  0.75227196968E+03 -0.58141352171E+03  0.10925988305E+04  0.12699999809E+01 0.  1.
       -4    1    3    3    0  502  0.53834542067E+03 -0.75227196968E+03  0.14704329394E+04  0.17372114294E+04  0.12699999809E+01 0. -1.
</event>
<event>
 5   0  0.7555871E-06  0.2645777E+04  0.7818609E-02  0.8352816E-01
       -1   -1    0    0    0  501  0.00000000000E+00  0.00000000000E+00  0.92083904980E+03  0.92083904981E+03  0.50400001928E-02 0. -1.
        1   -1    0    0  501    0  0.00000000000E+00  0.00000000000E+00 -0.19004780734E+04  0.19004780734E+04  0.50400001928E-02 0.  1.
    10030    2    1    2    0    0  0.00000000000E+00  0.00000000000E+00 -0.97963902357E+03  0.28213171232E+04  0.26457773325E+04 0.  0.
        3    1    3    3  502    0 -0.70187010280E+03 -0.72498956536E+03  0.42239226980E+03  0.10939135025E+04  0.10100000352E+00 0. -1.
       -3    1    3    3    0  502  0.70187010280E+03  0.72498956536E+03 -0.14020312934E+04  0.17274036207E+04  0.10100000352E+00 0.  1.
</event>
<event>
 5   0  0.1832502E-05  0.2288647E+04  0.7818609E-02  0.8482411E-01
       -2   -1    0    0    0  501  0.00000000000E+00  0.00000000000E+00  0.62697091591E+03  0.62697091592E+03  0.25500000920E-02 0. -1.
        2   -1    0    0  501    0  0.00000000000E+00  0.00000000000E+00 -0.20885765676E+04  0.20885765676E+04  0.25500000920E-02 0.  1.
    10030    2    1    2    0    0  0.00000000000E+00  0.00000000000E+00 -0.14616056517E+04  0.27155474835E+04  0.22886474290E+04 0.  0.
        2    1    3    3  502    0 -0.92377757797E+03 -0.23256310508E+03  0.21522461968E+02  0.95284512266E+03  0.25500000920E-02 0. -1.
       -2    1    3    3    0  502  0.92377757797E+03  0.23256310508E+03 -0.14831281136E+04  0.17627023608E+04  0.25500000920E-02 0.  1.
</event>
<event>
 5   0  0.1923559E-05  0.2761113E+04  0.7818609E-02  0.8315444E-01
       -2   -1    0    0    0  501  0.00000000000E+00  0.00000000000E+00  0.10593620934E+04  0.10593620934E+04  0.25500000920E-02 0. -1.
        2   -1    0    0  501    0  0.00000000000E+00  0.00000000000E+00 -0.17991357885E+04  0.17991357885E+04  0.25500000920E-02 0.  1.
    10030    2    1    2    0    0  0.00000000000E+00  0.00000000000E+00 -0.73977369510E+03  0.28584978820E+04  0.27611130041E+04 0.  0.
        4    1    3    3  502    0  0.33780158657E+03 -0.84680097257E+03 -0.14431543877E+04  0.17070084940E+04  0.12699999809E+01 0.  1.
       -4    1    3    3    0  502 -0.33780158657E+03  0.84680097257E+03  0.70338069258E+03  0.11514893880E+04  0.12699999809E+01 0. -1.
</event>
<event>
 5   0  0.1874272E-05  0.2633934E+04  0.7818609E-02  0.8356765E-01
       -2   -1    0    0    0  501  0.00000000000E+00  0.00000000000E+00  0.15608219253E+04  0.15608219253E+04  0.25500000920E-02 0. -1.
        2   -1    0    0  501    0  0.00000000000E+00  0.00000000000E+00 -0.11112105206E+04  0.11112105206E+04  0.25500000920E-02 0.  1.
    10030    2    1    2    0    0  0.00000000000E+00  0.00000000000E+00  0.44961140475E+03  0.26720324459E+04  0.26339337457E+04 0.  0.
        3    1    3    3  502    0 -0.50997333915E+03 -0.79984537717E+03 -0.70195989673E+03  0.11800733625E+04  0.10100000352E+00 0.  1.
       -3    1    3    3    0  502  0.50997333915E+03  0.79984537717E+03  0.11515713015E+04  0.14919590834E+04  0.10100000352E+00 0. -1.
</event>
<event>
 5   0  0.7613444E-06  0.2794170E+04  0.7818609E-02  0.8305081E-01
        1   -1    0    0  501    0  0.00000000000E+00  0.00000000000E+00  0.20551402339E+04  0.20551402339E+04  0.50400001928E-02 0.  1.
       -1   -1    0    0    0  501  0.00000000000E+00  0.00000000000E+00 -0.94973853625E+03  0.94973853626E+03  0.50400001928E-02 0. -1.
    10030    2    1    2    0    0  0.00000000000E+00  0.00000000000E+00  0.11054016976E+04  0.30048787701E+04  0.27941695564E+04 0.  0.
        5    1    3    3  502    0  0.15249110562E+03 -0.11283149587E+04  0.14233686126E+04  0.18227310500E+04  0.46999998093E+01 0.  1.
       -5    1    3    3    0  502 -0.15249110562E+03  0.11283149587E+04 -0.31796691498E+03  0.11821477202E+04  0.46999998093E+01 0. -1.
</event>
<event>
 5   0  0.1832502E-05  0.1911280E+04  0.7818609E-02  0.8649262E-01
       -2   -1    0    0    0  501  0.00000000000E+00  0.00000000000E+00  0.68305362611E+03  0.68305362612E+03  0.25500000920E-02 0.  1.
        2   -1    0    0  501    0  0.00000000000E+00  0.00000000000E+00 -0.13370069451E+04  0.13370069451E+04  0.25500000920E-02 0. -1.
    10030    2    1    2    0    0  0.00000000000E+00  0.00000000000E+00 -0.65395331903E+03  0.20200605713E+04  0.19112796154E+04 0.  0.
        2    1    3    3  502    0  0.67125919715E+03 -0.65757174379E+03 -0.51082503634E+03  0.10695474397E+04  0.25500000920E-02 0. -1.
       -2    1    3    3    0  502 -0.67125919715E+03  0.65757174379E+03 -0.14312828269E+03  0.95051313158E+03  0.25500000920E-02 0.  1.
</event>
<event>
 5   0  0.6288000E-06  0.2806646E+04  0.7818609E-02  0.8301208E-01
        3   -1    0    0  501    0  0.00000000000E+00  0.00000000000E+00  0.12029582106E+04  0.12029582148E+04  0.10100000352E+00 0.  1.
       -3   -1    0    0    0  501  0.00000000000E+00  0.00000000000E+00 -0.16370601150E+04  0.16370601181E+04  0.10100000352E+00 0. -1.
    10030    2    1    2    0    0  0.00000000000E+00  0.00000000000E+00 -0.43410190440E+03  0.28400183329E+04  0.28066456256E+04 0.  0.
        5    1    3    3  502    0 -0.32001509517E+03  0.51843580863E+03  0.10621434623E+04  0.12244820021E+04  0.46999998093E+01 0.  1.
       -5    1    3    3    0  502  0.32001509517E+03 -0.51843580863E+03 -0.14962453667E+04  0.16155363308E+04  0.46999998093E+01 0. -1.
</event>
<event>
 5   0  0.7509685E-06  0.2809305E+04  0.7818609E-02  0.8300385E-01
        1   -1    0    0  501    0  0.00000000000E+00  0.00000000000E+00  0.23472266890E+04  0.23472266891E+04  0.50400001928E-02 0. -1.
       -1   -1    0    0    0  501  0.00000000000E+00  0.00000000000E+00 -0.84058721041E+03  0.84058721043E+03  0.50400001928E-02 0.  1.
    10030    2    1    2    0    0  0.00000000000E+00  0.00000000000E+00  0.15066394786E+04  0.31878138995E+04  0.28093050634E+04 0.  0.
        4    1    3    3  502    0  0.51321925394E+03  0.11459475976E+04  0.14678032744E+04  0.19315894917E+04  0.12699999809E+01 0.  1.
       -4    1    3    3    0  502 -0.51321925394E+03 -0.11459475976E+04  0.38836204203E+02  0.12562244078E+04  0.12699999809E+01 0. -1.
</event>
<event>
 5   0  0.1832502E-05  0.1858085E+04  0.7818609E-02  0.8676006E-01
        2   -1    0    0  501    0  0.00000000000E+00  0.00000000000E+00  0.14446799393E+04  0.14446799393E+04  0.25500000920E-02 0. -1.
       -2   -1    0    0    0  501  0.00000000000E+00  0.00000000000E+00 -0.59744736620E+03  0.59744736620E+03  0.25500000920E-02 0.  1.
    10030    2    1    2    0    0  0.00000000000E+00  0.00000000000E+00  0.84723257312E+03  0.20421273055E+04  0.18580852776E+04 0.  0.
        2    1    3    3  502    0 -0.25501424637E+03  0.70935390585E+03 -0.17322414330E+03  0.77344801598E+03  0.25500000920E-02 0.  1.
       -2    1    3    3    0  502  0.25501424637E+03 -0.70935390585E+03  0.10204567164E+04  0.12686792895E+04  0.25500000920E-02 0. -1.
</event>
<event>
 5   0  0.7613444E-06  0.2789371E+04  0.7818609E-02  0.8306576E-01
       -1   -1    0    0    0  501  0.00000000000E+00  0.00000000000E+00  0.13363403579E+04  0.13363403579E+04  0.50400001928E-02 0.  1.
        1   -1    0    0  501    0  0.00000000000E+00  0.00000000000E+00 -0.14555784148E+04  0.14555784148E+04  0.50400001928E-02 0. -1.
    10030    2    1    2    0    0  0.00000000000E+00  0.00000000000E+00 -0.11923805693E+03  0.27919187727E+04  0.27893713842E+04 0.  0.
        5    1    3    3  502    0 -0.19379948411E+03 -0.70595393718E+03 -0.12477991313E+04  0.14467045184E+04  0.46999998093E+01 0. -1.
       -5    1    3    3    0  502  0.19379948411E+03  0.70595393718E+03  0.11285610744E+04  0.13452142543E+04  0.46999998093E+01 0.  1.
</event>
<event>
 5   0  0.7613444E-06  0.1918823E+04  0.7818609E-02  0.8645543E-01
       -1   -1    0    0    0  501  0.00000000000E+00  0.00000000000E+00  0.43541515380E+03  0.43541515383E+03  0.50400001928E-02 0. -1.
        1   -1    0    0  501    0  0.00000000000E+00  0.00000000000E+00 -0.21140072063E+04  0.21140072063E+04  0.50400001928E-02 0.  1.
    10030    2    1    2    0    0  0.00000000000E+00  0.00000000000E+00 -0.16785920525E+04  0.25494223602E+04  0.19188233613E+04 0.  0.
        5    1    3    3  502    0  0.66647936468E+03 -0.20801795178E+03  0.34966675396E+02  0.69907865809E+03  0.46999998093E+01 0. -1.
       -5    1    3    3    0  502 -0.66647936468E+03  0.20801795178E+03 -0.17135587279E+04  0.18503437021E+04  0.46999998093E+01 0.  1.
</event>
<event>
 5   0  0.7555871E-06  0.2753194E+04  0.7818609E-02  0.8317949E-01
        1   -1    0    0  501    0  0.00000000000E+00  0.00000000000E+00  0.23897444185E+04  0.23897444185E+04  0.50400001928E-02 0.  1.
       -1   -1    0    0    0  501  0.00000000000E+00  0.00000000000E+00 -0.79297986168E+03  0.79297986170E+03  0.50400001928E-02 0. -1.
    10030    2    1    2    0    0  0.00000000000E+00  0.00000000000E+00  0.15967645568E+04  0.31827242802E+04  0.27531939259E+04 0.  0.
        3    1    3    3  502    0 -0.10054909122E+04  0.93872242521E+03  0.73713087030E+03  0.15606324667E+04  0.10100000352E+00 0.  1.
       -3    1    3    3    0  502  0.10054909122E+04 -0.93872242521E+03  0.85963368651E+03  0.16220918135E+04  0.10100000352E+00 0. -1.
</event>
<event>
 5   0  0.7681342E-06  0.2715608E+04  0.7818609E-02  0.8329959E-01
       -1   -1    0    0    0  501  0.00000000000E+00  0.00000000000E+00  0.90716569000E+03  0.90716569002E+03  0.50400001928E-02 0.  1.
        1   -1    0    0  501    0  0.00000000000E+00  0.00000000000E+00 -0.20322982635E+04  0.20322982635E+04  0.50400001928E-02 0. -1.
    10030    2    1    2    0    0  0.00000000000E+00  0.00000000000E+00 -0.11251325735E+04  0.29394639536E+04  0.27156076716E+04 0.  0.
        2    1    3    3  502    0 -0.12287133400E+04 -0.49144151540E+03 -0.23357064741E+03  0.13438029924E+04  0.25500000920E-02 0. -1.
       -2    1    3    3    0  502  0.12287133400E+04  0.49144151540E+03 -0.89156192613E+03  0.15956609612E+04  0.25500000920E-02 0.  1.
</event>
<event>
 5   0  0.1814230E-05  0.2847134E+04  0.7818609E-02  0.8288783E-01
       -2   -1    0    0    0  501  0.00000000000E+00  0.00000000000E+00  0.96044110294E+03  0.96044110294E+03  0.25500000920E-02 0.  1.
        2   -1    0    0  501    0  0.00000000000E+00  0.00000000000E+00 -0.21100123172E+04  0.21100123172E+04  0.25500000920E-02 0. -1.
    10030    2    1    2    0    0  0.00000000000E+00  0.00000000000E+00 -0.11495712142E+04  0.30704534201E+04  0.28471336864E+04 0.  0.
        5    1    3    3  502    0 -0.83655238702E+03 -0.10499063445E+03  0.66221349273E+03  0.10720968844E+04  0.46999998093E+01 0.  1.
       -5    1    3    3    0  502  0.83655238702E+03  0.10499063445E+03 -0.18117847070E+04  0.19983565357E+04  0.46999998093E+01 0. -1.
</event>
<event>
 5   0  0.7509685E-06  0.1863814E+04  0.7818609E-02  0.8673081E-01
        1   -1    0    0  501    0  0.00000000000E+00  0.00000000000E+00  0.82009845835E+03  0.82009845837E+03  0.50400001928E-02 0. -1.
       -1   -1    0    0    0  501  0.00000000000E+00  0.00000000000E+00 -0.10589594085E+04  0.10589594085E+04  0.50400001928E-02 0.  1.
    10030    2    1    2    0    0  0.00000000000E+00  0.00000000000E+00 -0.23886095012E+03  0.18790578668E+04  0.18638143452E+04 0.  0.
        4    1    3    3  502    0 -0.65195666887E+03 -0.84650113189E+02  0.54645320075E+03  0.85488353198E+03  0.12699999809E+01 0. -1.
       -4    1    3    3    0  502  0.65195666887E+03  0.84650113189E+02 -0.78531415087E+03  0.10241743349E+04  0.12699999809E+01 0.  1.
</event>
<event>
 5   0  0.7613444E-06  0.2796707E+04  0.7818609E-02  0.8304291E-01
        1   -1    0    0  501    0  0.00000000000E+00  0.00000000000E+00  0.95590571171E+03  0.95590571172E+03  0.50400001928E-02 0.  1.
       -1   -1    0    0    0  501  0.00000000000E+00  0.00000000000E+00 -0.20455917319E+04  0.20455917319E+04  0.50400001928E-02 0. -1.
    10030    2    1    2    0    0  0.00000000000E+00  0.00000000000E+00 -0.10896860202E+04  0.30014974437E+04  0.27967072213E+04 0.  0.
        5    1    3    3  502    0 -0.13931534898E+04  0.90921167459E+02 -0.62953556740E+03  0.15314961396E+04  0.46999998093E+01 0.  1.
       -5    1    3    3    0  502  0.13931534898E+04 -0.90921167459E+02 -0.46015045282E+03  0.14700013041E+04  0.46999998093E+01 0. -1.
</event>
<event>
 5   0  0.1832502E-05  0.2880061E+04  0.7818609E-02  0.8278835E-01
       -2   -1    0    0    0  501  0.00000000000E+00  0.00000000000E+00  0.13984533316E+04  0.13984533316E+04  0.25500000920E-02 0.  1.
        2   -1    0    0  501    0  0.00000000000E+00  0.00000000000E+00 -0.14828439406E+04  0.14828439406E+04  0.25500000920E-02 0. -1.
    10030    2    1    2    0    0  0.00000000000E+00  0.00000000000E+00 -0.84390609034E+02  0.28812972721E+04  0.28800611444E+04 0.  0.
        2    1    3    3  502    0  0.12905677981E+04  0.52171521292E+03  0.32665799583E+03  0.14298452542E+04  0.25500000920E-02 0. -1.
       -2    1    3    3    0  502 -0.12905677981E+04 -0.52171521292E+03 -0.41104860486E+03  0.14514520179E+04  0.25500000920E-02 0.  1.
</event>
<event>
 5   0  0.7681342E-06  0.2541331E+04  0.7818609E-02  0.8388407E-01
       -1   -1    0    0    0  501  0.00000000000E+00  0.00000000000E+00  0.93886220689E+03  0.93886220690E+03  0.50400001928E-02 0. -1.
        1   -1    0    0  501    0  0.00000000000E+00  0.00000000000E+00 -0.17197309314E+04  0.17197309315E+04  0.50400001928E-02 0.  1.
    10030    2    1    2    0    0  0.00000000000E+00  0.00000000000E+00 -0.78086872456E+03  0.26585931384E+04  0.25413306574E+04 0.  0.
        2    1    3    3  502    0 -0.93424168825E+03  0.14270464310E+03  0.49812052575E+03  0.10683146566E+04  0.25500000920E-02 0. -1.
       -2    1    3    3    0  502  0.93424168825E+03 -0.14270464310E+03 -0.12789892503E+04  0.15902784818E+04  0.25500000920E-02 0.  1.
</event>
<event>
 5   0  0.1814230E-05  0.2771557E+04  0.7818609E-02  0.8312153E-01
       -2   -1    0    0    0  501  0.00000000000E+00  0.00000000000E+00  0.81755580996E+03  0.81755580996E+03  0.25500000920E-02 0. -1.
        2   -1    0    0  501    0  0.00000000000E+00  0.00000000000E+00 -0.23489316227E+04  0.23489316227E+04  0.25500000920E-02 0.  1.
    10030    2    1    2    0    0  0.00000000000E+00  0.00000000000E+00 -0.15313758127E+04  0.31664874327E+04  0.27715574649E+04 0.  0.
        5    1    3    3  502    0 -0.56902708549E+03  0.10540322488E+04  0.30446554571E+02  0.11982173794E+04  0.46999998093E+01 0. -1.
       -5    1    3    3    0  502  0.56902708549E+03 -0.10540322488E+04 -0.15618223673E+04  0.19682700533E+04  0.46999998093E+01 0.  1.
</event>
<event>
 5   0  0.7388013E-06  0.2884800E+04  0.7818609E-02  0.8277414E-01
        1   -1    0    0  501    0  0.00000000000E+00  0.00000000000E+00  0.12761270740E+04  0.12761270741E+04  0.50400001928E-02 0. -1.
       -1   -1    0    0    0  501  0.00000000000E+00  0.00000000000E+00 -0.16303375786E+04  0.16303375787E+04  0.50400001928E-02 0.  1.
    10030    2    1    2    0    0  0.00000000000E+00  0.00000000000E+00 -0.35421050460E+03  0.29064646527E+04  0.28848001137E+04 0.  0.
        1    1    3    3  502    0 -0.33726104247E+03 -0.11783375599E+04  0.58906180991E+03  0.13598596368E+04  0.50400001928E-02 0. -1.
       -1    1    3    3    0  502  0.33726104247E+03  0.11783375599E+04 -0.94327231451E+03  0.15466050159E+04  0.50400001928E-02 0.  1.
</event>
<event>
 5   0  0.1874272E-05  0.2849500E+04  0.7818609E-02  0.8288063E-01
        2   -1    0    0  501    0  0.00000000000E+00  0.00000000000E+00  0.17853019601E+04  0.17853019601E+04  0.25500000920E-02 0.  1.
       -2   -1    0    0    0  501  0.00000000000E+00  0.00000000000E+00 -0.11370134302E+04  0.11370134302E+04  0.25500000920E-02 0. -1.
    10030    2    1    2    0    0  0.00000000000E+00  0.00000000000E+00  0.64828852988E+03  0.29223153903E+04  0.28494998197E+04 0.  0.
        3    1    3    3  502    0 -0.86322095853E+02  0.27117657891E+02  0.17823524703E+04  0.17846476432E+04  0.10100000352E+00 0.  1.
       -3    1    3    3    0  502  0.86322095853E+02 -0.27117657891E+02 -0.11340639405E+04  0.11376677471E+04  0.10100000352E+00 0. -1.
</event>
<event>
 5   0  0.1814230E-05  0.2773977E+04  0.7818609E-02  0.8311393E-01
        2   -1    0    0  501    0  0.00000000000E+00  0.00000000000E+00  0.94236976879E+03  0.94236976879E+03  0.25500000920E-02 0.  1.
       -2   -1    0    0    0  501  0.00000000000E+00  0.00000000000E+00 -0.20413831633E+04  0.20413831633E+04  0.25500000920E-02 0. -1.
    10030    2    1    2    0    0  0.00000000000E+00  0.00000000000E+00 -0.10990133945E+04  0.29837529321E+04  0.27739774906E+04 0.  0.
        5    1    3    3  502    0 -0.99150978844E+03  0.33027950659E+02 -0.15921025377E+04  0.18758984745E+04  0.46999998093E+01 0. -1.
       -5    1    3    3    0  502  0.99150978844E+03 -0.33027950659E+02  0.49308914319E+03  0.11078544576E+04  0.46999998093E+01 0.  1.
</event>
<event>
 5   0  0.7388013E-06  0.2800745E+04  0.7818609E-02  0.8303037E-01
        1   -1    0    0  501    0  0.00000000000E+00  0.00000000000E+00  0.15165021026E+04  0.15165021027E+04  0.50400001928E-02 0. -1.
       -1   -1    0    0    0  501  0.00000000000E+00  0.00000000000E+00 -0.12931354990E+04  0.12931354990E+04  0.50400001928E-02 0.  1.
    10030    2    1    2    0    0  0.00000000000E+00  0.00000000000E+00  0.22336660364E+03  0.28096376017E+04  0.28007446890E+04 0.  0.
        1    1    3    3  502    0  0.56906248451E+03 -0.43633911948E+03 -0.10949737402E+04  0.13088893881E+04  0.50400001928E-02 0.  1.
       -1    1    3    3    0  502 -0.56906248451E+03  0.43633911948E+03  0.13183403438E+04  0.15007482136E+04  0.50400001928E-02 0. -1.
</event>
<event>
 5   0  0.1832502E-05  0.2686664E+04  0.7818609E-02  0.8339345E-01
       -2   -1    0    0    0  501  0.00000000000E+00  0.00000000000E+00  0.91104860128E+03  0.91104860129E+03  0.25500000920E-02 0. -1.
        2   -1    0    0  501    0  0.00000000000E+00  0.00000000000E+00 -0.19807298223E+04  0.19807298223E+04  0.25500000920E-02 0.  1.
    10030    2    1    2    0    0  0.00000000000E+00  0.00000000000E+00 -0.10696812210E+04  0.28917784236E+04  0.26866642024E+04 0.  0.
        2    1    3    3  502    0 -0.75539984810E+03 -0.25918524363E+03 -0.16974605766E+04  0.18759473154E+04  0.25500000920E-02 0.  1.
       -2    1    3    3    0  502  0.75539984810E+03  0.25918524363E+03  0.62777935560E+03  0.10158311082E+04  0.25500000920E-02 0. -1.
</event>
<event>
 5   0  0.1814230E-05  0.2791769E+04  0.7818609E-02  0.8305828E-01
        2   -1    0    0  501    0  0.00000000000E+00  0.00000000000E+00  0.20628736151E+04  0.20628736151E+04  0.25500000920E-02 0.  1.
       -2   -1    0    0    0  501  0.00000000000E+00  0.00000000000E+00 -0.94455322933E+03  0.94455322933E+03  0.25500000920E-02 0. -1.
    10030    2    1    2    0    0  0.00000000000E+00  0.00000000000E+00  0.11183203857E+04  0.30074268444E+04  0.27917692847E+04 0.  0.
        5    1    3    3  502    0 -0.40468688211E+02  0.49463564881E+03 -0.84629490621E+03  0.98109087147E+03  0.46999998093E+01 0. -1.
       -5    1    3    3    0  502  0.40468688211E+02 -0.49463564881E+03  0.19646152920E+04  0.20263359729E+04  0.46999998093E+01 0.  1.
</event>
<event>
 5   0  0.7681342E-06  0.2775900E+04  0.7818609E-02  0.8310790E-01
       -1   -1    0    0    0  501  0.00000000000E+00  0.00000000000E+00  0.11012264700E+04  0.11012264700E+04  0.50400001928E-02 0.  1.
        1   -1    0    0  501    0  0.00000000000E+00  0.00000000000E+00 -0.17493264163E+04  0.17493264164E+04  0.50400001928E-02 0. -1.
    10030    2    1    2    0    0  0.00000000000E+00  0.00000000000E+00 -0.64809994636E+03  0.28505528863E+04  0.27758995330E+04 0.  0.
        2    1    3    3  502    0 -0.17442747106E+03 -0.10817472714E+04  0.55080199803E+03  0.12263706385E+04  0.25500000920E-02 0.  1.
       -2    1    3    3    0  502  0.17442747106E+03  0.10817472714E+04 -0.11989019444E+04  0.16241822478E+04  0.25500000920E-02 0. -1.
</event>
<event>
 5   0  0.1814230E-05  0.3069292E+04  0.7818609E-02  0.8224216E-01
       -2   -1    0    0    0  501  0.00000000000E+00  0.00000000000E+00  0.10414626405E+04  0.10414626405E+04  0.25500000920E-02 0. -1.
        2   -1    0    0  501    0  0.00000000000E+00  0.00000000000E+00 -0.22613761908E+04  0.22613761908E+04  0.25500000920E-02 0.  1.
    10030    2    1    2    0    0  0.00000000000E+00  0.00000000000E+00 -0.12199135503E+04  0.33028388313E+04  0.30692923085E+04 0.  0.
        5    1    3    3  502    0 -0.40615539348E+03  0.14345846216E+04 -0.10011000430E+04  0.17958893692E+04  0.46999998093E+01 0. -1.
       -5    1    3    3    0  502  0.40615539348E+03 -0.14345846216E+04 -0.21881350733E+03  0.15069494621E+04  0.46999998093E+01 0.  1.
</event>
<event>
 5   0  0.7509685E-06  0.2809006E+04  0.7818609E-02  0.8300478E-01
        1   -1    0    0  501    0  0.00000000000E+00  0.00000000000E+00  0.25282452460E+04  0.25282452460E+04  0.50400001928E-02 0. -1.
       -1   -1    0    0    0  501  0.00000000000E+00  0.00000000000E+00 -0.78023622099E+03  0.78023622100E+03  0.50400001928E-02 0.  1.
    10030    2    1    2    0    0  0.00000000000E+00  0.00000000000E+00  0.17480090250E+04  0.33084814670E+04  0.28090058857E+04 0.  0.
        4    1    3    3  502    0  0.47217666565E+03  0.37979193507E+03  0.23663600806E+04  0.24427145477E+04  0.12699999809E+01 0. -1.
       -4    1    3    3    0  502 -0.47217666565E+03 -0.37979193507E+03 -0.61835105566E+03  0.86576691925E+03  0.12699999809E+01 0.  1.
</event>
<event>
 5   0  0.7613444E-06  0.2794965E+04  0.7818609E-02  0.8304833E-01
        1   -1    0    0  501    0  0.00000000000E+00  0.00000000000E+00  0.13492311205E+04  0.13492311205E+04  0.50400001928E-02 0. -1.
       -1   -1    0    0    0  501  0.00000000000E+00  0.00000000000E+00 -0.14474595014E+04  0.14474595014E+04  0.50400001928E-02 0.  1.
    10030    2    1    2    0    0  0.00000000000E+00  0.00000000000E+00 -0.98228380963E+02  0.27966906219E+04  0.27949650481E+04 0.  0.
        5    1    3    3  502    0 -0.37367237625E+03  0.77193059256E+03  0.10549379556E+04  0.13595676021E+04  0.46999998093E+01 0. -1.
       -5    1    3    3    0  502  0.37367237625E+03 -0.77193059256E+03 -0.11531663365E+04  0.14371230199E+04  0.46999998093E+01 0.  1.
</event>
<event>
 5   0  0.7613444E-06  0.2833277E+04  0.7818609E-02  0.8293011E-01
       -1   -1    0    0    0  501  0.00000000000E+00  0.00000000000E+00  0.15292841702E+04  0.15292841702E+04  0.50400001928E-02 0.  1.
        1   -1    0    0  501    0  0.00000000000E+00  0.00000000000E+00 -0.13122899481E+04  0.13122899481E+04  0.50400001928E-02 0. -1.
    10030    2    1    2    0    0  0.00000000000E+00  0.00000000000E+00  0.21699422215E+03  0.28415741183E+04  0.28332767209E+04 0.  0.
        5    1    3    3  502    0  0.43746350889E+03 -0.32641252766E+03  0.14195831829E+04  0.15209069541E+04  0.46999998093E+01 0.  1.
       -5    1    3    3    0  502 -0.43746350889E+03  0.32641252766E+03 -0.12025889608E+04  0.13206671641E+04  0.46999998093E+01 0. -1.
</event>
<event>
 5   0  0.1874272E-05  0.2690908E+04  0.7818609E-02  0.8337961E-01
       -2   -1    0    0    0  501  0.00000000000E+00  0.00000000000E+00  0.11906656090E+04  0.11906656090E+04  0.25500000920E-02 0. -1.
        2   -1    0    0  501    0  0.00000000000E+00  0.00000000000E+00 -0.15203652788E+04  0.15203652788E+04  0.25500000920E-02 0.  1.
    10030    2    1    2    0    0  0.00000000000E+00  0.00000000000E+00 -0.32969966983E+03  0.27110308878E+04  0.26909081371E+04 0.  0.
        3    1    3    3  502    0  0.24377891496E+03  0.10447014133E+04  0.65326790053E+03  0.12560207651E+04  0.10100000352E+00 0. -1.
       -3    1    3    3    0  502 -0.24377891496E+03 -0.10447014133E+04 -0.98296757036E+03  0.14550101226E+04  0.10100000352E+00 0.  1.
</event>
<event>
 5   0  0.7613444E-06  0.2787167E+04  0.7818609E-02  0.8307264E-01
       -1   -1    0    0    0  501  0.00000000000E+00  0.00000000000E+00  0.12697172567E+04  0.12697172568E+04  0.50400001928E-02 0. -1.
        1   -1    0    0  501    0  0.00000000000E+00  0.00000000000E+00 -0.15295337098E+04  0.15295337098E+04  0.50400001928E-02 0.  1.
    10030    2    1    2    0    0  0.00000000000E+00  0.00000000000E+00 -0.25981645308E+03  0.27992509666E+04  0.27871672689E+04 0.  0.
        5    1    3    3  502    0  0.11264289810E+04  0.51250750808E+03  0.51360914849E+03  0.13398965044E+04  0.46999998093E+01 0. -1.
       -5    1    3    3    0  502 -0.11264289810E+04 -0.51250750808E+03 -0.77342560157E+03  0.14593544622E+04  0.46999998093E+01 0.  1.
</event>
<event>
 5   0  0.7613444E-06  0.2827544E+04  0.7818609E-02  0.8294768E-01
        1   -1    0    0  501    0  0.00000000000E+00  0.00000000000E+00  0.17274990307E+04  0.17274990308E+04  0.50400001928E-02 0. -1.
       -1   -1    0    0    0  501  0.00000000000E+00  0.00000000000E+00 -0.11570201331E+04  0.11570201331E+04  0.50400001928E-02 0.  1.
    10030    2    1    2    0    0  0.00000000000E+00  0.00000000000E+00  0.57047889766E+03  0.28845191638E+04  0.28275439225E+04 0.  0.
        5    1    3    3  502    0 -0.72144570429E+03 -0.47038572358E+03  0.14289830391E+04  0.16684607425E+04  0.46999998093E+01 0. -1.
       -5    1    3    3    0  502  0.72144570429E+03  0.47038572358E+03 -0.85850414147E+03  0.12160584213E+04  0.46999998093E+01 0.  1.
</event>
<event>
 5   0  0.1874272E-05  0.2816912E+04  0.7818609E-02  0.8298037E-01
        2   -1    0    0  501    0  0.00000000000E+00  0.00000000000E+00  0.19190578968E+04  0.19190578968E+04  0.25500000920E-02 0.  1.
       -2   -1    0    0    0  501  0.00000000000E+00  0.00000000000E+00 -0.10337097494E+04  0.10337097494E+04  0.25500000920E-02 0. -1.
    10030    2    1    2    0    0  0.00000000000E+00  0.00000000000E+00  0.88534814738E+03  0.29527676462E+04  0.28169123931E+04 0.  0.
        3    1    3    3  502    0 -0.63671588849E+03 -0.11765140180E+04  0.90455697946E+03  0.16148732757E+04  0.10100000352E+00 0.  1.
       -3    1    3    3    0  502  0.63671588849E+03  0.11765140180E+04 -0.19208832083E+02  0.13378943705E+04  0.10100000352E+00 0. -1.
</event>
<event>
 5   0  0.1904553E-05  0.2038203E+04  0.7818609E-02  0.8588965E-01
       -2   -1    0    0    0  501  0.00000000000E+00  0.00000000000E+00  0.90990043895E+03  0.90990043896E+03  0.25500000920E-02 0.  1.
        2   -1    0    0  501    0  0.00000000000E+00  0.00000000000E+00 -0.11414083047E+04  0.11414083047E+04  0.25500000920E-02 0. -1.
    10030    2    1    2    0    0  0.00000000000E+00  0.00000000000E+00 -0.23150786572E+03  0.20513087436E+04  0.20382030492E+04 0.  0.
        1    1    3    3  502    0 -0.88352415051E+03 -0.28329123238E+02  0.39460677562E+03  0.96805576861E+03  0.50400001928E-02 0.  1.
       -1    1    3    3    0  502  0.88352415051E+03  0.28329123238E+02 -0.62611464134E+03  0.10832529750E+04  0.50400001928E-02 0. -1.
</event>
<event>
 5   0  0.1923559E-05  0.2738515E+04  0.7818609E-02  0.8322615E-01
       -2   -1    0    0    0  501  0.00000000000E+00  0.00000000000E+00  0.11145851294E+04  0.11145851294E+04  0.25500000920E-02 0. -1.
        2   -1    0    0  501    0  0.00000000000E+00  0.00000000000E+00 -0.16821206717E+04  0.16821206717E+04  0.25500000920E-02 0.  1.
    10030    2    1    2    0    0  0.00000000000E+00  0.00000000000E+00 -0.56753554223E+03  0.27967058011E+04  0.27385154274E+04 0.  0.
        4    1    3    3  502    0 -0.10918810369E+04  0.16804635740E+03 -0.11099204272E+04  0.15660040691E+04  0.12699999809E+01 0.  1.
       -4    1    3    3    0  502  0.10918810369E+04 -0.16804635740E+03  0.54238488493E+03  0.12307017320E+04  0.12699999809E+01 0. -1.
</event>
<event>
 5   0  0.7681342E-06  0.2793128E+04  0.7818609E-02  0.8305405E-01
        1   -1    0    0  501    0  0.00000000000E+00  0.00000000000E+00  0.18340426326E+04  0.18340426326E+04  0.50400001928E-02 0. -1.
       -1   -1    0    0    0  501  0.00000000000E+00  0.00000000000E+00 -0.10634384796E+04  0.10634384796E+04  0.50400001928E-02 0.  1.
    10030    2    1    2    0    0  0.00000000000E+00  0.00000000000E+00  0.77060415305E+03  0.28974811122E+04  0.27931283599E+04 0.  0.
        2    1    3    3  502    0 -0.35646868728E+03  0.65634617173E+03 -0.83884105427E+03  0.11231716416E+04  0.25500000920E-02 0.  1.
       -2    1    3    3    0  502  0.35646868728E+03 -0.65634617173E+03  0.16094452073E+04  0.17743094706E+04  0.25500000920E-02 0. -1.
</event>
<event>
 5   0  0.1814230E-05  0.2668320E+04  0.7818609E-02  0.8345358E-01
       -2   -1    0    0    0  501  0.00000000000E+00  0.00000000000E+00  0.76065803666E+03  0.76065803667E+03  0.25500000920E-02 0.  1.
        2   -1    0    0  501    0  0.00000000000E+00  0.00000000000E+00 -0.23400569162E+04  0.23400569162E+04  0.25500000920E-02 0. -1.
    10030    2    1    2    0    0  0.00000000000E+00  0.00000000000E+00 -0.15793988795E+04  0.31007149528E+04  0.26683201454E+04 0.  0.
        5    1    3    3  502    0 -0.54963246123E+03 -0.99734074965E+03  0.18050349808E+02  0.11389171693E+04  0.46999998093E+01 0.  1.
       -5    1    3    3    0  502  0.54963246123E+03  0.99734074965E+03 -0.15974492293E+04  0.19617977836E+04  0.46999998093E+01 0. -1.
</event>
<event>
 5   0  0.7509685E-06  0.2806520E+04  0.7818609E-02  0.8301247E-01
        1   -1    0    0  501    0  0.00000000000E+00  0.00000000000E+00  0.13189235191E+04  0.13189235191E+04  0.50400001928E-02 0.  1.
       -1   -1    0    0    0  501  0.00000000000E+00  0.00000000000E+00 -0.14929895393E+04  0.14929895393E+04  0.50400001928E-02 0. -1.
    10030    2    1    2    0    0  0.00000000000E+00  0.00000000000E+00 -0.17406602018E+03  0.28119130584E+04  0.28065202776E+04 0.  0.
        4    1    3    3  502    0  0.47889812008E+03  0.36206580087E+03 -0.13578164666E+04  0.14846219126E+04  0.12699999809E+01 0. -1.
       -4    1    3    3    0  502 -0.47889812008E+03 -0.36206580087E+03  0.11837504464E+04  0.13272911458E+04  0.12699999809E+01 0.  1.
</event>
<event>
 5   0  0.1904553E-05  0.2861962E+04  0.7818609E-02  0.8284286E-01
       -2   -1    0    0    0  501  0.00000000000E+00  0.00000000000E+00  0.78992534676E+03  0.78992534677E+03  0.25500000920E-02 0. -1.
        2   -1    0    0  501    0  0.00000000000E+00  0.00000000000E+00 -0.25922785736E+04  0.25922785736E+04  0.25500000920E-02 0.  1.
    10030    2    1    2    0    0  0.00000000000E+00  0.00000000000E+00 -0.18023532269E+04  0.33822039204E+04  0.28619619503E+04 0.  0.
        1    1    3    3  502    0  0.11998528753E+04 -0.63311500085E+03 -0.14391453440E+04  0.19777817998E+04  0.50400001928E-02 0.  1.
       -1    1    3    3    0  502 -0.11998528753E+04  0.63311500085E+03 -0.36320788290E+03  0.14044221206E+04  0.50400001928E-02 0. -1.
</event>
<event>
 5   0  0.1814230E-05  0.2717404E+04  0.7818609E-02  0.8329380E-01
       -2   -1    0    0    0  501  0.00000000000E+00  0.00000000000E+00  0.96451497891E+03  0.96451497892E+03  0.25500000920E-02 0.  1.
        2   -1    0    0  501    0  0.00000000000E+00  0.00000000000E+00 -0.19139886558E+04  0.19139886558E+04  0.25500000920E-02 0. -1.
    10030    2    1    2    0    0  0.00000000000E+00  0.00000000000E+00 -0.94947367684E+03  0.28785036347E+04  0.27174037079E+04 0.  0.
        5    1    3    3  502    0 -0.10911496535E+04  0.64804369199E+02  0.38010081003E+03  0.11572838408E+04  0.46999998093E+01 0.  1.
       -5    1    3    3    0  502  0.10911496535E+04 -0.64804369199E+02 -0.13295744869E+04  0.17212197938E+04  0.46999998093E+01 0. -1.
</event>
<event>
 5   0  0.1832502E-05  0.2798911E+04  0.7818609E-02  0.8303607E-01
        2   -1    0    0  501    0  0.00000000000E+00  0.00000000000E+00  0.16209937860E+04  0.16209937860E+04  0.25500000920E-02 0. -1.
       -2   -1    0    0    0  501  0.00000000000E+00  0.00000000000E+00 -0.12081940983E+04  0.12081940983E+04  0.25500000920E-02 0.  1.
    10030    2    1    2    0    0  0.00000000000E+00  0.00000000000E+00  0.41279968767E+03  0.28291878843E+04  0.27989105921E+04 0.  0.
        2    1    3    3  502    0 -0.45875095177E+03  0.35074343699E+03 -0.10821454169E+04  0.12265855444E+04  0.25500000920E-02 0.  1.
       -2    1    3    3    0  502  0.45875095177E+03 -0.35074343699E+03  0.14949451046E+04  0.16026023400E+04  0.25500000920E-02 0. -1.
</event>
<event>
 5   0  0.7388013E-06  0.2750395E+04  0.7818609E-02  0.8318836E-01
        1   -1    0    0  501    0  0.00000000000E+00  0.00000000000E+00  0.10027608851E+04  0.10027608851E+04  0.50400001928E-02 0.  1.
       -1   -1    0    0    0  501  0.00000000000E+00  0.00000000000E+00 -0.18859610701E+04  0.18859610701E+04  0.50400001928E-02 0. -1.
    10030    2    1    2    0    0  0.00000000000E+00  0.00000000000E+00 -0.88320018504E+03  0.28887219552E+04  0.27503948748E+04 0.  0.
        1    1    3    3  502    0 -0.10287906599E+04 -0.47054317302E+03 -0.12628106926E+04  0.16954385701E+04  0.50400001928E-02 0. -1.
       -1    1    3    3    0  502  0.10287906599E+04  0.47054317302E+03  0.37961050755E+03  0.11932833851E+04  0.50400001928E-02 0.  1.
</event>
<event>
 5   0  0.7509685E-06  0.2870429E+04  0.7818609E-02  0.8281730E-01
       -1   -1    0    0    0  501  0.00000000000E+00  0.00000000000E+00  0.17098786840E+04  0.17098786840E+04  0.50400001928E-02 0.  1.
        1   -1    0    0  501    0  0.00000000000E+00  0.00000000000E+00 -0.12046708804E+04  0.12046708804E+04  0.50400001928E-02 0. -1.
    10030    2    1    2    0    0  0.00000000000E+00  0.00000000000E+00  0.50520780363E+03  0.29145495644E+04  0.28704292777E+04 0.  0.
        4    1    3    3  502    0 -0.42032595946E+03 -0.13437401452E+02  0.16459147580E+04  0.16987911819E+04  0.12699999809E+01 0.  1.
       -4    1    3    3    0  502  0.42032595946E+03  0.13437401452E+02 -0.11407069544E+04  0.12157583825E+04  0.12699999809E+01 0. -1.
</event>
<event>
 5   0  0.1832502E-05  0.2832321E+04  0.7818609E-02  0.8293304E-01
       -2   -1    0    0    0  501  0.00000000000E+00  0.00000000000E+00  0.18663352451E+04  0.18663352451E+04  0.25500000920E-02 0.  1.
        2   -1    0    0  501    0  0.00000000000E+00  0.00000000000E+00 -0.10745714056E+04  0.10745714056E+04  0.25500000920E-02 0. -1.
    10030    2    1    2    0    0  0.00000000000E+00  0.00000000000E+00  0.79176383958E+03  0.29409066507E+04  0.28323209477E+04 0.  0.
        2    1    3    3  502    0  0.11808784455E+04 -0.70430693269E+03  0.43782218273E+02  0.13756594931E+04  0.25500000920E-02 0. -1.
       -2    1    3    3    0  502 -0.11808784455E+04  0.70430693269E+03  0.74798162130E+03  0.15652471576E+04  0.25500000920E-02 0.  1.
</event>
<event>
 5   0  0.1814230E-05  0.2815852E+04  0.7818609E-02  0.8298364E-01
       -2   -1    0    0    0  501  0.00000000000E+00  0.00000000000E+00  0.14397252725E+04  0.14397252725E+04  0.25500000920E-02 0. -1.
        2   -1    0    0  501    0  0.00000000000E+00  0.00000000000E+00 -0.13768286476E+04  0.13768286477E+04  0.25500000920E-02 0.  1.
    10030    2    1    2    0    0  0.00000000000E+00  0.00000000000E+00  0.62896624865E+02  0.28165539202E+04  0.28158515585E+04 0.  0.
        5    1    3    3  502    0 -0.67153148512E+03  0.39168855123E+03 -0.11426666313E+04  0.13820577329E+04  0.46999998093E+01 0.  1.
       -5    1    3    3    0  502  0.67153148512E+03 -0.39168855123E+03  0.12055632562E+04  0.14344961873E+04  0.46999998093E+01 0. -1.
</event>
<event>
 5   0  0.7388013E-06  0.2540243E+04  0.7818609E-02  0.8388787E-01
       -1   -1    0    0    0  501  0.00000000000E+00  0.00000000000E+00  0.11236759959E+04  0.11236759959E+04  0.50400001928E-02 0.  1.
        1   -1    0    0  501    0  0.00000000000E+00  0.00000000000E+00 -0.14356526916E+04  0.14356526916E+04  0.50400001928E-02 0. -1.
    10030    2    1    2    0    0  0.00000000000E+00  0.00000000000E+00 -0.31197669569E+03  0.25593286875E+04  0.25402428765E+04 0.  0.
        1    1    3    3  502    0 -0.46840973314E+03  0.48606065302E+01 -0.13454419200E+04  0.14246561914E+04  0.50400001928E-02 0. -1.
       -1    1    3    3    0  502  0.46840973314E+03 -0.48606065302E+01  0.10334652243E+04  0.11346724961E+04  0.50400001928E-02 0.  1.
</event>
<event>
 5   0  0.7681342E-06  0.2782695E+04  0.7818609E-02  0.8308661E-01
        1   -1    0    0  501    0  0.00000000000E+00  0.00000000000E+00  0.20590994473E+04  0.20590994473E+04  0.50400001928E-02 0.  1.
       -1   -1    0    0    0  501  0.00000000000E+00  0.00000000000E+00 -0.94014274805E+03  0.94014274806E+03  0.50400001928E-02 0. -1.
    10030    2    1    2    0    0  0.00000000000E+00  0.00000000000E+00  0.11189566993E+04  0.29992421954E+04  0.27826946745E+04 0.  0.
        2    1    3    3  502    0  0.27742806948E+03 -0.53529820057E+03 -0.79203016465E+03  0.99540056208E+03  0.25500000920E-02 0. -1.
       -2    1    3    3    0  502 -0.27742806948E+03  0.53529820057E+03  0.19109868639E+04  0.20038416333E+04  0.25500000920E-02 0.  1.
</event>
<event>
 5   0  0.1923559E-05  0.2910705E+04  0.7818609E-02  0.8269700E-01
       -2   -1    0    0    0  501  0.00000000000E+00  0.00000000000E+00  0.17836085276E+04  0.17836085276E+04  0.25500000920E-02 0.  1.
        2   -1    0    0  501    0  0.00000000000E+00  0.00000000000E+00 -0.11875087046E+04  0.11875087046E+04  0.25500000920E-02 0. -1.
    10030    2    1    2    0    0  0.00000000000E+00  0.00000000000E+00  0.59609982300E+03  0.29711172323E+04  0.29107048303E+04 0.  0.
        4    1    3    3  502    0  0.71346544473E+03  0.78395560345E+03 -0.71985841570E+03  0.12813341018E+04  0.12699999809E+01 0. -1.
       -4    1    3    3    0  502 -0.71346544473E+03 -0.78395560345E+03  0.13159582387E+04  0.16897831304E+04  0.12699999809E+01 0.  1.
</event>
<event>
 5   0  0.6288000E-06  0.2838240E+04  0.7818609E-02  0.8291494E-01
        3   -1    0    0  501    0  0.00000000000E+00  0.00000000000E+00  0.12690705935E+04  0.12690705975E+04  0.10100000352E+00 0.  1.
       -3   -1    0    0    0  501  0.00000000000E+00  0.00000000000E+00 -0.15869106864E+04  0.15869106896E+04  0.10100000352E+00 0. -1.
    10030    2    1    2    0    0  0.00000000000E+00  0.00000000000E+00 -0.31784009290E+03  0.28559812871E+04  0.28382400863E+04 0.  0.
        3    1    3    3  502    0 -0.91265696616E+03  0.20346862537E+03  0.91525417242E+03  0.13084465712E+04  0.10100000352E+00 0.  1.
       -3    1    3    3    0  502  0.91265696616E+03 -0.20346862537E+03 -0.12330942653E+04  0.15475347159E+04  0.10100000352E+00 0. -1.
</event>
<event>
 5   0  0.1923559E-05  0.2277166E+04  0.7818609E-02  0.8486979E-01
        2   -1    0    0  501    0  0.00000000000E+00  0.00000000000E+00  0.17563754055E+04  0.17563754055E+04  0.25500000920E-02 0. -1.
       -2   -1    0    0    0  501  0.00000000000E+00  0.00000000000E+00 -0.73809486347E+03  0.73809486348E+03  0.25500000920E-02 0.  1.
    10030    2    1    2    0    0  0.00000000000E+00  0.00000000000E+00  0.10182805420E+04  0.24944702689E+04  0.22771663664E+04 0.  0.
        4    1    3    3  502    0  0.13338623358E+03 -0.18806932687E+03  0.17305334370E+04  0.17458263226E+04  0.12699999809E+01 0. -1.
       -4    1    3    3    0  502 -0.13338623358E+03  0.18806932687E+03 -0.71225289505E+03  0.74864394636E+03  0.12699999809E+01 0.  1.
</event>
<event>
 5   0  0.1923559E-05  0.2793780E+04  0.7818609E-02  0.8305202E-01
        2   -1    0    0  501    0  0.00000000000E+00  0.00000000000E+00  0.20696849440E+04  0.20696849440E+04  0.25500000920E-02 0. -1.
       -2   -1    0    0    0  501  0.00000000000E+00  0.00000000000E+00 -0.94280102463E+03  0.94280102464E+03  0.25500000920E-02 0.  1.
    10030    2    1    2    0    0  0.00000000000E+00  0.00000000000E+00  0.11268839194E+04  0.30124859687E+04  0.27937795804E+04 0.  0.
        4    1    3    3  502    0 -0.13673557374E+04  0.96868066018E+02  0.27359759711E+03  0.13978205868E+04  0.12699999809E+01 0.  1.
       -4    1    3    3    0  502  0.13673557374E+04 -0.96868066018E+02  0.85328632230E+03  0.16146653819E+04  0.12699999809E+01 0. -1.
</event>
<event>
 5   0  0.1874272E-05  0.2795267E+04  0.7818609E-02  0.8304739E-01
       -2   -1    0    0    0  501  0.00000000000E+00  0.00000000000E+00  0.12488754944E+04  0.12488754945E+04  0.25500000920E-02 0. -1.
        2   -1    0    0  501    0  0.00000000000E+00  0.00000000000E+00 -0.15641102847E+04  0.15641102847E+04  0.25500000920E-02 0.  1.
    10030    2    1    2    0    0  0.00000000000E+00  0.00000000000E+00 -0.31523479023E+03  0.28129857791E+04  0.27952667173E+04 0.  0.
        3    1    3    3  502    0  0.15202733866E+03  0.10990818771E+04 -0.10128786434E+04  0.15023369931E+04  0.10100000352E+00 0.  1.
       -3    1    3    3    0  502 -0.15202733866E+03 -0.10990818771E+04  0.69764385317E+03  0.13106487861E+04  0.10100000352E+00 0. -1.
</event>
<event>
 5   0  0.7681342E-06  0.2777972E+04  0.7818609E-02  0.8310140E-01
        1   -1    0    0  501    0  0.00000000000E+00  0.00000000000E+00  0.15297904532E+04  0.15297904532E+04  0.50400001928E-02 0. -1.
       -1   -1    0    0    0  501  0.00000000000E+00  0.00000000000E+00 -0.12611418668E+04  0.12611418668E+04  0.50400001928E-02 0.  1.
    10030    2    1    2    0    0  0.00000000000E+00  0.00000000000E+00  0.26864858640E+03  0.27909323200E+04  0.27779724894E+04 0.  0.
        2    1    3    3  502    0 -0.16100415126E+03 -0.92514480646E+03  0.11625575604E+04  0.14944414779E+04  0.25500000920E-02 0. -1.
       -2    1    3    3    0  502  0.16100415126E+03  0.92514480646E+03 -0.89390897403E+03  0.12964908420E+04  0.25500000920E-02 0.  1.
</event>
<event>
 5   0  0.7388013E-06  0.2746826E+04  0.7818609E-02  0.8319970E-01
        1   -1    0    0  501    0  0.00000000000E+00  0.00000000000E+00  0.96983841142E+03  0.96983841144E+03  0.50400001928E-02 0. -1.
       -1   -1    0    0    0  501  0.00000000000E+00  0.00000000000E+00 -0.19449248550E+04  0.19449248550E+04  0.50400001928E-02 0.  1.
    10030    2    1    2    0    0  0.00000000000E+00  0.00000000000E+00 -0.97508644353E+03  0.29147632664E+04  0.27468256819E+04 0.  0.
        1    1    3    3  502    0 -0.36981639088E+03 -0.10824460629E+04  0.31906828044E+03  0.11875429296E+04  0.50400001928E-02 0. -1.
       -1    1    3    3    0  502  0.36981639088E+03  0.10824460629E+04 -0.12941547240E+04  0.17272203368E+04  0.50400001928E-02 0.  1.
</event>
<event>
 5   0  0.6288000E-06  0.2881954E+04  0.7818609E-02  0.8278267E-01
       -3   -1    0    0    0  501  0.00000000000E+00  0.00000000000E+00  0.95099274568E+03  0.95099275104E+03  0.10100000352E+00 0. -1.
        3   -1    0    0  501    0  0.00000000000E+00  0.00000000000E+00 -0.21834177828E+04  0.21834177852E+04  0.10100000352E+00 0.  1.
    10030    2    1    2    0    0  0.00000000000E+00  0.00000000000E+00 -0.12324250372E+04  0.31344105362E+04  0.28819538402E+04 0.  0.
        4    1    3    3  502    0  0.85966660346E+03 -0.18683320644E+03  0.62502334544E+03  0.10791613000E+04  0.12699999809E+01 0. -1.
       -4    1    3    3    0  502 -0.85966660346E+03  0.18683320644E+03 -0.18574483826E+04  0.20552492362E+04  0.12699999809E+01 0.  1.
</event>
<event>
 5   0  0.1904553E-05  0.2753157E+04  0.7818609E-02  0.8317961E-01
        2   -1    0    0  501    0  0.00000000000E+00  0.00000000000E+00  0.14551056205E+04  0.14551056205E+04  0.25500000920E-02 0.  1.
       -2   -1    0    0    0  501  0.00000000000E+00  0.00000000000E+00 -0.13022893308E+04  0.13022893308E+04  0.25500000920E-02 0. -1.
    10030    2    1    2    0    0  0.00000000000E+00  0.00000000000E+00  0.15281628961E+03  0.27573949513E+04  0.27531571149E+04 0.  0.
        1    1    3    3  502    0 -0.10931763741E+04  0.41737288526E+03 -0.64978297796E+03  0.13384515788E+04  0.50400001928E-02 0.  1.
       -1    1    3    3    0  502  0.10931763741E+04 -0.41737288526E+03  0.80259926757E+03  0.14189433726E+04  0.50400001928E-02 0. -1.
</event>
<event>
 5   0  0.1814230E-05  0.2867076E+04  0.7818609E-02  0.8282741E-01
       -2   -1    0    0    0  501  0.00000000000E+00  0.00000000000E+00  0.76728885326E+03  0.76728885326E+03  0.25500000920E-02 0. -1.
        2   -1    0    0  501    0  0.00000000000E+00  0.00000000000E+00 -0.26783010262E+04  0.26783010262E+04  0.25500000920E-02 0.  1.
    10030    2    1    2    0    0  0.00000000000E+00  0.00000000000E+00 -0.19110121729E+04  0.34455898795E+04  0.28670755296E+04 0.  0.
        5    1    3    3  502    0  0.12677145308E+04  0.49178002514E+03 -0.40997180974E+03  0.14202276929E+04  0.46999998093E+01 0. -1.
       -5    1    3    3    0  502 -0.12677145308E+04 -0.49178002514E+03 -0.15010403632E+04  0.20253621866E+04  0.46999998093E+01 0.  1.
</event>
<event>
 5   0  0.1923559E-05  0.2695551E+04  0.7818609E-02  0.8336450E-01
       -2   -1    0    0    0  501  0.00000000000E+00  0.00000000000E+00  0.86592099195E+03  0.86592099195E+03  0.25500000920E-02 0.  1.
        2   -1    0    0  501    0  0.00000000000E+00  0.00000000000E+00 -0.20977652373E+04  0.20977652373E+04  0.25500000920E-02 0. -1.
    10030    2    1    2    0    0  0.00000000000E+00  0.00000000000E+00 -0.12318442453E+04  0.29636862292E+04  0.26955511163E+04 0.  0.
        4    1    3    3  502    0  0.22207238964E+03  0.46036238044E+03 -0.19870704263E+04  0.20517553849E+04  0.12699999809E+01 0. -1.
       -4    1    3    3    0  502 -0.22207238964E+03 -0.46036238044E+03  0.75522618095E+03  0.91193084434E+03  0.12699999809E+01 0.  1.
</event>
<event>
 5   0  0.7613444E-06  0.2388448E+04  0.7818609E-02  0.8443841E-01
        1   -1    0    0  501    0  0.00000000000E+00  0.00000000000E+00  0.13427031137E+04  0.13427031137E+04  0.50400001928E-02 0. -1.
       -1   -1    0    0    0  501  0.00000000000E+00  0.00000000000E+00 -0.10621637183E+04  0.10621637183E+04  0.50400001928E-02 0.  1.
    10030    2    1    2    0    0  0.00000000000E+00  0.00000000000E+00  0.28053939538E+03  0.24048668321E+04  0.23884476397E+04 0.  0.
        5    1    3    3  502    0 -0.63925703066E+03 -0.78642654559E+03 -0.49576274330E+03  0.11282371428E+04  0.46999998093E+01 0.  1.
       -5    1    3    3    0  502  0.63925703066E+03  0.78642654559E+03  0.77630213867E+03  0.12766296892E+04  0.46999998093E+01 0. -1.
</event>
<event>
 5   0  0.7555871E-06  0.2872413E+04  0.7818609E-02  0.8281133E-01
        1   -1    0    0  501    0  0.00000000000E+00  0.00000000000E+00  0.15864105789E+04  0.15864105789E+04  0.50400001928E-02 0.  1.
       -1   -1    0    0    0  501  0.00000000000E+00  0.00000000000E+00 -0.13002237808E+04  0.13002237808E+04  0.50400001928E-02 0. -1.
    10030    2    1    2    0    0  0.00000000000E+00  0.00000000000E+00  0.28618679809E+03  0.28866343597E+04  0.28724127565E+04 0.  0.
        3    1    3    3  502    0 -0.88275625912E+03 -0.17994632312E+03 -0.98094764482E+03  0.13318774659E+04  0.10100000352E+00 0. -1.
       -3    1    3    3    0  502  0.88275625912E+03  0.17994632312E+03  0.12671344429E+04  0.15547568938E+04  0.10100000352E+00 0.  1.
</event>
<event>
 5   0  0.7681342E-06  0.2723360E+04  0.7818609E-02  0.8327465E-01
       -1   -1    0    0    0  501  0.00000000000E+00  0.00000000000E+00  0.11636215912E+04  0.11636215912E+04  0.50400001928E-02 0.  1.
        1   -1    0    0  501    0  0.00000000000E+00  0.00000000000E+00 -0.15934493631E+04  0.15934493631E+04  0.50400001928E-02 0. -1.
    10030    2    1    2    0    0  0.00000000000E+00  0.00000000000E+00 -0.42982777183E+03  0.27570709543E+04  0.27233597511E+04 0.  0.
        2    1    3    3  502    0  0.76545164231E+03 -0.78764023604E+03  0.59995885084E+03  0.12514966963E+04  0.25500000920E-02 0. -1.
       -2    1    3    3    0  502 -0.76545164231E+03  0.78764023604E+03 -0.10297866227E+04  0.15055742580E+04  0.25500000920E-02 0.  1.
</event>
<event>
 5   0  0.7681342E-06  0.2777458E+04  0.7818609E-02  0.8310301E-01
       -1   -1    0    0    0  501  0.00000000000E+00  0.00000000000E+00  0.14222704028E+04  0.14222704029E+04  0.50400001928E-02 0. -1.
        1   -1    0    0  501    0  0.00000000000E+00  0.00000000000E+00 -0.13559783904E+04  0.13559783904E+04  0.50400001928E-02 0.  1.
    10030    2    1    2    0    0  0.00000000000E+00  0.00000000000E+00  0.66292012462E+02  0.27782487932E+04  0.27774577812E+04 0.  0.
        2    1    3    3  502    0  0.67748192965E+03 -0.72430254289E+03  0.10055195560E+04  0.14123262782E+04  0.25500000920E-02 0. -1.
       -2    1    3    3    0  502 -0.67748192965E+03  0.72430254289E+03 -0.93922754350E+03  0.13659225150E+04  0.25500000920E-02 0.  1.
</event>
<event>
 5   0  0.7613444E-06  0.2425615E+04  0.7818609E-02  0.8429976E-01
       -1   -1    0    0    0  501  0.00000000000E+00  0.00000000000E+00  0.75175719981E+03  0.75175719983E+03  0.50400001928E-02 0.  1.
        1   -1    0    0  501    0  0.00000000000E+00  0.00000000000E+00 -0.19566177339E+04  0.19566177339E+04  0.50400001928E-02 0. -1.
    10030    2    1    2    0    0  0.00000000000E+00  0.00000000000E+00 -0.12048605341E+04  0.27083749338E+04  0.24256145356E+04 0.  0.
        5    1    3    3  502    0 -0.10076968638E+04 -0.45030946904E+03 -0.11636652742E+04  0.16038611373E+04  0.46999998093E+01 0.  1.
       -5    1    3    3    0  502  0.10076968638E+04  0.45030946904E+03 -0.41195259885E+02  0.11045137965E+04  0.46999998093E+01 0. -1.
</event>
<event>
 5   0  0.1904553E-05  0.2793964E+04  0.7818609E-02  0.8305145E-01
        2   -1    0    0  501    0  0.00000000000E+00  0.00000000000E+00  0.15413660589E+04  0.15413660589E+04  0.25500000920E-02 0.  1.
       -2   -1    0    0    0  501  0.00000000000E+00  0.00000000000E+00 -0.12661228042E+04  0.12661228042E+04  0.25500000920E-02 0. -1.
    10030    2    1    2    0    0  0.00000000000E+00  0.00000000000E+00  0.27524325471E+03  0.28074888631E+04  0.27939640061E+04 0.  0.
        1    1    3    3  502    0  0.59850710622E+02 -0.73703943445E+03  0.13285802565E+04  0.15205047627E+04  0.50400001928E-02 0.  1.
       -1    1    3    3    0  502 -0.59850710622E+02  0.73703943445E+03 -0.10533370017E+04  0.12869841004E+04  0.50400001928E-02 0. -1.
</event>
<event>
 5   0  0.7509685E-06  0.2588918E+04  0.7818609E-02  0.8371975E-01
       -1   -1    0    0    0  501  0.00000000000E+00  0.00000000000E+00  0.11842346195E+04  0.11842346196E+04  0.50400001928E-02 0. -1.
        1   -1    0    0  501    0  0.00000000000E+00  0.00000000000E+00 -0.14149425839E+04  0.14149425839E+04  0.50400001928E-02 0.  1.
    10030    2    1    2    0    0  0.00000000000E+00  0.00000000000E+00 -0.23070796438E+03  0.25991772035E+04  0.25889179149E+04 0.  0.
        4    1    3    3  502    0 -0.42326810337E+03 -0.12144060070E+04  0.32486285546E+02  0.12864660154E+04  0.12699999809E+01 0. -1.
       -4    1    3    3    0  502  0.42326810337E+03  0.12144060070E+04 -0.26319424993E+03  0.13127111881E+04  0.12699999809E+01 0.  1.
</event>
<event>
 5   0  0.7388013E-06  0.2806581E+04  0.7818609E-02  0.8301228E-01
       -1   -1    0    0    0  501  0.00000000000E+00  0.00000000000E+00  0.13516372854E+04  0.13516372854E+04  0.50400001928E-02 0. -1.
        1   -1    0    0  501    0  0.00000000000E+00  0.00000000000E+00 -0.14569175889E+04  0.14569175889E+04  0.50400001928E-02 0.  1.
    10030    2    1    2    0    0  0.00000000000E+00  0.00000000000E+00 -0.10528030348E+03  0.28085548743E+04  0.28065809341E+04 0.  0.
        1    1    3    3  502    0 -0.14392746145E+03 -0.85425194976E+03 -0.11573924334E+04  0.14456897152E+04  0.50400001928E-02 0.  1.
       -1    1    3    3    0  502  0.14392746145E+03  0.85425194976E+03  0.10521121299E+04  0.13628651590E+04  0.50400001928E-02 0. -1.
</event>
<event>
 5   0  0.1923559E-05  0.2337981E+04  0.7818609E-02  0.8463094E-01
        2   -1    0    0  501    0  0.00000000000E+00  0.00000000000E+00  0.21481517759E+04  0.21481517759E+04  0.25500000920E-02 0. -1.
       -2   -1    0    0    0  501  0.00000000000E+00  0.00000000000E+00 -0.63614654206E+03  0.63614654207E+03  0.25500000920E-02 0.  1.
    10030    2    1    2    0    0  0.00000000000E+00  0.00000000000E+00  0.15120052338E+04  0.27842983180E+04  0.23379814576E+04 0.  0.
        4    1    3    3  502    0  0.82474387925E+03  0.94838772207E+02  0.17361205544E+04  0.19243994001E+04  0.12699999809E+01 0. -1.
       -4    1    3    3    0  502 -0.82474387925E+03 -0.94838772207E+02 -0.22411532052E+03  0.85989891782E+03  0.12699999809E+01 0.  1.
</event>
<event>
 5   0  0.7613444E-06  0.2874879E+04  0.7818609E-02  0.8280391E-01
        1   -1    0    0  501    0  0.00000000000E+00  0.00000000000E+00  0.23637488745E+04  0.23637488745E+04  0.50400001928E-02 0. -1.
       -1   -1    0    0    0  501  0.00000000000E+00  0.00000000000E+00 -0.87413387753E+03  0.87413387755E+03  0.50400001928E-02 0.  1.
    10030    2    1    2    0    0  0.00000000000E+00  0.00000000000E+00  0.14896149969E+04  0.32378827520E+04  0.28748794543E+04 0.  0.
        5    1    3    3  502    0  0.58316290491E+03  0.20893858339E+03  0.22056923717E+04  0.22910336606E+04  0.46999998093E+01 0. -1.
       -5    1    3    3    0  502 -0.58316290491E+03 -0.20893858339E+03 -0.71607737478E+03  0.94684909144E+03  0.46999998093E+01 0.  1.
</event>
<event>
 5   0  0.6288000E-06  0.2795308E+04  0.7818609E-02  0.8304727E-01
       -3   -1    0    0    0  501  0.00000000000E+00  0.00000000000E+00  0.67138641748E+03  0.67138642508E+03  0.10100000352E+00 0. -1.
        3   -1    0    0  501    0  0.00000000000E+00  0.00000000000E+00 -0.29095562930E+04  0.29095562947E+04  0.10100000352E+00 0.  1.
    10030    2    1    2    0    0  0.00000000000E+00  0.00000000000E+00 -0.22381698755E+04  0.35809427198E+04  0.27953079206E+04 0.  0.
        4    1    3    3  502    0  0.10482034101E+04  0.13193951807E+03  0.53130323092E+02  0.10578104129E+04  0.12699999809E+01 0. -1.
       -4    1    3    3    0  502 -0.10482034101E+04 -0.13193951807E+03 -0.22913001986E+04  0.25231323069E+04  0.12699999809E+01 0.  1.
</event>
<event>
 5   0  0.7509685E-06  0.2780350E+04  0.7818609E-02  0.8309395E-01
        1   -1    0    0  501    0  0.00000000000E+00  0.00000000000E+00  0.13905577899E+04  0.13905577899E+04  0.50400001928E-02 0. -1.
       -1   -1    0    0    0  501  0.00000000000E+00  0.00000000000E+00 -0.13897919856E+04  0.13897919856E+04  0.50400001928E-02 0.  1.
    10030    2    1    2    0    0  0.00000000000E+00  0.00000000000E+00  0.76580432635E+00  0.27803497755E+04  0.27803496700E+04 0.  0.
        4    1    3    3  502    0  0.13516475107E+04  0.17980671282E+03  0.27112820211E+03  0.13902494604E+04  0.12699999809E+01 0. -1.
       -4    1    3    3    0  502 -0.13516475107E+04 -0.17980671282E+03 -0.27036239778E+03  0.13901003152E+04  0.12699999809E+01 0.  1.
</event>
<event>
 5   0  0.1904553E-05  0.2756041E+04  0.7818609E-02  0.8317047E-01
        2   -1    0    0  501    0  0.00000000000E+00  0.00000000000E+00  0.15825520295E+04  0.15825520295E+04  0.25500000920E-02 0.  1.
       -2   -1    0    0    0  501  0.00000000000E+00  0.00000000000E+00 -0.11999225841E+04  0.11999225841E+04  0.25500000920E-02 0. -1.
    10030    2    1    2    0    0  0.00000000000E+00  0.00000000000E+00  0.38262944541E+03  0.27824746136E+04  0.27560405808E+04 0.  0.
        1    1    3    3  502    0 -0.13529486957E+04 -0.26107435293E+03  0.20908839474E+03  0.13936814370E+04  0.50400001928E-02 0. -1.
       -1    1    3    3    0  502  0.13529486957E+04  0.26107435293E+03  0.17354105067E+03  0.13887931766E+04  0.50400001928E-02 0.  1.
</event>
<event>
 5   0  0.7509685E-06  0.2833747E+04  0.7818609E-02  0.8292867E-01
        1   -1    0    0  501    0  0.00000000000E+00  0.00000000000E+00  0.64501726503E+03  0.64501726505E+03  0.50400001928E-02 0.  1.
       -1   -1    0    0    0  501  0.00000000000E+00  0.00000000000E+00 -0.31123663582E+04  0.31123663582E+04  0.50400001928E-02 0. -1.
    10030    2    1    2    0    0  0.00000000000E+00  0.00000000000E+00 -0.24673490931E+04  0.37573836232E+04  0.28337466621E+04 0.  0.
        4    1    3    3  502    0  0.86857687033E+03  0.82837979649E+03 -0.23534541382E+03  0.12231222112E+04  0.12699999809E+01 0.  1.
       -4    1    3    3    0  502 -0.86857687033E+03 -0.82837979649E+03 -0.22320036793E+04  0.25342614120E+04  0.12699999809E+01 0. -1.
</event>
<event>
 5   0  0.1904553E-05  0.2768639E+04  0.7818609E-02  0.8313071E-01
       -2   -1    0    0    0  501  0.00000000000E+00  0.00000000000E+00  0.17207567101E+04  0.17207567101E+04  0.25500000920E-02 0.  1.
        2   -1    0    0  501    0  0.00000000000E+00  0.00000000000E+00 -0.11136614070E+04  0.11136614070E+04  0.25500000920E-02 0. -1.
    10030    2    1    2    0    0  0.00000000000E+00  0.00000000000E+00  0.60709530308E+03  0.28344181170E+04  0.27686388994E+04 0.  0.
        1    1    3    3  502    0  0.13562573625E+04 -0.20414418084E+03  0.49570761737E+03  0.14583672109E+04  0.50400001928E-02 0. -1.
       -1    1    3    3    0  502 -0.13562573625E+04  0.20414418084E+03  0.11138768571E+03  0.13760509062E+04  0.50400001928E-02 0.  1.
</event>
<event>
 5   0  0.1874272E-05  0.2658114E+04  0.7818609E-02  0.8348725E-01
        2   -1    0    0  501    0  0.00000000000E+00  0.00000000000E+00  0.16755692636E+04  0.16755692636E+04  0.25500000920E-02 0.  1.
       -2   -1    0    0    0  501  0.00000000000E+00  0.00000000000E+00 -0.10542044113E+04  0.10542044113E+04  0.25500000920E-02 0. -1.
    10030    2    1    2    0    0  0.00000000000E+00  0.00000000000E+00  0.62136485228E+03  0.27297736748E+04  0.26581139998E+04 0.  0.
        3    1    3    3  502    0  0.80966204691E+03  0.36922608845E+03 -0.70310435968E+03  0.11341235759E+04  0.10100000352E+00 0. -1.
       -3    1    3    3    0  502 -0.80966204691E+03 -0.36922608845E+03  0.13244692120E+04  0.15956500989E+04  0.10100000352E+00 0.  1.
</event>
<event>
 5   0  0.1874272E-05  0.1956514E+04  0.7818609E-02  0.8627226E-01
       -2   -1    0    0    0  501  0.00000000000E+00  0.00000000000E+00  0.14234808457E+04  0.14234808457E+04  0.25500000920E-02 0. -1.
        2   -1    0    0  501    0  0.00000000000E+00  0.00000000000E+00 -0.67228606709E+03  0.67228606709E+03  0.25500000920E-02 0.  1.
    10030    2    1    2    0    0  0.00000000000E+00  0.00000000000E+00  0.75119477859E+03  0.20957669128E+04  0.19565135720E+04 0.  0.
        3    1    3    3  502    0  0.50968819399E+03  0.66598865061E+02 -0.51597024699E+03  0.72831502106E+03  0.10100000352E+00 0.  1.
       -3    1    3    3    0  502 -0.50968819399E+03 -0.66598865061E+02  0.12671650256E+04  0.13674518917E+04  0.10100000352E+00 0. -1.
</event>
<event>
 5   0  0.7388013E-06  0.2828004E+04  0.7818609E-02  0.8294626E-01
        1   -1    0    0  501    0  0.00000000000E+00  0.00000000000E+00  0.16378934242E+04  0.16378934242E+04  0.50400001928E-02 0. -1.
       -1   -1    0    0    0  501  0.00000000000E+00  0.00000000000E+00 -0.12207157634E+04  0.12207157635E+04  0.50400001928E-02 0.  1.
    10030    2    1    2    0    0  0.00000000000E+00  0.00000000000E+00  0.41717766078E+03  0.28586091877E+04  0.28280044709E+04 0.  0.
        1    1    3    3  502    0  0.29837360331E+02 -0.14136873939E+04  0.20850979864E+03  0.14292930602E+04  0.50400001928E-02 0.  1.
       -1    1    3    3    0  502 -0.29837360331E+02  0.14136873939E+04  0.20866786214E+03  0.14293161275E+04  0.50400001928E-02 0. -1.
</event>
<event>
 5   0  0.7613444E-06  0.2800973E+04  0.7818609E-02  0.8302966E-01
        1   -1    0    0  501    0  0.00000000000E+00  0.00000000000E+00  0.24107778342E+04  0.24107778342E+04  0.50400001928E-02 0. -1.
       -1   -1    0    0    0  501  0.00000000000E+00  0.00000000000E+00 -0.81358046690E+03  0.81358046692E+03  0.50400001928E-02 0.  1.
    10030    2    1    2    0    0  0.00000000000E+00  0.00000000000E+00  0.15971973673E+04  0.32243583011E+04  0.28009725139E+04 0.  0.
        5    1    3    3  502    0 -0.11797104651E+04 -0.59542772165E+03  0.13324782009E+04  0.18766382707E+04  0.46999998093E+01 0. -1.
       -5    1    3    3    0  502  0.11797104651E+04  0.59542772165E+03  0.26471916633E+03  0.13477200304E+04  0.46999998093E+01 0.  1.
</event>
<event>
 5   0  0.1874272E-05  0.2785232E+04  0.7818609E-02  0.8307868E-01
       -2   -1    0    0    0  501  0.00000000000E+00  0.00000000000E+00  0.10072014495E+04  0.10072014495E+04  0.25500000920E-02 0.  1.
        2   -1    0    0  501    0  0.00000000000E+00  0.00000000000E+00 -0.19255129347E+04  0.19255129347E+04  0.25500000920E-02 0. -1.
    10030    2    1    2    0    0  0.00000000000E+00  0.00000000000E+00 -0.91831148523E+03  0.29327143842E+04  0.27852320685E+04 0.  0.
        3    1    3    3  502    0 -0.29095624868E+03 -0.13515225115E+04 -0.28261507673E+03  0.14110775775E+04  0.10100000352E+00 0. -1.
       -3    1    3    3    0  502  0.29095624868E+03  0.13515225115E+04 -0.63569640850E+03  0.15216368068E+04  0.10100000352E+00 0.  1.
</event>
<event>
 5   0  0.7613444E-06  0.2986862E+04  0.7818609E-02  0.8247492E-01
        1   -1    0    0  501    0  0.00000000000E+00  0.00000000000E+00  0.23841185660E+04  0.23841185660E+04  0.50400001928E-02 0. -1.
       -1   -1    0    0    0  501  0.00000000000E+00  0.00000000000E+00 -0.93549736604E+03  0.93549736605E+03  0.50400001928E-02 0.  1.
    10030    2    1    2    0    0  0.00000000000E+00  0.00000000000E+00  0.14486212000E+04  0.33196159321E+04  0.29868623262E+04 0.  0.
        5    1    3    3  502    0  0.87283284984E+03  0.48737673733E+02 -0.62140946820E+03  0.10725597241E+04  0.46999998093E+01 0.  1.
       -5    1    3    3    0  502 -0.87283284984E+03 -0.48737673733E+02  0.20700306682E+04  0.22470562080E+04  0.46999998093E+01 0. -1.
</event>
<event>
 5   0  0.1832502E-05  0.2708196E+04  0.7818609E-02  0.8332351E-01
        2   -1    0    0  501    0  0.00000000000E+00  0.00000000000E+00  0.17855190519E+04  0.17855190519E+04  0.25500000920E-02 0.  1.
       -2   -1    0    0    0  501  0.00000000000E+00  0.00000000000E+00 -0.10269176082E+04  0.10269176082E+04  0.25500000920E-02 0. -1.
    10030    2    1    2    0    0  0.00000000000E+00  0.00000000000E+00  0.75860144375E+03  0.28124366601E+04  0.27081956754E+04 0.  0.
        2    1    3    3  502    0  0.49021339559E+03  0.10444451270E+04  0.11153894830E+04  0.16047643115E+04  0.25500000920E-02 0.  1.
       -2    1    3    3    0  502 -0.49021339559E+03 -0.10444451270E+04 -0.35678803926E+03  0.12076723486E+04  0.25500000920E-02 0. -1.
</event>
<event>
 5   0  0.7555871E-06  0.2703949E+04  0.7818609E-02  0.8333725E-01
       -1   -1    0    0    0  501  0.00000000000E+00  0.00000000000E+00  0.10708967207E+04  0.10708967207E+04  0.50400001928E-02 0. -1.
        1   -1    0    0  501    0  0.00000000000E+00  0.00000000000E+00 -0.17068265141E+04  0.17068265141E+04  0.50400001928E-02 0.  1.
    10030    2    1    2    0    0  0.00000000000E+00  0.00000000000E+00 -0.63592979341E+03  0.27777232348E+04  0.27039489025E+04 0.  0.
        3    1    3    3  502    0 -0.83615233165E+02 -0.96293550477E+03  0.65313013962E+03  0.11665398763E+04  0.10100000352E+00 0. -1.
       -3    1    3    3    0  502  0.83615233165E+02  0.96293550477E+03 -0.12890599330E+04  0.16111833585E+04  0.10100000352E+00 0.  1.
</event>
<event>
 5   0  0.7388013E-06  0.2697143E+04  0.7818609E-02  0.8335932E-01
        1   -1    0    0  501    0  0.00000000000E+00  0.00000000000E+00  0.20668521970E+04  0.20668521970E+04  0.50400001928E-02 0. -1.
       -1   -1    0    0    0  501  0.00000000000E+00  0.00000000000E+00 -0.87991067844E+03  0.87991067845E+03  0.50400001928E-02 0.  1.
    10030    2    1    2    0    0  0.00000000000E+00  0.00000000000E+00  0.11869415186E+04  0.29467628755E+04  0.26971431693E+04 0.  0.
        1    1    3    3  502    0 -0.73725012155E+03  0.10923538523E+04  0.90608249571E+03  0.15992998997E+04  0.50400001928E-02 0. -1.
       -1    1    3    3    0  502  0.73725012155E+03 -0.10923538523E+04  0.28085902288E+03  0.13474629757E+04  0.50400001928E-02 0.  1.
</event>
<event>
 5   0  0.7509685E-06  0.2527336E+04  0.7818609E-02  0.8393311E-01
        1   -1    0    0  501    0  0.00000000000E+00  0.00000000000E+00  0.17729931583E+04  0.17729931583E+04  0.50400001928E-02 0.  1.
       -1   -1    0    0    0  501  0.00000000000E+00  0.00000000000E+00 -0.90065608853E+03  0.90065608855E+03  0.50400001928E-02 0. -1.
    10030    2    1    2    0    0  0.00000000000E+00  0.00000000000E+00  0.87233706980E+03  0.26736492469E+04  0.25273362127E+04 0.  0.
        4    1    3    3  502    0  0.97688582026E+03 -0.67175639602E+03  0.89885931689E+03  0.14877877019E+04  0.12699999809E+01 0. -1.
       -4    1    3    3    0  502 -0.97688582026E+03  0.67175639602E+03 -0.26522247097E+02  0.11858615450E+04  0.12699999809E+01 0.  1.
</event>
<event>
 5   0  0.1923559E-05  0.2772774E+04  0.7818609E-02  0.8311771E-01
        2   -1    0    0  501    0  0.00000000000E+00  0.00000000000E+00  0.19401055335E+04  0.19401055335E+04  0.25500000920E-02 0. -1.
       -2   -1    0    0    0  501  0.00000000000E+00  0.00000000000E+00 -0.99070361787E+03  0.99070361787E+03  0.25500000920E-02 0.  1.
    10030    2    1    2    0    0  0.00000000000E+00  0.00000000000E+00  0.94940191560E+03  0.29308091513E+04  0.27727744741E+04 0.  0.
        4    1    3    3  502    0 -0.13088476738E+04 -0.35586180407E+03  0.17138183793E+03  0.13671478354E+04  0.12699999809E+01 0.  1.
       -4    1    3    3    0  502  0.13088476738E+04  0.35586180407E+03  0.77802007767E+03  0.15636613159E+04  0.12699999809E+01 0. -1.
</event>
<event>
 5   0  0.7555871E-06  0.2870785E+04  0.7818609E-02  0.8281623E-01
       -1   -1    0    0    0  501  0.00000000000E+00  0.00000000000E+00  0.12217688388E+04  0.12217688388E+04  0.50400001928E-02 0. -1.
        1   -1    0    0  501    0  0.00000000000E+00  0.00000000000E+00 -0.16863675158E+04  0.16863675158E+04  0.50400001928E-02 0.  1.
    10030    2    1    2    0    0  0.00000000000E+00  0.00000000000E+00 -0.46459867693E+03  0.29081363546E+04  0.28707847579E+04 0.  0.
        3    1    3    3  502    0 -0.42042755246E+03 -0.37675954160E+02  0.11574735712E+04  0.12320405361E+04  0.10100000352E+00 0. -1.
       -3    1    3    3    0  502  0.42042755246E+03  0.37675954160E+02 -0.16220722481E+04  0.16760958185E+04  0.10100000352E+00 0.  1.
</event>
<event>
 5   0  0.7613444E-06  0.2786800E+04  0.7818609E-02  0.8307378E-01
        1   -1    0    0  501    0  0.00000000000E+00  0.00000000000E+00  0.82389336175E+03  0.82389336177E+03  0.50400001928E-02 0. -1.
       -1   -1    0    0    0  501  0.00000000000E+00  0.00000000000E+00 -0.23565716424E+04  0.23565716424E+04  0.50400001928E-02 0.  1.
    10030    2    1    2    0    0  0.00000000000E+00  0.00000000000E+00 -0.15326782806E+04  0.31804650041E+04  0.27868001239E+04 0.  0.
        5    1    3    3  502    0 -0.71254006977E+03  0.11764300623E+04 -0.51155262945E+03  0.14674499055E+04  0.46999998093E+01 0. -1.
       -5    1    3    3    0  502  0.71254006977E+03 -0.11764300623E+04 -0.10211256511E+04  0.17130150986E+04  0.46999998093E+01 0.  1.
</event>
<event>
 5   0  0.7509685E-06  0.2788334E+04  0.7818609E-02  0.8306900E-01
       -1   -1    0    0    0  501  0.00000000000E+00  0.00000000000E+00  0.16957983273E+04  0.16957983273E+04  0.50400001928E-02 0. -1.
        1   -1    0    0  501    0  0.00000000000E+00  0.00000000000E+00 -0.11461863804E+04  0.11461863804E+04  0.50400001928E-02 0.  1.
    10030    2    1    2    0    0  0.00000000000E+00  0.00000000000E+00  0.54961194690E+03  0.28419847078E+04  0.27883335143E+04 0.  0.
        4    1    3    3  502    0  0.69172706449E+03  0.65504466317E+03  0.13122962510E+04  0.16216327900E+04  0.12699999809E+01 0. -1.
       -4    1    3    3    0  502 -0.69172706449E+03 -0.65504466317E+03 -0.76268430408E+03  0.12203519177E+04  0.12699999809E+01 0.  1.
</event>
<event>
 5   0  0.1832502E-05  0.2740296E+04  0.7818609E-02  0.8322047E-01
       -2   -1    0    0    0  501  0.00000000000E+00  0.00000000000E+00  0.97009977247E+03  0.97009977248E+03  0.25500000920E-02 0.  1.
        2   -1    0    0  501    0  0.00000000000E+00  0.00000000000E+00 -0.19351676108E+04  0.19351676108E+04  0.25500000920E-02 0. -1.
    10030    2    1    2    0    0  0.00000000000E+00  0.00000000000E+00 -0.96506783829E+03  0.29052673832E+04  0.27402960854E+04 0.  0.
        2    1    3    3  502    0 -0.64156677647E+03  0.62817392777E+03  0.61470868978E+03  0.10881531076E+04  0.25500000920E-02 0.  1.
       -2    1    3    3    0  502  0.64156677647E+03 -0.62817392777E+03 -0.15797765281E+04  0.18171142757E+04  0.25500000920E-02 0. -1.
</event>
<event>
 5   0  0.1923559E-05  0.2791199E+04  0.7818609E-02  0.8306006E-01
        2   -1    0    0  501    0  0.00000000000E+00  0.00000000000E+00  0.14153814429E+04  0.14153814429E+04  0.25500000920E-02 0. -1.
       -2   -1    0    0    0  501  0.00000000000E+00  0.00000000000E+00 -0.13760938373E+04  0.13760938373E+04  0.25500000920E-02 0.  1.
    10030    2    1    2    0    0  0.00000000000E+00  0.00000000000E+00  0.39287605580E+02  0.27914752802E+04  0.27911987969E+04 0.  0.
        4    1    3    3  502    0  0.78657894637E+03 -0.47188563985E+03 -0.10322748041E+04  0.13809327935E+04  0.12699999809E+01 0.  1.
       -4    1    3    3    0  502 -0.78657894637E+03  0.47188563985E+03  0.10715624097E+04  0.14105424867E+04  0.12699999809E+01 0. -1.
</event>
<event>
 5   0  0.1923559E-05  0.2185052E+04  0.7818609E-02  0.8524676E-01
        2   -1    0    0  501    0  0.00000000000E+00  0.00000000000E+00  0.10768593140E+04  0.10768593140E+04  0.25500000920E-02 0. -1.
       -2   -1    0    0    0  501  0.00000000000E+00  0.00000000000E+00 -0.11084205374E+04  0.11084205374E+04  0.25500000920E-02 0.  1.
    10030    2    1    2    0    0  0.00000000000E+00  0.00000000000E+00 -0.31561223350E+02  0.21852798514E+04  0.21850519257E+04 0.  0.
        4    1    3    3  502    0 -0.75836527957E+03 -0.76608617274E+03  0.16201713647E+03  0.10900720558E+04  0.12699999809E+01 0. -1.
       -4    1    3    3    0  502  0.75836527957E+03  0.76608617274E+03 -0.19357835982E+03  0.10952077956E+04  0.12699999809E+01 0.  1.
</event>
<event>
 5   0  0.7509685E-06  0.2781936E+04  0.7818609E-02  0.8308898E-01
       -1   -1    0    0    0  501  0.00000000000E+00  0.00000000000E+00  0.29663390161E+04  0.29663390161E+04  0.50400001928E-02 0.  1.
        1   -1    0    0  501    0  0.00000000000E+00  0.00000000000E+00 -0.65224933731E+03  0.65224933733E+03  0.50400001928E-02 0. -1.
    10030    2    1    2    0    0  0.00000000000E+00  0.00000000000E+00  0.23140896788E+04  0.36185883534E+04  0.27819364892E+04 0.  0.
        4    1    3    3  502    0  0.13849895846E+03  0.12390935274E+04  0.35494175416E+03  0.12963487158E+04  0.12699999809E+01 0. -1.
       -4    1    3    3    0  502 -0.13849895846E+03 -0.12390935274E+04  0.19591479246E+04  0.23222396376E+04  0.12699999809E+01 0.  1.
</event>
<event>
 5   0  0.1832502E-05  0.2628530E+04  0.7818609E-02  0.8358574E-01
       -2   -1    0    0    0  501  0.00000000000E+00  0.00000000000E+00  0.72774703198E+03  0.72774703198E+03  0.25500000920E-02 0.  1.
        2   -1    0    0  501    0  0.00000000000E+00  0.00000000000E+00 -0.23734785477E+04  0.23734785477E+04  0.25500000920E-02 0. -1.
    10030    2    1    2    0    0  0.00000000000E+00  0.00000000000E+00 -0.16457315158E+04  0.31012255797E+04  0.26285296031E+04 0.  0.
        2    1    3    3  502    0  0.13657355945E+03 -0.13946322805E+03  0.71054917947E+03  0.73687343931E+03  0.25500000920E-02 0.  1.
       -2    1    3    3    0  502 -0.13657355945E+03  0.13946322805E+03 -0.23562806952E+04  0.23643521404E+04  0.25500000920E-02 0. -1.
</event>
<event>
 5   0  0.1923559E-05  0.2741003E+04  0.7818609E-02  0.8321822E-01
       -2   -1    0    0    0  501  0.00000000000E+00  0.00000000000E+00  0.99452651312E+03  0.99452651312E+03  0.25500000920E-02 0.  1.
        2   -1    0    0  501    0  0.00000000000E+00  0.00000000000E+00 -0.18886118618E+04  0.18886118618E+04  0.25500000920E-02 0. -1.
    10030    2    1    2    0    0  0.00000000000E+00  0.00000000000E+00 -0.89408534865E+03  0.28831383749E+04  0.27410031518E+04 0.  0.
        4    1    3    3  502    0 -0.11892864060E+04 -0.40119553103E+01  0.26934306980E+03  0.12194119704E+04  0.12699999809E+01 0.  1.
       -4    1    3    3    0  502  0.11892864060E+04  0.40119553103E+01 -0.11634284184E+04  0.16637264045E+04  0.12699999809E+01 0. -1.
</event>
<event>
 5   0  0.1814230E-05  0.2776913E+04  0.7818609E-02  0.8310472E-01
       -2   -1    0    0    0  501  0.00000000000E+00  0.00000000000E+00  0.72628639178E+03  0.72628639178E+03  0.25500000920E-02 0.  1.
        2   -1    0    0  501    0  0.00000000000E+00  0.00000000000E+00 -0.26543408984E+04  0.26543408984E+04  0.25500000920E-02 0. -1.
    10030    2    1    2    0    0  0.00000000000E+00  0.00000000000E+00 -0.19280545066E+04  0.33806272902E+04  0.27769131594E+04 0.  0.
        5    1    3    3  502    0 -0.44073611490E+03  0.83322009375E+03 -0.22051148520E+04  0.23981362864E+04  0.46999998093E+01 0. -1.
       -5    1    3    3    0  502  0.44073611490E+03 -0.83322009375E+03  0.27706034535E+03  0.98249100382E+03  0.46999998093E+01 0.  1.
</event>
<event>
 5   0  0.6288000E-06  0.2870136E+04  0.7818609E-02  0.8281819E-01
        4   -1    0    0  501    0  0.00000000000E+00  0.00000000000E+00  0.14342146794E+04  0.14342152416E+04  0.12699999809E+01 0.  1.
       -4   -1    0    0    0  501  0.00000000000E+00  0.00000000000E+00 -0.14359203896E+04  0.14359209512E+04  0.12699999809E+01 0. -1.
    10030    2    1    2    0    0  0.00000000000E+00  0.00000000000E+00 -0.17057102439E+01  0.28701361929E+04  0.28701356860E+04 0.  0.
        5    1    3    3  502    0  0.89641692586E+03  0.22534958672E+02 -0.11212665903E+04  0.14357339538E+04  0.46999998093E+01 0. -1.
       -5    1    3    3    0  502 -0.89641692586E+03 -0.22534958672E+02  0.11195608801E+04  0.14344022391E+04  0.46999998093E+01 0.  1.
</event>
<event>
 5   0  0.1814230E-05  0.2804115E+04  0.7818609E-02  0.8301992E-01
        2   -1    0    0  501    0  0.00000000000E+00  0.00000000000E+00  0.23367406043E+04  0.23367406043E+04  0.25500000920E-02 0.  1.
       -2   -1    0    0    0  501  0.00000000000E+00  0.00000000000E+00 -0.84124250119E+03  0.84124250120E+03  0.25500000920E-02 0. -1.
    10030    2    1    2    0    0  0.00000000000E+00  0.00000000000E+00  0.14954981031E+04  0.31779831055E+04  0.28041151978E+04 0.  0.
        5    1    3    3  502    0 -0.56187088487E+03  0.17152922784E+03 -0.69501938252E+03  0.91005230583E+03  0.46999998093E+01 0. -1.
       -5    1    3    3    0  502  0.56187088487E+03 -0.17152922784E+03  0.21905174856E+04  0.22679307997E+04  0.46999998093E+01 0.  1.
</event>
<event>
 5   0  0.6288000E-06  0.2774265E+04  0.7818609E-02  0.8311303E-01
        3   -1    0    0  501    0  0.00000000000E+00  0.00000000000E+00  0.22046279534E+04  0.22046279558E+04  0.10100000352E+00 0. -1.
       -3   -1    0    0    0  501  0.00000000000E+00  0.00000000000E+00 -0.87277135113E+03  0.87277135698E+03  0.10100000352E+00 0.  1.
    10030    2    1    2    0    0  0.00000000000E+00  0.00000000000E+00  0.13318566023E+04  0.30773993127E+04  0.27742646811E+04 0.  0.
        1    1    3    3  502    0  0.69831814150E+03  0.63639656446E+03  0.17925235244E+04  0.20262747592E+04  0.50400001928E-02 0. -1.
       -1    1    3    3    0  502 -0.69831814150E+03 -0.63639656446E+03 -0.46066692210E+03  0.10511245536E+04  0.50400001928E-02 0.  1.
</event>
<event>
 5   0  0.7681342E-06  0.2762143E+04  0.7818609E-02  0.8315119E-01
       -1   -1    0    0    0  501  0.00000000000E+00  0.00000000000E+00  0.97044482304E+03  0.97044482306E+03  0.50400001928E-02 0. -1.
        1   -1    0    0  501    0  0.00000000000E+00  0.00000000000E+00 -0.19654483202E+04  0.19654483202E+04  0.50400001928E-02 0.  1.
    10030    2    1    2    0    0  0.00000000000E+00  0.00000000000E+00 -0.99500349716E+03  0.29358931433E+04  0.27621434773E+04 0.  0.
        2    1    3    3  502    0 -0.14235054584E+02  0.62700933570E+03 -0.18053555979E+04  0.19111912983E+04  0.25500000920E-02 0.  1.
       -2    1    3    3    0  502  0.14235054584E+02 -0.62700933570E+03  0.81035210076E+03  0.10247018449E+04  0.25500000920E-02 0. -1.
</event>
<event>
 5   0  0.1904553E-05  0.2775411E+04  0.7818609E-02  0.8310943E-01
       -2   -1    0    0    0  501  0.00000000000E+00  0.00000000000E+00  0.10368900109E+04  0.10368900109E+04  0.25500000920E-02 0.  1.
        2   -1    0    0  501    0  0.00000000000E+00  0.00000000000E+00 -0.18572135116E+04  0.18572135116E+04  0.25500000920E-02 0. -1.
    10030    2    1    2    0    0  0.00000000000E+00  0.00000000000E+00 -0.82032350075E+03  0.28941035225E+04  0.27754106999E+04 0.  0.
        1    1    3    3  502    0  0.24815906716E+03 -0.54419989481E+02 -0.18327564562E+04  0.18502812450E+04  0.50400001928E-02 0. -1.
       -1    1    3    3    0  502 -0.24815906716E+03  0.54419989481E+02  0.10124329554E+04  0.10438222776E+04  0.50400001928E-02 0.  1.
</event>
<event>
 5   0  0.7509685E-06  0.2909680E+04  0.7818609E-02  0.8270003E-01
        1   -1    0    0  501    0  0.00000000000E+00  0.00000000000E+00  0.14546980844E+04  0.14546980844E+04  0.50400001928E-02 0. -1.
       -1   -1    0    0    0  501  0.00000000000E+00  0.00000000000E+00 -0.14549816856E+04  0.14549816856E+04  0.50400001928E-02 0.  1.
    10030    2    1    2    0    0  0.00000000000E+00  0.00000000000E+00 -0.28360117119E+00  0.29096797700E+04  0.29096797562E+04 0.  0.
        4    1    3    3  502    0  0.92985389454E+03 -0.63365778878E+03 -0.92231695079E+03  0.14549297677E+04  0.12699999809E+01 0.  1.
       -4    1    3    3    0  502 -0.92985389454E+03  0.63365778878E+03  0.92203334962E+03  0.14547500023E+04  0.12699999809E+01 0. -1.
</event>
<event>
 5   0  0.1874272E-05  0.2826995E+04  0.7818609E-02  0.8294936E-01
        2   -1    0    0  501    0  0.00000000000E+00  0.00000000000E+00  0.15655175586E+04  0.15655175586E+04  0.25500000920E-02 0. -1.
       -2   -1    0    0    0  501  0.00000000000E+00  0.00000000000E+00 -0.12762390260E+04  0.12762390260E+04  0.25500000920E-02 0.  1.
    10030    2    1    2    0    0  0.00000000000E+00  0.00000000000E+00  0.28927853257E+03  0.28417565846E+04  0.28269945909E+04 0.  0.
        3    1    3    3  502    0 -0.13604183694E+04 -0.38339474894E+03  0.16037093062E+03  0.14224797077E+04  0.10100000352E+00 0. -1.
       -3    1    3    3    0  502  0.13604183694E+04  0.38339474894E+03  0.12890760195E+03  0.14192768769E+04  0.10100000352E+00 0.  1.
</event>
<event>
 5   0  0.7613444E-06  0.2836071E+04  0.7818609E-02  0.8292156E-01
       -1   -1    0    0    0  501  0.00000000000E+00  0.00000000000E+00  0.84712529539E+03  0.84712529541E+03  0.50400001928E-02 0. -1.
        1   -1    0    0  501    0  0.00000000000E+00  0.00000000000E+00 -0.23737041071E+04  0.23737041071E+04  0.50400001928E-02 0.  1.
    10030    2    1    2    0    0  0.00000000000E+00  0.00000000000E+00 -0.15265788117E+04  0.32208294025E+04  0.28360710802E+04 0.  0.
        5    1    3    3  502    0  0.24400326902E+03  0.31471912411E+03  0.78230857435E+03  0.87784652296E+03  0.46999998093E+01 0. -1.
       -5    1    3    3    0  502 -0.24400326902E+03 -0.31471912411E+03 -0.23088873860E+04  0.23429828795E+04  0.46999998093E+01 0.  1.
</event>
<event>
 5   0  0.7555871E-06  0.2900855E+04  0.7818609E-02  0.8272623E-01
       -1   -1    0    0    0  501  0.00000000000E+00  0.00000000000E+00  0.10439949106E+04  0.10439949106E+04  0.50400001928E-02 0.  1.
        1   -1    0    0  501    0  0.00000000000E+00  0.00000000000E+00 -0.20150859160E+04  0.20150859160E+04  0.50400001928E-02 0. -1.
    10030    2    1    2    0    0  0.00000000000E+00  0.00000000000E+00 -0.97109100543E+03  0.30590808266E+04  0.29008546608E+04 0.  0.
        3    1    3    3  502    0  0.69490489528E+03 -0.93376559161E+03  0.42706432720E+03  0.12398366599E+04  0.10100000352E+00 0.  1.
       -3    1    3    3    0  502 -0.69490489528E+03  0.93376559161E+03 -0.13981553326E+04  0.18192441667E+04  0.10100000352E+00 0. -1.
</event>
<event>
 5   0  0.1832502E-05  0.2771145E+04  0.7818609E-02  0.8312283E-01
        2   -1    0    0  501    0  0.00000000000E+00  0.00000000000E+00  0.16418276855E+04  0.16418276855E+04  0.25500000920E-02 0.  1.
       -2   -1    0    0    0  501  0.00000000000E+00  0.00000000000E+00 -0.11693134030E+04  0.11693134030E+04  0.25500000920E-02 0. -1.
    10030    2    1    2    0    0  0.00000000000E+00  0.00000000000E+00  0.47251428247E+03  0.28111410885E+04  0.27711449749E+04 0.  0.
        2    1    3    3  502    0  0.12442193262E+04 -0.67719414216E+02 -0.37841184182E+03  0.13022531139E+04  0.25500000920E-02 0. -1.
       -2    1    3    3    0  502 -0.12442193262E+04  0.67719414216E+02  0.85092612428E+03  0.15088879745E+04  0.25500000920E-02 0.  1.
</event>
<event>
 5   0  0.1814230E-05  0.2888420E+04  0.7818609E-02  0.8276331E-01
        2   -1    0    0  501    0  0.00000000000E+00  0.00000000000E+00  0.13308839515E+04  0.13308839515E+04  0.25500000920E-02 0.  1.
       -2   -1    0    0    0  501  0.00000000000E+00  0.00000000000E+00 -0.15671860952E+04  0.15671860952E+04  0.25500000920E-02 0. -1.
    10030    2    1    2    0    0  0.00000000000E+00  0.00000000000E+00 -0.23630214369E+03  0.28980700467E+04  0.28884202070E+04 0.  0.
        5    1    3    3  502    0 -0.14076632486E+04 -0.32279670925E+03 -0.12084260126E+03  0.14492544846E+04  0.46999998093E+01 0.  1.
       -5    1    3    3    0  502  0.14076632486E+04  0.32279670925E+03 -0.11545954243E+03  0.14488155621E+04  0.46999998093E+01 0. -1.
</event>
<event>
 5   0  0.7509685E-06  0.2788168E+04  0.7818609E-02  0.8306951E-01
       -1   -1    0    0    0  501  0.00000000000E+00  0.00000000000E+00  0.15706326743E+04  0.15706326743E+04  0.50400001928E-02 0. -1.
        1   -1    0    0  501    0  0.00000000000E+00  0.00000000000E+00 -0.12373800574E+04  0.12373800574E+04  0.50400001928E-02 0.  1.
    10030    2    1    2    0    0  0.00000000000E+00  0.00000000000E+00  0.33325261688E+03  0.28080127318E+04  0.27881675336E+04 0.  0.
        4    1    3    3  502    0  0.71342227311E+03 -0.71372651241E+03 -0.80203610683E+03  0.12890463156E+04  0.12699999809E+01 0.  1.
       -4    1    3    3    0  502 -0.71342227311E+03  0.71372651241E+03  0.11352887237E+04  0.15189664161E+04  0.12699999809E+01 0. -1.
</event>
<event>
 5   0  0.1923559E-05  0.2758542E+04  0.7818609E-02  0.8316256E-01
       -2   -1    0    0    0  501  0.00000000000E+00  0.00000000000E+00  0.10400568555E+04  0.10400568555E+04  0.25500000920E-02 0. -1.
        2   -1    0    0  501    0  0.00000000000E+00  0.00000000000E+00 -0.18291191527E+04  0.18291191527E+04  0.25500000920E-02 0.  1.
    10030    2    1    2    0    0  0.00000000000E+00  0.00000000000E+00 -0.78906229723E+03  0.28691760082E+04  0.27585415815E+04 0.  0.
        4    1    3    3  502    0 -0.10933418957E+04  0.22831284247E+03 -0.12362225643E+04  0.16660645535E+04  0.12699999809E+01 0.  1.
       -4    1    3    3    0  502  0.10933418957E+04 -0.22831284247E+03  0.44716026710E+03  0.12031114547E+04  0.12699999809E+01 0. -1.
</event>
<event>
 5   0  0.7613444E-06  0.2853389E+04  0.7818609E-02  0.8286882E-01
        1   -1    0    0  501    0  0.00000000000E+00  0.00000000000E+00  0.21768147427E+04  0.21768147427E+04  0.50400001928E-02 0.  1.
       -1   -1    0    0    0  501  0.00000000000E+00  0.00000000000E+00 -0.93506242076E+03  0.93506242077E+03  0.50400001928E-02 0. -1.
    10030    2    1    2    0    0  0.00000000000E+00  0.00000000000E+00  0.12417523219E+04  0.31118771635E+04  0.28533893270E+04 0.  0.
        5    1    3    3  502    0 -0.41748155936E+03  0.67119868313E+03 -0.67441993326E+03  0.10390682658E+04  0.46999998093E+01 0. -1.
       -5    1    3    3    0  502  0.41748155936E+03 -0.67119868313E+03  0.19161722552E+04  0.20728088977E+04  0.46999998093E+01 0.  1.
</event>
<event>
 5   0  0.1832502E-05  0.2774830E+04  0.7818609E-02  0.8311125E-01
       -2   -1    0    0    0  501  0.00000000000E+00  0.00000000000E+00  0.70762006335E+03  0.70762006335E+03  0.25500000920E-02 0. -1.
        2   -1    0    0  501    0  0.00000000000E+00  0.00000000000E+00 -0.27202744631E+04  0.27202744631E+04  0.25500000920E-02 0.  1.
    10030    2    1    2    0    0  0.00000000000E+00  0.00000000000E+00 -0.20126543998E+04  0.34278945265E+04  0.27748302924E+04 0.  0.
        2    1    3    3  502    0  0.11870702095E+04 -0.62158971678E+03 -0.14507303958E+04  0.19748742085E+04  0.25500000920E-02 0.  1.
       -2    1    3    3    0  502 -0.11870702095E+04  0.62158971678E+03 -0.56192400402E+03  0.14530203180E+04  0.25500000920E-02 0. -1.
</event>
<event>
 5   0  0.1874272E-05  0.2830300E+04  0.7818609E-02  0.8293923E-01
       -2   -1    0    0    0  501  0.00000000000E+00  0.00000000000E+00  0.85221529708E+03  0.85221529708E+03  0.25500000920E-02 0. -1.
        2   -1    0    0  501    0  0.00000000000E+00  0.00000000000E+00 -0.23499342564E+04  0.23499342564E+04  0.25500000920E-02 0.  1.
    10030    2    1    2    0    0  0.00000000000E+00  0.00000000000E+00 -0.14977189593E+04  0.32021495535E+04  0.28303002812E+04 0.  0.
        3    1    3    3  502    0 -0.38604186203E+03 -0.62378628302E+03  0.62030493582E+03  0.96068510435E+03  0.10100000352E+00 0. -1.
       -3    1    3    3    0  502  0.38604186203E+03  0.62378628302E+03 -0.21180238951E+04  0.22414644491E+04  0.10100000352E+00 0.  1.
</event>
<event>
 5   0  0.7681342E-06  0.2734853E+04  0.7818609E-02  0.8323784E-01
        1   -1    0    0  501    0  0.00000000000E+00  0.00000000000E+00  0.27936199557E+04  0.27936199557E+04  0.50400001928E-02 0.  1.
       -1   -1    0    0    0  501  0.00000000000E+00  0.00000000000E+00 -0.66933058367E+03  0.66933058369E+03  0.50400001928E-02 0. -1.
    10030    2    1    2    0    0  0.00000000000E+00  0.00000000000E+00  0.21242893720E+04  0.34629505394E+04  0.27348530312E+04 0.  0.
        2    1    3    3  502    0 -0.34465899010E+03 -0.33525256082E+03 -0.55876270802E+03  0.73715660675E+03  0.25500000920E-02 0. -1.
       -2    1    3    3    0  502  0.34465899010E+03  0.33525256082E+03  0.26830520800E+04  0.27257939326E+04  0.25500000920E-02 0.  1.
</event>
<event>
 5   0  0.7613444E-06  0.2845744E+04  0.7818609E-02  0.8289206E-01
       -1   -1    0    0    0  501  0.00000000000E+00  0.00000000000E+00  0.83975825155E+03  0.83975825157E+03  0.50400001928E-02 0.  1.
        1   -1    0    0  501    0  0.00000000000E+00  0.00000000000E+00 -0.24108898785E+04  0.24108898785E+04  0.50400001928E-02 0. -1.
    10030    2    1    2    0    0  0.00000000000E+00  0.00000000000E+00 -0.15711316270E+04  0.32506481301E+04  0.28457439583E+04 0.  0.
        5    1    3    3  502    0 -0.66786987950E+03 -0.11935412193E+04 -0.12337602582E+04  0.18419493161E+04  0.46999998093E+01 0.  1.
       -5    1    3    3    0  502  0.66786987950E+03  0.11935412193E+04 -0.33737136878E+03  0.14086988140E+04  0.46999998093E+01 0. -1.
</event>
<event>
 5   0  0.1874272E-05  0.2812060E+04  0.7818609E-02  0.8299534E-01
        2   -1    0    0  501    0  0.00000000000E+00  0.00000000000E+00  0.10622991301E+04  0.10622991301E+04  0.25500000920E-02 0. -1.
       -2   -1    0    0    0  501  0.00000000000E+00  0.00000000000E+00 -0.18609821160E+04  0.18609821160E+04  0.25500000920E-02 0.  1.
    10030    2    1    2    0    0  0.00000000000E+00  0.00000000000E+00 -0.79868298583E+03  0.29232812461E+04  0.28120595179E+04 0.  0.
        3    1    3    3  502    0  0.23574316703E+03  0.68575949623E+03  0.85291007017E+03  0.11195072691E+04  0.10100000352E+00 0. -1.
       -3    1    3    3    0  502 -0.23574316703E+03 -0.68575949623E+03 -0.16515930560E+04  0.18037739771E+04  0.10100000352E+00 0.  1.
</event>
<event>
 5   0  0.1874272E-05  0.2665617E+04  0.7818609E-02  0.8346248E-01
        2   -1    0    0  501    0  0.00000000000E+00  0.00000000000E+00  0.23868832272E+04  0.23868832272E+04  0.25500000920E-02 0. -1.
       -2   -1    0    0    0  501  0.00000000000E+00  0.00000000000E+00 -0.74422493152E+03  0.74422493153E+03  0.25500000920E-02 0.  1.
    10030    2    1    2    0    0  0.00000000000E+00  0.00000000000E+00  0.16426582957E+04  0.31311081587E+04  0.26656166313E+04 0.  0.
        3    1    3    3  502    0 -0.23863347712E+03  0.12516247159E+04  0.12805886463E+04  0.18064931932E+04  0.10100000352E+00 0. -1.
       -3    1    3    3    0  502  0.23863347712E+03 -0.12516247159E+04  0.36206964941E+03  0.13246149656E+04  0.10100000352E+00 0.  1.
</event>
<event>
 5   0  0.1832502E-05  0.2859976E+04  0.7818609E-02  0.8284886E-01
       -2   -1    0    0    0  501  0.00000000000E+00  0.00000000000E+00  0.81868692842E+03  0.81868692843E+03  0.25500000920E-02 0. -1.
        2   -1    0    0  501    0  0.00000000000E+00  0.00000000000E+00 -0.24977374732E+04  0.24977374732E+04  0.25500000920E-02 0.  1.
    10030    2    1    2    0    0  0.00000000000E+00  0.00000000000E+00 -0.16790505448E+04  0.33164244016E+04  0.28599755383E+04 0.  0.
        2    1    3    3  502    0  0.11476002140E+04  0.12183924880E+03 -0.18187060802E+04  0.21539551667E+04  0.25500000920E-02 0.  1.
       -2    1    3    3    0  502 -0.11476002140E+04 -0.12183924880E+03  0.13965553549E+03  0.11624692350E+04  0.25500000920E-02 0. -1.
</event>
<event>
 5   0  0.7388013E-06  0.2779895E+04  0.7818609E-02  0.8309538E-01
        1   -1    0    0  501    0  0.00000000000E+00  0.00000000000E+00  0.19141237314E+04  0.19141237314E+04  0.50400001928E-02 0. -1.
       -1   -1    0    0    0  501  0.00000000000E+00  0.00000000000E+00 -0.10093149779E+04  0.10093149780E+04  0.50400001928E-02 0.  1.
    10030    2    1    2    0    0  0.00000000000E+00  0.00000000000E+00  0.90480875343E+03  0.29234387093E+04  0.27798947834E+04 0.  0.
        1    1    3    3  502    0 -0.10540883594E+04 -0.52142395702E+03 -0.32677843330E+03  0.12205610828E+04  0.50400001928E-02 0.  1.
       -1    1    3    3    0  502  0.10540883594E+04  0.52142395702E+03  0.12315871867E+04  0.17028776265E+04  0.50400001928E-02 0. -1.
</event>
<event>
 5   0  0.1923559E-05  0.2903157E+04  0.7818609E-02  0.8271939E-01
        2   -1    0    0  501    0  0.00000000000E+00  0.00000000000E+00  0.26602875046E+04  0.26602875046E+04  0.25500000920E-02 0. -1.
       -2   -1    0    0    0  501  0.00000000000E+00  0.00000000000E+00 -0.79204964923E+03  0.79204964923E+03  0.25500000920E-02 0.  1.
    10030    2    1    2    0    0  0.00000000000E+00  0.00000000000E+00  0.18682378554E+04  0.34523371539E+04  0.29031567542E+04 0.  0.
        4    1    3    3  502    0 -0.64560457263E+03 -0.82018870231E+03 -0.26544515918E+03  0.10770225239E+04  0.12699999809E+01 0.  1.
       -4    1    3    3    0  502  0.64560457263E+03  0.82018870231E+03  0.21336830146E+04  0.23753146300E+04  0.12699999809E+01 0. -1.
</event>
<event>
 5   0  0.1874272E-05  0.2769655E+04  0.7818609E-02  0.8312752E-01
        2   -1    0    0  501    0  0.00000000000E+00  0.00000000000E+00  0.16019944369E+04  0.16019944369E+04  0.25500000920E-02 0.  1.
       -2   -1    0    0    0  501  0.00000000000E+00  0.00000000000E+00 -0.11970993774E+04  0.11970993774E+04  0.25500000920E-02 0. -1.
    10030    2    1    2    0    0  0.00000000000E+00  0.00000000000E+00  0.40489505956E+03  0.27990938143E+04  0.27696545221E+04 0.  0.
        3    1    3    3  502    0 -0.86469100613E+03 -0.83794587670E+03 -0.48885736553E+03  0.12995481378E+04  0.10100000352E+00 0. -1.
       -3    1    3    3    0  502  0.86469100613E+03  0.83794587670E+03  0.89375242510E+03  0.14995456765E+04  0.10100000352E+00 0.  1.
</event>
<event>
 5   0  0.7681342E-06  0.2792305E+04  0.7818609E-02  0.8305661E-01
        1   -1    0    0  501    0  0.00000000000E+00  0.00000000000E+00  0.23050827073E+04  0.23050827073E+04  0.50400001928E-02 0. -1.
       -1   -1    0    0    0  501  0.00000000000E+00  0.00000000000E+00 -0.84562746248E+03  0.84562746249E+03  0.50400001928E-02 0.  1.
    10030    2    1    2    0    0  0.00000000000E+00  0.00000000000E+00  0.14594552448E+04  0.31507101698E+04  0.27923045970E+04 0.  0.
        2    1    3    3  502    0 -0.50084612178E+03 -0.11141697883E+03 -0.73538819715E+03  0.89669190996E+03  0.25500000920E-02 0.  1.
       -2    1    3    3    0  502  0.50084612178E+03  0.11141697883E+03  0.21948434420E+04  0.22540182598E+04  0.25500000920E-02 0. -1.
</event>
<event>
 5   0  0.7388013E-06  0.2231295E+04  0.7818609E-02  0.8505514E-01
        1   -1    0    0  501    0  0.00000000000E+00  0.00000000000E+00  0.94850293739E+03  0.94850293740E+03  0.50400001928E-02 0. -1.
       -1   -1    0    0    0  501  0.00000000000E+00  0.00000000000E+00 -0.13122457489E+04  0.13122457489E+04  0.50400001928E-02 0.  1.
    10030    2    1    2    0    0  0.00000000000E+00  0.00000000000E+00 -0.36374281149E+03  0.22607486863E+04  0.22312946443E+04 0.  0.
        1    1    3    3  502    0  0.10652118831E+03  0.49537029081E+03 -0.11889388388E+04  0.12924063026E+04  0.50400001928E-02 0.  1.
       -1    1    3    3    0  502 -0.10652118831E+03 -0.49537029081E+03  0.82519602729E+03  0.96834238370E+03  0.50400001928E-02 0. -1.
</event>
<event>
 5   0  0.1904553E-05  0.2502864E+04  0.7818609E-02  0.8401966E-01
        2   -1    0    0  501    0  0.00000000000E+00  0.00000000000E+00  0.12138908978E+04  0.12138908978E+04  0.25500000920E-02 0. -1.
       -2   -1    0    0    0  501  0.00000000000E+00  0.00000000000E+00 -0.12901340419E+04  0.12901340419E+04  0.25500000920E-02 0.  1.
    10030    2    1    2    0    0  0.00000000000E+00  0.00000000000E+00 -0.76243144109E+02  0.25040249396E+04  0.25028639358E+04 0.  0.
        1    1    3    3  502    0 -0.39336152290E+03 -0.78142540513E+02  0.11478575291E+04  0.12159014974E+04  0.50400001928E-02 0. -1.
       -1    1    3    3    0  502  0.39336152290E+03  0.78142540513E+02 -0.12241006732E+04  0.12881234422E+04  0.50400001928E-02 0.  1.
</event>
<event>
 5   0  0.7613444E-06  0.2824699E+04  0.7818609E-02  0.8295641E-01
        1   -1    0    0  501    0  0.00000000000E+00  0.00000000000E+00  0.23645634724E+04  0.23645634724E+04  0.50400001928E-02 0.  1.
       -1   -1    0    0    0  501  0.00000000000E+00  0.00000000000E+00 -0.84359388725E+03  0.84359388726E+03  0.50400001928E-02 0. -1.
    10030    2    1    2    0    0  0.00000000000E+00  0.00000000000E+00  0.15209695852E+04  0.32081573597E+04  0.28246991283E+04 0.  0.
        5    1    3    3  502    0  0.10103951924E+04 -0.96466844090E+03  0.52435338347E+03  0.14921300903E+04  0.46999998093E+01 0. -1.
       -5    1    3    3    0  502 -0.10103951924E+04  0.96466844090E+03  0.99661620172E+03  0.17160272694E+04  0.46999998093E+01 0.  1.
</event>
<event>
 5   0  0.7388013E-06  0.2777643E+04  0.7818609E-02  0.8310243E-01
       -1   -1    0    0    0  501  0.00000000000E+00  0.00000000000E+00  0.91042847819E+03  0.91042847820E+03  0.50400001928E-02 0. -1.
        1   -1    0    0  501    0  0.00000000000E+00  0.00000000000E+00 -0.21185898011E+04  0.21185898011E+04  0.50400001928E-02 0.  1.
    10030    2    1    2    0    0  0.00000000000E+00  0.00000000000E+00 -0.12081613229E+04  0.30290182793E+04  0.27776425173E+04 0.  0.
        1    1    3    3  502    0  0.61620507662E+02  0.41651104335E+03  0.83915187372E+03  0.93885803154E+03  0.50400001928E-02 0. -1.
       -1    1    3    3    0  502 -0.61620507662E+02 -0.41651104335E+03 -0.20473131966E+04  0.20901602478E+04  0.50400001928E-02 0.  1.
</event>
<event>
 5   0  0.1874272E-05  0.2800025E+04  0.7818609E-02  0.8303261E-01
       -2   -1    0    0    0  501  0.00000000000E+00  0.00000000000E+00  0.99666750110E+03  0.99666750110E+03  0.25500000920E-02 0.  1.
        2   -1    0    0  501    0  0.00000000000E+00  0.00000000000E+00 -0.19665885071E+04  0.19665885071E+04  0.25500000920E-02 0. -1.
    10030    2    1    2    0    0  0.00000000000E+00  0.00000000000E+00 -0.96992100598E+03  0.29632560082E+04  0.28000248949E+04 0.  0.
        3    1    3    3  502    0  0.56716461630E+03 -0.12605659621E+04 -0.72001808610E+03  0.15585661042E+04  0.10100000352E+00 0. -1.
       -3    1    3    3    0  502 -0.56716461630E+03  0.12605659621E+04 -0.24990291988E+03  0.14046899040E+04  0.10100000352E+00 0.  1.
</event>
<event>
 5   0  0.7388013E-06  0.2825798E+04  0.7818609E-02  0.8295304E-01
        1   -1    0    0  501    0  0.00000000000E+00  0.00000000000E+00  0.18931025441E+04  0.18931025441E+04  0.50400001928E-02 0. -1.
       -1   -1    0    0    0  501  0.00000000000E+00  0.00000000000E+00 -0.10545035736E+04  0.10545035736E+04  0.50400001928E-02 0.  1.
    10030    2    1    2    0    0  0.00000000000E+00  0.00000000000E+00  0.83859897053E+03  0.29476061176E+04  0.28257978681E+04 0.  0.
        1    1    3    3  502    0  0.49184000865E+03 -0.34373702373E+03 -0.91498803826E+03  0.10941959814E+04  0.50400001928E-02 0.  1.
       -1    1    3    3    0  502 -0.49184000865E+03  0.34373702373E+03  0.17535870088E+04  0.18534101362E+04  0.50400001928E-02 0. -1.
</event>
<event>
 5   0  0.7388013E-06  0.1725380E+04  0.7818609E-02  0.8747020E-01
        1   -1    0    0  501    0  0.00000000000E+00  0.00000000000E+00  0.18586958303E+04  0.18586958303E+04  0.50400001928E-02 0. -1.
       -1   -1    0    0    0  501  0.00000000000E+00  0.00000000000E+00 -0.40040677653E+03  0.40040677656E+03  0.50400001928E-02 0.  1.
    10030    2    1    2    0    0  0.00000000000E+00  0.00000000000E+00  0.14582890538E+04  0.22591026069E+04  0.17253804288E+04 0.  0.
        1    1    3    3  502    0 -0.47343531049E+03  0.17182289863E+03 -0.18792384787E+03  0.53756811135E+03  0.50400001928E-02 0.  1.
       -1    1    3    3    0  502  0.47343531049E+03 -0.17182289863E+03  0.16462129017E+04  0.17215344956E+04  0.50400001928E-02 0. -1.
</event>
<event>
 5   0  0.7681342E-06  0.2749807E+04  0.7818609E-02  0.8319023E-01
        1   -1    0    0  501    0  0.00000000000E+00  0.00000000000E+00  0.18789560398E+04  0.18789560398E+04  0.50400001928E-02 0. -1.
       -1   -1    0    0    0  501  0.00000000000E+00  0.00000000000E+00 -0.10060689776E+04  0.10060689776E+04  0.50400001928E-02 0.  1.
    10030    2    1    2    0    0  0.00000000000E+00  0.00000000000E+00  0.87288706227E+03  0.28850250174E+04  0.27498068164E+04 0.  0.
        2    1    3    3  502    0  0.25455148259E+03 -0.13202930287E+04  0.13529367830E+03  0.13513972467E+04  0.25500000920E-02 0.  1.
       -2    1    3    3    0  502 -0.25455148259E+03  0.13202930287E+04  0.73759338397E+03  0.15336277707E+04  0.25500000920E-02 0. -1.
</event>
<event>
 5   0  0.1904553E-05  0.2779901E+04  0.7818609E-02  0.8309536E-01
       -2   -1    0    0    0  501  0.00000000000E+00  0.00000000000E+00  0.11665183126E+04  0.11665183126E+04  0.25500000920E-02 0.  1.
        2   -1    0    0  501    0  0.00000000000E+00  0.00000000000E+00 -0.16561780652E+04  0.16561780652E+04  0.25500000920E-02 0. -1.
    10030    2    1    2    0    0  0.00000000000E+00  0.00000000000E+00 -0.48965975263E+03  0.28226963778E+04  0.27799007479E+04 0.  0.
        1    1    3    3  502    0  0.10582550402E+04  0.90010934074E+03 -0.20102072591E+03  0.14037485130E+04  0.50400001928E-02 0.  1.
       -1    1    3    3    0  502 -0.10582550402E+04 -0.90010934074E+03 -0.28863902671E+03  0.14189478649E+04  0.50400001928E-02 0. -1.
</event>
<event>
 5   0  0.1874272E-05  0.2704986E+04  0.7818609E-02  0.8333389E-01
        2   -1    0    0  501    0  0.00000000000E+00  0.00000000000E+00  0.15996460446E+04  0.15996460446E+04  0.25500000920E-02 0.  1.
       -2   -1    0    0    0  501  0.00000000000E+00  0.00000000000E+00 -0.11435267059E+04  0.11435267059E+04  0.25500000920E-02 0. -1.
    10030    2    1    2    0    0  0.00000000000E+00  0.00000000000E+00  0.45611933866E+03  0.27431727505E+04  0.27049864857E+04 0.  0.
        3    1    3    3  502    0  0.22653948026E+03 -0.32705412329E+03  0.15389616840E+04  0.15895557904E+04  0.10100000352E+00 0.  1.
       -3    1    3    3    0  502 -0.22653948026E+03  0.32705412329E+03 -0.10828423453E+04  0.11536169601E+04  0.10100000352E+00 0. -1.
</event>
<event>
 5   0  0.1832502E-05  0.2377182E+04  0.7818609E-02  0.8448096E-01
        2   -1    0    0  501    0  0.00000000000E+00  0.00000000000E+00  0.13638139392E+04  0.13638139392E+04  0.25500000920E-02 0. -1.
       -2   -1    0    0    0  501  0.00000000000E+00  0.00000000000E+00 -0.10358806850E+04  0.10358806850E+04  0.25500000920E-02 0.  1.
    10030    2    1    2    0    0  0.00000000000E+00  0.00000000000E+00  0.32793325425E+03  0.23996946242E+04  0.23771819598E+04 0.  0.
        2    1    3    3  502    0 -0.10021317074E+04 -0.59014740856E+03  0.41166068320E+03  0.12336962515E+04  0.25500000920E-02 0. -1.
       -2    1    3    3    0  502  0.10021317074E+04  0.59014740856E+03 -0.83727428951E+02  0.11659983727E+04  0.25500000920E-02 0.  1.
</event>
<event>
 5   0  0.1923559E-05  0.2810804E+04  0.7818609E-02  0.8299922E-01
        2   -1    0    0  501    0  0.00000000000E+00  0.00000000000E+00  0.18303107113E+04  0.18303107113E+04  0.25500000920E-02 0.  1.
       -2   -1    0    0    0  501  0.00000000000E+00  0.00000000000E+00 -0.10791364806E+04  0.10791364806E+04  0.25500000920E-02 0. -1.
    10030    2    1    2    0    0  0.00000000000E+00  0.00000000000E+00  0.75117423065E+03  0.29094471919E+04  0.28108041976E+04 0.  0.
        4    1    3    3  502    0  0.18085335713E+03 -0.11899303669E+04  0.11266628053E+04  0.16486397135E+04  0.12699999809E+01 0.  1.
       -4    1    3    3    0  502 -0.18085335713E+03  0.11899303669E+04 -0.37548857470E+03  0.12608074784E+04  0.12699999809E+01 0. -1.
</event>
<event>
 5   0  0.1874272E-05  0.2762095E+04  0.7818609E-02  0.8315134E-01
       -2   -1    0    0    0  501  0.00000000000E+00  0.00000000000E+00  0.12782548478E+04  0.12782548478E+04  0.25500000920E-02 0.  1.
        2   -1    0    0  501    0  0.00000000000E+00  0.00000000000E+00 -0.14921066344E+04  0.14921066344E+04  0.25500000920E-02 0. -1.
    10030    2    1    2    0    0  0.00000000000E+00  0.00000000000E+00 -0.21385178659E+03  0.27703614821E+04  0.27620952473E+04 0.  0.
        3    1    3    3  502    0 -0.28044650529E+02 -0.44135702809E+03  0.12053129337E+04  0.12838854338E+04  0.10100000352E+00 0.  1.
       -3    1    3    3    0  502  0.28044650529E+02  0.44135702809E+03 -0.14191647203E+04  0.14864760483E+04  0.10100000352E+00 0. -1.
</event>
<event>
 5   0  0.7388013E-06  0.2766797E+04  0.7818609E-02  0.8313651E-01
       -1   -1    0    0    0  501  0.00000000000E+00  0.00000000000E+00  0.14356641985E+04  0.14356641985E+04  0.50400001928E-02 0. -1.
        1   -1    0    0  501    0  0.00000000000E+00  0.00000000000E+00 -0.13330357313E+04  0.13330357313E+04  0.50400001928E-02 0.  1.
    10030    2    1    2    0    0  0.00000000000E+00  0.00000000000E+00  0.10262846717E+03  0.27686999298E+04  0.27667971915E+04 0.  0.
        1    1    3    3  502    0  0.71903934453E+03 -0.78667950728E+03  0.93391253394E+03  0.14170655762E+04  0.50400001928E-02 0. -1.
       -1    1    3    3    0  502 -0.71903934453E+03  0.78667950728E+03 -0.83128406677E+03  0.13516343536E+04  0.50400001928E-02 0.  1.
</event>
<event>
 5   0  0.1923559E-05  0.2807467E+04  0.7818609E-02  0.8300954E-01
        2   -1    0    0  501    0  0.00000000000E+00  0.00000000000E+00  0.14300280411E+04  0.14300280411E+04  0.25500000920E-02 0. -1.
       -2   -1    0    0    0  501  0.00000000000E+00  0.00000000000E+00 -0.13779227449E+04  0.13779227449E+04  0.25500000920E-02 0.  1.
    10030    2    1    2    0    0  0.00000000000E+00  0.00000000000E+00  0.52105296205E+02  0.28079507861E+04  0.28074673026E+04 0.  0.
        4    1    3    3  502    0 -0.11020378303E+04 -0.67362256923E+02 -0.84095388975E+03  0.13878869229E+04  0.12699999809E+01 0.  1.
       -4    1    3    3    0  502  0.11020378303E+04  0.67362256923E+02  0.89305918595E+03  0.14200638632E+04  0.12699999809E+01 0. -1.
</event>
<event>
 5   0  0.1832502E-05  0.2735656E+04  0.7818609E-02  0.8323528E-01
        2   -1    0    0  501    0  0.00000000000E+00  0.00000000000E+00  0.13563794994E+04  0.13563794994E+04  0.25500000920E-02 0.  1.
       -2   -1    0    0    0  501  0.00000000000E+00  0.00000000000E+00 -0.13793726290E+04  0.13793726290E+04  0.25500000920E-02 0. -1.
    10030    2    1    2    0    0  0.00000000000E+00  0.00000000000E+00 -0.22993129601E+02  0.27357521283E+04  0.27356555016E+04 0.  0.
        2    1    3    3  502    0 -0.13469890751E+03 -0.82836031334E+02 -0.13702009317E+04  0.13792955438E+04  0.25500000920E-02 0. -1.
       -2    1    3    3    0  502  0.13469890751E+03  0.82836031334E+02  0.13472078021E+04  0.13564565846E+04  0.25500000920E-02 0.  1.
</event>
<event>
 5   0  0.7681342E-06  0.2822206E+04  0.7818609E-02  0.8296407E-01
       -1   -1    0    0    0  501  0.00000000000E+00  0.00000000000E+00  0.19676929533E+04  0.19676929533E+04  0.50400001928E-02 0.  1.
        1   -1    0    0  501    0  0.00000000000E+00  0.00000000000E+00 -0.10119526779E+04  0.10119526779E+04  0.50400001928E-02 0. -1.
    10030    2    1    2    0    0  0.00000000000E+00  0.00000000000E+00  0.95574027545E+03  0.29796456313E+04  0.28222063379E+04 0.  0.
        2    1    3    3  502    0 -0.72285418329E+03 -0.11918228289E+03  0.17511713686E+04  0.18982422788E+04  0.25500000920E-02 0.  1.
       -2    1    3    3    0  502  0.72285418329E+03  0.11918228289E+03 -0.79543109311E+03  0.10814033525E+04  0.25500000920E-02 0. -1.
</event>
<event>
 5   0  0.7681342E-06  0.2411955E+04  0.7818609E-02  0.8435041E-01
        1   -1    0    0  501    0  0.00000000000E+00  0.00000000000E+00  0.12575339582E+04  0.12575339582E+04  0.50400001928E-02 0.  1.
       -1   -1    0    0    0  501  0.00000000000E+00  0.00000000000E+00 -0.11565345683E+04  0.11565345683E+04  0.50400001928E-02 0. -1.
    10030    2    1    2    0    0  0.00000000000E+00  0.00000000000E+00  0.10099938994E+03  0.24140685265E+04  0.24119548034E+04 0.  0.
        2    1    3    3  502    0 -0.21649881583E+03 -0.61474765483E+03 -0.96507917669E+03  0.11645446465E+04  0.25500000920E-02 0. -1.
       -2    1    3    3    0  502  0.21649881583E+03  0.61474765483E+03  0.10660785666E+04  0.12495238800E+04  0.25500000920E-02 0.  1.
</event>
<event>
 5   0  0.1904553E-05  0.2825151E+04  0.7818609E-02  0.8295502E-01
       -2   -1    0    0    0  501  0.00000000000E+00  0.00000000000E+00  0.10218428295E+04  0.10218428295E+04  0.25500000920E-02 0. -1.
        2   -1    0    0  501    0  0.00000000000E+00  0.00000000000E+00 -0.19527164586E+04  0.19527164586E+04  0.25500000920E-02 0.  1.
    10030    2    1    2    0    0  0.00000000000E+00  0.00000000000E+00 -0.93087362919E+03  0.29745592881E+04  0.28251508358E+04 0.  0.
        1    1    3    3  502    0  0.11877537833E+04 -0.39184580863E+03  0.22584230737E+03  0.12709472591E+04  0.50400001928E-02 0. -1.
       -1    1    3    3    0  502 -0.11877537833E+04  0.39184580863E+03 -0.11567159366E+04  0.17036120290E+04  0.50400001928E-02 0.  1.
</event>
<event>
 5   0  0.7388013E-06  0.2543394E+04  0.7818609E-02  0.8387687E-01
        1   -1    0    0  501    0  0.00000000000E+00  0.00000000000E+00  0.22917906963E+04  0.22917906963E+04  0.50400001928E-02 0. -1.
       -1   -1    0    0    0  501  0.00000000000E+00  0.00000000000E+00 -0.70565459213E+03  0.70565459215E+03  0.50400001928E-02 0.  1.
    10030    2    1    2    0    0  0.00000000000E+00  0.00000000000E+00  0.15861361041E+04  0.29974452884E+04  0.25433935040E+04 0.  0.
        1    1    3    3  502    0  0.11284852990E+04 -0.97155279803E+02  0.14744682646E+04  0.18592941891E+04  0.50400001928E-02 0. -1.
       -1    1    3    3    0  502 -0.11284852990E+04  0.97155279803E+02  0.11166783956E+03  0.11381510993E+04  0.50400001928E-02 0.  1.
</event>
<event>
 5   0  0.7613444E-06  0.2726792E+04  0.7818609E-02  0.8326364E-01
        1   -1    0    0  501    0  0.00000000000E+00  0.00000000000E+00  0.15749506330E+04  0.15749506330E+04  0.50400001928E-02 0. -1.
       -1   -1    0    0    0  501  0.00000000000E+00  0.00000000000E+00 -0.11802582067E+04  0.11802582067E+04  0.50400001928E-02 0.  1.
    10030    2    1    2    0    0  0.00000000000E+00  0.00000000000E+00  0.39469242635E+03  0.27552088397E+04  0.27267918217E+04 0.  0.
        5    1    3    3  502    0 -0.10550622519E+04  0.36380604252E+03 -0.59395964124E+03  0.12642473403E+04  0.46999998093E+01 0.  1.
       -5    1    3    3    0  502  0.10550622519E+04 -0.36380604252E+03  0.98865206760E+03  0.14909614994E+04  0.46999998093E+01 0. -1.
</event>
<event>
 5   0  0.7388013E-06  0.2816768E+04  0.7818609E-02  0.8298081E-01
        1   -1    0    0  501    0  0.00000000000E+00  0.00000000000E+00  0.10035439395E+04  0.10035439395E+04  0.50400001928E-02 0.  1.
       -1   -1    0    0    0  501  0.00000000000E+00  0.00000000000E+00 -0.19765403926E+04  0.19765403926E+04  0.50400001928E-02 0. -1.
    10030    2    1    2    0    0  0.00000000000E+00  0.00000000000E+00 -0.97299645310E+03  0.29800843321E+04  0.28167677449E+04 0.  0.
        1    1    3    3  502    0  0.15760026002E+03  0.25508035789E+03  0.96938443453E+03  0.10146970055E+04  0.50400001928E-02 0.  1.
       -1    1    3    3    0  502 -0.15760026002E+03 -0.25508035789E+03 -0.19423808876E+04  0.19653873266E+04  0.50400001928E-02 0. -1.
</event>
<event>
 5   0  0.7555871E-06  0.1918212E+04  0.7818609E-02  0.8645844E-01
       -1   -1    0    0    0  501  0.00000000000E+00  0.00000000000E+00  0.45065688054E+03  0.45065688057E+03  0.50400001928E-02 0. -1.
        1   -1    0    0  501    0  0.00000000000E+00  0.00000000000E+00 -0.20412080664E+04  0.20412080664E+04  0.50400001928E-02 0.  1.
    10030    2    1    2    0    0  0.00000000000E+00  0.00000000000E+00 -0.15905511858E+04  0.24918649469E+04  0.19182121465E+04 0.  0.
        3    1    3    3  502    0 -0.34994464255E+03 -0.39048901041E+03 -0.18385247339E+04  0.19118358004E+04  0.10100000352E+00 0.  1.
       -3    1    3    3    0  502  0.34994464255E+03  0.39048901041E+03  0.24797354812E+03  0.58002914657E+03  0.10100000352E+00 0. -1.
</event>
<event>
 5   0  0.1874272E-05  0.2813304E+04  0.7818609E-02  0.8299150E-01
        2   -1    0    0  501    0  0.00000000000E+00  0.00000000000E+00  0.10918630377E+04  0.10918630377E+04  0.25500000920E-02 0.  1.
       -2   -1    0    0    0  501  0.00000000000E+00  0.00000000000E+00 -0.18121965586E+04  0.18121965586E+04  0.25500000920E-02 0. -1.
    10030    2    1    2    0    0  0.00000000000E+00  0.00000000000E+00 -0.72033352090E+03  0.29040595964E+04  0.28133044197E+04 0.  0.
        3    1    3    3  502    0  0.29195297656E+03  0.71471310891E+03  0.85361348786E+03  0.11509593240E+04  0.10100000352E+00 0.  1.
       -3    1    3    3    0  502 -0.29195297656E+03 -0.71471310891E+03 -0.15739470088E+04  0.17531002724E+04  0.10100000352E+00 0. -1.
</event>
<event>
 5   0  0.1904553E-05  0.2398949E+04  0.7818609E-02  0.8439897E-01
        2   -1    0    0  501    0  0.00000000000E+00  0.00000000000E+00  0.20650050719E+04  0.20650050719E+04  0.25500000920E-02 0.  1.
       -2   -1    0    0    0  501  0.00000000000E+00  0.00000000000E+00 -0.69672432245E+03  0.69672432245E+03  0.25500000920E-02 0. -1.
    10030    2    1    2    0    0  0.00000000000E+00  0.00000000000E+00  0.13682807495E+04  0.27617293944E+04  0.23989491529E+04 0.  0.
        1    1    3    3  502    0  0.25375137805E+03 -0.64598002321E+03 -0.44209588345E+03  0.82287831569E+03  0.50400001928E-02 0. -1.
       -1    1    3    3    0  502 -0.25375137805E+03  0.64598002321E+03  0.18103766329E+04  0.19388510787E+04  0.50400001928E-02 0.  1.
</event>
<event>
 5   0  0.1923559E-05  0.2791662E+04  0.7818609E-02  0.8305862E-01
       -2   -1    0    0    0  501  0.00000000000E+00  0.00000000000E+00  0.24431742729E+04  0.24431742729E+04  0.25500000920E-02 0. -1.
        2   -1    0    0  501    0  0.00000000000E+00  0.00000000000E+00 -0.79746423783E+03  0.79746423784E+03  0.25500000920E-02 0.  1.
    10030    2    1    2    0    0  0.00000000000E+00  0.00000000000E+00  0.16457100350E+04  0.32406385107E+04  0.27916619490E+04 0.  0.
        4    1    3    3  502    0 -0.67836746689E+03  0.12084926927E+04  0.62963564674E+03  0.15221956737E+04  0.12699999809E+01 0.  1.
       -4    1    3    3    0  502  0.67836746689E+03 -0.12084926927E+04  0.10160743883E+04  0.17184428370E+04  0.12699999809E+01 0. -1.
</event>
<event>
 5   0  0.7681342E-06  0.2866733E+04  0.7818609E-02  0.8282845E-01
       -1   -1    0    0    0  501  0.00000000000E+00  0.00000000000E+00  0.12525299353E+04  0.12525299353E+04  0.50400001928E-02 0.  1.
        1   -1    0    0  501    0  0.00000000000E+00  0.00000000000E+00 -0.16403119477E+04  0.16403119477E+04  0.50400001928E-02 0. -1.
    10030    2    1    2    0    0  0.00000000000E+00  0.00000000000E+00 -0.38778201240E+03  0.28928418831E+04  0.28667332055E+04 0.  0.
        2    1    3    3  502    0  0.43379590657E+03 -0.47420333601E+03 -0.14867668513E+04  0.16197294102E+04  0.25500000920E-02 0. -1.
       -2    1    3    3    0  502 -0.43379590657E+03  0.47420333601E+03  0.10989848389E+04  0.12731124728E+04  0.25500000920E-02 0.  1.
</event>
<event>
 5   0  0.1814230E-05  0.2670635E+04  0.7818609E-02  0.8344596E-01
       -2   -1    0    0    0  501  0.00000000000E+00  0.00000000000E+00  0.10723751978E+04  0.10723751978E+04  0.25500000920E-02 0. -1.
        2   -1    0    0  501    0  0.00000000000E+00  0.00000000000E+00 -0.16627328489E+04  0.16627328489E+04  0.25500000920E-02 0.  1.
    10030    2    1    2    0    0  0.00000000000E+00  0.00000000000E+00 -0.59035765110E+03  0.27351080467E+04  0.26706354808E+04 0.  0.
        5    1    3    3  502    0  0.10502406794E+04  0.39477018370E+03  0.44631813163E+03  0.12075060858E+04  0.46999998093E+01 0. -1.
       -5    1    3    3    0  502 -0.10502406794E+04 -0.39477018370E+03 -0.10366757827E+04  0.15276019609E+04  0.46999998093E+01 0.  1.
</event>
<event>
 5   0  0.1814230E-05  0.2245052E+04  0.7818609E-02  0.8499907E-01
        2   -1    0    0  501    0  0.00000000000E+00  0.00000000000E+00  0.22890128136E+04  0.22890128136E+04  0.25500000920E-02 0.  1.
       -2   -1    0    0    0  501  0.00000000000E+00  0.00000000000E+00 -0.55048384230E+03  0.55048384231E+03  0.25500000920E-02 0. -1.
    10030    2    1    2    0    0  0.00000000000E+00  0.00000000000E+00  0.17385289713E+04  0.28394966560E+04  0.22450519537E+04 0.  0.
        5    1    3    3  502    0  0.65817785561E+03 -0.41100507670E+03 -0.15662658911E+03  0.79162948473E+03  0.46999998093E+01 0. -1.
       -5    1    3    3    0  502 -0.65817785561E+03  0.41100507670E+03  0.18951555605E+04  0.20478671712E+04  0.46999998093E+01 0.  1.
</event>
<event>
 5   0  0.1874272E-05  0.2818352E+04  0.7818609E-02  0.8297593E-01
        2   -1    0    0  501    0  0.00000000000E+00  0.00000000000E+00  0.17729636138E+04  0.17729636138E+04  0.25500000920E-02 0.  1.
       -2   -1    0    0    0  501  0.00000000000E+00  0.00000000000E+00 -0.11200327121E+04  0.11200327121E+04  0.25500000920E-02 0. -1.
    10030    2    1    2    0    0  0.00000000000E+00  0.00000000000E+00  0.65293090174E+03  0.28929963260E+04  0.28183521745E+04 0.  0.
        3    1    3    3  502    0 -0.12251460397E+04  0.12491996638E+03  0.10295810381E+04  0.16051868866E+04  0.10100000352E+00 0.  1.
       -3    1    3    3    0  502  0.12251460397E+04 -0.12491996638E+03 -0.37665013637E+03  0.12878094394E+04  0.10100000352E+00 0. -1.
</event>
<event>
 5   0  0.1814230E-05  0.2768758E+04  0.7818609E-02  0.8313034E-01
       -2   -1    0    0    0  501  0.00000000000E+00  0.00000000000E+00  0.74661466607E+03  0.74661466607E+03  0.25500000920E-02 0.  1.
        2   -1    0    0  501    0  0.00000000000E+00  0.00000000000E+00 -0.25669264428E+04  0.25669264428E+04  0.25500000920E-02 0. -1.
    10030    2    1    2    0    0  0.00000000000E+00  0.00000000000E+00 -0.18203117767E+04  0.33135411089E+04  0.27687577929E+04 0.  0.
        5    1    3    3  502    0  0.13307310813E+04  0.38160486043E+03 -0.91484600936E+03  0.16593470978E+04  0.46999998093E+01 0.  1.
       -5    1    3    3    0  502 -0.13307310813E+04 -0.38160486043E+03 -0.90546576737E+03  0.16541940110E+04  0.46999998093E+01 0. -1.
</event>
<event>
 5   0  0.1832502E-05  0.2793661E+04  0.7818609E-02  0.8305239E-01
        2   -1    0    0  501    0  0.00000000000E+00  0.00000000000E+00  0.66358637938E+03  0.66358637939E+03  0.25500000920E-02 0.  1.
       -2   -1    0    0    0  501  0.00000000000E+00  0.00000000000E+00 -0.29402892037E+04  0.29402892037E+04  0.25500000920E-02 0. -1.
    10030    2    1    2    0    0  0.00000000000E+00  0.00000000000E+00 -0.22767028243E+04  0.36038755831E+04  0.27936613016E+04 0.  0.
        2    1    3    3  502    0  0.97129946441E+03 -0.43295808717E+03  0.29995835814E+02  0.10638491928E+04  0.25500000920E-02 0.  1.
       -2    1    3    3    0  502 -0.97129946441E+03  0.43295808717E+03 -0.23066986601E+04  0.25400263903E+04  0.25500000920E-02 0. -1.
</event>
<event>
 5   0  0.1814230E-05  0.2273724E+04  0.7818609E-02  0.8488354E-01
       -2   -1    0    0    0  501  0.00000000000E+00  0.00000000000E+00  0.10732451387E+04  0.10732451387E+04  0.25500000920E-02 0. -1.
        2   -1    0    0  501    0  0.00000000000E+00  0.00000000000E+00 -0.12042500013E+04  0.12042500013E+04  0.25500000920E-02 0.  1.
    10030    2    1    2    0    0  0.00000000000E+00  0.00000000000E+00 -0.13100486264E+03  0.22774951400E+04  0.22737242222E+04 0.  0.
        5    1    3    3  502    0 -0.22195828239E+03  0.52868105282E+03  0.91778964844E+03  0.10821871666E+04  0.46999998093E+01 0. -1.
       -5    1    3    3    0  502  0.22195828239E+03 -0.52868105282E+03 -0.10487945111E+04  0.11953079734E+04  0.46999998093E+01 0.  1.
</event>
<event>
 5   0  0.1832502E-05  0.2768315E+04  0.7818609E-02  0.8313173E-01
       -2   -1    0    0    0  501  0.00000000000E+00  0.00000000000E+00  0.22393808967E+04  0.22393808967E+04  0.25500000920E-02 0. -1.
        2   -1    0    0  501    0  0.00000000000E+00  0.00000000000E+00 -0.85554539919E+03  0.85554539920E+03  0.25500000920E-02 0.  1.
    10030    2    1    2    0    0  0.00000000000E+00  0.00000000000E+00  0.13838354975E+04  0.30949262959E+04  0.27683150278E+04 0.  0.
        2    1    3    3  502    0 -0.13233499320E+04  0.37489239496E+03  0.86544883842E+03  0.16250541659E+04  0.25500000920E-02 0.  1.
       -2    1    3    3    0  502  0.13233499320E+04 -0.37489239496E+03  0.51838665910E+03  0.14698721300E+04  0.25500000920E-02 0. -1.
</event>
<event>
 5   0  0.1923559E-05  0.2342177E+04  0.7818609E-02  0.8461475E-01
       -2   -1    0    0    0  501  0.00000000000E+00  0.00000000000E+00  0.97274353817E+03  0.97274353817E+03  0.25500000920E-02 0. -1.
        2   -1    0    0  501    0  0.00000000000E+00  0.00000000000E+00 -0.14098763848E+04  0.14098763848E+04  0.25500000920E-02 0.  1.
    10030    2    1    2    0    0  0.00000000000E+00  0.00000000000E+00 -0.43713284658E+03  0.23826199229E+04  0.23421768873E+04 0.  0.
        4    1    3    3  502    0  0.11550005695E+04 -0.18840743896E+03 -0.26317393005E+03  0.11994939803E+04  0.12699999809E+01 0.  1.
       -4    1    3    3    0  502 -0.11550005695E+04  0.18840743896E+03 -0.17395891654E+03  0.11831259426E+04  0.12699999809E+01 0. -1.
</event>
<event>
 5   0  0.1904553E-05  0.2834593E+04  0.7818609E-02  0.8292608E-01
       -2   -1    0    0    0  501  0.00000000000E+00  0.00000000000E+00  0.11194244130E+04  0.11194244130E+04  0.25500000920E-02 0. -1.
        2   -1    0    0  501    0  0.00000000000E+00  0.00000000000E+00 -0.17944307015E+04  0.17944307015E+04  0.25500000920E-02 0.  1.
    10030    2    1    2    0    0  0.00000000000E+00  0.00000000000E+00 -0.67500628851E+03  0.29138551146E+04  0.28345931170E+04 0.  0.
        1    1    3    3  502    0  0.83492829375E+03  0.15540038918E+03  0.82889448265E+03  0.11867268431E+04  0.50400001928E-02 0. -1.
       -1    1    3    3    0  502 -0.83492829375E+03 -0.15540038918E+03 -0.15039007712E+04  0.17271282715E+04  0.50400001928E-02 0.  1.
</event>
<event>
 5   0  0.7388013E-06  0.2768887E+04  0.7818609E-02  0.8312993E-01
       -1   -1    0    0    0  501  0.00000000000E+00  0.00000000000E+00  0.13951624555E+04  0.13951624555E+04  0.50400001928E-02 0. -1.
        1   -1    0    0  501    0  0.00000000000E+00  0.00000000000E+00 -0.13738073667E+04  0.13738073667E+04  0.50400001928E-02 0.  1.
    10030    2    1    2    0    0  0.00000000000E+00  0.00000000000E+00  0.21355088773E+02  0.27689698223E+04  0.27688874728E+04 0.  0.
        1    1    3    3  502    0 -0.33822767702E+03  0.37657865970E+03  0.12993100679E+04  0.13944232144E+04  0.50400001928E-02 0. -1.
       -1    1    3    3    0  502  0.33822767702E+03 -0.37657865970E+03 -0.12779549791E+04  0.13745466078E+04  0.50400001928E-02 0.  1.
</event>
<event>
 5   0  0.7613444E-06  0.2151036E+04  0.7818609E-02  0.8539089E-01
        1   -1    0    0  501    0  0.00000000000E+00  0.00000000000E+00  0.22850110227E+04  0.22850110227E+04  0.50400001928E-02 0. -1.
       -1   -1    0    0    0  501  0.00000000000E+00  0.00000000000E+00 -0.50622887963E+03  0.50622887966E+03  0.50400001928E-02 0.  1.
    10030    2    1    2    0    0  0.00000000000E+00  0.00000000000E+00  0.17787821430E+04  0.27912399023E+04  0.21510356296E+04 0.  0.
        5    1    3    3  502    0 -0.97608601274E+03 -0.78359604272E+02  0.14665537149E+04  0.17634301859E+04  0.46999998093E+01 0. -1.
       -5    1    3    3    0  502  0.97608601274E+03  0.78359604272E+02  0.31222842813E+03  0.10278097164E+04  0.46999998093E+01 0.  1.
</event>
<event>
 5   0  0.7681342E-06  0.2820025E+04  0.7818609E-02  0.8297078E-01
       -1   -1    0    0    0  501  0.00000000000E+00  0.00000000000E+00  0.73421464660E+03  0.73421464662E+03  0.50400001928E-02 0.  1.
        1   -1    0    0  501    0  0.00000000000E+00  0.00000000000E+00 -0.27078396972E+04  0.27078396972E+04  0.50400001928E-02 0. -1.
    10030    2    1    2    0    0  0.00000000000E+00  0.00000000000E+00 -0.19736250506E+04  0.34420543438E+04  0.28200252243E+04 0.  0.
        2    1    3    3  502    0 -0.30669513416E+03  0.12877537420E+04 -0.15794695541E+04  0.20608482908E+04  0.25500000920E-02 0. -1.
       -2    1    3    3    0  502  0.30669513416E+03 -0.12877537420E+04 -0.39415549648E+03  0.13812060530E+04  0.25500000920E-02 0.  1.
</event>
<event>
 5   0  0.6288000E-06  0.2304921E+04  0.7818609E-02  0.8475983E-01
       -3   -1    0    0    0  501  0.00000000000E+00  0.00000000000E+00  0.11384418316E+04  0.11384418361E+04  0.10100000352E+00 0. -1.
        3   -1    0    0  501    0  0.00000000000E+00  0.00000000000E+00 -0.11666521233E+04  0.11666521277E+04  0.10100000352E+00 0.  1.
    10030    2    1    2    0    0  0.00000000000E+00  0.00000000000E+00 -0.28210291707E+02  0.23050939638E+04  0.23049213352E+04 0.  0.
        2    1    3    3  502    0 -0.60609178699E+03 -0.41609417995E+03  0.87347694170E+03  0.11416845399E+04  0.25500000920E-02 0. -1.
       -2    1    3    3    0  502  0.60609178699E+03  0.41609417995E+03 -0.90168723341E+03  0.11634094240E+04  0.25500000920E-02 0.  1.
</event>
<event>
 5   0  0.1904553E-05  0.3256217E+04  0.7818609E-02  0.8174126E-01
        2   -1    0    0  501    0  0.00000000000E+00  0.00000000000E+00  0.19230813456E+04  0.19230813456E+04  0.25500000920E-02 0. -1.
       -2   -1    0    0    0  501  0.00000000000E+00  0.00000000000E+00 -0.13783804215E+04  0.13783804215E+04  0.25500000920E-02 0.  1.
    10030    2    1    2    0    0  0.00000000000E+00  0.00000000000E+00  0.54470092410E+03  0.33014617671E+04  0.32562172383E+04 0.  0.
        1    1    3    3  502    0 -0.14180687417E+03 -0.16148144477E+04  0.42612453486E+03  0.16761017300E+04  0.50400001928E-02 0.  1.
       -1    1    3    3    0  502  0.14180687417E+03  0.16148144477E+04  0.11857638923E+03  0.16253600371E+04  0.50400001928E-02 0. -1.
</event>
<event>
 5   0  0.1923559E-05  0.2970281E+04  0.7818609E-02  0.8252269E-01
       -2   -1    0    0    0  501  0.00000000000E+00  0.00000000000E+00  0.15527830346E+04  0.15527830346E+04  0.25500000920E-02 0. -1.
        2   -1    0    0  501    0  0.00000000000E+00  0.00000000000E+00 -0.14204448311E+04  0.14204448311E+04  0.25500000920E-02 0.  1.
    10030    2    1    2    0    0  0.00000000000E+00  0.00000000000E+00  0.13233820355E+03  0.29732278657E+04  0.29702812226E+04 0.  0.
        4    1    3    3  502    0  0.80499805712E+03  0.12470870502E+04  0.17201867488E+02  0.14844344040E+04  0.12699999809E+01 0. -1.
       -4    1    3    3    0  502 -0.80499805712E+03 -0.12470870502E+04  0.11513633606E+03  0.14887934617E+04  0.12699999809E+01 0.  1.
</event>
<event>
 5   0  0.7509685E-06  0.2361184E+04  0.7818609E-02  0.8454180E-01
       -1   -1    0    0    0  501  0.00000000000E+00  0.00000000000E+00  0.12966582790E+04  0.12966582790E+04  0.50400001928E-02 0. -1.
        1   -1    0    0  501    0  0.00000000000E+00  0.00000000000E+00 -0.10749149536E+04  0.10749149536E+04  0.50400001928E-02 0.  1.
    10030    2    1    2    0    0  0.00000000000E+00  0.00000000000E+00  0.22174332538E+03  0.23715732326E+04  0.23611839182E+04 0.  0.
        4    1    3    3  502    0  0.10376067049E+03 -0.80193953734E+03  0.97484398371E+03  0.12665684758E+04  0.12699999809E+01 0. -1.
       -4    1    3    3    0  502 -0.10376067049E+03  0.80193953734E+03 -0.75310065833E+03  0.11050047569E+04  0.12699999809E+01 0.  1.
</event>
<event>
 5   0  0.7681342E-06  0.2781265E+04  0.7818609E-02  0.8309108E-01
       -1   -1    0    0    0  501  0.00000000000E+00  0.00000000000E+00  0.19223373078E+04  0.19223373078E+04  0.50400001928E-02 0. -1.
        1   -1    0    0  501    0  0.00000000000E+00  0.00000000000E+00 -0.10059935887E+04  0.10059935887E+04  0.50400001928E-02 0.  1.
    10030    2    1    2    0    0  0.00000000000E+00  0.00000000000E+00  0.91634371909E+03  0.29283308965E+04  0.27812651848E+04 0.  0.
        2    1    3    3  502    0 -0.82385218548E+03 -0.10521725541E+04  0.53040473904E+02  0.13373902942E+04  0.25500000920E-02 0.  1.
       -2    1    3    3    0  502  0.82385218548E+03  0.10521725541E+04  0.86330324519E+03  0.15909406024E+04  0.25500000920E-02 0. -1.
</event>
<event>
 5   0  0.7681342E-06  0.2754511E+04  0.7818609E-02  0.8317532E-01
        1   -1    0    0  501    0  0.00000000000E+00  0.00000000000E+00  0.15857840661E+04  0.15857840662E+04  0.50400001928E-02 0. -1.
       -1   -1    0    0    0  501  0.00000000000E+00  0.00000000000E+00 -0.11961479357E+04  0.11961479357E+04  0.50400001928E-02 0.  1.
    10030    2    1    2    0    0  0.00000000000E+00  0.00000000000E+00  0.38963613048E+03  0.27819320018E+04  0.27545107276E+04 0.  0.
        2    1    3    3  502    0  0.26240906662E+03  0.69821107534E+03 -0.97449666328E+03  0.12271923120E+04  0.25500000920E-02 0.  1.
       -2    1    3    3    0  502 -0.26240906662E+03 -0.69821107534E+03  0.13641327938E+04  0.15547396898E+04  0.25500000920E-02 0. -1.
</event>
<event>
 5   0  0.1832502E-05  0.2817112E+04  0.7818609E-02  0.8297975E-01
        2   -1    0    0  501    0  0.00000000000E+00  0.00000000000E+00  0.14770544014E+04  0.14770544014E+04  0.25500000920E-02 0.  1.
       -2   -1    0    0    0  501  0.00000000000E+00  0.00000000000E+00 -0.13432342553E+04  0.13432342553E+04  0.25500000920E-02 0. -1.
    10030    2    1    2    0    0  0.00000000000E+00  0.00000000000E+00  0.13382014614E+03  0.28202886567E+04  0.28171120453E+04 0.  0.
        2    1    3    3  502    0  0.10695828299E+04 -0.69905993476E+03  0.66031603804E+03  0.14383009047E+04  0.25500000920E-02 0.  1.
       -2    1    3    3    0  502 -0.10695828299E+04  0.69905993476E+03 -0.52649589189E+03  0.13819877520E+04  0.25500000920E-02 0. -1.
</event>
<event>
 5   0  0.7388013E-06  0.2846477E+04  0.7818609E-02  0.8288983E-01
        1   -1    0    0  501    0  0.00000000000E+00  0.00000000000E+00  0.30204134908E+04  0.30204134908E+04  0.50400001928E-02 0.  1.
       -1   -1    0    0    0  501  0.00000000000E+00  0.00000000000E+00 -0.67063918597E+03  0.67063918599E+03  0.50400001928E-02 0. -1.
    10030    2    1    2    0    0  0.00000000000E+00  0.00000000000E+00  0.23497743049E+04  0.36910526768E+04  0.28464768714E+04 0.  0.
        1    1    3    3  502    0 -0.10045483896E+04  0.97503022318E+03  0.84224588428E+03  0.16337623857E+04  0.50400001928E-02 0.  1.
       -1    1    3    3    0  502  0.10045483896E+04 -0.97503022318E+03  0.15075284206E+04  0.20572902912E+04  0.50400001928E-02 0. -1.
</event>
<event>
 5   0  0.7509685E-06  0.2853151E+04  0.7818609E-02  0.8286955E-01
       -1   -1    0    0    0  501  0.00000000000E+00  0.00000000000E+00  0.16261528320E+04  0.16261528320E+04  0.50400001928E-02 0. -1.
        1   -1    0    0  501    0  0.00000000000E+00  0.00000000000E+00 -0.12514921475E+04  0.12514921475E+04  0.50400001928E-02 0.  1.
    10030    2    1    2    0    0  0.00000000000E+00  0.00000000000E+00  0.37466068453E+03  0.28776449795E+04  0.28531508897E+04 0.  0.
        4    1    3    3  502    0 -0.78820670716E+03  0.93039953928E+03  0.93409384883E+03  0.15360488427E+04  0.12699999809E+01 0. -1.
       -4    1    3    3    0  502  0.78820670716E+03 -0.93039953928E+03 -0.55943316430E+03  0.13415961367E+04  0.12699999809E+01 0.  1.
</event>
<event>
 5   0  0.7555871E-06  0.2778579E+04  0.7818609E-02  0.8309950E-01
       -1   -1    0    0    0  501  0.00000000000E+00  0.00000000000E+00  0.13484451244E+04  0.13484451244E+04  0.50400001928E-02 0. -1.
        1   -1    0    0  501    0  0.00000000000E+00  0.00000000000E+00 -0.14313711756E+04  0.14313711756E+04  0.50400001928E-02 0.  1.
    10030    2    1    2    0    0  0.00000000000E+00  0.00000000000E+00 -0.82926051219E+02  0.27798163000E+04  0.27785791210E+04 0.  0.
        3    1    3    3  502    0 -0.13775882959E+04 -0.17579902223E+03 -0.79829330418E+02  0.13910526739E+04  0.10100000352E+00 0. -1.
       -3    1    3    3    0  502  0.13775882959E+04  0.17579902223E+03 -0.30967208008E+01  0.13887636261E+04  0.10100000352E+00 0.  1.
</event>
<event>
 5   0  0.7509685E-06  0.2817695E+04  0.7818609E-02  0.8297796E-01
        1   -1    0    0  501    0  0.00000000000E+00  0.00000000000E+00  0.26082530362E+04  0.26082530362E+04  0.50400001928E-02 0.  1.
       -1   -1    0    0    0  501  0.00000000000E+00  0.00000000000E+00 -0.76098892673E+03  0.76098892675E+03  0.50400001928E-02 0. -1.
    10030    2    1    2    0    0  0.00000000000E+00  0.00000000000E+00  0.18472641094E+04  0.33692419629E+04  0.28176952842E+04 0.  0.
        4    1    3    3  502    0  0.78376762651E+03  0.90785455300E+03  0.39785198343E+02  0.12000316899E+04  0.12699999809E+01 0. -1.
       -4    1    3    3    0  502 -0.78376762651E+03 -0.90785455300E+03  0.18074789111E+04  0.21692102730E+04  0.12699999809E+01 0.  1.
</event>
<event>
 5   0  0.1923559E-05  0.2809647E+04  0.7818609E-02  0.8300280E-01
       -2   -1    0    0    0  501  0.00000000000E+00  0.00000000000E+00  0.12785852881E+04  0.12785852881E+04  0.25500000920E-02 0.  1.
        2   -1    0    0  501    0  0.00000000000E+00  0.00000000000E+00 -0.15435252448E+04  0.15435252448E+04  0.25500000920E-02 0. -1.
    10030    2    1    2    0    0  0.00000000000E+00  0.00000000000E+00 -0.26493995662E+03  0.28221105329E+04  0.28096467179E+04 0.  0.
        4    1    3    3  502    0 -0.59564369146E+03 -0.82418021474E+03  0.84108853140E+03  0.13196575177E+04  0.12699999809E+01 0.  1.
       -4    1    3    3    0  502  0.59564369146E+03  0.82418021474E+03 -0.11060284880E+04  0.15024530152E+04  0.12699999809E+01 0. -1.
</event>
<event>
 5   0  0.1832502E-05  0.2879131E+04  0.7818609E-02  0.8279114E-01
       -2   -1    0    0    0  501  0.00000000000E+00  0.00000000000E+00  0.11049369341E+04  0.11049369341E+04  0.25500000920E-02 0.  1.
        2   -1    0    0  501    0  0.00000000000E+00  0.00000000000E+00 -0.18755360515E+04  0.18755360515E+04  0.25500000920E-02 0. -1.
    10030    2    1    2    0    0  0.00000000000E+00  0.00000000000E+00 -0.77059911735E+03  0.29804729856E+04  0.28791311569E+04 0.  0.
        2    1    3    3  502    0  0.53778365453E+01  0.82701617749E+03 -0.16050626031E+04  0.18056053386E+04  0.25500000920E-02 0. -1.
       -2    1    3    3    0  502 -0.53778365453E+01 -0.82701617749E+03  0.83446348575E+03  0.11748676470E+04  0.25500000920E-02 0.  1.
</event>
<event>
 5   0  0.1814230E-05  0.2713672E+04  0.7818609E-02  0.8330583E-01
        2   -1    0    0  501    0  0.00000000000E+00  0.00000000000E+00  0.93837582799E+03  0.93837582799E+03  0.25500000920E-02 0.  1.
       -2   -1    0    0    0  501  0.00000000000E+00  0.00000000000E+00 -0.19619042447E+04  0.19619042447E+04  0.25500000920E-02 0. -1.
    10030    2    1    2    0    0  0.00000000000E+00  0.00000000000E+00 -0.10235284167E+04  0.29002800727E+04  0.27136716972E+04 0.  0.
        5    1    3    3  502    0 -0.85852342759E+03  0.83280703405E+03 -0.11964015650E+04  0.16917531813E+04  0.46999998093E+01 0. -1.
       -5    1    3    3    0  502  0.85852342759E+03 -0.83280703405E+03  0.17287314834E+03  0.12085268913E+04  0.46999998093E+01 0.  1.
</event>
<event>
 5   0  0.1874272E-05  0.2727681E+04  0.7818609E-02  0.8326079E-01
        2   -1    0    0  501    0  0.00000000000E+00  0.00000000000E+00  0.19137382190E+04  0.19137382190E+04  0.25500000920E-02 0.  1.
       -2   -1    0    0    0  501  0.00000000000E+00  0.00000000000E+00 -0.97195140029E+03  0.97195140030E+03  0.25500000920E-02 0. -1.
    10030    2    1    2    0    0  0.00000000000E+00  0.00000000000E+00  0.94178681868E+03  0.28856896193E+04  0.27276807304E+04 0.  0.
        3    1    3    3  502    0  0.12431894767E+04  0.25223440591E+03 -0.59041117608E+02  0.12698929617E+04  0.10100000352E+00 0. -1.
       -3    1    3    3    0  502 -0.12431894767E+04 -0.25223440591E+03  0.10008279363E+04  0.16157966576E+04  0.10100000352E+00 0.  1.
</event>
<event>
 5   0  0.1904553E-05  0.2814684E+04  0.7818609E-02  0.8298724E-01
       -2   -1    0    0    0  501  0.00000000000E+00  0.00000000000E+00  0.16174869905E+04  0.16174869905E+04  0.25500000920E-02 0. -1.
        2   -1    0    0  501    0  0.00000000000E+00  0.00000000000E+00 -0.12244988028E+04  0.12244988028E+04  0.25500000920E-02 0.  1.
    10030    2    1    2    0    0  0.00000000000E+00  0.00000000000E+00  0.39298818774E+03  0.28419857933E+04  0.28146835584E+04 0.  0.
        1    1    3    3  502    0 -0.19351218570E+03 -0.76318514257E+03  0.13743047806E+04  0.15838598921E+04  0.50400001928E-02 0. -1.
       -1    1    3    3    0  502  0.19351218570E+03  0.76318514257E+03 -0.98131659285E+03  0.12581259012E+04  0.50400001928E-02 0.  1.
</event>
<event>
 5   0  0.7555871E-06  0.2691691E+04  0.7818609E-02  0.8337706E-01
        1   -1    0    0  501    0  0.00000000000E+00  0.00000000000E+00  0.10510879315E+04  0.10510879315E+04  0.50400001928E-02 0.  1.
       -1   -1    0    0    0  501  0.00000000000E+00  0.00000000000E+00 -0.17232617627E+04  0.17232617627E+04  0.50400001928E-02 0. -1.
    10030    2    1    2    0    0  0.00000000000E+00  0.00000000000E+00 -0.67217383119E+03  0.27743496941E+04  0.26916906520E+04 0.  0.
        3    1    3    3  502    0  0.53953859325E+03 -0.12089351297E+04 -0.86422075741E+02  0.13266856549E+04  0.10100000352E+00 0.  1.
       -3    1    3    3    0  502 -0.53953859325E+03  0.12089351297E+04 -0.58575175544E+03  0.14476640393E+04  0.10100000352E+00 0. -1.
</event>
<event>
 5   0  0.7555871E-06  0.2784139E+04  0.7818609E-02  0.8308210E-01
        1   -1    0    0  501    0  0.00000000000E+00  0.00000000000E+00  0.13461493212E+04  0.13461493212E+04  0.50400001928E-02 0. -1.
       -1   -1    0    0    0  501  0.00000000000E+00  0.00000000000E+00 -0.14395559881E+04  0.14395559881E+04  0.50400001928E-02 0.  1.
    10030    2    1    2    0    0  0.00000000000E+00  0.00000000000E+00 -0.93406666929E+02  0.27857053093E+04  0.27841388731E+04 0.  0.
        3    1    3    3  502    0  0.13411165695E+04 -0.85331336461E+01  0.32658945784E+03  0.13803358836E+04  0.10100000352E+00 0. -1.
       -3    1    3    3    0  502 -0.13411165695E+04  0.85331336461E+01 -0.41999612477E+03  0.14053694256E+04  0.10100000352E+00 0.  1.
</event>
<event>
 5   0  0.1814230E-05  0.2763438E+04  0.7818609E-02  0.8314710E-01
        2   -1    0    0  501    0  0.00000000000E+00  0.00000000000E+00  0.26432528452E+04  0.26432528452E+04  0.25500000920E-02 0.  1.
       -2   -1    0    0    0  501  0.00000000000E+00  0.00000000000E+00 -0.72227196353E+03  0.72227196353E+03  0.25500000920E-02 0. -1.
    10030    2    1    2    0    0  0.00000000000E+00  0.00000000000E+00  0.19209808817E+04  0.33655248087E+04  0.27634380200E+04 0.  0.
        5    1    3    3  502    0  0.80322079353E+03 -0.22617222277E+03  0.23017074772E+04  0.24483049071E+04  0.46999998093E+01 0.  1.
       -5    1    3    3    0  502 -0.80322079353E+03  0.22617222277E+03 -0.38072659549E+03  0.91721990168E+03  0.46999998093E+01 0. -1.
</event>
<event>
 5   0  0.7509685E-06  0.1738677E+04  0.7818609E-02  0.8739608E-01
       -1   -1    0    0    0  501  0.00000000000E+00  0.00000000000E+00  0.13056986740E+04  0.13056986740E+04  0.50400001928E-02 0. -1.
        1   -1    0    0  501    0  0.00000000000E+00  0.00000000000E+00 -0.57880813159E+03  0.57880813161E+03  0.50400001928E-02 0.  1.
    10030    2    1    2    0    0  0.00000000000E+00  0.00000000000E+00  0.72689054244E+03  0.18845068056E+04  0.17386765196E+04 0.  0.
        4    1    3    3  502    0 -0.73879202941E+02 -0.17268854380E+03 -0.55655138146E+03  0.58739298846E+03  0.12699999809E+01 0.  1.
       -4    1    3    3    0  502  0.73879202941E+02  0.17268854380E+03  0.12834419239E+04  0.12971138172E+04  0.12699999809E+01 0. -1.
</event>
<event>
 5   0  0.1904553E-05  0.2880669E+04  0.7818609E-02  0.8278652E-01
       -2   -1    0    0    0  501  0.00000000000E+00  0.00000000000E+00  0.97760598983E+03  0.97760598984E+03  0.25500000920E-02 0.  1.
        2   -1    0    0  501    0  0.00000000000E+00  0.00000000000E+00 -0.21220858836E+04  0.21220858836E+04  0.25500000920E-02 0. -1.
    10030    2    1    2    0    0  0.00000000000E+00  0.00000000000E+00 -0.11444798938E+04  0.30996918734E+04  0.28806692769E+04 0.  0.
        1    1    3    3  502    0 -0.87147244027E+03 -0.64687170024E+03  0.44667565712E+03  0.11736380845E+04  0.50400001928E-02 0.  1.
       -1    1    3    3    0  502  0.87147244027E+03  0.64687170024E+03 -0.15911555509E+04  0.19260537889E+04  0.50400001928E-02 0. -1.
</event>
<event>
 5   0  0.1874272E-05  0.2905737E+04  0.7818609E-02  0.8271173E-01
        2   -1    0    0  501    0  0.00000000000E+00  0.00000000000E+00  0.10505326988E+04  0.10505326988E+04  0.25500000920E-02 0.  1.
       -2   -1    0    0    0  501  0.00000000000E+00  0.00000000000E+00 -0.20092912689E+04  0.20092912689E+04  0.25500000920E-02 0. -1.
    10030    2    1    2    0    0  0.00000000000E+00  0.00000000000E+00 -0.95875857009E+03  0.30598239677E+04  0.29057365189E+04 0.  0.
        3    1    3    3  502    0  0.74594665629E+03  0.44786653826E+03 -0.17046112502E+04  0.19138234962E+04  0.10100000352E+00 0. -1.
       -3    1    3    3    0  502 -0.74594665629E+03 -0.44786653826E+03  0.74585268006E+03  0.11460004715E+04  0.10100000352E+00 0.  1.
</event>
<event>
 5   0  0.7555871E-06  0.2817554E+04  0.7818609E-02  0.8297839E-01
        1   -1    0    0  501    0  0.00000000000E+00  0.00000000000E+00  0.12811591310E+04  0.12811591310E+04  0.50400001928E-02 0. -1.
       -1   -1    0    0    0  501  0.00000000000E+00  0.00000000000E+00 -0.15491074536E+04  0.15491074536E+04  0.50400001928E-02 0.  1.
    10030    2    1    2    0    0  0.00000000000E+00  0.00000000000E+00 -0.26794832262E+03  0.28302665845E+04  0.28175543714E+04 0.  0.
        3    1    3    3  502    0 -0.29810012071E+03 -0.70677912007E+03 -0.13209368240E+04  0.15275059770E+04  0.10100000352E+00 0.  1.
       -3    1    3    3    0  502  0.29810012071E+03  0.70677912007E+03  0.10529885013E+04  0.13027606076E+04  0.10100000352E+00 0. -1.
</event>
<event>
 5   0  0.1874272E-05  0.2787970E+04  0.7818609E-02  0.8307013E-01
        2   -1    0    0  501    0  0.00000000000E+00  0.00000000000E+00  0.82808706974E+03  0.82808706974E+03  0.25500000920E-02 0. -1.
       -2   -1    0    0    0  501  0.00000000000E+00  0.00000000000E+00 -0.23466058228E+04  0.23466058228E+04  0.25500000920E-02 0.  1.
    10030    2    1    2    0    0  0.00000000000E+00  0.00000000000E+00 -0.15185187530E+04  0.31746928925E+04  0.27879698274E+04 0.  0.
        3    1    3    3  502    0 -0.48459760487E+03  0.44278086346E+03  0.64107976835E+03  0.91753638145E+03  0.10100000352E+00 0. -1.
       -3    1    3    3    0  502  0.48459760487E+03 -0.44278086346E+03 -0.21595985214E+04  0.22571565111E+04  0.10100000352E+00 0.  1.
</event>
<event>
 5   0  0.1904553E-05  0.2709192E+04  0.7818609E-02  0.8332029E-01
       -2   -1    0    0    0  501  0.00000000000E+00  0.00000000000E+00  0.15202817725E+04  0.15202817725E+04  0.25500000920E-02 0. -1.
        2   -1    0    0  501    0  0.00000000000E+00  0.00000000000E+00 -0.12069672256E+04  0.12069672256E+04  0.25500000920E-02 0.  1.
    10030    2    1    2    0    0  0.00000000000E+00  0.00000000000E+00  0.31331454691E+03  0.27272489982E+04  0.27091919630E+04 0.  0.
        1    1    3    3  502    0  0.85946443945E+03 -0.49055791188E+02  0.12094984013E+04  0.14845780465E+04  0.50400001928E-02 0. -1.
       -1    1    3    3    0  502 -0.85946443945E+03  0.49055791188E+02 -0.89618385436E+03  0.12426709517E+04  0.50400001928E-02 0.  1.
</event>
<event>
 5   0  0.7681342E-06  0.2442736E+04  0.7818609E-02  0.8423675E-01
        1   -1    0    0  501    0  0.00000000000E+00  0.00000000000E+00  0.10411556645E+04  0.10411556645E+04  0.50400001928E-02 0.  1.
       -1   -1    0    0    0  501  0.00000000000E+00  0.00000000000E+00 -0.14327727643E+04  0.14327727643E+04  0.50400001928E-02 0. -1.
    10030    2    1    2    0    0  0.00000000000E+00  0.00000000000E+00 -0.39161709978E+03  0.24739284288E+04  0.24427357446E+04 0.  0.
        2    1    3    3  502    0 -0.10076001971E+04  0.81878432864E+02  0.49834673081E+03  0.11270810526E+04  0.25500000920E-02 0.  1.
       -2    1    3    3    0  502  0.10076001971E+04 -0.81878432864E+02 -0.88996383059E+03  0.13468473762E+04  0.25500000920E-02 0. -1.
</event>
<event>
 5   0  0.1923559E-05  0.1808019E+04  0.7818609E-02  0.8702047E-01
       -2   -1    0    0    0  501  0.00000000000E+00  0.00000000000E+00  0.34191108541E+03  0.34191108542E+03  0.25500000920E-02 0. -1.
        2   -1    0    0  501    0  0.00000000000E+00  0.00000000000E+00 -0.23901915151E+04  0.23901915151E+04  0.25500000920E-02 0.  1.
    10030    2    1    2    0    0  0.00000000000E+00  0.00000000000E+00 -0.20482804297E+04  0.27321026005E+04  0.18080187779E+04 0.  0.
        4    1    3    3  502    0  0.36352260483E+03  0.72251315853E+03 -0.41395125869E+03  0.90858747842E+03  0.12699999809E+01 0.  1.
       -4    1    3    3    0  502 -0.36352260483E+03 -0.72251315853E+03 -0.16343291710E+04  0.18235151221E+04  0.12699999809E+01 0. -1.
</event>
<event>
 5   0  0.1832502E-05  0.2449162E+04  0.7818609E-02  0.8421324E-01
       -2   -1    0    0    0  501  0.00000000000E+00  0.00000000000E+00  0.12398305878E+04  0.12398305878E+04  0.25500000920E-02 0. -1.
        2   -1    0    0  501    0  0.00000000000E+00  0.00000000000E+00 -0.12095186356E+04  0.12095186356E+04  0.25500000920E-02 0.  1.
    10030    2    1    2    0    0  0.00000000000E+00  0.00000000000E+00  0.30311952211E+02  0.24493492233E+04  0.24491616532E+04 0.  0.
        2    1    3    3  502    0  0.15794015387E+02  0.10054330759E+03  0.12355935657E+04  0.12397781525E+04  0.25500000920E-02 0. -1.
       -2    1    3    3    0  502 -0.15794015387E+02 -0.10054330759E+03 -0.12052816135E+04  0.12095710709E+04  0.25500000920E-02 0.  1.
</event>
<event>
 5   0  0.7555871E-06  0.2571452E+04  0.7818609E-02  0.8377963E-01
       -1   -1    0    0    0  501  0.00000000000E+00  0.00000000000E+00  0.78029358265E+03  0.78029358267E+03  0.50400001928E-02 0.  1.
        1   -1    0    0  501    0  0.00000000000E+00  0.00000000000E+00 -0.21185505244E+04  0.21185505244E+04  0.50400001928E-02 0. -1.
    10030    2    1    2    0    0  0.00000000000E+00  0.00000000000E+00 -0.13382569417E+04  0.28988441071E+04  0.25714520246E+04 0.  0.
        3    1    3    3  502    0 -0.96405411741E+03  0.39922402676E+03  0.17772012328E+03  0.10584727759E+04  0.10100000352E+00 0. -1.
       -3    1    3    3    0  502  0.96405411741E+03 -0.39922402676E+03 -0.15159770650E+04  0.18403713312E+04  0.10100000352E+00 0.  1.
</event>
<event>
 5   0  0.7509685E-06  0.2766015E+04  0.7818609E-02  0.8313898E-01
       -1   -1    0    0    0  501  0.00000000000E+00  0.00000000000E+00  0.11519503887E+04  0.11519503887E+04  0.50400001928E-02 0. -1.
        1   -1    0    0  501    0  0.00000000000E+00  0.00000000000E+00 -0.16604095906E+04  0.16604095906E+04  0.50400001928E-02 0.  1.
    10030    2    1    2    0    0  0.00000000000E+00  0.00000000000E+00 -0.50845920188E+03  0.28123599793E+04  0.27660148035E+04 0.  0.
        4    1    3    3  502    0  0.21453410277E+03  0.25053480916E+03  0.11113734511E+04  0.11592864756E+04  0.12699999809E+01 0. -1.
       -4    1    3    3    0  502 -0.21453410277E+03 -0.25053480916E+03 -0.16198326530E+04  0.16530735036E+04  0.12699999809E+01 0.  1.
</event>
<event>
 5   0  0.7613444E-06  0.2576412E+04  0.7818609E-02  0.8376258E-01
        1   -1    0    0  501    0  0.00000000000E+00  0.00000000000E+00  0.11191563139E+04  0.11191563139E+04  0.50400001928E-02 0. -1.
       -1   -1    0    0    0  501  0.00000000000E+00  0.00000000000E+00 -0.14827902977E+04  0.14827902977E+04  0.50400001928E-02 0.  1.
    10030    2    1    2    0    0  0.00000000000E+00  0.00000000000E+00 -0.36363398384E+03  0.26019466116E+04  0.25764115540E+04 0.  0.
        5    1    3    3  502    0 -0.25317648627E+03 -0.20163677734E+02  0.10936120106E+04  0.11227262475E+04  0.46999998093E+01 0. -1.
       -5    1    3    3    0  502  0.25317648627E+03  0.20163677734E+02 -0.14572459945E+04  0.14792203641E+04  0.46999998093E+01 0.  1.
</event>
<event>
 5   0  0.7509685E-06  0.2857657E+04  0.7818609E-02  0.8285589E-01
       -1   -1    0    0    0  501  0.00000000000E+00  0.00000000000E+00  0.13152848543E+04  0.13152848543E+04  0.50400001928E-02 0.  1.
        1   -1    0    0  501    0  0.00000000000E+00  0.00000000000E+00 -0.15521734479E+04  0.15521734479E+04  0.50400001928E-02 0. -1.
    10030    2    1    2    0    0  0.00000000000E+00  0.00000000000E+00 -0.23688859358E+03  0.28674583022E+04  0.28576565415E+04 0.  0.
        4    1    3    3  502    0 -0.19020620514E+03 -0.14067227365E+04 -0.28179504742E+03  0.14472240046E+04  0.12699999809E+01 0. -1.
       -4    1    3    3    0  502  0.19020620514E+03  0.14067227365E+04  0.44906453839E+02  0.14202342977E+04  0.12699999809E+01 0.  1.
</event>
<event>
 5   0  0.7388013E-06  0.2865472E+04  0.7818609E-02  0.8283225E-01
        1   -1    0    0  501    0  0.00000000000E+00  0.00000000000E+00  0.23354658663E+04  0.23354658663E+04  0.50400001928E-02 0. -1.
       -1   -1    0    0    0  501  0.00000000000E+00  0.00000000000E+00 -0.87893935536E+03  0.87893935537E+03  0.50400001928E-02 0.  1.
    10030    2    1    2    0    0  0.00000000000E+00  0.00000000000E+00  0.14565265109E+04  0.32144052217E+04  0.28654722913E+04 0.  0.
        1    1    3    3  502    0 -0.66626938257E+03 -0.21615544433E+03  0.21302958316E+04  0.22424982489E+04  0.50400001928E-02 0. -1.
       -1    1    3    3    0  502  0.66626938257E+03  0.21615544433E+03 -0.67376932064E+03  0.97190697277E+03  0.50400001928E-02 0.  1.
</event>
<event>
 5   0  0.1814230E-05  0.2677366E+04  0.7818609E-02  0.8342387E-01
       -2   -1    0    0    0  501  0.00000000000E+00  0.00000000000E+00  0.14064853210E+04  0.14064853210E+04  0.25500000920E-02 0. -1.
        2   -1    0    0  501    0  0.00000000000E+00  0.00000000000E+00 -0.12741490677E+04  0.12741490677E+04  0.25500000920E-02 0.  1.
    10030    2    1    2    0    0  0.00000000000E+00  0.00000000000E+00  0.13233625328E+03  0.26806343886E+04  0.26773658401E+04 0.  0.
        5    1    3    3  502    0 -0.56815129225E+03 -0.12079894244E+04  0.16636792176E+03  0.13452638090E+04  0.46999998093E+01 0. -1.
       -5    1    3    3    0  502  0.56815129225E+03  0.12079894244E+04 -0.34031668479E+02  0.13353705796E+04  0.46999998093E+01 0.  1.
</event>
<event>
 5   0  0.7509685E-06  0.2803609E+04  0.7818609E-02  0.8302149E-01
        1   -1    0    0  501    0  0.00000000000E+00  0.00000000000E+00  0.97144519748E+03  0.97144519749E+03  0.50400001928E-02 0.  1.
       -1   -1    0    0    0  501  0.00000000000E+00  0.00000000000E+00 -0.20228163158E+04  0.20228163158E+04  0.50400001928E-02 0. -1.
    10030    2    1    2    0    0  0.00000000000E+00  0.00000000000E+00 -0.10513711183E+04  0.29942615133E+04  0.28036085286E+04 0.  0.
        4    1    3    3  502    0 -0.17713554451E+03 -0.90983457000E+03  0.59743374915E+03  0.11027713468E+04  0.12699999809E+01 0.  1.
       -4    1    3    3    0  502  0.17713554451E+03  0.90983457000E+03 -0.16488048674E+04  0.18914901664E+04  0.12699999809E+01 0. -1.
</event>
<event>
 5   0  0.6288000E-06  0.2669697E+04  0.7818609E-02  0.8344905E-01
       -4   -1    0    0    0  501  0.00000000000E+00  0.00000000000E+00  0.16906594341E+04  0.16906599111E+04  0.12699999809E+01 0.  1.
        4   -1    0    0  501    0  0.00000000000E+00  0.00000000000E+00 -0.10539195258E+04  0.10539202910E+04  0.12699999809E+01 0. -1.
    10030    2    1    2    0    0  0.00000000000E+00  0.00000000000E+00  0.63673990833E+03  0.27445802021E+04  0.26696971316E+04 0.  0.
        2    1    3    3  502    0  0.18932228086E+03  0.42036185501E+03 -0.96947409801E+03  0.10735115472E+04  0.25500000920E-02 0. -1.
       -2    1    3    3    0  502 -0.18932228086E+03 -0.42036185501E+03  0.16062140063E+04  0.16710686549E+04  0.25500000920E-02 0.  1.
</event>
<event>
 5   0  0.1874272E-05  0.2744129E+04  0.7818609E-02  0.8320827E-01
       -2   -1    0    0    0  501  0.00000000000E+00  0.00000000000E+00  0.11881138623E+04  0.11881138623E+04  0.25500000920E-02 0.  1.
        2   -1    0    0  501    0  0.00000000000E+00  0.00000000000E+00 -0.15844958918E+04  0.15844958918E+04  0.25500000920E-02 0. -1.
    10030    2    1    2    0    0  0.00000000000E+00  0.00000000000E+00 -0.39638202948E+03  0.27726097540E+04  0.27441293947E+04 0.  0.
        3    1    3    3  502    0 -0.74763642156E+03  0.90781058830E+03  0.51588385878E+03  0.12842182248E+04  0.10100000352E+00 0.  1.
       -3    1    3    3    0  502  0.74763642156E+03 -0.90781058830E+03 -0.91226588827E+03  0.14883915292E+04  0.10100000352E+00 0. -1.
</event>
<event>
 5   0  0.1874272E-05  0.2750720E+04  0.7818609E-02  0.8318733E-01
       -2   -1    0    0    0  501  0.00000000000E+00  0.00000000000E+00  0.75386109493E+03  0.75386109494E+03  0.25500000920E-02 0.  1.
        2   -1    0    0  501    0  0.00000000000E+00  0.00000000000E+00 -0.25092351625E+04  0.25092351625E+04  0.25500000920E-02 0. -1.
    10030    2    1    2    0    0  0.00000000000E+00  0.00000000000E+00 -0.17553740675E+04  0.32630962574E+04  0.27507197364E+04 0.  0.
        3    1    3    3  502    0  0.91853986883E+03  0.10173823488E+04 -0.10120680333E+04  0.17038380347E+04  0.10100000352E+00 0.  1.
       -3    1    3    3    0  502 -0.91853986883E+03 -0.10173823488E+04 -0.74330603429E+03  0.15592582227E+04  0.10100000352E+00 0. -1.
</event>
<event>
 5   0  0.7613444E-06  0.2859360E+04  0.7818609E-02  0.8285073E-01
       -1   -1    0    0    0  501  0.00000000000E+00  0.00000000000E+00  0.24318829491E+04  0.24318829491E+04  0.50400001928E-02 0.  1.
        1   -1    0    0  501    0  0.00000000000E+00  0.00000000000E+00 -0.84049505631E+03  0.84049505633E+03  0.50400001928E-02 0. -1.
    10030    2    1    2    0    0  0.00000000000E+00  0.00000000000E+00  0.15913878928E+04  0.32723780054E+04  0.28593604853E+04 0.  0.
        5    1    3    3  502    0  0.12156192568E+04  0.48222663192E+03  0.13459468329E+03  0.13146902756E+04  0.46999998093E+01 0. -1.
       -5    1    3    3    0  502 -0.12156192568E+04 -0.48222663192E+03  0.14567932095E+04  0.19576877298E+04  0.46999998093E+01 0.  1.
</event>
<event>
 5   0  0.1814230E-05  0.2883507E+04  0.7818609E-02  0.8277801E-01
        2   -1    0    0  501    0  0.00000000000E+00  0.00000000000E+00  0.11941734947E+04  0.11941734947E+04  0.25500000920E-02 0.  1.
       -2   -1    0    0    0  501  0.00000000000E+00  0.00000000000E+00 -0.17406630099E+04  0.17406630099E+04  0.25500000920E-02 0. -1.
    10030    2    1    2    0    0  0.00000000000E+00  0.00000000000E+00 -0.54648951529E+03  0.29348365046E+04  0.28835073294E+04 0.  0.
        5    1    3    3  502    0  0.29510557185E+03  0.21972777454E+03  0.11455799714E+04  0.12032219888E+04  0.46999998093E+01 0.  1.
       -5    1    3    3    0  502 -0.29510557185E+03 -0.21972777454E+03 -0.16920694867E+04  0.17316145158E+04  0.46999998093E+01 0. -1.
</event>
<event>
 5   0  0.1874272E-05  0.2792103E+04  0.7818609E-02  0.8305724E-01
       -2   -1    0    0    0  501  0.00000000000E+00  0.00000000000E+00  0.13181093444E+04  0.13181093444E+04  0.25500000920E-02 0.  1.
        2   -1    0    0  501    0  0.00000000000E+00  0.00000000000E+00 -0.14786028095E+04  0.14786028095E+04  0.25500000920E-02 0. -1.
    10030    2    1    2    0    0  0.00000000000E+00  0.00000000000E+00 -0.16049346512E+03  0.27967121539E+04  0.27921032788E+04 0.  0.
        3    1    3    3  502    0 -0.74426761216E+03  0.26461719660E+03  0.10727413682E+04  0.13321901488E+04  0.10100000352E+00 0.  1.
       -3    1    3    3    0  502  0.74426761216E+03 -0.26461719660E+03 -0.12332348333E+04  0.14645220051E+04  0.10100000352E+00 0. -1.
</event>
<event>
 5   0  0.7555871E-06  0.2824765E+04  0.7818609E-02  0.8295621E-01
        1   -1    0    0  501    0  0.00000000000E+00  0.00000000000E+00  0.20030939222E+04  0.20030939222E+04  0.50400001928E-02 0. -1.
       -1   -1    0    0    0  501  0.00000000000E+00  0.00000000000E+00 -0.99587152429E+03  0.99587152430E+03  0.50400001928E-02 0.  1.
    10030    2    1    2    0    0  0.00000000000E+00  0.00000000000E+00  0.10072223979E+04  0.29989654465E+04  0.28247649089E+04 0.  0.
        3    1    3    3  502    0  0.42455350736E+03  0.12963275705E+04  0.89241019649E+03  0.16300634404E+04  0.10100000352E+00 0.  1.
       -3    1    3    3    0  502 -0.42455350736E+03 -0.12963275705E+04  0.11481220146E+03  0.13689020062E+04  0.10100000352E+00 0. -1.
</event>
<event>
 5   0  0.7555871E-06  0.2831053E+04  0.7818609E-02  0.8293692E-01
       -1   -1    0    0    0  501  0.00000000000E+00  0.00000000000E+00  0.14178712906E+04  0.14178712906E+04  0.50400001928E-02 0. -1.
        1   -1    0    0  501    0  0.00000000000E+00  0.00000000000E+00 -0.14131854622E+04  0.14131854622E+04  0.50400001928E-02 0.  1.
    10030    2    1    2    0    0  0.00000000000E+00  0.00000000000E+00  0.46858283706E+01  0.28310567528E+04  0.28310528749E+04 0.  0.
        3    1    3    3  502    0 -0.12112346756E+03  0.65407801031E+03  0.12518349806E+04  0.14175964753E+04  0.10100000352E+00 0. -1.
       -3    1    3    3    0  502  0.12112346756E+03 -0.65407801031E+03 -0.12471491522E+04  0.14134602775E+04  0.10100000352E+00 0.  1.
</event>
<event>
 5   0  0.7509685E-06  0.2233860E+04  0.7818609E-02  0.8504466E-01
       -1   -1    0    0    0  501  0.00000000000E+00  0.00000000000E+00  0.85258433975E+03  0.85258433976E+03  0.50400001928E-02 0. -1.
        1   -1    0    0  501    0  0.00000000000E+00  0.00000000000E+00 -0.14632362948E+04  0.14632362948E+04  0.50400001928E-02 0.  1.
    10030    2    1    2    0    0  0.00000000000E+00  0.00000000000E+00 -0.61065195506E+03  0.23158206346E+04  0.22338597542E+04 0.  0.
        4    1    3    3  502    0  0.26966546801E+03  0.97531395557E+03  0.18485858059E+03  0.10286549880E+04  0.12699999809E+01 0. -1.
       -4    1    3    3    0  502 -0.26966546801E+03 -0.97531395557E+03 -0.79551053565E+03  0.12871656466E+04  0.12699999809E+01 0.  1.
</event>
<event>
 5   0  0.1904553E-05  0.2410315E+04  0.7818609E-02  0.8435652E-01
        2   -1    0    0  501    0  0.00000000000E+00  0.00000000000E+00  0.97554844167E+03  0.97554844167E+03  0.25500000920E-02 0. -1.
       -2   -1    0    0    0  501  0.00000000000E+00  0.00000000000E+00 -0.14888088512E+04  0.14888088512E+04  0.25500000920E-02 0.  1.
    10030    2    1    2    0    0  0.00000000000E+00  0.00000000000E+00 -0.51326040958E+03  0.24643572929E+04  0.24103154605E+04 0.  0.
        1    1    3    3  502    0 -0.43560253966E+03 -0.77078359153E+03 -0.10926107321E+04  0.14062912677E+04  0.50400001928E-02 0.  1.
       -1    1    3    3    0  502  0.43560253966E+03  0.77078359153E+03  0.57935032255E+03  0.10580660253E+04  0.50400001928E-02 0. -1.
</event>
<event>
 5   0  0.1814230E-05  0.2980688E+04  0.7818609E-02  0.8249267E-01
       -2   -1    0    0    0  501  0.00000000000E+00  0.00000000000E+00  0.12055020953E+04  0.12055020953E+04  0.25500000920E-02 0. -1.
        2   -1    0    0  501    0  0.00000000000E+00  0.00000000000E+00 -0.18424897846E+04  0.18424897846E+04  0.25500000920E-02 0.  1.
    10030    2    1    2    0    0  0.00000000000E+00  0.00000000000E+00 -0.63698768933E+03  0.30479918799E+04  0.29806880386E+04 0.  0.
        5    1    3    3  502    0 -0.11358217286E+04  0.69522827500E+03 -0.10026830299E+04  0.16669819141E+04  0.46999998093E+01 0.  1.
       -5    1    3    3    0  502  0.11358217286E+04 -0.69522827500E+03  0.36569534052E+03  0.13810099658E+04  0.46999998093E+01 0. -1.
</event>
<event>
 5   0  0.1832502E-05  0.2646917E+04  0.7818609E-02  0.8352437E-01
       -2   -1    0    0    0  501  0.00000000000E+00  0.00000000000E+00  0.11683525731E+04  0.11683525731E+04  0.25500000920E-02 0.  1.
        2   -1    0    0  501    0  0.00000000000E+00  0.00000000000E+00 -0.14991551816E+04  0.14991551816E+04  0.25500000920E-02 0. -1.
    10030    2    1    2    0    0  0.00000000000E+00  0.00000000000E+00 -0.33080260850E+03  0.26675077547E+04  0.26469165562E+04 0.  0.
        2    1    3    3  502    0 -0.11209810828E+04  0.14409337230E+03 -0.85936572604E+03  0.14198136987E+04  0.25500000920E-02 0. -1.
       -2    1    3    3    0  502  0.11209810828E+04 -0.14409337230E+03  0.52856311754E+03  0.12476940559E+04  0.25500000920E-02 0.  1.
</event>
<event>
 5   0  0.1874272E-05  0.2653581E+04  0.7818609E-02  0.8350225E-01
        2   -1    0    0  501    0  0.00000000000E+00  0.00000000000E+00  0.12594227954E+04  0.12594227954E+04  0.25500000920E-02 0. -1.
       -2   -1    0    0    0  501  0.00000000000E+00  0.00000000000E+00 -0.13977617541E+04  0.13977617541E+04  0.25500000920E-02 0.  1.
    10030    2    1    2    0    0  0.00000000000E+00  0.00000000000E+00 -0.13833895874E+03  0.26571845495E+04  0.26535809885E+04 0.  0.
        3    1    3    3  502    0 -0.16415554709E+03 -0.90915875844E+03  0.88441376638E+03  0.12789466025E+04  0.10100000352E+00 0. -1.
       -3    1    3    3    0  502  0.16415554709E+03  0.90915875844E+03 -0.10227527251E+04  0.13782379470E+04  0.10100000352E+00 0.  1.
</event>
<event>
 5   0  0.7509685E-06  0.2717102E+04  0.7818609E-02  0.8329477E-01
       -1   -1    0    0    0  501  0.00000000000E+00  0.00000000000E+00  0.18260609284E+04  0.18260609284E+04  0.50400001928E-02 0.  1.
        1   -1    0    0  501    0  0.00000000000E+00  0.00000000000E+00 -0.10107331334E+04  0.10107331335E+04  0.50400001928E-02 0. -1.
    10030    2    1    2    0    0  0.00000000000E+00  0.00000000000E+00  0.81532779491E+03  0.28367940618E+04  0.27171016058E+04 0.  0.
        4    1    3    3  502    0  0.85000804766E+03  0.97407368104E+03 -0.28251623395E+02  0.12931098114E+04  0.12699999809E+01 0. -1.
       -4    1    3    3    0  502 -0.85000804766E+03 -0.97407368104E+03  0.84357941831E+03  0.15436842504E+04  0.12699999809E+01 0.  1.
</event>
<event>
 5   0  0.7388013E-06  0.1895819E+04  0.7818609E-02  0.8656940E-01
       -1   -1    0    0    0  501  0.00000000000E+00  0.00000000000E+00  0.65104307833E+03  0.65104307834E+03  0.50400001928E-02 0. -1.
        1   -1    0    0  501    0  0.00000000000E+00  0.00000000000E+00 -0.13801430199E+04  0.13801430199E+04  0.50400001928E-02 0.  1.
    10030    2    1    2    0    0  0.00000000000E+00  0.00000000000E+00 -0.72909994159E+03  0.20311860983E+04  0.18958191477E+04 0.  0.
        1    1    3    3  502    0 -0.64335296316E+03 -0.31056243557E+03  0.30297830542E+03  0.77598190389E+03  0.50400001928E-02 0. -1.
       -1    1    3    3    0  502  0.64335296316E+03  0.31056243557E+03 -0.10320782470E+04  0.12552041944E+04  0.50400001928E-02 0.  1.
</event>
<event>
 5   0  0.1874272E-05  0.1902881E+04  0.7818609E-02  0.8653423E-01
        2   -1    0    0  501    0  0.00000000000E+00  0.00000000000E+00  0.12069328763E+04  0.12069328763E+04  0.25500000920E-02 0.  1.
       -2   -1    0    0    0  501  0.00000000000E+00  0.00000000000E+00 -0.75003291745E+03  0.75003291746E+03  0.25500000920E-02 0. -1.
    10030    2    1    2    0    0  0.00000000000E+00  0.00000000000E+00  0.45689995882E+03  0.19569657937E+04  0.19028813798E+04 0.  0.
        3    1    3    3  502    0  0.63658259851E+03 -0.67311993825E+02  0.95235346473E+03  0.11474952903E+04  0.10100000352E+00 0.  1.
       -3    1    3    3    0  502 -0.63658259851E+03  0.67311993825E+02 -0.49545350591E+03  0.80947050345E+03  0.10100000352E+00 0. -1.
</event>
<event>
 5   0  0.1814230E-05  0.2763741E+04  0.7818609E-02  0.8314614E-01
       -2   -1    0    0    0  501  0.00000000000E+00  0.00000000000E+00  0.96333775189E+03  0.96333775190E+03  0.25500000920E-02 0.  1.
        2   -1    0    0  501    0  0.00000000000E+00  0.00000000000E+00 -0.19822398246E+04  0.19822398246E+04  0.25500000920E-02 0. -1.
    10030    2    1    2    0    0  0.00000000000E+00  0.00000000000E+00 -0.10189020727E+04  0.29455775765E+04  0.27637412732E+04 0.  0.
        5    1    3    3  502    0  0.96363589910E+03 -0.21072042390E+03  0.52197454346E+03  0.11160092997E+04  0.46999998093E+01 0.  1.
       -5    1    3    3    0  502 -0.96363589910E+03  0.21072042390E+03 -0.15408766161E+04  0.18295682767E+04  0.46999998093E+01 0. -1.
</event>
<event>
 5   0  0.7555871E-06  0.2734166E+04  0.7818609E-02  0.8324004E-01
       -1   -1    0    0    0  501  0.00000000000E+00  0.00000000000E+00  0.17066409189E+04  0.17066409189E+04  0.50400001928E-02 0.  1.
        1   -1    0    0  501    0  0.00000000000E+00  0.00000000000E+00 -0.10950844212E+04  0.10950844212E+04  0.50400001928E-02 0. -1.
    10030    2    1    2    0    0  0.00000000000E+00  0.00000000000E+00  0.61155649773E+03  0.28017253402E+04  0.27341659664E+04 0.  0.
        3    1    3    3  502    0  0.51643698876E+03  0.12224311319E+04  0.64233066262E+03  0.14743248373E+04  0.10100000352E+00 0.  1.
       -3    1    3    3    0  502 -0.51643698876E+03 -0.12224311319E+04 -0.30774164896E+02  0.13274005029E+04  0.10100000352E+00 0. -1.
</event>
<event>
 5   0  0.7509685E-06  0.2819458E+04  0.7818609E-02  0.8297253E-01
        1   -1    0    0  501    0  0.00000000000E+00  0.00000000000E+00  0.13236230144E+04  0.13236230144E+04  0.50400001928E-02 0. -1.
       -1   -1    0    0    0  501  0.00000000000E+00  0.00000000000E+00 -0.15014363504E+04  0.15014363504E+04  0.50400001928E-02 0.  1.
    10030    2    1    2    0    0  0.00000000000E+00  0.00000000000E+00 -0.17781333601E+03  0.28250593649E+04  0.28194578969E+04 0.  0.
        4    1    3    3  502    0 -0.53105246505E+03 -0.13466009249E+03  0.12125903975E+04  0.13306115685E+04  0.12699999809E+01 0. -1.
       -4    1    3    3    0  502  0.53105246505E+03  0.13466009249E+03 -0.13904037335E+04  0.14944477964E+04  0.12699999809E+01 0.  1.
</event>
<event>
 5   0  0.7681342E-06  0.2793135E+04  0.7818609E-02  0.8305403E-01
        1   -1    0    0  501    0  0.00000000000E+00  0.00000000000E+00  0.11867169539E+04  0.11867169539E+04  0.50400001928E-02 0.  1.
       -1   -1    0    0    0  501  0.00000000000E+00  0.00000000000E+00 -0.16435267932E+04  0.16435267932E+04  0.50400001928E-02 0. -1.
    10030    2    1    2    0    0  0.00000000000E+00  0.00000000000E+00 -0.45680983928E+03  0.28302437471E+04  0.27931352346E+04 0.  0.
        2    1    3    3  502    0  0.95594483773E+03  0.10051535501E+04 -0.39253503755E+03  0.14416129674E+04  0.25500000920E-02 0.  1.
       -2    1    3    3    0  502 -0.95594483773E+03 -0.10051535501E+04 -0.64274801727E+02  0.13886307797E+04  0.25500000920E-02 0. -1.
</event>
<event>
 5   0  0.1923559E-05  0.2391771E+04  0.7818609E-02  0.8442591E-01
       -2   -1    0    0    0  501  0.00000000000E+00  0.00000000000E+00  0.58132953850E+03  0.58132953850E+03  0.25500000920E-02 0. -1.
        2   -1    0    0  501    0  0.00000000000E+00  0.00000000000E+00 -0.24601237792E+04  0.24601237792E+04  0.25500000920E-02 0.  1.
    10030    2    1    2    0    0  0.00000000000E+00  0.00000000000E+00 -0.18787942407E+04  0.30414533177E+04  0.23917714115E+04 0.  0.
        4    1    3    3  502    0  0.10128231463E+04  0.17935939948E+03 -0.16363848973E+03  0.10415179730E+04  0.12699999809E+01 0. -1.
       -4    1    3    3    0  502 -0.10128231463E+04 -0.17935939948E+03 -0.17151557510E+04  0.19999353447E+04  0.12699999809E+01 0.  1.
</event>
<event>
 5   0  0.7613444E-06  0.2794751E+04  0.7818609E-02  0.8304900E-01
        1   -1    0    0  501    0  0.00000000000E+00  0.00000000000E+00  0.12851535503E+04  0.12851535503E+04  0.50400001928E-02 0.  1.
       -1   -1    0    0    0  501  0.00000000000E+00  0.00000000000E+00 -0.15193965041E+04  0.15193965041E+04  0.50400001928E-02 0. -1.
    10030    2    1    2    0    0  0.00000000000E+00  0.00000000000E+00 -0.23424295383E+03  0.28045500544E+04  0.27947506590E+04 0.  0.
        5    1    3    3  502    0  0.10516575918E+04 -0.65811191375E+01 -0.10404611515E+04  0.14793946394E+04  0.46999998093E+01 0. -1.
       -5    1    3    3    0  502 -0.10516575918E+04  0.65811191375E+01  0.80621819766E+03  0.13251554149E+04  0.46999998093E+01 0.  1.
</event>
<event>
 5   0  0.1814230E-05  0.2804754E+04  0.7818609E-02  0.8301794E-01
        2   -1    0    0  501    0  0.00000000000E+00  0.00000000000E+00  0.17406236951E+04  0.17406236951E+04  0.25500000920E-02 0.  1.
       -2   -1    0    0    0  501  0.00000000000E+00  0.00000000000E+00 -0.11298602925E+04  0.11298602925E+04  0.25500000920E-02 0. -1.
    10030    2    1    2    0    0  0.00000000000E+00  0.00000000000E+00  0.61076340262E+03  0.28704839877E+04  0.28047542476E+04 0.  0.
        5    1    3    3  502    0 -0.94383773264E+03  0.30675275806E+03 -0.70865224501E+03  0.12194822731E+04  0.46999998093E+01 0. -1.
       -5    1    3    3    0  502  0.94383773264E+03 -0.30675275806E+03  0.13194156476E+04  0.16510017145E+04  0.46999998093E+01 0.  1.
</event>
<event>
 5   0  0.7681342E-06  0.2838892E+04  0.7818609E-02  0.8291295E-01
       -1   -1    0    0    0  501  0.00000000000E+00  0.00000000000E+00  0.12660928564E+04  0.12660928564E+04  0.50400001928E-02 0.  1.
        1   -1    0    0  501    0  0.00000000000E+00  0.00000000000E+00 -0.15913741384E+04  0.15913741384E+04  0.50400001928E-02 0. -1.
    10030    2    1    2    0    0  0.00000000000E+00  0.00000000000E+00 -0.32528128199E+03  0.28574669948E+04  0.28388923392E+04 0.  0.
        2    1    3    3  502    0  0.77532893238E+03 -0.12220959713E+03 -0.13530695948E+04  0.15642466133E+04  0.25500000920E-02 0. -1.
       -2    1    3    3    0  502 -0.77532893238E+03  0.12220959713E+03  0.10277883128E+04  0.12932203814E+04  0.25500000920E-02 0.  1.
</event>
<event>
 5   0  0.1904553E-05  0.2726474E+04  0.7818609E-02  0.8326466E-01
       -2   -1    0    0    0  501  0.00000000000E+00  0.00000000000E+00  0.14429923314E+04  0.14429923314E+04  0.25500000920E-02 0. -1.
        2   -1    0    0  501    0  0.00000000000E+00  0.00000000000E+00 -0.12878895489E+04  0.12878895489E+04  0.25500000920E-02 0.  1.
    10030    2    1    2    0    0  0.00000000000E+00  0.00000000000E+00  0.15510278250E+03  0.27308818803E+04  0.27264737247E+04 0.  0.
        1    1    3    3  502    0  0.21972285595E+02  0.27295787935E+03  0.14151602640E+04  0.14414115852E+04  0.50400001928E-02 0. -1.
       -1    1    3    3    0  502 -0.21972285595E+02 -0.27295787935E+03 -0.12600574815E+04  0.12894702951E+04  0.50400001928E-02 0.  1.
</event>
<event>
 5   0  0.7613444E-06  0.2763417E+04  0.7818609E-02  0.8314717E-01
       -1   -1    0    0    0  501  0.00000000000E+00  0.00000000000E+00  0.90391753777E+03  0.90391753778E+03  0.50400001928E-02 0. -1.
        1   -1    0    0  501    0  0.00000000000E+00  0.00000000000E+00 -0.21120489770E+04  0.21120489770E+04  0.50400001928E-02 0.  1.
    10030    2    1    2    0    0  0.00000000000E+00  0.00000000000E+00 -0.12081314392E+04  0.30159665148E+04  0.27634168060E+04 0.  0.
        5    1    3    3  502    0  0.28186730511E+03 -0.12288576678E+04 -0.12210205781E+04  0.17551221290E+04  0.46999998093E+01 0.  1.
       -5    1    3    3    0  502 -0.28186730511E+03  0.12288576678E+04  0.12889138913E+02  0.12608443858E+04  0.46999998093E+01 0. -1.
</event>
<event>
 5   0  0.7681342E-06  0.2520585E+04  0.7818609E-02  0.8395689E-01
        1   -1    0    0  501    0  0.00000000000E+00  0.00000000000E+00  0.14033044314E+04  0.14033044314E+04  0.50400001928E-02 0.  1.
       -1   -1    0    0    0  501  0.00000000000E+00  0.00000000000E+00 -0.11318547767E+04  0.11318547767E+04  0.50400001928E-02 0. -1.
    10030    2    1    2    0    0  0.00000000000E+00  0.00000000000E+00  0.27144965469E+03  0.25351592082E+04  0.25205847130E+04 0.  0.
        2    1    3    3  502    0 -0.27156158107E+03 -0.27537455768E+03  0.13421436806E+04  0.13967557048E+04  0.25500000920E-02 0.  1.
       -2    1    3    3    0  502  0.27156158107E+03  0.27537455768E+03 -0.10706940259E+04  0.11384035034E+04  0.25500000920E-02 0. -1.
</event>
<event>
 5   0  0.1832502E-05  0.2766896E+04  0.7818609E-02  0.8313620E-01
       -2   -1    0    0    0  501  0.00000000000E+00  0.00000000000E+00  0.16546422868E+04  0.16546422868E+04  0.25500000920E-02 0. -1.
        2   -1    0    0  501    0  0.00000000000E+00  0.00000000000E+00 -0.11567020512E+04  0.11567020512E+04  0.25500000920E-02 0.  1.
    10030    2    1    2    0    0  0.00000000000E+00  0.00000000000E+00  0.49794023566E+03  0.28113443380E+04  0.27668958254E+04 0.  0.
        2    1    3    3  502    0 -0.42861821421E+02  0.55268126613E+03 -0.10389228323E+04  0.11775628939E+04  0.25500000920E-02 0.  1.
       -2    1    3    3    0  502  0.42861821421E+02 -0.55268126613E+03  0.15368630679E+04  0.16337814441E+04  0.25500000920E-02 0. -1.
</event>
<event>
 5   0  0.1832502E-05  0.2870602E+04  0.7818609E-02  0.8281678E-01
        2   -1    0    0  501    0  0.00000000000E+00  0.00000000000E+00  0.22715057529E+04  0.22715057529E+04  0.25500000920E-02 0. -1.
       -2   -1    0    0    0  501  0.00000000000E+00  0.00000000000E+00 -0.90692689351E+03  0.90692689351E+03  0.25500000920E-02 0.  1.
    10030    2    1    2    0    0  0.00000000000E+00  0.00000000000E+00  0.13645788594E+04  0.31784326464E+04  0.28706024845E+04 0.  0.
        2    1    3    3  502    0 -0.16975339266E+03  0.13823578732E+04  0.29815669285E+03  0.14242987458E+04  0.25500000920E-02 0.  1.
       -2    1    3    3    0  502  0.16975339266E+03 -0.13823578732E+04  0.10664221665E+04  0.17541339006E+04  0.25500000920E-02 0. -1.
</event>
<event>
 5   0  0.1923559E-05  0.2874227E+04  0.7818609E-02  0.8280587E-01
       -2   -1    0    0    0  501  0.00000000000E+00  0.00000000000E+00  0.11701769093E+04  0.11701769093E+04  0.25500000920E-02 0. -1.
        2   -1    0    0  501    0  0.00000000000E+00  0.00000000000E+00 -0.17649422572E+04  0.17649422572E+04  0.25500000920E-02 0.  1.
    10030    2    1    2    0    0  0.00000000000E+00  0.00000000000E+00 -0.59476534788E+03  0.29351191666E+04  0.28742266269E+04 0.  0.
        4    1    3    3  502    0 -0.66254778619E+03 -0.11909372845E+04 -0.76310592277E+03  0.15619326000E+04  0.12699999809E+01 0.  1.
       -4    1    3    3    0  502  0.66254778619E+03  0.11909372845E+04  0.16834057489E+03  0.13731865666E+04  0.12699999809E+01 0. -1.
</event>
<event>
 5   0  0.1832502E-05  0.2768545E+04  0.7818609E-02  0.8313101E-01
       -2   -1    0    0    0  501  0.00000000000E+00  0.00000000000E+00  0.19887043915E+04  0.19887043915E+04  0.25500000920E-02 0. -1.
        2   -1    0    0  501    0  0.00000000000E+00  0.00000000000E+00 -0.96354708636E+03  0.96354708636E+03  0.25500000920E-02 0.  1.
    10030    2    1    2    0    0  0.00000000000E+00  0.00000000000E+00  0.10251573052E+04  0.29522514779E+04  0.27685449768E+04 0.  0.
        2    1    3    3  502    0 -0.85290574180E+03  0.68722043781E+03  0.14152026776E+04  0.17895582565E+04  0.25500000920E-02 0. -1.
       -2    1    3    3    0  502  0.85290574180E+03 -0.68722043781E+03 -0.39004537247E+03  0.11626932214E+04  0.25500000920E-02 0.  1.
</event>
<event>
 5   0  0.1832502E-05  0.2852464E+04  0.7818609E-02  0.8287163E-01
       -2   -1    0    0    0  501  0.00000000000E+00  0.00000000000E+00  0.80624193604E+03  0.80624193605E+03  0.25500000920E-02 0. -1.
        2   -1    0    0  501    0  0.00000000000E+00  0.00000000000E+00 -0.25229862712E+04  0.25229862712E+04  0.25500000920E-02 0.  1.
    10030    2    1    2    0    0  0.00000000000E+00  0.00000000000E+00 -0.17167443352E+04  0.33292282073E+04  0.28524637322E+04 0.  0.
        2    1    3    3  502    0  0.43086160090E+03  0.95465075883E+03  0.27148905376E+03  0.10819917268E+04  0.25500000920E-02 0. -1.
       -2    1    3    3    0  502 -0.43086160090E+03 -0.95465075883E+03 -0.19882333889E+04  0.22472364805E+04  0.25500000920E-02 0.  1.
</event>
<event>
 5   0  0.1874272E-05  0.2755463E+04  0.7818609E-02  0.8317230E-01
       -2   -1    0    0    0  501  0.00000000000E+00  0.00000000000E+00  0.73355603103E+03  0.73355603104E+03  0.25500000920E-02 0.  1.
        2   -1    0    0  501    0  0.00000000000E+00  0.00000000000E+00 -0.25875918193E+04  0.25875918193E+04  0.25500000920E-02 0. -1.
    10030    2    1    2    0    0  0.00000000000E+00  0.00000000000E+00 -0.18540357883E+04  0.33211478504E+04  0.27554626362E+04 0.  0.
        3    1    3    3  502    0  0.56920670073E+03  0.12489376282E+04 -0.10711609429E+04  0.17410419992E+04  0.10100000352E+00 0. -1.
       -3    1    3    3    0  502 -0.56920670073E+03 -0.12489376282E+04 -0.78287484539E+03  0.15801058512E+04  0.10100000352E+00 0.  1.
</event>
<event>
 5   0  0.7509685E-06  0.2770563E+04  0.7818609E-02  0.8312466E-01
        1   -1    0    0  501    0  0.00000000000E+00  0.00000000000E+00  0.16631021972E+04  0.16631021972E+04  0.50400001928E-02 0. -1.
       -1   -1    0    0    0  501  0.00000000000E+00  0.00000000000E+00 -0.11538702759E+04  0.11538702760E+04  0.50400001928E-02 0.  1.
    10030    2    1    2    0    0  0.00000000000E+00  0.00000000000E+00  0.50923192126E+03  0.28169724732E+04  0.27705625358E+04 0.  0.
        4    1    3    3  502    0  0.36734849529E+03 -0.33104047354E+03  0.15703051737E+04  0.16463270221E+04  0.12699999809E+01 0. -1.
       -4    1    3    3    0  502 -0.36734849529E+03  0.33104047354E+03 -0.10610732525E+04  0.11706454511E+04  0.12699999809E+01 0.  1.
</event>
<event>
 5   0  0.7388013E-06  0.2826923E+04  0.7818609E-02  0.8294958E-01
       -1   -1    0    0    0  501  0.00000000000E+00  0.00000000000E+00  0.17355596140E+04  0.17355596140E+04  0.50400001928E-02 0. -1.
        1   -1    0    0  501    0  0.00000000000E+00  0.00000000000E+00 -0.11511404960E+04  0.11511404960E+04  0.50400001928E-02 0.  1.
    10030    2    1    2    0    0  0.00000000000E+00  0.00000000000E+00  0.58441911808E+03  0.28867001100E+04  0.28269226766E+04 0.  0.
        1    1    3    3  502    0 -0.90060328313E+03 -0.10359475179E+04  0.63638176788E+03  0.15130285152E+04  0.50400001928E-02 0. -1.
       -1    1    3    3    0  502  0.90060328313E+03  0.10359475179E+04 -0.51962649793E+02  0.13736715948E+04  0.50400001928E-02 0.  1.
</event>
<event>
 5   0  0.7555871E-06  0.2751098E+04  0.7818609E-02  0.8318613E-01
        1   -1    0    0  501    0  0.00000000000E+00  0.00000000000E+00  0.11585182349E+04  0.11585182349E+04  0.50400001928E-02 0. -1.
       -1   -1    0    0    0  501  0.00000000000E+00  0.00000000000E+00 -0.16332367286E+04  0.16332367286E+04  0.50400001928E-02 0.  1.
    10030    2    1    2    0    0  0.00000000000E+00  0.00000000000E+00 -0.47471849369E+03  0.27917549635E+04  0.27510976224E+04 0.  0.
        3    1    3    3  502    0 -0.30402064105E+03  0.91029924277E+03 -0.12373468353E+04  0.15659184087E+04  0.10100000352E+00 0.  1.
       -3    1    3    3    0  502  0.30402064105E+03 -0.91029924277E+03  0.76262834159E+03  0.12258365548E+04  0.10100000352E+00 0. -1.
</event>
<event>
 5   0  0.7681342E-06  0.2734000E+04  0.7818609E-02  0.8324057E-01
       -1   -1    0    0    0  501  0.00000000000E+00  0.00000000000E+00  0.79492380722E+03  0.79492380723E+03  0.50400001928E-02 0. -1.
        1   -1    0    0  501    0  0.00000000000E+00  0.00000000000E+00 -0.23507774095E+04  0.23507774095E+04  0.50400001928E-02 0.  1.
    10030    2    1    2    0    0  0.00000000000E+00  0.00000000000E+00 -0.15558536022E+04  0.31457012167E+04  0.27339999475E+04 0.  0.
        2    1    3    3  502    0 -0.63228949519E+03 -0.52393434096E+03  0.47952793817E+03  0.95091757943E+03  0.25500000920E-02 0. -1.
       -2    1    3    3    0  502  0.63228949519E+03  0.52393434096E+03 -0.20353815404E+04  0.21947836373E+04  0.25500000920E-02 0.  1.
</event>
<event>
 5   0  0.7555871E-06  0.2879720E+04  0.7818609E-02  0.8278937E-01
        1   -1    0    0  501    0  0.00000000000E+00  0.00000000000E+00  0.13022698485E+04  0.13022698485E+04  0.50400001928E-02 0.  1.
       -1   -1    0    0    0  501  0.00000000000E+00  0.00000000000E+00 -0.15919866183E+04  0.15919866184E+04  0.50400001928E-02 0. -1.
    10030    2    1    2    0    0  0.00000000000E+00  0.00000000000E+00 -0.28971676984E+03  0.28942564669E+04  0.28797195505E+04 0.  0.
        3    1    3    3  502    0  0.11176327448E+04  0.45627804419E+03 -0.93361528840E+03  0.15260832621E+04  0.10100000352E+00 0. -1.
       -3    1    3    3    0  502 -0.11176327448E+04 -0.45627804419E+03  0.64389851856E+03  0.13681732048E+04  0.10100000352E+00 0.  1.
</event>
<event>
 5   0  0.1923559E-05  0.2669568E+04  0.7818609E-02  0.8344947E-01
       -2   -1    0    0    0  501  0.00000000000E+00  0.00000000000E+00  0.64831189834E+03  0.64831189835E+03  0.25500000920E-02 0.  1.
        2   -1    0    0  501    0  0.00000000000E+00  0.00000000000E+00 -0.27481337046E+04  0.27481337046E+04  0.25500000920E-02 0. -1.
    10030    2    1    2    0    0  0.00000000000E+00  0.00000000000E+00 -0.20998218063E+04  0.33964456030E+04  0.26695675897E+04 0.  0.
        4    1    3    3  502    0  0.10221848233E+04 -0.29673115831E+03 -0.20746596546E+04  0.23317644582E+04  0.12699999809E+01 0.  1.
       -4    1    3    3    0  502 -0.10221848233E+04  0.29673115831E+03 -0.25162151690E+02  0.10646811448E+04  0.12699999809E+01 0. -1.
</event>
<event>
 5   0  0.1923559E-05  0.2049467E+04  0.7818609E-02  0.8583836E-01
       -2   -1    0    0    0  501  0.00000000000E+00  0.00000000000E+00  0.80330161746E+03  0.80330161747E+03  0.25500000920E-02 0. -1.
        2   -1    0    0  501    0  0.00000000000E+00  0.00000000000E+00 -0.13072030288E+04  0.13072030288E+04  0.25500000920E-02 0.  1.
    10030    2    1    2    0    0  0.00000000000E+00  0.00000000000E+00 -0.50390141134E+03  0.21105046463E+04  0.20494665720E+04 0.  0.
        4    1    3    3  502    0  0.95064444468E+03 -0.30776594603E+03 -0.48594472947E+03  0.11111204393E+04  0.12699999809E+01 0.  1.
       -4    1    3    3    0  502 -0.95064444468E+03  0.30776594603E+03 -0.17956681867E+02  0.99938420692E+03  0.12699999809E+01 0. -1.
</event>
<event>
 5   0  0.1832502E-05  0.2456196E+04  0.7818609E-02  0.8418759E-01
       -2   -1    0    0    0  501  0.00000000000E+00  0.00000000000E+00  0.14145949830E+04  0.14145949830E+04  0.25500000920E-02 0.  1.
        2   -1    0    0  501    0  0.00000000000E+00  0.00000000000E+00 -0.10661882453E+04  0.10661882453E+04  0.25500000920E-02 0. -1.
    10030    2    1    2    0    0  0.00000000000E+00  0.00000000000E+00  0.34840673770E+03  0.24807832283E+04  0.24561958739E+04 0.  0.
        2    1    3    3  502    0 -0.40841693700E+03  0.11170500216E+04  0.48323913184E+03  0.12837932870E+04  0.25500000920E-02 0.  1.
       -2    1    3    3    0  502  0.40841693700E+03 -0.11170500216E+04 -0.13483239414E+03  0.11969899413E+04  0.25500000920E-02 0. -1.
</event>
<event>
 5   0  0.7509685E-06  0.2791951E+04  0.7818609E-02  0.8305772E-01
       -1   -1    0    0    0  501  0.00000000000E+00  0.00000000000E+00  0.10134219765E+04  0.10134219765E+04  0.50400001928E-02 0. -1.
        1   -1    0    0  501    0  0.00000000000E+00  0.00000000000E+00 -0.19229379376E+04  0.19229379376E+04  0.50400001928E-02 0.  1.
    10030    2    1    2    0    0  0.00000000000E+00  0.00000000000E+00 -0.90951596110E+03  0.29363599140E+04  0.27919509776E+04 0.  0.
        4    1    3    3  502    0 -0.13699655329E+04 -0.11763331104E+03 -0.70827085035E+03  0.15467037103E+04  0.12699999809E+01 0.  1.
       -4    1    3    3    0  502  0.13699655329E+04  0.11763331104E+03 -0.20124511075E+03  0.13896562037E+04  0.12699999809E+01 0. -1.
</event>
<event>
 5   0  0.7555871E-06  0.2807495E+04  0.7818609E-02  0.8300945E-01
       -1   -1    0    0    0  501  0.00000000000E+00  0.00000000000E+00  0.17581929625E+04  0.17581929625E+04  0.50400001928E-02 0.  1.
        1   -1    0    0  501    0  0.00000000000E+00  0.00000000000E+00 -0.11207568217E+04  0.11207568217E+04  0.50400001928E-02 0. -1.
    10030    2    1    2    0    0  0.00000000000E+00  0.00000000000E+00  0.63743614075E+03  0.28789497842E+04  0.28074947954E+04 0.  0.
        3    1    3    3  502    0 -0.35906561831E+03 -0.45869383970E+03  0.16284001532E+04  0.17294551818E+04  0.10100000352E+00 0.  1.
       -3    1    3    3    0  502  0.35906561831E+03  0.45869383970E+03 -0.99096401242E+03  0.11494946024E+04  0.10100000352E+00 0. -1.
</event>
<event>
 5   0  0.7509685E-06  0.2759892E+04  0.7818609E-02  0.8315830E-01
       -1   -1    0    0    0  501  0.00000000000E+00  0.00000000000E+00  0.18622639506E+04  0.18622639506E+04  0.50400001928E-02 0.  1.
        1   -1    0    0  501    0  0.00000000000E+00  0.00000000000E+00 -0.10225458568E+04  0.10225458568E+04  0.50400001928E-02 0. -1.
    10030    2    1    2    0    0  0.00000000000E+00  0.00000000000E+00  0.83971809373E+03  0.28848098074E+04  0.27598915102E+04 0.  0.
        4    1    3    3  502    0 -0.81580454840E+03  0.32194766411E+03  0.15334734425E+04  0.17665587370E+04  0.12699999809E+01 0.  1.
       -4    1    3    3    0  502  0.81580454840E+03 -0.32194766411E+03 -0.69375534875E+03  0.11182510704E+04  0.12699999809E+01 0. -1.
</event>
<event>
 5   0  0.7509685E-06  0.2960605E+04  0.7818609E-02  0.8255071E-01
        1   -1    0    0  501    0  0.00000000000E+00  0.00000000000E+00  0.17318530272E+04  0.17318530272E+04  0.50400001928E-02 0.  1.
       -1   -1    0    0    0  501  0.00000000000E+00  0.00000000000E+00 -0.12652892811E+04  0.12652892811E+04  0.50400001928E-02 0. -1.
    10030    2    1    2    0    0  0.00000000000E+00  0.00000000000E+00  0.46656374614E+03  0.29971423083E+04  0.29606047164E+04 0.  0.
        4    1    3    3  502    0 -0.71652080100E+03 -0.11554872371E+04 -0.35938375776E+03  0.14063111716E+04  0.12699999809E+01 0. -1.
       -4    1    3    3    0  502  0.71652080100E+03  0.11554872371E+04  0.82594750390E+03  0.15908311367E+04  0.12699999809E+01 0.  1.
</event>
<event>
 5   0  0.1904553E-05  0.2802898E+04  0.7818609E-02  0.8302369E-01
        2   -1    0    0  501    0  0.00000000000E+00  0.00000000000E+00  0.12048913376E+04  0.12048913376E+04  0.25500000920E-02 0.  1.
       -2   -1    0    0    0  501  0.00000000000E+00  0.00000000000E+00 -0.16300720704E+04  0.16300720704E+04  0.25500000920E-02 0. -1.
    10030    2    1    2    0    0  0.00000000000E+00  0.00000000000E+00 -0.42518073284E+03  0.28349634079E+04  0.28028982980E+04 0.  0.
        1    1    3    3  502    0 -0.73175489875E+03 -0.82484896716E+03  0.66230151647E+03  0.12862676040E+04  0.50400001928E-02 0.  1.
       -1    1    3    3    0  502  0.73175489875E+03  0.82484896716E+03 -0.10874822493E+04  0.15486958039E+04  0.50400001928E-02 0. -1.
</event>
<event>
 5   0  0.1832502E-05  0.2845176E+04  0.7818609E-02  0.8289379E-01
        2   -1    0    0  501    0  0.00000000000E+00  0.00000000000E+00  0.22585439002E+04  0.22585439002E+04  0.25500000920E-02 0.  1.
       -2   -1    0    0    0  501  0.00000000000E+00  0.00000000000E+00 -0.89604509015E+03  0.89604509015E+03  0.25500000920E-02 0. -1.
    10030    2    1    2    0    0  0.00000000000E+00  0.00000000000E+00  0.13624988101E+04  0.31545889904E+04  0.28451763901E+04 0.  0.
        2    1    3    3  502    0  0.13262230882E+04 -0.51369877852E+03  0.71636472207E+03  0.15924611549E+04  0.25500000920E-02 0.  1.
       -2    1    3    3    0  502 -0.13262230882E+04  0.51369877852E+03  0.64613408801E+03  0.15621278355E+04  0.25500000920E-02 0. -1.
</event>
<event>
 5   0  0.1874272E-05  0.2564981E+04  0.7818609E-02  0.8380194E-01
       -2   -1    0    0    0  501  0.00000000000E+00  0.00000000000E+00  0.80346939960E+03  0.80346939960E+03  0.25500000920E-02 0.  1.
        2   -1    0    0  501    0  0.00000000000E+00  0.00000000000E+00 -0.20470999486E+04  0.20470999486E+04  0.25500000920E-02 0. -1.
    10030    2    1    2    0    0  0.00000000000E+00  0.00000000000E+00 -0.12436305490E+04  0.28505693482E+04  0.25649812215E+04 0.  0.
        3    1    3    3  502    0 -0.17123225700E+03  0.11463835982E+04 -0.12318052665E+04  0.16914077169E+04  0.10100000352E+00 0.  1.
       -3    1    3    3    0  502  0.17123225700E+03 -0.11463835982E+04 -0.11825282480E+02  0.11591616313E+04  0.10100000352E+00 0. -1.
</event>
<event>
 5   0  0.1814230E-05  0.2737000E+04  0.7818609E-02  0.8323099E-01
       -2   -1    0    0    0  501  0.00000000000E+00  0.00000000000E+00  0.15191609514E+04  0.15191609514E+04  0.25500000920E-02 0. -1.
        2   -1    0    0  501    0  0.00000000000E+00  0.00000000000E+00 -0.12327802461E+04  0.12327802461E+04  0.25500000920E-02 0.  1.
    10030    2    1    2    0    0  0.00000000000E+00  0.00000000000E+00  0.28638070525E+03  0.27519411975E+04  0.27369995335E+04 0.  0.
        5    1    3    3  502    0  0.76048307259E+03 -0.97282179367E+02 -0.99656364105E+03  0.12573621224E+04  0.46999998093E+01 0.  1.
       -5    1    3    3    0  502 -0.76048307259E+03  0.97282179367E+02  0.12829443463E+04  0.14945790751E+04  0.46999998093E+01 0. -1.
</event>
<event>
 5   0  0.7613444E-06  0.2763561E+04  0.7818609E-02  0.8314671E-01
        1   -1    0    0  501    0  0.00000000000E+00  0.00000000000E+00  0.16143313288E+04  0.16143313288E+04  0.50400001928E-02 0. -1.
       -1   -1    0    0    0  501  0.00000000000E+00  0.00000000000E+00 -0.11827292470E+04  0.11827292470E+04  0.50400001928E-02 0.  1.
    10030    2    1    2    0    0  0.00000000000E+00  0.00000000000E+00  0.43160208179E+03  0.27970605758E+04  0.27635606575E+04 0.  0.
        5    1    3    3  502    0  0.34830965194E+03  0.62729387424E+03  0.14109956812E+04  0.15829555018E+04  0.46999998093E+01 0. -1.
       -5    1    3    3    0  502 -0.34830965194E+03 -0.62729387424E+03 -0.97939359940E+03  0.12141050741E+04  0.46999998093E+01 0.  1.
</event>
<event>
 5   0  0.7681342E-06  0.2776240E+04  0.7818609E-02  0.8310683E-01
       -1   -1    0    0    0  501  0.00000000000E+00  0.00000000000E+00  0.12063384404E+04  0.12063384404E+04  0.50400001928E-02 0.  1.
        1   -1    0    0  501    0  0.00000000000E+00  0.00000000000E+00 -0.15972945552E+04  0.15972945553E+04  0.50400001928E-02 0. -1.
    10030    2    1    2    0    0  0.00000000000E+00  0.00000000000E+00 -0.39095611486E+03  0.28036329956E+04  0.27762404958E+04 0.  0.
        2    1    3    3  502    0  0.50559498454E+02 -0.28706514395E+03  0.11750845825E+04  0.12106966737E+04  0.25500000920E-02 0.  1.
       -2    1    3    3    0  502 -0.50559498454E+02  0.28706514395E+03 -0.15660406974E+04  0.15929363219E+04  0.25500000920E-02 0. -1.
</event>
<event>
 5   0  0.7613444E-06  0.2791756E+04  0.7818609E-02  0.8305832E-01
       -1   -1    0    0    0  501  0.00000000000E+00  0.00000000000E+00  0.10330849882E+04  0.10330849882E+04  0.50400001928E-02 0. -1.
        1   -1    0    0  501    0  0.00000000000E+00  0.00000000000E+00 -0.18860750856E+04  0.18860750856E+04  0.50400001928E-02 0.  1.
    10030    2    1    2    0    0  0.00000000000E+00  0.00000000000E+00 -0.85299009741E+03  0.29191600739E+04  0.27917563344E+04 0.  0.
        5    1    3    3  502    0  0.39708665740E+03  0.42819659784E+03  0.89920592153E+03  0.10722049800E+04  0.46999998093E+01 0. -1.
       -5    1    3    3    0  502 -0.39708665740E+03 -0.42819659784E+03 -0.17521960189E+04  0.18469550938E+04  0.46999998093E+01 0.  1.
</event>
<event>
 5   0  0.1832502E-05  0.2805698E+04  0.7818609E-02  0.8301501E-01
        2   -1    0    0  501    0  0.00000000000E+00  0.00000000000E+00  0.20156633467E+04  0.20156633467E+04  0.25500000920E-02 0. -1.
       -2   -1    0    0    0  501  0.00000000000E+00  0.00000000000E+00 -0.97634649982E+03  0.97634649983E+03  0.25500000920E-02 0.  1.
    10030    2    1    2    0    0  0.00000000000E+00  0.00000000000E+00  0.10393168469E+04  0.29920098465E+04  0.28056983825E+04 0.  0.
        2    1    3    3  502    0 -0.47596033065E+03 -0.12490912405E+04  0.65692211902E+02  0.13383133528E+04  0.25500000920E-02 0.  1.
       -2    1    3    3    0  502  0.47596033065E+03  0.12490912405E+04  0.97362463496E+03  0.16536964937E+04  0.25500000920E-02 0. -1.
</event>
<event>
 5   0  0.1904553E-05  0.2807620E+04  0.7818609E-02  0.8300907E-01
        2   -1    0    0  501    0  0.00000000000E+00  0.00000000000E+00  0.15687830439E+04  0.15687830439E+04  0.25500000920E-02 0.  1.
       -2   -1    0    0    0  501  0.00000000000E+00  0.00000000000E+00 -0.12561854970E+04  0.12561854970E+04  0.25500000920E-02 0. -1.
    10030    2    1    2    0    0  0.00000000000E+00  0.00000000000E+00  0.31259754690E+03  0.28249685409E+04  0.28076199940E+04 0.  0.
        1    1    3    3  502    0  0.12122362260E+04 -0.25674479189E+03 -0.50751102291E+03  0.13390302440E+04  0.50400001928E-02 0. -1.
       -1    1    3    3    0  502 -0.12122362260E+04  0.25674479189E+03  0.82010856981E+03  0.14859382969E+04  0.50400001928E-02 0.  1.
</event>
<event>
 5   0  0.1904553E-05  0.2795008E+04  0.7818609E-02  0.8304820E-01
       -2   -1    0    0    0  501  0.00000000000E+00  0.00000000000E+00  0.21233831614E+04  0.21233831614E+04  0.25500000920E-02 0.  1.
        2   -1    0    0  501    0  0.00000000000E+00  0.00000000000E+00 -0.91976688684E+03  0.91976688685E+03  0.25500000920E-02 0. -1.
    10030    2    1    2    0    0  0.00000000000E+00  0.00000000000E+00  0.12036162745E+04  0.30431500482E+04  0.27950080643E+04 0.  0.
        1    1    3    3  502    0  0.89911480218E+03  0.12368527956E+03 -0.55522895361E+03  0.10639476805E+04  0.50400001928E-02 0. -1.
       -1    1    3    3    0  502 -0.89911480218E+03 -0.12368527956E+03  0.17588452281E+04  0.19792023677E+04  0.50400001928E-02 0.  1.
</event>
<event>
 5   0  0.1874272E-05  0.2847643E+04  0.7818609E-02  0.8288628E-01
        2   -1    0    0  501    0  0.00000000000E+00  0.00000000000E+00  0.11466933313E+04  0.11466933313E+04  0.25500000920E-02 0.  1.
       -2   -1    0    0    0  501  0.00000000000E+00  0.00000000000E+00 -0.17679248160E+04  0.17679248160E+04  0.25500000920E-02 0. -1.
    10030    2    1    2    0    0  0.00000000000E+00  0.00000000000E+00 -0.62123148469E+03  0.29146181473E+04  0.28476429529E+04 0.  0.
        3    1    3    3  502    0 -0.66105290525E+03 -0.11581712491E+04  0.20003331773E+03  0.13484676208E+04  0.10100000352E+00 0.  1.
       -3    1    3    3    0  502  0.66105290525E+03  0.11581712491E+04 -0.82126480242E+03  0.15661505265E+04  0.10100000352E+00 0. -1.
</event>
<event>
 5   0  0.7509685E-06  0.2783517E+04  0.7818609E-02  0.8308404E-01
        1   -1    0    0  501    0  0.00000000000E+00  0.00000000000E+00  0.19664170158E+04  0.19664170158E+04  0.50400001928E-02 0.  1.
       -1   -1    0    0    0  501  0.00000000000E+00  0.00000000000E+00 -0.98503637039E+03  0.98503637041E+03  0.50400001928E-02 0. -1.
    10030    2    1    2    0    0  0.00000000000E+00  0.00000000000E+00  0.98138064543E+03  0.29514533862E+04  0.27835174007E+04 0.  0.
        4    1    3    3  502    0 -0.39658826040E+03  0.13333645461E+04  0.53626495409E+03  0.14908806039E+04  0.12699999809E+01 0.  1.
       -4    1    3    3    0  502  0.39658826040E+03 -0.13333645461E+04  0.44511569135E+03  0.14605727824E+04  0.12699999809E+01 0. -1.
</event>
<event>
 5   0  0.1874272E-05  0.2644360E+04  0.7818609E-02  0.8353287E-01
        2   -1    0    0  501    0  0.00000000000E+00  0.00000000000E+00  0.12581399642E+04  0.12581399642E+04  0.25500000920E-02 0.  1.
       -2   -1    0    0    0  501  0.00000000000E+00  0.00000000000E+00 -0.13894793076E+04  0.13894793076E+04  0.25500000920E-02 0. -1.
    10030    2    1    2    0    0  0.00000000000E+00  0.00000000000E+00 -0.13133934344E+03  0.26476192718E+04  0.26443596172E+04 0.  0.
        3    1    3    3  502    0  0.10974081324E+04 -0.38351232644E+03  0.56500608933E+03  0.12925239668E+04  0.10100000352E+00 0.  1.
       -3    1    3    3    0  502 -0.10974081324E+04  0.38351232644E+03 -0.69634543277E+03  0.13550953050E+04  0.10100000352E+00 0. -1.
</event>
<event>
 5   0  0.7681342E-06  0.2792943E+04  0.7818609E-02  0.8305463E-01
        1   -1    0    0  501    0  0.00000000000E+00  0.00000000000E+00  0.19207348788E+04  0.19207348788E+04  0.50400001928E-02 0.  1.
       -1   -1    0    0    0  501  0.00000000000E+00  0.00000000000E+00 -0.10153056075E+04  0.10153056075E+04  0.50400001928E-02 0. -1.
    10030    2    1    2    0    0  0.00000000000E+00  0.00000000000E+00  0.90542927132E+03  0.29360404863E+04  0.27929431738E+04 0.  0.
        2    1    3    3  502    0  0.77183828147E+03  0.10832760940E+04  0.55854846676E+01  0.13301325597E+04  0.25500000920E-02 0. -1.
       -2    1    3    3    0  502 -0.77183828147E+03 -0.10832760940E+04  0.89984378665E+03  0.16059079267E+04  0.25500000920E-02 0.  1.
</event>
<event>
 5   0  0.1814230E-05  0.1928962E+04  0.7818609E-02  0.8640573E-01
        2   -1    0    0  501    0  0.00000000000E+00  0.00000000000E+00  0.14066370547E+04  0.14066370547E+04  0.25500000920E-02 0.  1.
       -2   -1    0    0    0  501  0.00000000000E+00  0.00000000000E+00 -0.66131007753E+03  0.66131007754E+03  0.25500000920E-02 0. -1.
    10030    2    1    2    0    0  0.00000000000E+00  0.00000000000E+00  0.74532697713E+03  0.20679471322E+04  0.19289616478E+04 0.  0.
        5    1    3    3  502    0  0.74294395240E+03  0.68546373075E+02 -0.28254959893E+03  0.79782246617E+03  0.46999998093E+01 0. -1.
       -5    1    3    3    0  502 -0.74294395240E+03 -0.68546373075E+02  0.10278765761E+04  0.12701246660E+04  0.46999998093E+01 0.  1.
</event>
<event>
 5   0  0.1874272E-05  0.2783907E+04  0.7818609E-02  0.8308282E-01
       -2   -1    0    0    0  501  0.00000000000E+00  0.00000000000E+00  0.10393917299E+04  0.10393917299E+04  0.25500000920E-02 0.  1.
        2   -1    0    0  501    0  0.00000000000E+00  0.00000000000E+00 -0.18641040080E+04  0.18641040080E+04  0.25500000920E-02 0. -1.
    10030    2    1    2    0    0  0.00000000000E+00  0.00000000000E+00 -0.82471227812E+03  0.29034957379E+04  0.27839068157E+04 0.  0.
        3    1    3    3  502    0  0.13992334544E+03 -0.47082037449E+03  0.94600663163E+03  0.10659169409E+04  0.10100000352E+00 0.  1.
       -3    1    3    3    0  502 -0.13992334544E+03  0.47082037449E+03 -0.17707189097E+04  0.18375787970E+04  0.10100000352E+00 0. -1.
</event>
<event>
 5   0  0.7681342E-06  0.2794981E+04  0.7818609E-02  0.8304828E-01
       -1   -1    0    0    0  501  0.00000000000E+00  0.00000000000E+00  0.14347399813E+04  0.14347399813E+04  0.50400001928E-02 0. -1.
        1   -1    0    0  501    0  0.00000000000E+00  0.00000000000E+00 -0.13612082934E+04  0.13612082934E+04  0.50400001928E-02 0.  1.
    10030    2    1    2    0    0  0.00000000000E+00  0.00000000000E+00  0.73531687929E+02  0.27959482747E+04  0.27949811888E+04 0.  0.
        2    1    3    3  502    0 -0.49640027319E+03 -0.55272358869E+03  0.12208406266E+04  0.14291145623E+04  0.25500000920E-02 0. -1.
       -2    1    3    3    0  502  0.49640027319E+03  0.55272358869E+03 -0.11473089386E+04  0.13668337124E+04  0.25500000920E-02 0.  1.
</event>
<event>
 5   0  0.7681342E-06  0.2826121E+04  0.7818609E-02  0.8295205E-01
       -1   -1    0    0    0  501  0.00000000000E+00  0.00000000000E+00  0.14122852001E+04  0.14122852001E+04  0.50400001928E-02 0. -1.
        1   -1    0    0  501    0  0.00000000000E+00  0.00000000000E+00 -0.14138359412E+04  0.14138359413E+04  0.50400001928E-02 0.  1.
    10030    2    1    2    0    0  0.00000000000E+00  0.00000000000E+00 -0.15507411782E+01  0.28261211413E+04  0.28261207159E+04 0.  0.
        2    1    3    3  502    0 -0.58510849165E+03 -0.12169044074E+04  0.41579556409E+03  0.14128319910E+04  0.25500000920E-02 0.  1.
       -2    1    3    3    0  502  0.58510849165E+03  0.12169044074E+04 -0.41734630527E+03  0.14132891503E+04  0.25500000920E-02 0. -1.
</event>
<event>
 5   0  0.6288000E-06  0.2813677E+04  0.7818609E-02  0.8299035E-01
        3   -1    0    0  501    0  0.00000000000E+00  0.00000000000E+00  0.85426755902E+03  0.85426756499E+03  0.10100000352E+00 0. -1.
       -3   -1    0    0    0  501  0.00000000000E+00  0.00000000000E+00 -0.23168316299E+04  0.23168316321E+04  0.10100000352E+00 0.  1.
    10030    2    1    2    0    0  0.00000000000E+00  0.00000000000E+00 -0.14625640709E+04  0.31710991971E+04  0.28136766794E+04 0.  0.
        4    1    3    3  502    0  0.13213378620E+04 -0.42742111210E+03 -0.47783810650E+03  0.14686570129E+04  0.12699999809E+01 0. -1.
       -4    1    3    3    0  502 -0.13213378620E+04  0.42742111210E+03 -0.98472596437E+03  0.17024421842E+04  0.12699999809E+01 0.  1.
</event>
<event>
 5   0  0.1832502E-05  0.2802116E+04  0.7818609E-02  0.8302612E-01
        2   -1    0    0  501    0  0.00000000000E+00  0.00000000000E+00  0.22379693693E+04  0.22379693693E+04  0.25500000920E-02 0.  1.
       -2   -1    0    0    0  501  0.00000000000E+00  0.00000000000E+00 -0.87711833714E+03  0.87711833715E+03  0.25500000920E-02 0. -1.
    10030    2    1    2    0    0  0.00000000000E+00  0.00000000000E+00  0.13608510321E+04  0.31150877064E+04  0.28021163229E+04 0.  0.
        2    1    3    3  502    0 -0.10724853542E+04  0.80122473851E+03  0.11398352055E+04  0.17582406583E+04  0.25500000920E-02 0. -1.
       -2    1    3    3    0  502  0.10724853542E+04 -0.80122473851E+03  0.22101582660E+03  0.13568470482E+04  0.25500000920E-02 0.  1.
</event>
<event>
 5   0  0.1832502E-05  0.2790221E+04  0.7818609E-02  0.8306311E-01
       -2   -1    0    0    0  501  0.00000000000E+00  0.00000000000E+00  0.17755887622E+04  0.17755887622E+04  0.25500000920E-02 0.  1.
        2   -1    0    0  501    0  0.00000000000E+00  0.00000000000E+00 -0.10961623330E+04  0.10961623330E+04  0.25500000920E-02 0. -1.
    10030    2    1    2    0    0  0.00000000000E+00  0.00000000000E+00  0.67942642925E+03  0.28717510952E+04  0.27902211525E+04 0.  0.
        2    1    3    3  502    0 -0.87131488933E+02  0.11387197045E+04 -0.48498614490E+03  0.12407602599E+04  0.25500000920E-02 0. -1.
       -2    1    3    3    0  502  0.87131488933E+02 -0.11387197045E+04  0.11644125741E+04  0.16309908353E+04  0.25500000920E-02 0.  1.
</event>
<event>
 5   0  0.7555871E-06  0.2254658E+04  0.7818609E-02  0.8496016E-01
       -1   -1    0    0    0  501  0.00000000000E+00  0.00000000000E+00  0.81187702007E+03  0.81187702008E+03  0.50400001928E-02 0. -1.
        1   -1    0    0  501    0  0.00000000000E+00  0.00000000000E+00 -0.15653490759E+04  0.15653490759E+04  0.50400001928E-02 0.  1.
    10030    2    1    2    0    0  0.00000000000E+00  0.00000000000E+00 -0.75347205579E+03  0.23772260960E+04  0.22546582385E+04 0.  0.
        3    1    3    3  502    0 -0.57950428139E+03 -0.96162547362E+03 -0.48385718515E+03  0.12225655604E+04  0.10100000352E+00 0. -1.
       -3    1    3    3    0  502  0.57950428139E+03  0.96162547362E+03 -0.26961487064E+03  0.11546605355E+04  0.10100000352E+00 0.  1.
</event>
<event>
 5   0  0.1923559E-05  0.2853059E+04  0.7818609E-02  0.8286983E-01
       -2   -1    0    0    0  501  0.00000000000E+00  0.00000000000E+00  0.10034409441E+04  0.10034409441E+04  0.25500000920E-02 0.  1.
        2   -1    0    0  501    0  0.00000000000E+00  0.00000000000E+00 -0.20280074782E+04  0.20280074782E+04  0.25500000920E-02 0. -1.
    10030    2    1    2    0    0  0.00000000000E+00  0.00000000000E+00 -0.10245665341E+04  0.30314484224E+04  0.28530585263E+04 0.  0.
        4    1    3    3  502    0 -0.21471032565E+03 -0.50493534485E+03 -0.19114018315E+04  0.19885971942E+04  0.12699999809E+01 0. -1.
       -4    1    3    3    0  502  0.21471032565E+03  0.50493534485E+03  0.88683529742E+03  0.10428512282E+04  0.12699999809E+01 0.  1.
</event>
<event>
 5   0  0.7388013E-06  0.2853468E+04  0.7818609E-02  0.8286858E-01
       -1   -1    0    0    0  501  0.00000000000E+00  0.00000000000E+00  0.12506455477E+04  0.12506455477E+04  0.50400001928E-02 0. -1.
        1   -1    0    0  501    0  0.00000000000E+00  0.00000000000E+00 -0.16276152440E+04  0.16276152440E+04  0.50400001928E-02 0.  1.
    10030    2    1    2    0    0  0.00000000000E+00  0.00000000000E+00 -0.37696969626E+03  0.28782607917E+04  0.28534678959E+04 0.  0.
        1    1    3    3  502    0  0.19653214764E+03  0.11676102224E+04  0.61444100560E+03  0.13339701143E+04  0.50400001928E-02 0. -1.
       -1    1    3    3    0  502 -0.19653214764E+03 -0.11676102224E+04 -0.99141070186E+03  0.15442906774E+04  0.50400001928E-02 0.  1.
</event>
<event>
 5   0  0.1832502E-05  0.2792300E+04  0.7818609E-02  0.8305663E-01
        2   -1    0    0  501    0  0.00000000000E+00  0.00000000000E+00  0.18002863181E+04  0.18002863181E+04  0.25500000920E-02 0. -1.
       -2   -1    0    0    0  501  0.00000000000E+00  0.00000000000E+00 -0.10827360150E+04  0.10827360150E+04  0.25500000920E-02 0.  1.
    10030    2    1    2    0    0  0.00000000000E+00  0.00000000000E+00  0.71755030314E+03  0.28830223331E+04  0.27923000082E+04 0.  0.
        2    1    3    3  502    0  0.79720556992E+03 -0.52702931077E+03  0.14096544986E+04  0.17030626590E+04  0.25500000920E-02 0. -1.
       -2    1    3    3    0  502 -0.79720556992E+03  0.52702931077E+03 -0.69210419546E+03  0.11799596741E+04  0.25500000920E-02 0.  1.
</event>
<event>
 5   0  0.7613444E-06  0.2753479E+04  0.7818609E-02  0.8317859E-01
       -1   -1    0    0    0  501  0.00000000000E+00  0.00000000000E+00  0.16044185405E+04  0.16044185405E+04  0.50400001928E-02 0.  1.
        1   -1    0    0  501    0  0.00000000000E+00  0.00000000000E+00 -0.11813696460E+04  0.11813696461E+04  0.50400001928E-02 0. -1.
    10030    2    1    2    0    0  0.00000000000E+00  0.00000000000E+00  0.42304889445E+03  0.27857881866E+04  0.27534787911E+04 0.  0.
        5    1    3    3  502    0  0.11476453019E+03  0.11570885292E+04 -0.53425771543E+03  0.12796398549E+04  0.46999998093E+01 0. -1.
       -5    1    3    3    0  502 -0.11476453019E+03 -0.11570885292E+04  0.95730660988E+03  0.15061483317E+04  0.46999998093E+01 0.  1.
</event>
<event>
 5   0  0.1904553E-05  0.2806580E+04  0.7818609E-02  0.8301228E-01
       -2   -1    0    0    0  501  0.00000000000E+00  0.00000000000E+00  0.10576536551E+04  0.10576536551E+04  0.25500000920E-02 0. -1.
        2   -1    0    0  501    0  0.00000000000E+00  0.00000000000E+00 -0.18618785231E+04  0.18618785231E+04  0.25500000920E-02 0.  1.
    10030    2    1    2    0    0  0.00000000000E+00  0.00000000000E+00 -0.80422486793E+03  0.29195321782E+04  0.28065798584E+04 0.  0.
        1    1    3    3  502    0 -0.44229091651E+03 -0.85084899052E+03  0.66364811742E+03  0.11661878422E+04  0.50400001928E-02 0. -1.
       -1    1    3    3    0  502  0.44229091651E+03  0.85084899052E+03 -0.14678729853E+04  0.17533443360E+04  0.50400001928E-02 0.  1.
</event>
<event>
 5   0  0.1814230E-05  0.2786211E+04  0.7818609E-02  0.8307562E-01
        2   -1    0    0  501    0  0.00000000000E+00  0.00000000000E+00  0.19961097251E+04  0.19961097252E+04  0.25500000920E-02 0. -1.
       -2   -1    0    0    0  501  0.00000000000E+00  0.00000000000E+00 -0.97226269524E+03  0.97226269525E+03  0.25500000920E-02 0.  1.
    10030    2    1    2    0    0  0.00000000000E+00  0.00000000000E+00  0.10238470299E+04  0.29683724204E+04  0.27862110626E+04 0.  0.
        5    1    3    3  502    0  0.23545551941E+02 -0.59468492362E+03 -0.82999657799E+03  0.10213329334E+04  0.46999998093E+01 0.  1.
       -5    1    3    3    0  502 -0.23545551941E+02  0.59468492362E+03  0.18538436079E+04  0.19470394870E+04  0.46999998093E+01 0. -1.
</event>
<event>
 5   0  0.7388013E-06  0.2824701E+04  0.7818609E-02  0.8295640E-01
       -1   -1    0    0    0  501  0.00000000000E+00  0.00000000000E+00  0.11245816331E+04  0.11245816331E+04  0.50400001928E-02 0. -1.
        1   -1    0    0  501    0  0.00000000000E+00  0.00000000000E+00 -0.17737570622E+04  0.17737570623E+04  0.50400001928E-02 0.  1.
    10030    2    1    2    0    0  0.00000000000E+00  0.00000000000E+00 -0.64917542916E+03  0.28983386953E+04  0.28247014807E+04 0.  0.
        1    1    3    3  502    0  0.10654820057E+04 -0.13521537797E+03  0.61649128737E+03  0.12383846778E+04  0.50400001928E-02 0. -1.
       -1    1    3    3    0  502 -0.10654820057E+04  0.13521537797E+03 -0.12656667165E+04  0.16599540175E+04  0.50400001928E-02 0.  1.
</event>
<event>
 5   0  0.7509685E-06  0.2678722E+04  0.7818609E-02  0.8341942E-01
        1   -1    0    0  501    0  0.00000000000E+00  0.00000000000E+00  0.15780776194E+04  0.15780776194E+04  0.50400001928E-02 0.  1.
       -1   -1    0    0    0  501  0.00000000000E+00  0.00000000000E+00 -0.11367554980E+04  0.11367554980E+04  0.50400001928E-02 0. -1.
    10030    2    1    2    0    0  0.00000000000E+00  0.00000000000E+00  0.44132212136E+03  0.27148331174E+04  0.26787223896E+04 0.  0.
        4    1    3    3  502    0  0.50487297707E+03  0.73596105313E+03  0.12327985984E+04  0.15219492080E+04  0.12699999809E+01 0.  1.
       -4    1    3    3    0  502 -0.50487297707E+03 -0.73596105313E+03 -0.79147647703E+03  0.11928839094E+04  0.12699999809E+01 0. -1.
</event>
<event>
 5   0  0.7509685E-06  0.2592608E+04  0.7818609E-02  0.8370717E-01
       -1   -1    0    0    0  501  0.00000000000E+00  0.00000000000E+00  0.61199925548E+03  0.61199925550E+03  0.50400001928E-02 0.  1.
        1   -1    0    0  501    0  0.00000000000E+00  0.00000000000E+00 -0.27457608197E+04  0.27457608197E+04  0.50400001928E-02 0. -1.
    10030    2    1    2    0    0  0.00000000000E+00  0.00000000000E+00 -0.21337615642E+04  0.33577600752E+04  0.25926076274E+04 0.  0.
        4    1    3    3  502    0 -0.57998076618E+03 -0.13506510570E+03 -0.25581253522E+04  0.26265237868E+04  0.12699999809E+01 0. -1.
       -4    1    3    3    0  502  0.57998076618E+03  0.13506510570E+03  0.42436378807E+03  0.73123628837E+03  0.12699999809E+01 0.  1.
</event>
<event>
 5   0  0.1832502E-05  0.2797633E+04  0.7818609E-02  0.8304004E-01
       -2   -1    0    0    0  501  0.00000000000E+00  0.00000000000E+00  0.12366339724E+04  0.12366339724E+04  0.25500000920E-02 0.  1.
        2   -1    0    0  501    0  0.00000000000E+00  0.00000000000E+00 -0.15822684787E+04  0.15822684787E+04  0.25500000920E-02 0. -1.
    10030    2    1    2    0    0  0.00000000000E+00  0.00000000000E+00 -0.34563450632E+03  0.28189024511E+04  0.27976325378E+04 0.  0.
        2    1    3    3  502    0 -0.11656117069E+04  0.74953507805E+03 -0.36461536994E+03  0.14329681966E+04  0.25500000920E-02 0.  1.
       -2    1    3    3    0  502  0.11656117069E+04 -0.74953507805E+03  0.18980863617E+02  0.13859342545E+04  0.25500000920E-02 0. -1.
</event>
<event>
 5   0  0.1832502E-05  0.2812240E+04  0.7818609E-02  0.8299478E-01
       -2   -1    0    0    0  501  0.00000000000E+00  0.00000000000E+00  0.13717146298E+04  0.13717146298E+04  0.25500000920E-02 0. -1.
        2   -1    0    0  501    0  0.00000000000E+00  0.00000000000E+00 -0.14413887727E+04  0.14413887727E+04  0.25500000920E-02 0.  1.
    10030    2    1    2    0    0  0.00000000000E+00  0.00000000000E+00 -0.69674142839E+02  0.28131034025E+04  0.28122404355E+04 0.  0.
        2    1    3    3  502    0  0.13849401948E+04 -0.19202227617E+03  0.11434677994E+03  0.14028567582E+04  0.25500000920E-02 0. -1.
       -2    1    3    3    0  502 -0.13849401948E+04  0.19202227617E+03 -0.18402092278E+03  0.14102466443E+04  0.25500000920E-02 0.  1.
</event>
<event>
 5   0  0.1923559E-05  0.2777888E+04  0.7818609E-02  0.8310166E-01
       -2   -1    0    0    0  501  0.00000000000E+00  0.00000000000E+00  0.68901592710E+03  0.68901592711E+03  0.25500000920E-02 0.  1.
        2   -1    0    0  501    0  0.00000000000E+00  0.00000000000E+00 -0.27998842181E+04  0.27998842181E+04  0.25500000920E-02 0. -1.
    10030    2    1    2    0    0  0.00000000000E+00  0.00000000000E+00 -0.21108682910E+04  0.34889001452E+04  0.27778875573E+04 0.  0.
        4    1    3    3  502    0 -0.11561123453E+04  0.70268955127E+03 -0.66066697972E+03  0.15056064663E+04  0.12699999809E+01 0. -1.
       -4    1    3    3    0  502  0.11561123453E+04 -0.70268955127E+03 -0.14502013113E+04  0.19832936789E+04  0.12699999809E+01 0.  1.
</event>
<event>
 5   0  0.1814230E-05  0.2784226E+04  0.7818609E-02  0.8308182E-01
        2   -1    0    0  501    0  0.00000000000E+00  0.00000000000E+00  0.19820283834E+04  0.19820283834E+04  0.25500000920E-02 0. -1.
       -2   -1    0    0    0  501  0.00000000000E+00  0.00000000000E+00 -0.97777533978E+03  0.97777533978E+03  0.25500000920E-02 0.  1.
    10030    2    1    2    0    0  0.00000000000E+00  0.00000000000E+00  0.10042530436E+04  0.29598037232E+04  0.27842259075E+04 0.  0.
        5    1    3    3  502    0  0.91528502171E+03  0.89837009651E+03 -0.73441476387E+02  0.12846132654E+04  0.46999998093E+01 0.  1.
       -5    1    3    3    0  502 -0.91528502171E+03 -0.89837009651E+03  0.10776945200E+04  0.16751904578E+04  0.46999998093E+01 0. -1.
</event>
<event>
 5   0  0.1832502E-05  0.2051947E+04  0.7818609E-02  0.8582712E-01
        2   -1    0    0  501    0  0.00000000000E+00  0.00000000000E+00  0.23388410203E+04  0.23388410203E+04  0.25500000920E-02 0. -1.
       -2   -1    0    0    0  501  0.00000000000E+00  0.00000000000E+00 -0.45006123680E+03  0.45006123681E+03  0.25500000920E-02 0.  1.
    10030    2    1    2    0    0  0.00000000000E+00  0.00000000000E+00  0.18887797835E+04  0.27889022571E+04  0.20519470581E+04 0.  0.
        2    1    3    3  502    0  0.58161637728E+03  0.11992018224E+03 -0.19272606295E+03  0.62434108929E+03  0.25500000920E-02 0.  1.
       -2    1    3    3    0  502 -0.58161637728E+03 -0.11992018224E+03  0.20815058465E+04  0.21645611678E+04  0.25500000920E-02 0. -1.
</event>
<event>
 5   0  0.1904553E-05  0.2843156E+04  0.7818609E-02  0.8289994E-01
       -2   -1    0    0    0  501  0.00000000000E+00  0.00000000000E+00  0.10133886701E+04  0.10133886701E+04  0.25500000920E-02 0.  1.
        2   -1    0    0  501    0  0.00000000000E+00  0.00000000000E+00 -0.19941842940E+04  0.19941842940E+04  0.25500000920E-02 0. -1.
    10030    2    1    2    0    0  0.00000000000E+00  0.00000000000E+00 -0.98079562396E+03  0.30075729641E+04  0.28431558308E+04 0.  0.
        1    1    3    3  502    0 -0.88767658463E+03 -0.91296026288E+03  0.17814482855E+03  0.12857689297E+04  0.50400001928E-02 0.  1.
       -1    1    3    3    0  502  0.88767658463E+03  0.91296026288E+03 -0.11589404525E+04  0.17218040344E+04  0.50400001928E-02 0. -1.
</event>
<event>
 5   0  0.1923559E-05  0.2612458E+04  0.7818609E-02  0.8363982E-01
       -2   -1    0    0    0  501  0.00000000000E+00  0.00000000000E+00  0.14887511608E+04  0.14887511608E+04  0.25500000920E-02 0. -1.
        2   -1    0    0  501    0  0.00000000000E+00  0.00000000000E+00 -0.11460845989E+04  0.11460845989E+04  0.25500000920E-02 0.  1.
    10030    2    1    2    0    0  0.00000000000E+00  0.00000000000E+00  0.34266656187E+03  0.26348357597E+04  0.26124584414E+04 0.  0.
        4    1    3    3  502    0  0.14168593836E+03  0.10593129695E+04 -0.58610842241E+03  0.12189108122E+04  0.12699999809E+01 0.  1.
       -4    1    3    3    0  502 -0.14168593836E+03 -0.10593129695E+04  0.92877498429E+03  0.14159249474E+04  0.12699999809E+01 0. -1.
</event>
<event>
 5   0  0.1923559E-05  0.2769151E+04  0.7818609E-02  0.8312910E-01
       -2   -1    0    0    0  501  0.00000000000E+00  0.00000000000E+00  0.99155354693E+03  0.99155354694E+03  0.25500000920E-02 0.  1.
        2   -1    0    0  501    0  0.00000000000E+00  0.00000000000E+00 -0.19333794567E+04  0.19333794567E+04  0.25500000920E-02 0. -1.
    10030    2    1    2    0    0  0.00000000000E+00  0.00000000000E+00 -0.94182590978E+03  0.29249330036E+04  0.27691509586E+04 0.  0.
        4    1    3    3  502    0 -0.93517557506E+03 -0.17236442565E+03  0.59207385897E+03  0.11201856626E+04  0.12699999809E+01 0.  1.
       -4    1    3    3    0  502  0.93517557506E+03  0.17236442565E+03 -0.15338997687E+04  0.18047473410E+04  0.12699999809E+01 0. -1.
</event>
<event>
 5   0  0.1814230E-05  0.2484239E+04  0.7818609E-02  0.8408622E-01
       -2   -1    0    0    0  501  0.00000000000E+00  0.00000000000E+00  0.12908414971E+04  0.12908414971E+04  0.25500000920E-02 0. -1.
        2   -1    0    0  501    0  0.00000000000E+00  0.00000000000E+00 -0.11952366562E+04  0.11952366562E+04  0.25500000920E-02 0.  1.
    10030    2    1    2    0    0  0.00000000000E+00  0.00000000000E+00  0.95604840892E+02  0.24860781533E+04  0.24842391790E+04 0.  0.
        5    1    3    3  502    0 -0.31883220420E+03  0.82310068844E+03 -0.82673822400E+03  0.12094076644E+04  0.46999998093E+01 0.  1.
       -5    1    3    3    0  502  0.31883220420E+03 -0.82310068844E+03  0.92234306489E+03  0.12766704888E+04  0.46999998093E+01 0. -1.
</event>
<event>
 5   0  0.7509685E-06  0.2769262E+04  0.7818609E-02  0.8312875E-01
        1   -1    0    0  501    0  0.00000000000E+00  0.00000000000E+00  0.20048145618E+04  0.20048145618E+04  0.50400001928E-02 0. -1.
       -1   -1    0    0    0  501  0.00000000000E+00  0.00000000000E+00 -0.95629921754E+03  0.95629921756E+03  0.50400001928E-02 0.  1.
    10030    2    1    2    0    0  0.00000000000E+00  0.00000000000E+00  0.10485153442E+04  0.29611137793E+04  0.27692617043E+04 0.  0.
        4    1    3    3  502    0 -0.13173086991E+04  0.31246422989E+03  0.83465244480E+03  0.15904661016E+04  0.12699999809E+01 0. -1.
       -4    1    3    3    0  502  0.13173086991E+04 -0.31246422989E+03  0.21386289941E+03  0.13706476777E+04  0.12699999809E+01 0.  1.
</event>
<event>
 5   0  0.1814230E-05  0.2852311E+04  0.7818609E-02  0.8287210E-01
        2   -1    0    0  501    0  0.00000000000E+00  0.00000000000E+00  0.17887653788E+04  0.17887653788E+04  0.25500000920E-02 0. -1.
       -2   -1    0    0    0  501  0.00000000000E+00  0.00000000000E+00 -0.11370518746E+04  0.11370518746E+04  0.25500000920E-02 0.  1.
    10030    2    1    2    0    0  0.00000000000E+00  0.00000000000E+00  0.65171350428E+03  0.29258172534E+04  0.28523106613E+04 0.  0.
        5    1    3    3  502    0 -0.93091310097E+03  0.85972585710E+03 -0.34535271919E+03  0.13133995362E+04  0.46999998093E+01 0.  1.
       -5    1    3    3    0  502  0.93091310097E+03 -0.85972585710E+03  0.99706622347E+03  0.16124177173E+04  0.46999998093E+01 0. -1.
</event>
<event>
 5   0  0.1874272E-05  0.2766482E+04  0.7818609E-02  0.8313751E-01
        2   -1    0    0  501    0  0.00000000000E+00  0.00000000000E+00  0.13512049301E+04  0.13512049301E+04  0.25500000920E-02 0. -1.
       -2   -1    0    0    0  501  0.00000000000E+00  0.00000000000E+00 -0.14160361471E+04  0.14160361471E+04  0.25500000920E-02 0.  1.
    10030    2    1    2    0    0  0.00000000000E+00  0.00000000000E+00 -0.64831216992E+02  0.27672410773E+04  0.27664815367E+04 0.  0.
        3    1    3    3  502    0  0.12730580470E+04  0.53600204521E+03  0.40953214378E+02  0.13819016461E+04  0.10100000352E+00 0. -1.
       -3    1    3    3    0  502 -0.12730580470E+04 -0.53600204521E+03 -0.10578443137E+03  0.13853394312E+04  0.10100000352E+00 0.  1.
</event>
<event>
 5   0  0.6288000E-06  0.2356336E+04  0.7818609E-02  0.8456034E-01
        4   -1    0    0  501    0  0.00000000000E+00  0.00000000000E+00  0.97595802160E+03  0.97595884791E+03  0.12699999809E+01 0.  1.
       -4   -1    0    0    0  501  0.00000000000E+00  0.00000000000E+00 -0.14222729168E+04  0.14222734839E+04  0.12699999809E+01 0. -1.
    10030    2    1    2    0    0  0.00000000000E+00  0.00000000000E+00 -0.44631489525E+03  0.23982323318E+04  0.23563364215E+04 0.  0.
        4    1    3    3  502    0 -0.51309327651E+03  0.82780760856E+03  0.45161508311E+03  0.10735399123E+04  0.12699999809E+01 0.  1.
       -4    1    3    3    0  502  0.51309327651E+03 -0.82780760856E+03 -0.89792997836E+03  0.13246924194E+04  0.12699999809E+01 0. -1.
</event>
<event>
 5   0  0.7388013E-06  0.2811603E+04  0.7818609E-02  0.8299675E-01
        1   -1    0    0  501    0  0.00000000000E+00  0.00000000000E+00  0.15443064186E+04  0.15443064186E+04  0.50400001928E-02 0.  1.
       -1   -1    0    0    0  501  0.00000000000E+00  0.00000000000E+00 -0.12797188650E+04  0.12797188650E+04  0.50400001928E-02 0. -1.
    10030    2    1    2    0    0  0.00000000000E+00  0.00000000000E+00  0.26458755354E+03  0.28240252836E+04  0.28116031421E+04 0.  0.
        1    1    3    3  502    0 -0.97876542332E+03  0.19531296181E+03  0.11266926981E+04  0.15051795052E+04  0.50400001928E-02 0.  1.
       -1    1    3    3    0  502  0.97876542332E+03 -0.19531296181E+03 -0.86210514452E+03  0.13188457784E+04  0.50400001928E-02 0. -1.
</event>
<event>
 5   0  0.7613444E-06  0.2784425E+04  0.7818609E-02  0.8308120E-01
        1   -1    0    0  501    0  0.00000000000E+00  0.00000000000E+00  0.20166683987E+04  0.20166683987E+04  0.50400001928E-02 0. -1.
       -1   -1    0    0    0  501  0.00000000000E+00  0.00000000000E+00 -0.96111752519E+03  0.96111752520E+03  0.50400001928E-02 0.  1.
    10030    2    1    2    0    0  0.00000000000E+00  0.00000000000E+00  0.10555508735E+04  0.29777859239E+04  0.27844247812E+04 0.  0.
        5    1    3    3  502    0  0.26634658354E+03  0.40960717805E+03 -0.86640969220E+03  0.99468909092E+03  0.46999998093E+01 0.  1.
       -5    1    3    3    0  502 -0.26634658354E+03 -0.40960717805E+03  0.19219605657E+04  0.19830968330E+04  0.46999998093E+01 0. -1.
</event>
<event>
 5   0  0.7613444E-06  0.2911512E+04  0.7818609E-02  0.8269461E-01
        1   -1    0    0  501    0  0.00000000000E+00  0.00000000000E+00  0.18242620137E+04  0.18242620137E+04  0.50400001928E-02 0. -1.
       -1   -1    0    0    0  501  0.00000000000E+00  0.00000000000E+00 -0.11616888436E+04  0.11616888436E+04  0.50400001928E-02 0.  1.
    10030    2    1    2    0    0  0.00000000000E+00  0.00000000000E+00  0.66257317008E+03  0.29859508573E+04  0.29115115175E+04 0.  0.
        5    1    3    3  502    0 -0.14195012762E+04 -0.24539118644E+03  0.54641635271E+03  0.15407120523E+04  0.46999998093E+01 0. -1.
       -5    1    3    3    0  502  0.14195012762E+04  0.24539118644E+03  0.11615681737E+03  0.14452388051E+04  0.46999998093E+01 0.  1.
</event>
<event>
 5   0  0.1904553E-05  0.2653087E+04  0.7818609E-02  0.8350389E-01
       -2   -1    0    0    0  501  0.00000000000E+00  0.00000000000E+00  0.18794538006E+04  0.18794538006E+04  0.25500000920E-02 0. -1.
        2   -1    0    0  501    0  0.00000000000E+00  0.00000000000E+00 -0.93629215274E+03  0.93629215274E+03  0.25500000920E-02 0.  1.
    10030    2    1    2    0    0  0.00000000000E+00  0.00000000000E+00  0.94316164790E+03  0.28157459534E+04  0.26530871414E+04 0.  0.
        1    1    3    3  502    0  0.95683625741E+03 -0.27633812095E+03  0.14015563352E+04  0.17193773703E+04  0.50400001928E-02 0. -1.
       -1    1    3    3    0  502 -0.95683625741E+03  0.27633812095E+03 -0.45839468734E+03  0.10963685831E+04  0.50400001928E-02 0.  1.
</event>
<event>
 5   0  0.1904553E-05  0.2779123E+04  0.7818609E-02  0.8309779E-01
       -2   -1    0    0    0  501  0.00000000000E+00  0.00000000000E+00  0.87923501891E+03  0.87923501892E+03  0.25500000920E-02 0.  1.
        2   -1    0    0  501    0  0.00000000000E+00  0.00000000000E+00 -0.21960927203E+04  0.21960927203E+04  0.25500000920E-02 0. -1.
    10030    2    1    2    0    0  0.00000000000E+00  0.00000000000E+00 -0.13168577014E+04  0.30753277393E+04  0.27791233327E+04 0.  0.
        1    1    3    3  502    0 -0.75241911697E+03 -0.85485732117E+03  0.22265367541E+03  0.11603836548E+04  0.50400001928E-02 0.  1.
       -1    1    3    3    0  502  0.75241911697E+03  0.85485732117E+03 -0.15395113768E+04  0.19149440845E+04  0.50400001928E-02 0. -1.
</event>
<event>
 5   0  0.7509685E-06  0.2842414E+04  0.7818609E-02  0.8290220E-01
        1   -1    0    0  501    0  0.00000000000E+00  0.00000000000E+00  0.17369202544E+04  0.17369202544E+04  0.50400001928E-02 0.  1.
       -1   -1    0    0    0  501  0.00000000000E+00  0.00000000000E+00 -0.11628798020E+04  0.11628798020E+04  0.50400001928E-02 0. -1.
    10030    2    1    2    0    0  0.00000000000E+00  0.00000000000E+00  0.57404045245E+03  0.28998000564E+04  0.28424141018E+04 0.  0.
        4    1    3    3  502    0 -0.49211312914E+02 -0.10068608737E+04 -0.73502261535E+03  0.12475778254E+04  0.12699999809E+01 0. -1.
       -4    1    3    3    0  502  0.49211312914E+02  0.10068608737E+04  0.13090630678E+04  0.16522222311E+04  0.12699999809E+01 0.  1.
</event>
<event>
 5   0  0.1832502E-05  0.2832199E+04  0.7818609E-02  0.8293341E-01
       -2   -1    0    0    0  501  0.00000000000E+00  0.00000000000E+00  0.95409488981E+03  0.95409488982E+03  0.25500000920E-02 0. -1.
        2   -1    0    0  501    0  0.00000000000E+00  0.00000000000E+00 -0.21018219035E+04  0.21018219035E+04  0.25500000920E-02 0.  1.
    10030    2    1    2    0    0  0.00000000000E+00  0.00000000000E+00 -0.11477270136E+04  0.30559167933E+04  0.28321988189E+04 0.  0.
        2    1    3    3  502    0  0.12341781819E+04  0.22029652164E+03 -0.12843699669E+04  0.17948071078E+04  0.25500000920E-02 0.  1.
       -2    1    3    3    0  502 -0.12341781819E+04 -0.22029652164E+03  0.13664295330E+03  0.12611096855E+04  0.25500000920E-02 0. -1.
</event>
<event>
 5   0  0.1814230E-05  0.2838200E+04  0.7818609E-02  0.8291506E-01
       -2   -1    0    0    0  501  0.00000000000E+00  0.00000000000E+00  0.10371670862E+04  0.10371670862E+04  0.25500000920E-02 0.  1.
        2   -1    0    0  501    0  0.00000000000E+00  0.00000000000E+00 -0.19416785428E+04  0.19416785428E+04  0.25500000920E-02 0. -1.
    10030    2    1    2    0    0  0.00000000000E+00  0.00000000000E+00 -0.90451145659E+03  0.29788456290E+04  0.28382001879E+04 0.  0.
        5    1    3    3  502    0  0.26258563529E+03  0.39227804728E+03 -0.18568520210E+04  0.19159213971E+04  0.46999998093E+01 0. -1.
       -5    1    3    3    0  502 -0.26258563529E+03 -0.39227804728E+03  0.95234056438E+03  0.10629242319E+04  0.46999998093E+01 0.  1.
</event>
<event>
 5   0  0.1814230E-05  0.1833784E+04  0.7818609E-02  0.8688537E-01
       -2   -1    0    0    0  501  0.00000000000E+00  0.00000000000E+00  0.70551657997E+03  0.70551657997E+03  0.25500000920E-02 0. -1.
        2   -1    0    0  501    0  0.00000000000E+00  0.00000000000E+00 -0.11915960739E+04  0.11915960739E+04  0.25500000920E-02 0.  1.
    10030    2    1    2    0    0  0.00000000000E+00  0.00000000000E+00 -0.48607949391E+03  0.18971126539E+04  0.18337838332E+04 0.  0.
        5    1    3    3  502    0  0.53471013529E+03  0.21195925940E+03 -0.98171987221E+03  0.11378214508E+04  0.46999998093E+01 0.  1.
       -5    1    3    3    0  502 -0.53471013529E+03 -0.21195925940E+03  0.49564037830E+03  0.75929120305E+03  0.46999998093E+01 0. -1.
</event>
<event>
 5   0  0.7388013E-06  0.2820722E+04  0.7818609E-02  0.8296864E-01
       -1   -1    0    0    0  501  0.00000000000E+00  0.00000000000E+00  0.18251555153E+04  0.18251555153E+04  0.50400001928E-02 0. -1.
        1   -1    0    0  501    0  0.00000000000E+00  0.00000000000E+00 -0.10898348655E+04  0.10898348655E+04  0.50400001928E-02 0.  1.
    10030    2    1    2    0    0  0.00000000000E+00  0.00000000000E+00  0.73532064984E+03  0.29149903808E+04  0.28207219753E+04 0.  0.
        1    1    3    3  502    0 -0.10640119617E+04  0.76447369259E+03 -0.17187657990E+03  0.13213943545E+04  0.50400001928E-02 0.  1.
       -1    1    3    3    0  502  0.10640119617E+04 -0.76447369259E+03  0.90719722973E+03  0.15935960263E+04  0.50400001928E-02 0. -1.
</event>
<event>
 5   0  0.7509685E-06  0.2527524E+04  0.7818609E-02  0.8393245E-01
       -1   -1    0    0    0  501  0.00000000000E+00  0.00000000000E+00  0.12663584087E+04  0.12663584087E+04  0.50400001928E-02 0. -1.
        1   -1    0    0  501    0  0.00000000000E+00  0.00000000000E+00 -0.12611705146E+04  0.12611705146E+04  0.50400001928E-02 0.  1.
    10030    2    1    2    0    0  0.00000000000E+00  0.00000000000E+00  0.51878941253E+01  0.25275289233E+04  0.25275235991E+04 0.  0.
        4    1    3    3  502    0 -0.22325792701E+03 -0.72019081361E+03 -0.10115942487E+04  0.12616827838E+04  0.12699999809E+01 0.  1.
       -4    1    3    3    0  502  0.22325792701E+03  0.72019081361E+03  0.10167821428E+04  0.12658461395E+04  0.12699999809E+01 0. -1.
</event>
<event>
 5   0  0.1874272E-05  0.2782985E+04  0.7818609E-02  0.8308570E-01
        2   -1    0    0  501    0  0.00000000000E+00  0.00000000000E+00  0.11443651446E+04  0.11443651446E+04  0.25500000920E-02 0. -1.
       -2   -1    0    0    0  501  0.00000000000E+00  0.00000000000E+00 -0.16919878117E+04  0.16919878117E+04  0.25500000920E-02 0.  1.
    10030    2    1    2    0    0  0.00000000000E+00  0.00000000000E+00 -0.54762266715E+03  0.28363529563E+04  0.27829853588E+04 0.  0.
        3    1    3    3  502    0  0.13289247148E+04 -0.34896211355E+03 -0.49508202509E+02  0.13748696399E+04  0.10100000352E+00 0.  1.
       -3    1    3    3    0  502 -0.13289247148E+04  0.34896211355E+03 -0.49811446464E+03  0.14614833165E+04  0.10100000352E+00 0. -1.
</event>
<event>
 5   0  0.1904553E-05  0.2575065E+04  0.7818609E-02  0.8376721E-01
       -2   -1    0    0    0  501  0.00000000000E+00  0.00000000000E+00  0.70952606710E+03  0.70952606711E+03  0.25500000920E-02 0.  1.
        2   -1    0    0  501    0  0.00000000000E+00  0.00000000000E+00 -0.23364054157E+04  0.23364054157E+04  0.25500000920E-02 0. -1.
    10030    2    1    2    0    0  0.00000000000E+00  0.00000000000E+00 -0.16268793486E+04  0.30459314828E+04  0.25750654716E+04 0.  0.
        1    1    3    3  502    0  0.32432450770E+02 -0.12445983938E+04 -0.12015597804E+04  0.17302667227E+04  0.50400001928E-02 0. -1.
       -1    1    3    3    0  502 -0.32432450770E+02  0.12445983938E+04 -0.42531956814E+03  0.13156647601E+04  0.50400001928E-02 0.  1.
</event>
<event>
 5   0  0.1814230E-05  0.2772810E+04  0.7818609E-02  0.8311760E-01
        2   -1    0    0  501    0  0.00000000000E+00  0.00000000000E+00  0.23014767660E+04  0.23014767660E+04  0.25500000920E-02 0.  1.
       -2   -1    0    0    0  501  0.00000000000E+00  0.00000000000E+00 -0.83516779641E+03  0.83516779642E+03  0.25500000920E-02 0. -1.
    10030    2    1    2    0    0  0.00000000000E+00  0.00000000000E+00  0.14663089696E+04  0.31366445624E+04  0.27728103283E+04 0.  0.
        5    1    3    3  502    0  0.11609055761E+04 -0.22353757039E+03  0.15523497113E+04  0.19512771505E+04  0.46999998093E+01 0.  1.
       -5    1    3    3    0  502 -0.11609055761E+04  0.22353757039E+03 -0.86040741713E+02  0.11853674119E+04  0.46999998093E+01 0. -1.
</event>
<event>
 5   0  0.6288000E-06  0.2888842E+04  0.7818609E-02  0.8276205E-01
        4   -1    0    0  501    0  0.00000000000E+00  0.00000000000E+00  0.16370931301E+04  0.16370936227E+04  0.12699999809E+01 0.  1.
       -4   -1    0    0    0  501  0.00000000000E+00  0.00000000000E+00 -0.12744239765E+04  0.12744246093E+04  0.12699999809E+01 0. -1.
    10030    2    1    2    0    0  0.00000000000E+00  0.00000000000E+00  0.36266915355E+03  0.29115182320E+04  0.28888422422E+04 0.  0.
        3    1    3    3  502    0  0.71193143020E+03 -0.12029498159E+04 -0.18541428979E+03  0.14100755618E+04  0.10100000352E+00 0. -1.
       -3    1    3    3    0  502 -0.71193143020E+03  0.12029498159E+04  0.54808344334E+03  0.15014426702E+04  0.10100000352E+00 0.  1.
</event>
<event>
 5   0  0.1874272E-05  0.2834099E+04  0.7818609E-02  0.8292759E-01
        2   -1    0    0  501    0  0.00000000000E+00  0.00000000000E+00  0.18846979832E+04  0.18846979832E+04  0.25500000920E-02 0. -1.
       -2   -1    0    0    0  501  0.00000000000E+00  0.00000000000E+00 -0.10654383059E+04  0.10654383059E+04  0.25500000920E-02 0.  1.
    10030    2    1    2    0    0  0.00000000000E+00  0.00000000000E+00  0.81925967729E+03  0.29501362891E+04  0.28340990994E+04 0.  0.
        3    1    3    3  502    0 -0.76661004477E+03  0.82314842828E+03 -0.48749482917E+03  0.12259345474E+04  0.10100000352E+00 0.  1.
       -3    1    3    3    0  502  0.76661004477E+03 -0.82314842828E+03  0.13067545065E+04  0.17242017417E+04  0.10100000352E+00 0. -1.
</event>
<event>
 5   0  0.1923559E-05  0.2747224E+04  0.7818609E-02  0.8319843E-01
       -2   -1    0    0    0  501  0.00000000000E+00  0.00000000000E+00  0.13390404555E+04  0.13390404556E+04  0.25500000920E-02 0.  1.
        2   -1    0    0  501    0  0.00000000000E+00  0.00000000000E+00 -0.14090756557E+04  0.14090756557E+04  0.25500000920E-02 0. -1.
    10030    2    1    2    0    0  0.00000000000E+00  0.00000000000E+00 -0.70035200168E+02  0.27481161113E+04  0.27472235497E+04 0.  0.
        4    1    3    3  502    0  0.11469674140E+04  0.75580513476E+03 -0.40680221513E+02  0.13742023664E+04  0.12699999809E+01 0. -1.
       -4    1    3    3    0  502 -0.11469674140E+04 -0.75580513476E+03 -0.29354978654E+02  0.13739137448E+04  0.12699999809E+01 0.  1.
</event>
<event>
 5   0  0.6288000E-06  0.2194530E+04  0.7818609E-02  0.8520708E-01
       -3   -1    0    0    0  501  0.00000000000E+00  0.00000000000E+00  0.10256593589E+04  0.10256593638E+04  0.10100000352E+00 0.  1.
        3   -1    0    0  501    0  0.00000000000E+00  0.00000000000E+00 -0.11738692245E+04  0.11738692288E+04  0.10100000352E+00 0. -1.
    10030    2    1    2    0    0  0.00000000000E+00  0.00000000000E+00 -0.14820986562E+03  0.21995285927E+04  0.21945295318E+04 0.  0.
        5    1    3    3  502    0 -0.36940521152E+03  0.66120478506E+01  0.96143008672E+03  0.10299872966E+04  0.46999998093E+01 0.  1.
       -5    1    3    3    0  502  0.36940521152E+03 -0.66120478506E+01 -0.11096399523E+04  0.11695412961E+04  0.46999998093E+01 0. -1.
</event>
<event>
 5   0  0.1874272E-05  0.2741603E+04  0.7818609E-02  0.8321631E-01
       -2   -1    0    0    0  501  0.00000000000E+00  0.00000000000E+00  0.73012782491E+03  0.73012782491E+03  0.25500000920E-02 0. -1.
        2   -1    0    0  501    0  0.00000000000E+00  0.00000000000E+00 -0.25736536015E+04  0.25736536015E+04  0.25500000920E-02 0.  1.
    10030    2    1    2    0    0  0.00000000000E+00  0.00000000000E+00 -0.18435257766E+04  0.33037814265E+04  0.27416025286E+04 0.  0.
        3    1    3    3  502    0  0.77657591522E+03 -0.55595120058E+03  0.26320756929E+03  0.99067155216E+03  0.10100000352E+00 0. -1.
       -3    1    3    3    0  502 -0.77657591522E+03  0.55595120058E+03 -0.21067333459E+04  0.23131098743E+04  0.10100000352E+00 0.  1.
</event>
<event>
 5   0  0.1923559E-05  0.2810517E+04  0.7818609E-02  0.8300011E-01
       -2   -1    0    0    0  501  0.00000000000E+00  0.00000000000E+00  0.13825965947E+04  0.13825965947E+04  0.25500000920E-02 0. -1.
        2   -1    0    0  501    0  0.00000000000E+00  0.00000000000E+00 -0.14282921185E+04  0.14282921185E+04  0.25500000920E-02 0.  1.
    10030    2    1    2    0    0  0.00000000000E+00  0.00000000000E+00 -0.45695523799E+02  0.28108887133E+04  0.28105172615E+04 0.  0.
        4    1    3    3  502    0 -0.67810285407E+03  0.11818903011E+04  0.32079922460E+03  0.13998578213E+04  0.12699999809E+01 0. -1.
       -4    1    3    3    0  502  0.67810285407E+03 -0.11818903011E+04 -0.36649474840E+03  0.14110308919E+04  0.12699999809E+01 0.  1.
</event>
<event>
 5   0  0.1904553E-05  0.2771319E+04  0.7818609E-02  0.8312228E-01
       -2   -1    0    0    0  501  0.00000000000E+00  0.00000000000E+00  0.88299214204E+03  0.88299214205E+03  0.25500000920E-02 0.  1.
        2   -1    0    0  501    0  0.00000000000E+00  0.00000000000E+00 -0.21744841289E+04  0.21744841289E+04  0.25500000920E-02 0. -1.
    10030    2    1    2    0    0  0.00000000000E+00  0.00000000000E+00 -0.12914919869E+04  0.30574762710E+04  0.27713191075E+04 0.  0.
        1    1    3    3  502    0  0.12535135553E+04  0.33440931979E+03 -0.11827573187E+04  0.17555741800E+04  0.50400001928E-02 0. -1.
       -1    1    3    3    0  502 -0.12535135553E+04 -0.33440931979E+03 -0.10873466820E+03  0.13019020910E+04  0.50400001928E-02 0.  1.
</event>
<event>
 5   0  0.7509685E-06  0.2829299E+04  0.7818609E-02  0.8294229E-01
       -1   -1    0    0    0  501  0.00000000000E+00  0.00000000000E+00  0.10228027390E+04  0.10228027390E+04  0.50400001928E-02 0.  1.
        1   -1    0    0  501    0  0.00000000000E+00  0.00000000000E+00 -0.19566170983E+04  0.19566170983E+04  0.50400001928E-02 0. -1.
    10030    2    1    2    0    0  0.00000000000E+00  0.00000000000E+00 -0.93381435922E+03  0.29794198373E+04  0.28292990845E+04 0.  0.
        4    1    3    3  502    0  0.13184984009E+04  0.22633957303E+03  0.17459000628E+02  0.13378991236E+04  0.12699999809E+01 0. -1.
       -4    1    3    3    0  502 -0.13184984009E+04 -0.22633957303E+03 -0.95127335985E+03  0.16415207137E+04  0.12699999809E+01 0.  1.
</event>
<event>
 5   0  0.1874272E-05  0.2790188E+04  0.7818609E-02  0.8306321E-01
       -2   -1    0    0    0  501  0.00000000000E+00  0.00000000000E+00  0.16056394271E+04  0.16056394271E+04  0.25500000920E-02 0. -1.
        2   -1    0    0  501    0  0.00000000000E+00  0.00000000000E+00 -0.12121575195E+04  0.12121575195E+04  0.25500000920E-02 0.  1.
    10030    2    1    2    0    0  0.00000000000E+00  0.00000000000E+00  0.39348190769E+03  0.28177969466E+04  0.27901884561E+04 0.  0.
        3    1    3    3  502    0 -0.98972954612E+03  0.92691120689E+03 -0.13446596718E+03  0.13626481815E+04  0.10100000352E+00 0.  1.
       -3    1    3    3    0  502  0.98972954612E+03 -0.92691120689E+03  0.52794787487E+03  0.14551487651E+04  0.10100000352E+00 0. -1.
</event>
<event>
 5   0  0.1814230E-05  0.2775155E+04  0.7818609E-02  0.8311023E-01
       -2   -1    0    0    0  501  0.00000000000E+00  0.00000000000E+00  0.99619647546E+03  0.99619647546E+03  0.25500000920E-02 0. -1.
        2   -1    0    0  501    0  0.00000000000E+00  0.00000000000E+00 -0.19327231002E+04  0.19327231002E+04  0.25500000920E-02 0.  1.
    10030    2    1    2    0    0  0.00000000000E+00  0.00000000000E+00 -0.93652662475E+03  0.29289195757E+04  0.27751554482E+04 0.  0.
        5    1    3    3  502    0  0.75077118985E+03  0.69616174749E+03  0.52013644078E+03  0.11484174177E+04  0.46999998093E+01 0. -1.
       -5    1    3    3    0  502 -0.75077118985E+03 -0.69616174749E+03 -0.14566630655E+04  0.17805021580E+04  0.46999998093E+01 0.  1.
</event>
<event>
 5   0  0.7555871E-06  0.2691760E+04  0.7818609E-02  0.8337683E-01
       -1   -1    0    0    0  501  0.00000000000E+00  0.00000000000E+00  0.12336444397E+04  0.12336444397E+04  0.50400001928E-02 0.  1.
        1   -1    0    0  501    0  0.00000000000E+00  0.00000000000E+00 -0.14683271223E+04  0.14683271223E+04  0.50400001928E-02 0. -1.
    10030    2    1    2    0    0  0.00000000000E+00  0.00000000000E+00 -0.23468268258E+03  0.27019715620E+04  0.26917604575E+04 0.  0.
        3    1    3    3  502    0 -0.92994671152E+03 -0.41723146759E+02  0.85838095439E+03  0.12662383584E+04  0.10100000352E+00 0.  1.
       -3    1    3    3    0  502  0.92994671152E+03  0.41723146759E+02 -0.10930636370E+04  0.14357332036E+04  0.10100000352E+00 0. -1.
</event>
<event>
 5   0  0.7509685E-06  0.2766900E+04  0.7818609E-02  0.8313619E-01
       -1   -1    0    0    0  501  0.00000000000E+00  0.00000000000E+00  0.13767047740E+04  0.13767047740E+04  0.50400001928E-02 0. -1.
        1   -1    0    0  501    0  0.00000000000E+00  0.00000000000E+00 -0.13902282831E+04  0.13902282831E+04  0.50400001928E-02 0.  1.
    10030    2    1    2    0    0  0.00000000000E+00  0.00000000000E+00 -0.13523509054E+02  0.27669330571E+04  0.27669000085E+04 0.  0.
        4    1    3    3  502    0  0.17791315903E+03  0.10800085335E+04 -0.85285742155E+03  0.13876018590E+04  0.12699999809E+01 0.  1.
       -4    1    3    3    0  502 -0.17791315903E+03 -0.10800085335E+04  0.83933391249E+03  0.13793311981E+04  0.12699999809E+01 0. -1.
</event>
<event>
 5   0  0.1923559E-05  0.2832481E+04  0.7818609E-02  0.8293255E-01
       -2   -1    0    0    0  501  0.00000000000E+00  0.00000000000E+00  0.11228507225E+04  0.11228507226E+04  0.25500000920E-02 0. -1.
        2   -1    0    0  501    0  0.00000000000E+00  0.00000000000E+00 -0.17862900257E+04  0.17862900257E+04  0.25500000920E-02 0.  1.
    10030    2    1    2    0    0  0.00000000000E+00  0.00000000000E+00 -0.66343930312E+03  0.29091407482E+04  0.28324809239E+04 0.  0.
        4    1    3    3  502    0 -0.47696858181E+03  0.13313317378E+03 -0.16944729131E+04  0.17653508253E+04  0.12699999809E+01 0.  1.
       -4    1    3    3    0  502  0.47696858181E+03 -0.13313317378E+03  0.10310336100E+04  0.11437899230E+04  0.12699999809E+01 0. -1.
</event>
<event>
 5   0  0.7555871E-06  0.2099872E+04  0.7818609E-02  0.8561300E-01
        1   -1    0    0  501    0  0.00000000000E+00  0.00000000000E+00  0.96096086602E+03  0.96096086604E+03  0.50400001928E-02 0.  1.
       -1   -1    0    0    0  501  0.00000000000E+00  0.00000000000E+00 -0.11471495932E+04  0.11471495932E+04  0.50400001928E-02 0. -1.
    10030    2    1    2    0    0  0.00000000000E+00  0.00000000000E+00 -0.18618872718E+03  0.21081104593E+04  0.20998722500E+04 0.  0.
        3    1    3    3  502    0 -0.65025781942E+03 -0.49189072830E+03  0.57099467313E+03  0.99540275630E+03  0.10100000352E+00 0.  1.
       -3    1    3    3    0  502  0.65025781942E+03  0.49189072830E+03 -0.75718340031E+03  0.11127077030E+04  0.10100000352E+00 0. -1.
</event>
<event>
 5   0  0.1814230E-05  0.2763770E+04  0.7818609E-02  0.8314605E-01
        2   -1    0    0  501    0  0.00000000000E+00  0.00000000000E+00  0.13041235306E+04  0.13041235306E+04  0.25500000920E-02 0.  1.
       -2   -1    0    0    0  501  0.00000000000E+00  0.00000000000E+00 -0.14642829209E+04  0.14642829209E+04  0.25500000920E-02 0. -1.
    10030    2    1    2    0    0  0.00000000000E+00  0.00000000000E+00 -0.16015939025E+03  0.27684064515E+04  0.27637697535E+04 0.  0.
        5    1    3    3  502    0 -0.80709696691E+03  0.73663587962E+03  0.76723884302E+03  0.13351836823E+04  0.46999998093E+01 0. -1.
       -5    1    3    3    0  502  0.80709696691E+03 -0.73663587962E+03 -0.92739823326E+03  0.14332227692E+04  0.46999998093E+01 0.  1.
</event>
<event>
 5   0  0.1832502E-05  0.2783004E+04  0.7818609E-02  0.8308564E-01
        2   -1    0    0  501    0  0.00000000000E+00  0.00000000000E+00  0.21696506745E+04  0.21696506745E+04  0.25500000920E-02 0.  1.
       -2   -1    0    0    0  501  0.00000000000E+00  0.00000000000E+00 -0.89243786990E+03  0.89243786990E+03  0.25500000920E-02 0. -1.
    10030    2    1    2    0    0  0.00000000000E+00  0.00000000000E+00  0.12772128046E+04  0.30620885444E+04  0.27830044386E+04 0.  0.
        2    1    3    3  502    0  0.11517669840E+04  0.42332283548E+03 -0.83323402924E+02  0.12299236554E+04  0.25500000920E-02 0. -1.
       -2    1    3    3    0  502 -0.11517669840E+04 -0.42332283548E+03  0.13605362075E+04  0.18321648890E+04  0.25500000920E-02 0.  1.
</event>
<event>
 5   0  0.1814230E-05  0.2420739E+04  0.7818609E-02  0.8431780E-01
        2   -1    0    0  501    0  0.00000000000E+00  0.00000000000E+00  0.15272336268E+04  0.15272336268E+04  0.25500000920E-02 0. -1.
       -2   -1    0    0    0  501  0.00000000000E+00  0.00000000000E+00 -0.95924666127E+03  0.95924666128E+03  0.25500000920E-02 0.  1.
    10030    2    1    2    0    0  0.00000000000E+00  0.00000000000E+00  0.56798696549E+03  0.24864802880E+04  0.24207385298E+04 0.  0.
        5    1    3    3  502    0 -0.85516053988E+03  0.76297337562E+03  0.68385181285E+03  0.13345798263E+04  0.46999998093E+01 0. -1.
       -5    1    3    3    0  502  0.85516053988E+03 -0.76297337562E+03 -0.11586484737E+03  0.11519004617E+04  0.46999998093E+01 0.  1.
</event>
<event>
 5   0  0.7613444E-06  0.2785162E+04  0.7818609E-02  0.8307890E-01
        1   -1    0    0  501    0  0.00000000000E+00  0.00000000000E+00  0.27433207136E+04  0.27433207137E+04  0.50400001928E-02 0.  1.
       -1   -1    0    0    0  501  0.00000000000E+00  0.00000000000E+00 -0.70691045755E+03  0.70691045756E+03  0.50400001928E-02 0. -1.
    10030    2    1    2    0    0  0.00000000000E+00  0.00000000000E+00  0.20364102561E+04  0.34502311712E+04  0.27851621862E+04 0.  0.
        5    1    3    3  502    0  0.37622036082E+03 -0.62348012083E+03  0.24886602737E+04  0.25930139354E+04  0.46999998093E+01 0.  1.
       -5    1    3    3    0  502 -0.37622036082E+03  0.62348012083E+03 -0.45225001764E+03  0.85721723584E+03  0.46999998093E+01 0. -1.
</event>
<event>
 5   0  0.7509685E-06  0.2908463E+04  0.7818609E-02  0.8270364E-01
        1   -1    0    0  501    0  0.00000000000E+00  0.00000000000E+00  0.14468480822E+04  0.14468480823E+04  0.50400001928E-02 0. -1.
       -1   -1    0    0    0  501  0.00000000000E+00  0.00000000000E+00 -0.14616522465E+04  0.14616522466E+04  0.50400001928E-02 0.  1.
    10030    2    1    2    0    0  0.00000000000E+00  0.00000000000E+00 -0.14804164305E+02  0.29085003288E+04  0.29084626522E+04 0.  0.
        4    1    3    3  502    0 -0.85022940116E+03 -0.98077721436E+03 -0.66313396187E+03  0.14575878166E+04  0.12699999809E+01 0. -1.
       -4    1    3    3    0  502  0.85022940116E+03  0.98077721436E+03  0.64832979756E+03  0.14509125122E+04  0.12699999809E+01 0.  1.
</event>
<event>
 5   0  0.1874272E-05  0.2758381E+04  0.7818609E-02  0.8316307E-01
        2   -1    0    0  501    0  0.00000000000E+00  0.00000000000E+00  0.16120148145E+04  0.16120148145E+04  0.25500000920E-02 0.  1.
       -2   -1    0    0    0  501  0.00000000000E+00  0.00000000000E+00 -0.11799931941E+04  0.11799931941E+04  0.25500000920E-02 0. -1.
    10030    2    1    2    0    0  0.00000000000E+00  0.00000000000E+00  0.43202162043E+03  0.27920080086E+04  0.27583810541E+04 0.  0.
        3    1    3    3  502    0  0.59565980977E+03  0.49455604397E+03  0.13713148928E+04  0.15747700896E+04  0.10100000352E+00 0.  1.
       -3    1    3    3    0  502 -0.59565980977E+03 -0.49455604397E+03 -0.93929327242E+03  0.12172379190E+04  0.10100000352E+00 0. -1.
</event>
<event>
 5   0  0.7681342E-06  0.2826957E+04  0.7818609E-02  0.8294948E-01
        1   -1    0    0  501    0  0.00000000000E+00  0.00000000000E+00  0.16370016053E+04  0.16370016053E+04  0.50400001928E-02 0.  1.
       -1   -1    0    0    0  501  0.00000000000E+00  0.00000000000E+00 -0.12204760771E+04  0.12204760771E+04  0.50400001928E-02 0. -1.
    10030    2    1    2    0    0  0.00000000000E+00  0.00000000000E+00  0.41652552826E+03  0.28574776824E+04  0.28269568779E+04 0.  0.
        2    1    3    3  502    0 -0.10095488885E+04  0.85602248851E+03 -0.29303295615E+03  0.13556665418E+04  0.25500000920E-02 0. -1.
       -2    1    3    3    0  502  0.10095488885E+04 -0.85602248851E+03  0.70955848441E+03  0.15018111406E+04  0.25500000920E-02 0.  1.
</event>
<event>
 5   0  0.1923559E-05  0.2781945E+04  0.7818609E-02  0.8308896E-01
       -2   -1    0    0    0  501  0.00000000000E+00  0.00000000000E+00  0.99522076285E+03  0.99522076285E+03  0.25500000920E-02 0.  1.
        2   -1    0    0  501    0  0.00000000000E+00  0.00000000000E+00 -0.19440952956E+04  0.19440952956E+04  0.25500000920E-02 0. -1.
    10030    2    1    2    0    0  0.00000000000E+00  0.00000000000E+00 -0.94887453278E+03  0.29393160585E+04  0.27819446459E+04 0.  0.
        4    1    3    3  502    0 -0.52507579484E+03 -0.32960180187E+03 -0.17900502463E+04  0.18943662358E+04  0.12699999809E+01 0. -1.
       -4    1    3    3    0  502  0.52507579484E+03  0.32960180187E+03  0.84117571349E+03  0.10449498227E+04  0.12699999809E+01 0.  1.
</event>
<event>
 5   0  0.7509685E-06  0.2808710E+04  0.7818609E-02  0.8300569E-01
       -1   -1    0    0    0  501  0.00000000000E+00  0.00000000000E+00  0.11193033820E+04  0.11193033820E+04  0.50400001928E-02 0.  1.
        1   -1    0    0  501    0  0.00000000000E+00  0.00000000000E+00 -0.17619999380E+04  0.17619999380E+04  0.50400001928E-02 0. -1.
    10030    2    1    2    0    0  0.00000000000E+00  0.00000000000E+00 -0.64269655602E+03  0.28813033201E+04  0.28087096609E+04 0.  0.
        4    1    3    3  502    0 -0.13257536081E+04  0.90089570589E+02 -0.78748448371E+03  0.15446268757E+04  0.12699999809E+01 0. -1.
       -4    1    3    3    0  502  0.13257536081E+04 -0.90089570589E+02  0.14478792770E+03  0.13366764444E+04  0.12699999809E+01 0.  1.
</event>
<event>
 5   0  0.7388013E-06  0.2781034E+04  0.7818609E-02  0.8309181E-01
       -1   -1    0    0    0  501  0.00000000000E+00  0.00000000000E+00  0.11303514872E+04  0.11303514873E+04  0.50400001928E-02 0. -1.
        1   -1    0    0  501    0  0.00000000000E+00  0.00000000000E+00 -0.17105633327E+04  0.17105633327E+04  0.50400001928E-02 0.  1.
    10030    2    1    2    0    0  0.00000000000E+00  0.00000000000E+00 -0.58021184546E+03  0.28409148200E+04  0.27810342013E+04 0.  0.
        1    1    3    3  502    0 -0.56466475488E+03  0.10598153669E+04 -0.10062593800E+04  0.15667204081E+04  0.50400001928E-02 0.  1.
       -1    1    3    3    0  502  0.56466475488E+03 -0.10598153669E+04  0.42604753457E+03  0.12741944118E+04  0.50400001928E-02 0. -1.
</event>
<event>
 5   0  0.7613444E-06  0.2584561E+04  0.7818609E-02  0.8373464E-01
        1   -1    0    0  501    0  0.00000000000E+00  0.00000000000E+00  0.87240901941E+03  0.87240901943E+03  0.50400001928E-02 0.  1.
       -1   -1    0    0    0  501  0.00000000000E+00  0.00000000000E+00 -0.19142277069E+04  0.19142277069E+04  0.50400001928E-02 0. -1.
    10030    2    1    2    0    0  0.00000000000E+00  0.00000000000E+00 -0.10418186875E+04  0.27866367264E+04  0.25845614845E+04 0.  0.
        5    1    3    3  502    0 -0.87482991009E+03 -0.77818143308E+02 -0.15429611823E+04  0.17754251139E+04  0.46999998093E+01 0. -1.
       -5    1    3    3    0  502  0.87482991009E+03  0.77818143308E+02  0.50114249482E+03  0.10112116124E+04  0.46999998093E+01 0.  1.
</event>
<event>
 5   0  0.7555871E-06  0.2775087E+04  0.7818609E-02  0.8311045E-01
        1   -1    0    0  501    0  0.00000000000E+00  0.00000000000E+00  0.19773678283E+04  0.19773678283E+04  0.50400001928E-02 0. -1.
       -1   -1    0    0    0  501  0.00000000000E+00  0.00000000000E+00 -0.97365638934E+03  0.97365638935E+03  0.50400001928E-02 0.  1.
    10030    2    1    2    0    0  0.00000000000E+00  0.00000000000E+00  0.10037114389E+04  0.29510242176E+04  0.27750868960E+04 0.  0.
        3    1    3    3  502    0 -0.56863625806E+03 -0.11768221426E+04  0.64678970341E+01  0.13070192781E+04  0.10100000352E+00 0.  1.
       -3    1    3    3    0  502  0.56863625806E+03  0.11768221426E+04  0.99724354191E+03  0.16440049396E+04  0.10100000352E+00 0. -1.
</event>
<event>
 5   0  0.1832502E-05  0.2772984E+04  0.7818609E-02  0.8311705E-01
        2   -1    0    0  501    0  0.00000000000E+00  0.00000000000E+00  0.18713994202E+04  0.18713994202E+04  0.25500000920E-02 0.  1.
       -2   -1    0    0    0  501  0.00000000000E+00  0.00000000000E+00 -0.10272309934E+04  0.10272309934E+04  0.25500000920E-02 0. -1.
    10030    2    1    2    0    0  0.00000000000E+00  0.00000000000E+00  0.84416842681E+03  0.28986304135E+04  0.27729835812E+04 0.  0.
        2    1    3    3  502    0 -0.22497648815E+03 -0.13103329609E+04  0.83332159116E+03  0.15690799096E+04  0.25500000920E-02 0.  1.
       -2    1    3    3    0  502  0.22497648815E+03  0.13103329609E+04  0.10846835643E+02  0.13295505039E+04  0.25500000920E-02 0. -1.
</event>
<event>
 5   0  0.7509685E-06  0.2810294E+04  0.7818609E-02  0.8300079E-01
       -1   -1    0    0    0  501  0.00000000000E+00  0.00000000000E+00  0.99242787134E+03  0.99242787136E+03  0.50400001928E-02 0. -1.
        1   -1    0    0  501    0  0.00000000000E+00  0.00000000000E+00 -0.19895033584E+04  0.19895033584E+04  0.50400001928E-02 0.  1.
    10030    2    1    2    0    0  0.00000000000E+00  0.00000000000E+00 -0.99707548709E+03  0.29819312298E+04  0.28102943498E+04 0.  0.
        4    1    3    3  502    0  0.38168999282E+03  0.30448397865E+03  0.89952151574E+03  0.10234931920E+04  0.12699999809E+01 0. -1.
       -4    1    3    3    0  502 -0.38168999282E+03 -0.30448397865E+03 -0.18965970028E+04  0.19584380378E+04  0.12699999809E+01 0.  1.
</event>
<event>
 5   0  0.1814230E-05  0.2743479E+04  0.7818609E-02  0.8321034E-01
       -2   -1    0    0    0  501  0.00000000000E+00  0.00000000000E+00  0.10334788334E+04  0.10334788334E+04  0.25500000920E-02 0. -1.
        2   -1    0    0  501    0  0.00000000000E+00  0.00000000000E+00 -0.18207144109E+04  0.18207144109E+04  0.25500000920E-02 0.  1.
    10030    2    1    2    0    0  0.00000000000E+00  0.00000000000E+00 -0.78723557751E+03  0.28541932443E+04  0.27434794006E+04 0.  0.
        5    1    3    3  502    0 -0.47119848066E+03  0.10059403846E+04  0.44366052431E+03  0.11961608656E+04  0.46999998093E+01 0. -1.
       -5    1    3    3    0  502  0.47119848066E+03 -0.10059403846E+04 -0.12308961018E+04  0.16580323787E+04  0.46999998093E+01 0.  1.
</event>
<event>
 5   0  0.1923559E-05  0.2787181E+04  0.7818609E-02  0.8307259E-01
        2   -1    0    0  501    0  0.00000000000E+00  0.00000000000E+00  0.20856261300E+04  0.20856261300E+04  0.25500000920E-02 0.  1.
       -2   -1    0    0    0  501  0.00000000000E+00  0.00000000000E+00 -0.93118045942E+03  0.93118045942E+03  0.25500000920E-02 0. -1.
    10030    2    1    2    0    0  0.00000000000E+00  0.00000000000E+00  0.11544456706E+04  0.30168065894E+04  0.27871808681E+04 0.  0.
        4    1    3    3  502    0 -0.31479285054E+03 -0.13224558490E+04  0.24517768435E+03  0.13813391043E+04  0.12699999809E+01 0. -1.
       -4    1    3    3    0  502  0.31479285054E+03  0.13224558490E+04  0.90926798624E+03  0.16354674851E+04  0.12699999809E+01 0.  1.
</event>
<event>
 5   0  0.7388013E-06  0.2794115E+04  0.7818609E-02  0.8305098E-01
       -1   -1    0    0    0  501  0.00000000000E+00  0.00000000000E+00  0.13605849052E+04  0.13605849052E+04  0.50400001928E-02 0. -1.
        1   -1    0    0  501    0  0.00000000000E+00  0.00000000000E+00 -0.14345074864E+04  0.14345074864E+04  0.50400001928E-02 0.  1.
    10030    2    1    2    0    0  0.00000000000E+00  0.00000000000E+00 -0.73922581219E+02  0.27950923916E+04  0.27941146951E+04 0.  0.
        1    1    3    3  502    0 -0.16353351409E+03  0.32038082337E+03 -0.13873900088E+04  0.14332613574E+04  0.50400001928E-02 0.  1.
       -1    1    3    3    0  502  0.16353351409E+03 -0.32038082337E+03  0.13134674276E+04  0.13618310341E+04  0.50400001928E-02 0. -1.
</event>
<event>
 5   0  0.1814230E-05  0.2776939E+04  0.7818609E-02  0.8310464E-01
        2   -1    0    0  501    0  0.00000000000E+00  0.00000000000E+00  0.20490727893E+04  0.20490727893E+04  0.25500000920E-02 0.  1.
       -2   -1    0    0    0  501  0.00000000000E+00  0.00000000000E+00 -0.94083879438E+03  0.94083879439E+03  0.25500000920E-02 0. -1.
    10030    2    1    2    0    0  0.00000000000E+00  0.00000000000E+00  0.11082339949E+04  0.29899115837E+04  0.27769387265E+04 0.  0.
        5    1    3    3  502    0  0.10458588602E+03 -0.50668310023E+03  0.19414058778E+04  0.20091652108E+04  0.46999998093E+01 0.  1.
       -5    1    3    3    0  502 -0.10458588602E+03  0.50668310023E+03 -0.83317188290E+03  0.98074637295E+03  0.46999998093E+01 0. -1.
</event>
<event>
 5   0  0.1904553E-05  0.2739993E+04  0.7818609E-02  0.8322144E-01
       -2   -1    0    0    0  501  0.00000000000E+00  0.00000000000E+00  0.23210450300E+04  0.23210450300E+04  0.25500000920E-02 0.  1.
        2   -1    0    0  501    0  0.00000000000E+00  0.00000000000E+00 -0.80864017702E+03  0.80864017703E+03  0.25500000920E-02 0. -1.
    10030    2    1    2    0    0  0.00000000000E+00  0.00000000000E+00  0.15124048530E+04  0.31296852071E+04  0.27399928934E+04 0.  0.
        1    1    3    3  502    0  0.59475546653E+02  0.99077995738E+03 -0.32240287862E+03  0.10436119397E+04  0.50400001928E-02 0.  1.
       -1    1    3    3    0  502 -0.59475546653E+02 -0.99077995738E+03  0.18348077316E+04  0.20860732673E+04  0.50400001928E-02 0. -1.
</event>
<event>
 5   0  0.1874272E-05  0.2850046E+04  0.7818609E-02  0.8287897E-01
        2   -1    0    0  501    0  0.00000000000E+00  0.00000000000E+00  0.14300636592E+04  0.14300636592E+04  0.25500000920E-02 0.  1.
       -2   -1    0    0    0  501  0.00000000000E+00  0.00000000000E+00 -0.14200001389E+04  0.14200001390E+04  0.25500000920E-02 0. -1.
    10030    2    1    2    0    0  0.00000000000E+00  0.00000000000E+00  0.10063520227E+02  0.28500637981E+04  0.28500460310E+04 0.  0.
        3    1    3    3  502    0  0.61733913333E+03 -0.11357210935E+04 -0.59473908101E+03  0.14229141198E+04  0.10100000352E+00 0. -1.
       -3    1    3    3    0  502 -0.61733913333E+03  0.11357210935E+04  0.60480260123E+03  0.14271496783E+04  0.10100000352E+00 0.  1.
</event>
<event>
 5   0  0.7388013E-06  0.2600609E+04  0.7818609E-02  0.8367994E-01
        1   -1    0    0  501    0  0.00000000000E+00  0.00000000000E+00  0.16396421471E+04  0.16396421471E+04  0.50400001928E-02 0. -1.
       -1   -1    0    0    0  501  0.00000000000E+00  0.00000000000E+00 -0.10311959072E+04  0.10311959072E+04  0.50400001928E-02 0.  1.
    10030    2    1    2    0    0  0.00000000000E+00  0.00000000000E+00  0.60844623988E+03  0.26708380543E+04  0.26006093681E+04 0.  0.
        1    1    3    3  502    0 -0.73842118719E+02  0.57822380109E+03 -0.88948899300E+03  0.10634782985E+04  0.50400001928E-02 0.  1.
       -1    1    3    3    0  502  0.73842118719E+02 -0.57822380109E+03  0.14979352329E+04  0.16073597558E+04  0.50400001928E-02 0. -1.
</event>
<event>
 5   0  0.7681342E-06  0.2816229E+04  0.7818609E-02  0.8298247E-01
        1   -1    0    0  501    0  0.00000000000E+00  0.00000000000E+00  0.21535786667E+04  0.21535786667E+04  0.50400001928E-02 0.  1.
       -1   -1    0    0    0  501  0.00000000000E+00  0.00000000000E+00 -0.92069408213E+03  0.92069408214E+03  0.50400001928E-02 0. -1.
    10030    2    1    2    0    0  0.00000000000E+00  0.00000000000E+00  0.12328845846E+04  0.30742727489E+04  0.28162294891E+04 0.  0.
        2    1    3    3  502    0 -0.13794156707E+04 -0.10633290621E+03  0.33033420425E+03  0.14223976118E+04  0.25500000920E-02 0. -1.
       -2    1    3    3    0  502  0.13794156707E+04  0.10633290621E+03  0.90255038035E+03  0.16518751371E+04  0.25500000920E-02 0.  1.
</event>
<event>
 5   0  0.1904553E-05  0.2904707E+04  0.7818609E-02  0.8271478E-01
       -2   -1    0    0    0  501  0.00000000000E+00  0.00000000000E+00  0.14729304234E+04  0.14729304234E+04  0.25500000920E-02 0. -1.
        2   -1    0    0  501    0  0.00000000000E+00  0.00000000000E+00 -0.14320640842E+04  0.14320640842E+04  0.25500000920E-02 0.  1.
    10030    2    1    2    0    0  0.00000000000E+00  0.00000000000E+00  0.40866339250E+02  0.29049945076E+04  0.29047070475E+04 0.  0.
        1    1    3    3  502    0 -0.82316186566E+03 -0.10004582106E+04 -0.63599957224E+03  0.14432628119E+04  0.50400001928E-02 0.  1.
       -1    1    3    3    0  502  0.82316186566E+03  0.10004582106E+04  0.67686591149E+03  0.14617316957E+04  0.50400001928E-02 0. -1.
</event>
<event>
 5   0  0.1874272E-05  0.2677738E+04  0.7818609E-02  0.8342264E-01
        2   -1    0    0  501    0  0.00000000000E+00  0.00000000000E+00  0.21053484845E+04  0.21053484845E+04  0.25500000920E-02 0.  1.
       -2   -1    0    0    0  501  0.00000000000E+00  0.00000000000E+00 -0.85143664688E+03  0.85143664688E+03  0.25500000920E-02 0. -1.
    10030    2    1    2    0    0  0.00000000000E+00  0.00000000000E+00  0.12539118376E+04  0.29567851314E+04  0.26777384892E+04 0.  0.
        3    1    3    3  502    0 -0.97268507004E+03 -0.87831086879E+03  0.32450598357E+03  0.13501297609E+04  0.10100000352E+00 0. -1.
       -3    1    3    3    0  502  0.97268507004E+03  0.87831086879E+03  0.92940585402E+03  0.16066553705E+04  0.10100000352E+00 0.  1.
</event>
<event>
 5   0  0.7613444E-06  0.2005938E+04  0.7818609E-02  0.8603849E-01
        1   -1    0    0  501    0  0.00000000000E+00  0.00000000000E+00  0.12501498456E+04  0.12501498456E+04  0.50400001928E-02 0.  1.
       -1   -1    0    0    0  501  0.00000000000E+00  0.00000000000E+00 -0.80466138630E+03  0.80466138632E+03  0.50400001928E-02 0. -1.
    10030    2    1    2    0    0  0.00000000000E+00  0.00000000000E+00  0.44548845932E+03  0.20548112320E+04  0.20059384915E+04 0.  0.
        5    1    3    3  502    0 -0.93193068263E+03 -0.24399105636E+01 -0.15699577410E+03  0.94507698812E+03  0.46999998093E+01 0. -1.
       -5    1    3    3    0  502  0.93193068263E+03  0.24399105636E+01  0.60248423342E+03  0.11097342438E+04  0.46999998093E+01 0.  1.
</event>
<event>
 5   0  0.1874272E-05  0.2848368E+04  0.7818609E-02  0.8288407E-01
        2   -1    0    0  501    0  0.00000000000E+00  0.00000000000E+00  0.85141839275E+03  0.85141839276E+03  0.25500000920E-02 0.  1.
       -2   -1    0    0    0  501  0.00000000000E+00  0.00000000000E+00 -0.23822605400E+04  0.23822605400E+04  0.25500000920E-02 0. -1.
    10030    2    1    2    0    0  0.00000000000E+00  0.00000000000E+00 -0.15308421472E+04  0.32336789327E+04  0.28483682627E+04 0.  0.
        3    1    3    3  502    0 -0.99163396312E+03 -0.90553636687E+03 -0.13038886899E+04  0.18717531232E+04  0.10100000352E+00 0. -1.
       -3    1    3    3    0  502  0.99163396312E+03  0.90553636687E+03 -0.22695345733E+03  0.13619258095E+04  0.10100000352E+00 0.  1.
</event>
<event>
 5   0  0.7509685E-06  0.2847619E+04  0.7818609E-02  0.8288635E-01
        1   -1    0    0  501    0  0.00000000000E+00  0.00000000000E+00  0.96026369254E+03  0.96026369255E+03  0.50400001928E-02 0.  1.
       -1   -1    0    0    0  501  0.00000000000E+00  0.00000000000E+00 -0.21111223369E+04  0.21111223370E+04  0.50400001928E-02 0. -1.
    10030    2    1    2    0    0  0.00000000000E+00  0.00000000000E+00 -0.11508586444E+04  0.30713860295E+04  0.28476194484E+04 0.  0.
        4    1    3    3  502    0  0.83406693873E+03 -0.64299131023E+03 -0.16089135232E+04  0.19229430104E+04  0.12699999809E+01 0. -1.
       -4    1    3    3    0  502 -0.83406693873E+03  0.64299131023E+03  0.45805487875E+03  0.11484430191E+04  0.12699999809E+01 0.  1.
</event>
<event>
 5   0  0.7509685E-06  0.2614798E+04  0.7818609E-02  0.8363192E-01
        1   -1    0    0  501    0  0.00000000000E+00  0.00000000000E+00  0.14757257347E+04  0.14757257347E+04  0.50400001928E-02 0.  1.
       -1   -1    0    0    0  501  0.00000000000E+00  0.00000000000E+00 -0.11582723879E+04  0.11582723879E+04  0.50400001928E-02 0. -1.
    10030    2    1    2    0    0  0.00000000000E+00  0.00000000000E+00  0.31745334680E+03  0.26339981227E+04  0.26147981725E+04 0.  0.
        4    1    3    3  502    0 -0.89157904826E+03  0.50346419428E+03  0.97765446964E+03  0.14156974497E+04  0.12699999809E+01 0.  1.
       -4    1    3    3    0  502  0.89157904826E+03 -0.50346419428E+03 -0.66020112284E+03  0.12183006730E+04  0.12699999809E+01 0. -1.
</event>
<event>
 5   0  0.1874272E-05  0.2891983E+04  0.7818609E-02  0.8275267E-01
        2   -1    0    0  501    0  0.00000000000E+00  0.00000000000E+00  0.14312405972E+04  0.14312405972E+04  0.25500000920E-02 0. -1.
       -2   -1    0    0    0  501  0.00000000000E+00  0.00000000000E+00 -0.14608947127E+04  0.14608947127E+04  0.25500000920E-02 0.  1.
    10030    2    1    2    0    0  0.00000000000E+00  0.00000000000E+00 -0.29654115506E+02  0.28921353098E+04  0.28919832786E+04 0.  0.
        3    1    3    3  502    0  0.10959660283E+04  0.53809277992E+02  0.92695215385E+03  0.14364112500E+04  0.10100000352E+00 0. -1.
       -3    1    3    3    0  502 -0.10959660283E+04 -0.53809277992E+02 -0.95660626935E+03  0.14557240598E+04  0.10100000352E+00 0.  1.
</event>
<event>
 5   0  0.7613444E-06  0.2758614E+04  0.7818609E-02  0.8316233E-01
       -1   -1    0    0    0  501  0.00000000000E+00  0.00000000000E+00  0.79291133293E+03  0.79291133294E+03  0.50400001928E-02 0. -1.
        1   -1    0    0  501    0  0.00000000000E+00  0.00000000000E+00 -0.23993701893E+04  0.23993701893E+04  0.50400001928E-02 0.  1.
    10030    2    1    2    0    0  0.00000000000E+00  0.00000000000E+00 -0.16064588564E+04  0.31922815222E+04  0.27586140107E+04 0.  0.
        5    1    3    3  502    0  0.39303593144E+03 -0.10485784348E+04  0.12864152825E+03  0.11271932888E+04  0.46999998093E+01 0. -1.
       -5    1    3    3    0  502 -0.39303593144E+03  0.10485784348E+04 -0.17351003846E+04  0.20650882335E+04  0.46999998093E+01 0.  1.
</event>
<event>
 5   0  0.7388013E-06  0.2879780E+04  0.7818609E-02  0.8278919E-01
       -1   -1    0    0    0  501  0.00000000000E+00  0.00000000000E+00  0.13026607551E+04  0.13026607551E+04  0.50400001928E-02 0.  1.
        1   -1    0    0  501    0  0.00000000000E+00  0.00000000000E+00 -0.15915757198E+04  0.15915757198E+04  0.50400001928E-02 0. -1.
    10030    2    1    2    0    0  0.00000000000E+00  0.00000000000E+00 -0.28891496473E+03  0.28942364749E+04  0.28797800117E+04 0.  0.
        1    1    3    3  502    0 -0.98260075592E+03 -0.96566061142E+03  0.27630703232E+03  0.14051157383E+04  0.50400001928E-02 0.  1.
       -1    1    3    3    0  502  0.98260075592E+03  0.96566061142E+03 -0.56522199705E+03  0.14891207365E+04  0.50400001928E-02 0. -1.
</event>
<event>
 5   0  0.7509685E-06  0.2711859E+04  0.7818609E-02  0.8331167E-01
       -1   -1    0    0    0  501  0.00000000000E+00  0.00000000000E+00  0.90833128755E+03  0.90833128756E+03  0.50400001928E-02 0. -1.
        1   -1    0    0  501    0  0.00000000000E+00  0.00000000000E+00 -0.20240910353E+04  0.20240910353E+04  0.50400001928E-02 0.  1.
    10030    2    1    2    0    0  0.00000000000E+00  0.00000000000E+00 -0.11157597478E+04  0.29324223229E+04  0.27118593004E+04 0.  0.
        4    1    3    3  502    0  0.12247704908E+04  0.40427434306E+03 -0.10547021720E+03  0.12940734443E+04  0.12699999809E+01 0. -1.
       -4    1    3    3    0  502 -0.12247704908E+04 -0.40427434306E+03 -0.10102895306E+04  0.16383488786E+04  0.12699999809E+01 0.  1.
</event>
<event>
 5   0  0.1832502E-05  0.2720551E+04  0.7818609E-02  0.8328368E-01
       -2   -1    0    0    0  501  0.00000000000E+00  0.00000000000E+00  0.19888585592E+04  0.19888585592E+04  0.25500000920E-02 0. -1.
        2   -1    0    0  501    0  0.00000000000E+00  0.00000000000E+00 -0.93035729435E+03  0.93035729436E+03  0.25500000920E-02 0.  1.
    10030    2    1    2    0    0  0.00000000000E+00  0.00000000000E+00  0.10585012648E+04  0.29192158535E+04  0.27205507295E+04 0.  0.
        2    1    3    3  502    0 -0.12740961602E+04  0.46078936652E+03  0.65935318191E+03  0.15067828258E+04  0.25500000920E-02 0.  1.
       -2    1    3    3    0  502  0.12740961602E+04 -0.46078936652E+03  0.39914808291E+03  0.14124330277E+04  0.25500000920E-02 0. -1.
</event>
<event>
 5   0  0.1832502E-05  0.2763378E+04  0.7818609E-02  0.8314729E-01
       -2   -1    0    0    0  501  0.00000000000E+00  0.00000000000E+00  0.12160914489E+04  0.12160914489E+04  0.25500000920E-02 0. -1.
        2   -1    0    0  501    0  0.00000000000E+00  0.00000000000E+00 -0.15698366801E+04  0.15698366801E+04  0.25500000920E-02 0.  1.
    10030    2    1    2    0    0  0.00000000000E+00  0.00000000000E+00 -0.35374523125E+03  0.27859281290E+04  0.27633783402E+04 0.  0.
        2    1    3    3  502    0 -0.67301972764E+03  0.36717418658E+03  0.98198224930E+03  0.12458176331E+04  0.25500000920E-02 0. -1.
       -2    1    3    3    0  502  0.67301972764E+03 -0.36717418658E+03 -0.13357274805E+04  0.15401104958E+04  0.25500000920E-02 0.  1.
</event>
<event>
 5   0  0.1832502E-05  0.2777136E+04  0.7818609E-02  0.8310402E-01
        2   -1    0    0  501    0  0.00000000000E+00  0.00000000000E+00  0.19076350285E+04  0.19076350285E+04  0.25500000920E-02 0.  1.
       -2   -1    0    0    0  501  0.00000000000E+00  0.00000000000E+00 -0.10107390550E+04  0.10107390550E+04  0.25500000920E-02 0. -1.
    10030    2    1    2    0    0  0.00000000000E+00  0.00000000000E+00  0.89689597352E+03  0.29183740834E+04  0.27771360974E+04 0.  0.
        2    1    3    3  502    0 -0.10054739468E+04 -0.53485306564E+03 -0.38635593241E+03  0.12026290226E+04  0.25500000920E-02 0. -1.
       -2    1    3    3    0  502  0.10054739468E+04  0.53485306564E+03  0.12832519059E+04  0.17157450608E+04  0.25500000920E-02 0.  1.
</event>
<event>
 5   0  0.7681342E-06  0.2785661E+04  0.7818609E-02  0.8307734E-01
        1   -1    0    0  501    0  0.00000000000E+00  0.00000000000E+00  0.11763082220E+04  0.11763082220E+04  0.50400001928E-02 0.  1.
       -1   -1    0    0    0  501  0.00000000000E+00  0.00000000000E+00 -0.16492073760E+04  0.16492073760E+04  0.50400001928E-02 0. -1.
    10030    2    1    2    0    0  0.00000000000E+00  0.00000000000E+00 -0.47289915408E+03  0.28255155980E+04  0.27856605652E+04 0.  0.
        2    1    3    3  502    0  0.10317423439E+04  0.59717973193E+03 -0.96707492283E+03  0.15350406518E+04  0.25500000920E-02 0. -1.
       -2    1    3    3    0  502 -0.10317423439E+04 -0.59717973193E+03  0.49417576876E+03  0.12904749462E+04  0.25500000920E-02 0.  1.
</event>
<event>
 5   0  0.7509685E-06  0.2780001E+04  0.7818609E-02  0.8309504E-01
        1   -1    0    0  501    0  0.00000000000E+00  0.00000000000E+00  0.27107030522E+04  0.27107030522E+04  0.50400001928E-02 0. -1.
       -1   -1    0    0    0  501  0.00000000000E+00  0.00000000000E+00 -0.71276776776E+03  0.71276776778E+03  0.50400001928E-02 0.  1.
    10030    2    1    2    0    0  0.00000000000E+00  0.00000000000E+00  0.19979352844E+04  0.34234708200E+04  0.27800012688E+04 0.  0.
        4    1    3    3  502    0 -0.60432040398E+03 -0.12451471872E+04  0.11571783034E+04  0.18040670462E+04  0.12699999809E+01 0. -1.
       -4    1    3    3    0  502  0.60432040398E+03  0.12451471872E+04  0.84075698097E+03  0.16194037737E+04  0.12699999809E+01 0.  1.
</event>
<event>
 5   0  0.7555871E-06  0.2417363E+04  0.7818609E-02  0.8433032E-01
        1   -1    0    0  501    0  0.00000000000E+00  0.00000000000E+00  0.12072729845E+04  0.12072729845E+04  0.50400001928E-02 0. -1.
       -1   -1    0    0    0  501  0.00000000000E+00  0.00000000000E+00 -0.12100914420E+04  0.12100914420E+04  0.50400001928E-02 0.  1.
    10030    2    1    2    0    0  0.00000000000E+00  0.00000000000E+00 -0.28184575449E+01  0.24173644265E+04  0.24173627835E+04 0.  0.
        3    1    3    3  502    0  0.34155640568E+03  0.78096187320E+03 -0.85835115746E+03  0.12096813404E+04  0.10100000352E+00 0.  1.
       -3    1    3    3    0  502 -0.34155640568E+03 -0.78096187320E+03  0.85553269992E+03  0.12076830861E+04  0.10100000352E+00 0. -1.
</event>
<event>
 5   0  0.1814230E-05  0.2869090E+04  0.7818609E-02  0.8282134E-01
        2   -1    0    0  501    0  0.00000000000E+00  0.00000000000E+00  0.21986952490E+04  0.21986952490E+04  0.25500000920E-02 0.  1.
       -2   -1    0    0    0  501  0.00000000000E+00  0.00000000000E+00 -0.93597321564E+03  0.93597321565E+03  0.25500000920E-02 0. -1.
    10030    2    1    2    0    0  0.00000000000E+00  0.00000000000E+00  0.12627220334E+04  0.31346684647E+04  0.28690903523E+04 0.  0.
        5    1    3    3  502    0  0.12843706354E+04  0.50948301837E+02 -0.64538833656E+02  0.12870085507E+04  0.46999998093E+01 0. -1.
       -5    1    3    3    0  502 -0.12843706354E+04 -0.50948301837E+02  0.13272608670E+04  0.18476599140E+04  0.46999998093E+01 0.  1.
</event>
<event>
 5   0  0.7509685E-06  0.2010085E+04  0.7818609E-02  0.8601920E-01
       -1   -1    0    0    0  501  0.00000000000E+00  0.00000000000E+00  0.14679544965E+04  0.14679544966E+04  0.50400001928E-02 0. -1.
        1   -1    0    0  501    0  0.00000000000E+00  0.00000000000E+00 -0.68810770202E+03  0.68810770204E+03  0.50400001928E-02 0.  1.
    10030    2    1    2    0    0  0.00000000000E+00  0.00000000000E+00  0.77984679453E+03  0.21560621986E+04  0.20100853667E+04 0.  0.
        4    1    3    3  502    0 -0.36695983779E+03 -0.93565210850E+03  0.38757542657E+03  0.10771818393E+04  0.12699999809E+01 0. -1.
       -4    1    3    3    0  502  0.36695983779E+03  0.93565210850E+03  0.39227136796E+03  0.10788803593E+04  0.12699999809E+01 0.  1.
</event>
<event>
 5   0  0.1814230E-05  0.2780413E+04  0.7818609E-02  0.8309375E-01
       -2   -1    0    0    0  501  0.00000000000E+00  0.00000000000E+00  0.14406702897E+04  0.14406702897E+04  0.25500000920E-02 0. -1.
        2   -1    0    0  501    0  0.00000000000E+00  0.00000000000E+00 -0.13415106274E+04  0.13415106274E+04  0.25500000920E-02 0.  1.
    10030    2    1    2    0    0  0.00000000000E+00  0.00000000000E+00  0.99159662244E+02  0.27821809171E+04  0.27804132817E+04 0.  0.
        5    1    3    3  502    0 -0.85002750130E+03  0.76544603882E+03  0.84014414697E+03  0.14192669478E+04  0.46999998093E+01 0. -1.
       -5    1    3    3    0  502  0.85002750130E+03 -0.76544603882E+03 -0.74098448473E+03  0.13629139694E+04  0.46999998093E+01 0.  1.
</event>
<event>
 5   0  0.7509685E-06  0.2772907E+04  0.7818609E-02  0.8311729E-01
        1   -1    0    0  501    0  0.00000000000E+00  0.00000000000E+00  0.17484037138E+04  0.17484037138E+04  0.50400001928E-02 0. -1.
       -1   -1    0    0    0  501  0.00000000000E+00  0.00000000000E+00 -0.10994336696E+04  0.10994336696E+04  0.50400001928E-02 0.  1.
    10030    2    1    2    0    0  0.00000000000E+00  0.00000000000E+00  0.64897004420E+03  0.28478373834E+04  0.27729074352E+04 0.  0.
        4    1    3    3  502    0  0.62010383409E+03 -0.18016208675E+03  0.15845307861E+04  0.17110600713E+04  0.12699999809E+01 0. -1.
       -4    1    3    3    0  502 -0.62010383409E+03  0.18016208675E+03 -0.93556074193E+03  0.11367773121E+04  0.12699999809E+01 0.  1.
</event>
<event>
 5   0  0.6288000E-06  0.2789030E+04  0.7818609E-02  0.8306682E-01
        3   -1    0    0  501    0  0.00000000000E+00  0.00000000000E+00  0.20360579099E+04  0.20360579124E+04  0.10100000352E+00 0. -1.
       -3   -1    0    0    0  501  0.00000000000E+00  0.00000000000E+00 -0.95511616402E+03  0.95511616936E+03  0.10100000352E+00 0.  1.
    10030    2    1    2    0    0  0.00000000000E+00  0.00000000000E+00  0.10809417459E+04  0.29911740818E+04  0.27890298187E+04 0.  0.
        1    1    3    3  502    0 -0.41660520392E+03  0.86627162917E+03  0.16239847628E+04  0.18871441231E+04  0.50400001928E-02 0. -1.
       -1    1    3    3    0  502  0.41660520392E+03 -0.86627162917E+03 -0.54304301692E+03  0.11040299587E+04  0.50400001928E-02 0.  1.
</event>
<event>
 5   0  0.7555871E-06  0.2820322E+04  0.7818609E-02  0.8296987E-01
       -1   -1    0    0    0  501  0.00000000000E+00  0.00000000000E+00  0.12707695978E+04  0.12707695978E+04  0.50400001928E-02 0. -1.
        1   -1    0    0  501    0  0.00000000000E+00  0.00000000000E+00 -0.15648419023E+04  0.15648419023E+04  0.50400001928E-02 0.  1.
    10030    2    1    2    0    0  0.00000000000E+00  0.00000000000E+00 -0.29407230446E+03  0.28356115001E+04  0.28203216234E+04 0.  0.
        3    1    3    3  502    0 -0.22492312325E+03  0.13822457322E+04 -0.31334095158E+03  0.14350526951E+04  0.10100000352E+00 0.  1.
       -3    1    3    3    0  502  0.22492312325E+03 -0.13822457322E+04  0.19268647115E+02  0.14005588051E+04  0.10100000352E+00 0. -1.
</event>
<event>
 5   0  0.7555871E-06  0.2796417E+04  0.7818609E-02  0.8304382E-01
       -1   -1    0    0    0  501  0.00000000000E+00  0.00000000000E+00  0.70793780843E+03  0.70793780845E+03  0.50400001928E-02 0.  1.
        1   -1    0    0  501    0  0.00000000000E+00  0.00000000000E+00 -0.27615240554E+04  0.27615240554E+04  0.50400001928E-02 0. -1.
    10030    2    1    2    0    0  0.00000000000E+00  0.00000000000E+00 -0.20535862470E+04  0.34694618639E+04  0.27964171990E+04 0.  0.
        3    1    3    3  502    0 -0.39057016784E+03 -0.13176677424E+04 -0.70758842385E+03  0.15457925873E+04  0.10100000352E+00 0.  1.
       -3    1    3    3    0  502  0.39057016784E+03  0.13176677424E+04 -0.13459978231E+04  0.19236692765E+04  0.10100000352E+00 0. -1.
</event>
<event>
 5   0  0.1923559E-05  0.2746746E+04  0.7818609E-02  0.8319995E-01
       -2   -1    0    0    0  501  0.00000000000E+00  0.00000000000E+00  0.13144660654E+04  0.13144660654E+04  0.25500000920E-02 0.  1.
        2   -1    0    0  501    0  0.00000000000E+00  0.00000000000E+00 -0.14349194155E+04  0.14349194155E+04  0.25500000920E-02 0. -1.
    10030    2    1    2    0    0  0.00000000000E+00  0.00000000000E+00 -0.12045335012E+03  0.27493854809E+04  0.27467456222E+04 0.  0.
        4    1    3    3  502    0  0.12183513271E+04 -0.48649854909E+03  0.34647709392E+03  0.13568746382E+04  0.12699999809E+01 0.  1.
       -4    1    3    3    0  502 -0.12183513271E+04  0.48649854909E+03 -0.46693044404E+03  0.13925108426E+04  0.12699999809E+01 0. -1.
</event>
<event>
 5   0  0.1832502E-05  0.2798224E+04  0.7818609E-02  0.8303820E-01
       -2   -1    0    0    0  501  0.00000000000E+00  0.00000000000E+00  0.11662688352E+04  0.11662688352E+04  0.25500000920E-02 0.  1.
        2   -1    0    0  501    0  0.00000000000E+00  0.00000000000E+00 -0.16784419336E+04  0.16784419336E+04  0.25500000920E-02 0. -1.
    10030    2    1    2    0    0  0.00000000000E+00  0.00000000000E+00 -0.51217309831E+03  0.28447107688E+04  0.27982240931E+04 0.  0.
        2    1    3    3  502    0 -0.11035972094E+04  0.36439667626E+03  0.53582997721E+03  0.12797755674E+04  0.25500000920E-02 0.  1.
       -2    1    3    3    0  502  0.11035972094E+04 -0.36439667626E+03 -0.10480030755E+04  0.15649352014E+04  0.25500000920E-02 0. -1.
</event>
<event>
 5   0  0.7555871E-06  0.2824092E+04  0.7818609E-02  0.8295828E-01
       -1   -1    0    0    0  501  0.00000000000E+00  0.00000000000E+00  0.11232498053E+04  0.11232498053E+04  0.50400001928E-02 0. -1.
        1   -1    0    0  501    0  0.00000000000E+00  0.00000000000E+00 -0.17750940185E+04  0.17750940185E+04  0.50400001928E-02 0.  1.
    10030    2    1    2    0    0  0.00000000000E+00  0.00000000000E+00 -0.65184421318E+03  0.28983438239E+04  0.28240920741E+04 0.  0.
        3    1    3    3  502    0 -0.57101779810E+03 -0.12899567971E+04 -0.26245660078E+03  0.14348983733E+04  0.10100000352E+00 0. -1.
       -3    1    3    3    0  502  0.57101779810E+03  0.12899567971E+04 -0.38938761240E+03  0.14634454506E+04  0.10100000352E+00 0.  1.
</event>
<event>
 5   0  0.1874272E-05  0.2793954E+04  0.7818609E-02  0.8305148E-01
       -2   -1    0    0    0  501  0.00000000000E+00  0.00000000000E+00  0.10640770672E+04  0.10640770672E+04  0.25500000920E-02 0. -1.
        2   -1    0    0  501    0  0.00000000000E+00  0.00000000000E+00 -0.18340251282E+04  0.18340251282E+04  0.25500000920E-02 0.  1.
    10030    2    1    2    0    0  0.00000000000E+00  0.00000000000E+00 -0.76994806100E+03  0.28981021954E+04  0.27939535283E+04 0.  0.
        3    1    3    3  502    0  0.80727918356E+03  0.93471069656E+03 -0.10621179981E+04  0.16289500970E+04  0.10100000352E+00 0.  1.
       -3    1    3    3    0  502 -0.80727918356E+03 -0.93471069656E+03  0.29216993712E+03  0.12691520984E+04  0.10100000352E+00 0. -1.
</event>
<event>
 5   0  0.7388013E-06  0.2674213E+04  0.7818609E-02  0.8343421E-01
        1   -1    0    0  501    0  0.00000000000E+00  0.00000000000E+00  0.22008283564E+04  0.22008283564E+04  0.50400001928E-02 0.  1.
       -1   -1    0    0    0  501  0.00000000000E+00  0.00000000000E+00 -0.81235508884E+03  0.81235508886E+03  0.50400001928E-02 0. -1.
    10030    2    1    2    0    0  0.00000000000E+00  0.00000000000E+00  0.13884732675E+04  0.30131834452E+04  0.26742132413E+04 0.  0.
        1    1    3    3  502    0  0.68085029462E+03 -0.22996569277E+03 -0.57625796374E+03  0.92114851372E+03  0.50400001928E-02 0. -1.
       -1    1    3    3    0  502 -0.68085029462E+03  0.22996569277E+03  0.19647312313E+04  0.20920349315E+04  0.50400001928E-02 0.  1.
</event>
<event>
 5   0  0.7509685E-06  0.2859138E+04  0.7818609E-02  0.8285140E-01
       -1   -1    0    0    0  501  0.00000000000E+00  0.00000000000E+00  0.90424848523E+03  0.90424848525E+03  0.50400001928E-02 0.  1.
        1   -1    0    0  501    0  0.00000000000E+00  0.00000000000E+00 -0.22600736273E+04  0.22600736273E+04  0.50400001928E-02 0. -1.
    10030    2    1    2    0    0  0.00000000000E+00  0.00000000000E+00 -0.13558251420E+04  0.31643221125E+04  0.28591384395E+04 0.  0.
        4    1    3    3  502    0 -0.51519079757E+03  0.12921056349E+04 -0.31301054269E+03  0.14258105563E+04  0.12699999809E+01 0.  1.
       -4    1    3    3    0  502  0.51519079757E+03 -0.12921056349E+04 -0.10428145994E+04  0.17385115562E+04  0.12699999809E+01 0. -1.
</event>
<event>
 5   0  0.7613444E-06  0.2827595E+04  0.7818609E-02  0.8294752E-01
        1   -1    0    0  501    0  0.00000000000E+00  0.00000000000E+00  0.17474877780E+04  0.17474877780E+04  0.50400001928E-02 0. -1.
       -1   -1    0    0    0  501  0.00000000000E+00  0.00000000000E+00 -0.11438265571E+04  0.11438265571E+04  0.50400001928E-02 0.  1.
    10030    2    1    2    0    0  0.00000000000E+00  0.00000000000E+00  0.60366122090E+03  0.28913143352E+04  0.28275946872E+04 0.  0.
        5    1    3    3  502    0  0.52416065841E+03 -0.93370320067E+03  0.12458107871E+04  0.16427454672E+04  0.46999998093E+01 0. -1.
       -5    1    3    3    0  502 -0.52416065841E+03  0.93370320067E+03 -0.64214956618E+03  0.12485688680E+04  0.46999998093E+01 0.  1.
</event>
<event>
 5   0  0.1874272E-05  0.2825702E+04  0.7818609E-02  0.8295333E-01
        2   -1    0    0  501    0  0.00000000000E+00  0.00000000000E+00  0.13471016181E+04  0.13471016182E+04  0.25500000920E-02 0.  1.
       -2   -1    0    0    0  501  0.00000000000E+00  0.00000000000E+00 -0.14818091899E+04  0.14818091899E+04  0.25500000920E-02 0. -1.
    10030    2    1    2    0    0  0.00000000000E+00  0.00000000000E+00 -0.13470757179E+03  0.28289108081E+04  0.28257017235E+04 0.  0.
        3    1    3    3  502    0  0.23695332794E+03 -0.84618699191E+03 -0.11749412029E+04  0.14671966962E+04  0.10100000352E+00 0. -1.
       -3    1    3    3    0  502 -0.23695332794E+03  0.84618699191E+03  0.10402336311E+04  0.13617141119E+04  0.10100000352E+00 0.  1.
</event>
<event>
 5   0  0.7388013E-06  0.2840336E+04  0.7818609E-02  0.8290854E-01
        1   -1    0    0  501    0  0.00000000000E+00  0.00000000000E+00  0.78623713521E+03  0.78623713522E+03  0.50400001928E-02 0. -1.
       -1   -1    0    0    0  501  0.00000000000E+00  0.00000000000E+00 -0.25652283794E+04  0.25652283794E+04  0.50400001928E-02 0.  1.
    10030    2    1    2    0    0  0.00000000000E+00  0.00000000000E+00 -0.17789912442E+04  0.33514655146E+04  0.28403364675E+04 0.  0.
        1    1    3    3  502    0 -0.87480615344E+03  0.10796893125E+04 -0.12352502332E+04  0.18592627453E+04  0.50400001928E-02 0.  1.
       -1    1    3    3    0  502  0.87480615344E+03 -0.10796893125E+04 -0.54374101097E+03  0.14922027693E+04  0.50400001928E-02 0. -1.
</event>
<event>
 5   0  0.1904553E-05  0.2783033E+04  0.7818609E-02  0.8308555E-01
        2   -1    0    0  501    0  0.00000000000E+00  0.00000000000E+00  0.13165995943E+04  0.13165995943E+04  0.25500000920E-02 0.  1.
       -2   -1    0    0    0  501  0.00000000000E+00  0.00000000000E+00 -0.14706960071E+04  0.14706960071E+04  0.25500000920E-02 0. -1.
    10030    2    1    2    0    0  0.00000000000E+00  0.00000000000E+00 -0.15409641283E+03  0.27872956014E+04  0.27830327101E+04 0.  0.
        1    1    3    3  502    0  0.13908633940E+04  0.42450509685E+02 -0.80893331806E+02  0.13938603795E+04  0.50400001928E-02 0. -1.
       -1    1    3    3    0  502 -0.13908633940E+04 -0.42450509685E+02 -0.73203081019E+02  0.13934352219E+04  0.50400001928E-02 0.  1.
</event>
<event>
 5   0  0.7509685E-06  0.1954365E+04  0.7818609E-02  0.8628259E-01
       -1   -1    0    0    0  501  0.00000000000E+00  0.00000000000E+00  0.70515602004E+03  0.70515602006E+03  0.50400001928E-02 0. -1.
        1   -1    0    0  501    0  0.00000000000E+00  0.00000000000E+00 -0.13541486188E+04  0.13541486188E+04  0.50400001928E-02 0.  1.
    10030    2    1    2    0    0  0.00000000000E+00  0.00000000000E+00 -0.64899259871E+03  0.20593046388E+04  0.19543654219E+04 0.  0.
        4    1    3    3  502    0  0.95829375059E+03 -0.12476554748E+03 -0.17183383989E+03  0.98154054205E+03  0.12699999809E+01 0. -1.
       -4    1    3    3    0  502 -0.95829375059E+03  0.12476554748E+03 -0.47715875882E+03  0.10777640968E+04  0.12699999809E+01 0.  1.
</event>
<event>
 5   0  0.7613444E-06  0.2797230E+04  0.7818609E-02  0.8304129E-01
       -1   -1    0    0    0  501  0.00000000000E+00  0.00000000000E+00  0.12960209897E+04  0.12960209897E+04  0.50400001928E-02 0. -1.
        1   -1    0    0  501    0  0.00000000000E+00  0.00000000000E+00 -0.15093299264E+04  0.15093299264E+04  0.50400001928E-02 0.  1.
    10030    2    1    2    0    0  0.00000000000E+00  0.00000000000E+00 -0.21330893668E+03  0.28053509161E+04  0.27972295330E+04 0.  0.
        5    1    3    3  502    0 -0.97444201643E+03 -0.83525120813E+03  0.45076437541E+03  0.13602913056E+04  0.46999998093E+01 0. -1.
       -5    1    3    3    0  502  0.97444201643E+03  0.83525120813E+03 -0.66407331209E+03  0.14450596105E+04  0.46999998093E+01 0.  1.
</event>
<event>
 5   0  0.7681342E-06  0.1746884E+04  0.7818609E-02  0.8735067E-01
        1   -1    0    0  501    0  0.00000000000E+00  0.00000000000E+00  0.85091323680E+03  0.85091323682E+03  0.50400001928E-02 0.  1.
       -1   -1    0    0    0  501  0.00000000000E+00  0.00000000000E+00 -0.89656715041E+03  0.89656715043E+03  0.50400001928E-02 0. -1.
    10030    2    1    2    0    0  0.00000000000E+00  0.00000000000E+00 -0.45653913608E+02  0.17474803872E+04  0.17468839183E+04 0.  0.
        2    1    3    3  502    0 -0.31187358471E+02  0.84831703221E+03  0.18287987252E+03  0.86836598634E+03  0.25500000920E-02 0.  1.
       -2    1    3    3    0  502  0.31187358471E+02 -0.84831703221E+03 -0.22853378613E+03  0.87911440090E+03  0.25500000920E-02 0. -1.
</event>
<event>
 5   0  0.7509685E-06  0.2832822E+04  0.7818609E-02  0.8293150E-01
       -1   -1    0    0    0  501  0.00000000000E+00  0.00000000000E+00  0.15334477038E+04  0.15334477038E+04  0.50400001928E-02 0.  1.
        1   -1    0    0  501    0  0.00000000000E+00  0.00000000000E+00 -0.13083065095E+04  0.13083065095E+04  0.50400001928E-02 0. -1.
    10030    2    1    2    0    0  0.00000000000E+00  0.00000000000E+00  0.22514119430E+03  0.28417542134E+04  0.28328216414E+04 0.  0.
        4    1    3    3  502    0 -0.92813372291E+03  0.10390383014E+04 -0.14354839528E+03  0.14005857896E+04  0.12699999809E+01 0. -1.
       -4    1    3    3    0  502  0.92813372291E+03 -0.10390383014E+04  0.36868958958E+03  0.14411684238E+04  0.12699999809E+01 0.  1.
</event>
<event>
 5   0  0.7613444E-06  0.2765141E+04  0.7818609E-02  0.8314173E-01
        1   -1    0    0  501    0  0.00000000000E+00  0.00000000000E+00  0.18714628164E+04  0.18714628164E+04  0.50400001928E-02 0. -1.
       -1   -1    0    0    0  501  0.00000000000E+00  0.00000000000E+00 -0.10213944821E+04  0.10213944822E+04  0.50400001928E-02 0.  1.
    10030    2    1    2    0    0  0.00000000000E+00  0.00000000000E+00  0.85006833421E+03  0.28928572985E+04  0.27651414388E+04 0.  0.
        5    1    3    3  502    0  0.83132145412E+03 -0.83527529185E+03  0.11814066409E+04  0.16686892804E+04  0.46999998093E+01 0. -1.
       -5    1    3    3    0  502 -0.83132145412E+03  0.83527529185E+03 -0.33133830667E+03  0.12241680182E+04  0.46999998093E+01 0.  1.
</event>
<event>
 5   0  0.1832502E-05  0.2788543E+04  0.7818609E-02  0.8306834E-01
       -2   -1    0    0    0  501  0.00000000000E+00  0.00000000000E+00  0.75438058245E+03  0.75438058245E+03  0.25500000920E-02 0.  1.
        2   -1    0    0  501    0  0.00000000000E+00  0.00000000000E+00 -0.25769393916E+04  0.25769393916E+04  0.25500000920E-02 0. -1.
    10030    2    1    2    0    0  0.00000000000E+00  0.00000000000E+00 -0.18225588092E+04  0.33313199741E+04  0.27885430169E+04 0.  0.
        2    1    3    3  502    0 -0.30406198997E+03 -0.13313031183E+04 -0.57513720880E+03  0.14817572323E+04  0.25500000920E-02 0. -1.
       -2    1    3    3    0  502  0.30406198997E+03  0.13313031183E+04 -0.12474216004E+04  0.18495627418E+04  0.25500000920E-02 0.  1.
</event>
<event>
 5   0  0.7388013E-06  0.2682931E+04  0.7818609E-02  0.8340564E-01
       -1   -1    0    0    0  501  0.00000000000E+00  0.00000000000E+00  0.13279740763E+04  0.13279740764E+04  0.50400001928E-02 0.  1.
        1   -1    0    0  501    0  0.00000000000E+00  0.00000000000E+00 -0.13550942582E+04  0.13550942582E+04  0.50400001928E-02 0. -1.
    10030    2    1    2    0    0  0.00000000000E+00  0.00000000000E+00 -0.27120181802E+02  0.26830683345E+04  0.26829312670E+04 0.  0.
        1    1    3    3  502    0 -0.56138278818E+03  0.26614396351E+03 -0.12025475752E+04  0.13535523318E+04  0.50400001928E-02 0. -1.
       -1    1    3    3    0  502  0.56138278818E+03 -0.26614396351E+03  0.11754273934E+04  0.13295160027E+04  0.50400001928E-02 0.  1.
</event>
<event>
 5   0  0.7388013E-06  0.2806378E+04  0.7818609E-02  0.8301291E-01
       -1   -1    0    0    0  501  0.00000000000E+00  0.00000000000E+00  0.87205110469E+03  0.87205110471E+03  0.50400001928E-02 0. -1.
        1   -1    0    0  501    0  0.00000000000E+00  0.00000000000E+00 -0.22578262627E+04  0.22578262627E+04  0.50400001928E-02 0.  1.
    10030    2    1    2    0    0  0.00000000000E+00  0.00000000000E+00 -0.13857751580E+04  0.31298773674E+04  0.28063783684E+04 0.  0.
        1    1    3    3  502    0  0.87041106201E+03 -0.55860232760E+03  0.36473441759E+03  0.10966691263E+04  0.50400001928E-02 0. -1.
       -1    1    3    3    0  502 -0.87041106201E+03  0.55860232760E+03 -0.17505095756E+04  0.20332082410E+04  0.50400001928E-02 0.  1.
</event>
<event>
 5   0  0.7388013E-06  0.2813588E+04  0.7818609E-02  0.8299062E-01
       -1   -1    0    0    0  501  0.00000000000E+00  0.00000000000E+00  0.11822778291E+04  0.11822778291E+04  0.50400001928E-02 0.  1.
        1   -1    0    0  501    0  0.00000000000E+00  0.00000000000E+00 -0.16739462399E+04  0.16739462399E+04  0.50400001928E-02 0. -1.
    10030    2    1    2    0    0  0.00000000000E+00  0.00000000000E+00 -0.49166841086E+03  0.28562240690E+04  0.28135881195E+04 0.  0.
        1    1    3    3  502    0  0.67230794762E+02 -0.16393594437E+03  0.11709051169E+04  0.11842355198E+04  0.50400001928E-02 0.  1.
       -1    1    3    3    0  502 -0.67230794762E+02  0.16393594437E+03 -0.16625735277E+04  0.16719885492E+04  0.50400001928E-02 0. -1.
</event>
<event>
 5   0  0.1923559E-05  0.2823765E+04  0.7818609E-02  0.8295928E-01
        2   -1    0    0  501    0  0.00000000000E+00  0.00000000000E+00  0.13973976994E+04  0.13973976994E+04  0.25500000920E-02 0.  1.
       -2   -1    0    0    0  501  0.00000000000E+00  0.00000000000E+00 -0.14265176913E+04  0.14265176913E+04  0.25500000920E-02 0. -1.
    10030    2    1    2    0    0  0.00000000000E+00  0.00000000000E+00 -0.29119991939E+02  0.28239153907E+04  0.28237652451E+04 0.  0.
        4    1    3    3  502    0  0.77450299326E+03  0.61273965326E+03 -0.10236261139E+04  0.14223631052E+04  0.12699999809E+01 0. -1.
       -4    1    3    3    0  502 -0.77450299326E+03 -0.61273965326E+03  0.99450612194E+03  0.14015522854E+04  0.12699999809E+01 0.  1.
</event>
<event>
 5   0  0.7555871E-06  0.2282357E+04  0.7818609E-02  0.8484910E-01
        1   -1    0    0  501    0  0.00000000000E+00  0.00000000000E+00  0.45626359611E+03  0.45626359614E+03  0.50400001928E-02 0. -1.
       -1   -1    0    0    0  501  0.00000000000E+00  0.00000000000E+00 -0.28542461767E+04  0.28542461767E+04  0.50400001928E-02 0.  1.
    10030    2    1    2    0    0  0.00000000000E+00  0.00000000000E+00 -0.23979825805E+04  0.33105097728E+04  0.22823572243E+04 0.  0.
        3    1    3    3  502    0  0.77592904483E+03 -0.66117074670E+03 -0.19429551689E+04  0.21941484539E+04  0.10100000352E+00 0.  1.
       -3    1    3    3    0  502 -0.77592904483E+03  0.66117074670E+03 -0.45502741160E+03  0.11163613189E+04  0.10100000352E+00 0. -1.
</event>
<event>
 5   0  0.1923559E-05  0.2732331E+04  0.7818609E-02  0.8324590E-01
       -2   -1    0    0    0  501  0.00000000000E+00  0.00000000000E+00  0.97780474660E+03  0.97780474660E+03  0.25500000920E-02 0.  1.
        2   -1    0    0  501    0  0.00000000000E+00  0.00000000000E+00 -0.19087739673E+04  0.19087739673E+04  0.25500000920E-02 0. -1.
    10030    2    1    2    0    0  0.00000000000E+00  0.00000000000E+00 -0.93096922071E+03  0.28865787139E+04  0.27323310527E+04 0.  0.
        4    1    3    3  502    0 -0.91088244257E+03 -0.13678832277E+03 -0.15313971685E+04  0.17870637286E+04  0.12699999809E+01 0. -1.
       -4    1    3    3    0  502  0.91088244257E+03  0.13678832277E+03  0.60042794783E+03  0.10995149853E+04  0.12699999809E+01 0.  1.
</event>
<event>
 5   0  0.1874272E-05  0.2790496E+04  0.7818609E-02  0.8306225E-01
       -2   -1    0    0    0  501  0.00000000000E+00  0.00000000000E+00  0.83469549461E+03  0.83469549462E+03  0.25500000920E-02 0. -1.
        2   -1    0    0  501    0  0.00000000000E+00  0.00000000000E+00 -0.23322473371E+04  0.23322473371E+04  0.25500000920E-02 0.  1.
    10030    2    1    2    0    0  0.00000000000E+00  0.00000000000E+00 -0.14975518425E+04  0.31669428317E+04  0.27904955435E+04 0.  0.
        3    1    3    3  502    0 -0.26469450765E+03  0.26818547994E+02 -0.23031933543E+04  0.23185085840E+04  0.10100000352E+00 0.  1.
       -3    1    3    3    0  502  0.26469450765E+03 -0.26818547994E+02  0.80564151179E+03  0.84843424767E+03  0.10100000352E+00 0. -1.
</event>
<event>
 5   0  0.1904553E-05  0.2937505E+04  0.7818609E-02  0.8261805E-01
        2   -1    0    0  501    0  0.00000000000E+00  0.00000000000E+00  0.21312780208E+04  0.21312780208E+04  0.25500000920E-02 0. -1.
       -2   -1    0    0    0  501  0.00000000000E+00  0.00000000000E+00 -0.10121783661E+04  0.10121783661E+04  0.25500000920E-02 0.  1.
    10030    2    1    2    0    0  0.00000000000E+00  0.00000000000E+00  0.11190996547E+04  0.31434563869E+04  0.29375047267E+04 0.  0.
        1    1    3    3  502    0 -0.85061496066E+03  0.99340631114E+03 -0.15577088753E+03  0.13170673786E+04  0.50400001928E-02 0.  1.
       -1    1    3    3    0  502  0.85061496066E+03 -0.99340631114E+03  0.12748705422E+04  0.18263890083E+04  0.50400001928E-02 0. -1.
</event>
<event>
 5   0  0.1923559E-05  0.2663378E+04  0.7818609E-02  0.8346986E-01
        2   -1    0    0  501    0  0.00000000000E+00  0.00000000000E+00  0.96590680216E+03  0.96590680217E+03  0.25500000920E-02 0. -1.
       -2   -1    0    0    0  501  0.00000000000E+00  0.00000000000E+00 -0.18359906046E+04  0.18359906046E+04  0.25500000920E-02 0.  1.
    10030    2    1    2    0    0  0.00000000000E+00  0.00000000000E+00 -0.87008380245E+03  0.28018974068E+04  0.26633781659E+04 0.  0.
        4    1    3    3  502    0  0.15846760785E+03  0.68321393280E+03  0.75586787032E+03  0.10311309863E+04  0.12699999809E+01 0. -1.
       -4    1    3    3    0  502 -0.15846760785E+03 -0.68321393280E+03 -0.16259516728E+04  0.17707664204E+04  0.12699999809E+01 0.  1.
</event>
<event>
 5   0  0.7555871E-06  0.2911762E+04  0.7818609E-02  0.8269387E-01
        1   -1    0    0  501    0  0.00000000000E+00  0.00000000000E+00  0.22287183332E+04  0.22287183333E+04  0.50400001928E-02 0. -1.
       -1   -1    0    0    0  501  0.00000000000E+00  0.00000000000E+00 -0.95103498514E+03  0.95103498515E+03  0.50400001928E-02 0.  1.
    10030    2    1    2    0    0  0.00000000000E+00  0.00000000000E+00  0.12776833481E+04  0.31797533184E+04  0.29117617395E+04 0.  0.
        3    1    3    3  502    0 -0.41291725362E+03  0.25005693956E+02 -0.88550480814E+03  0.97736621514E+03  0.10100000352E+00 0.  1.
       -3    1    3    3    0  502  0.41291725362E+03 -0.25005693956E+02  0.21631881562E+04  0.22023871033E+04  0.10100000352E+00 0. -1.
</event>
<event>
 5   0  0.1874272E-05  0.2799590E+04  0.7818609E-02  0.8303396E-01
       -2   -1    0    0    0  501  0.00000000000E+00  0.00000000000E+00  0.17523625918E+04  0.17523625918E+04  0.25500000920E-02 0. -1.
        2   -1    0    0  501    0  0.00000000000E+00  0.00000000000E+00 -0.11181620909E+04  0.11181620909E+04  0.25500000920E-02 0.  1.
    10030    2    1    2    0    0  0.00000000000E+00  0.00000000000E+00  0.63420050089E+03  0.28705246827E+04  0.27995895554E+04 0.  0.
        3    1    3    3  502    0  0.95348155531E+03  0.46952144650E+03 -0.61694127034E+03  0.12288995102E+04  0.10100000352E+00 0.  1.
       -3    1    3    3    0  502 -0.95348155531E+03 -0.46952144650E+03  0.12511417712E+04  0.16416251725E+04  0.10100000352E+00 0. -1.
</event>
<event>
 5   0  0.7555871E-06  0.2628856E+04  0.7818609E-02  0.8358465E-01
        1   -1    0    0  501    0  0.00000000000E+00  0.00000000000E+00  0.12512827521E+04  0.12512827521E+04  0.50400001928E-02 0.  1.
       -1   -1    0    0    0  501  0.00000000000E+00  0.00000000000E+00 -0.13807598469E+04  0.13807598469E+04  0.50400001928E-02 0. -1.
    10030    2    1    2    0    0  0.00000000000E+00  0.00000000000E+00 -0.12947709485E+03  0.26320425990E+04  0.26288560107E+04 0.  0.
        3    1    3    3  502    0 -0.35363344530E+03 -0.10840678342E+04 -0.71933629982E+03  0.13482226838E+04  0.10100000352E+00 0.  1.
       -3    1    3    3    0  502  0.35363344530E+03  0.10840678342E+04  0.58985920498E+03  0.12838199152E+04  0.10100000352E+00 0. -1.
</event>
<event>
 5   0  0.1923559E-05  0.2789040E+04  0.7818609E-02  0.8306679E-01
        2   -1    0    0  501    0  0.00000000000E+00  0.00000000000E+00  0.16238896911E+04  0.16238896911E+04  0.25500000920E-02 0.  1.
       -2   -1    0    0    0  501  0.00000000000E+00  0.00000000000E+00 -0.11975484886E+04  0.11975484886E+04  0.25500000920E-02 0. -1.
    10030    2    1    2    0    0  0.00000000000E+00  0.00000000000E+00  0.42634120254E+03  0.28214381797E+04  0.27890404409E+04 0.  0.
        4    1    3    3  502    0  0.13296027280E+04 -0.39274768161E+03  0.61122056032E+02  0.13877433748E+04  0.12699999809E+01 0.  1.
       -4    1    3    3    0  502 -0.13296027280E+04  0.39274768161E+03  0.36521914650E+03  0.14336948049E+04  0.12699999809E+01 0. -1.
</event>
<event>
 5   0  0.1832502E-05  0.2170469E+04  0.7818609E-02  0.8530821E-01
       -2   -1    0    0    0  501  0.00000000000E+00  0.00000000000E+00  0.78598547079E+03  0.78598547080E+03  0.25500000920E-02 0.  1.
        2   -1    0    0  501    0  0.00000000000E+00  0.00000000000E+00 -0.14984164035E+04  0.14984164035E+04  0.25500000920E-02 0. -1.
    10030    2    1    2    0    0  0.00000000000E+00  0.00000000000E+00 -0.71243093268E+03  0.22844018743E+04  0.21704686336E+04 0.  0.
        2    1    3    3  502    0  0.61967552430E+03 -0.49245770674E+03  0.42519988629E+03  0.89850280558E+03  0.25500000920E-02 0.  1.
       -2    1    3    3    0  502 -0.61967552430E+03  0.49245770674E+03 -0.11376308190E+04  0.13858990687E+04  0.25500000920E-02 0. -1.
</event>
<event>
 5   0  0.1904553E-05  0.2788628E+04  0.7818609E-02  0.8306808E-01
       -2   -1    0    0    0  501  0.00000000000E+00  0.00000000000E+00  0.86305286827E+03  0.86305286827E+03  0.25500000920E-02 0.  1.
        2   -1    0    0  501    0  0.00000000000E+00  0.00000000000E+00 -0.22525989599E+04  0.22525989599E+04  0.25500000920E-02 0. -1.
    10030    2    1    2    0    0  0.00000000000E+00  0.00000000000E+00 -0.13895460916E+04  0.31156518281E+04  0.27886283319E+04 0.  0.
        1    1    3    3  502    0  0.16645667054E+03  0.28096181509E+03  0.81972172457E+03  0.88237807683E+03  0.50400001928E-02 0.  1.
       -1    1    3    3    0  502 -0.16645667054E+03 -0.28096181509E+03 -0.22092678162E+04  0.22332737513E+04  0.50400001928E-02 0. -1.
</event>
<event>
 5   0  0.1874272E-05  0.2757940E+04  0.7818609E-02  0.8316447E-01
        2   -1    0    0  501    0  0.00000000000E+00  0.00000000000E+00  0.16966400604E+04  0.16966400604E+04  0.25500000920E-02 0.  1.
       -2   -1    0    0    0  501  0.00000000000E+00  0.00000000000E+00 -0.11207785436E+04  0.11207785436E+04  0.25500000920E-02 0. -1.
    10030    2    1    2    0    0  0.00000000000E+00  0.00000000000E+00  0.57586151679E+03  0.28174186040E+04  0.27579396483E+04 0.  0.
        3    1    3    3  502    0 -0.89274954046E+03 -0.33809701465E+03  0.13045030379E+04  0.16164898760E+04  0.10100000352E+00 0.  1.
       -3    1    3    3    0  502  0.89274954046E+03  0.33809701465E+03 -0.72864152108E+03  0.12009287280E+04  0.10100000352E+00 0. -1.
</event>
<event>
 5   0  0.1832502E-05  0.2812022E+04  0.7818609E-02  0.8299546E-01
        2   -1    0    0  501    0  0.00000000000E+00  0.00000000000E+00  0.19924181394E+04  0.19924181394E+04  0.25500000920E-02 0. -1.
       -2   -1    0    0    0  501  0.00000000000E+00  0.00000000000E+00 -0.99219469957E+03  0.99219469957E+03  0.25500000920E-02 0.  1.
    10030    2    1    2    0    0  0.00000000000E+00  0.00000000000E+00  0.10002234398E+04  0.29846128390E+04  0.28120218472E+04 0.  0.
        2    1    3    3  502    0 -0.50928727976E+03  0.12679926703E+04  0.14859303092E+03  0.13745031226E+04  0.25500000920E-02 0. -1.
       -2    1    3    3    0  502  0.50928727976E+03 -0.12679926703E+04  0.85163040889E+03  0.16101097163E+04  0.25500000920E-02 0.  1.
</event>
<event>
 5   0  0.7681342E-06  0.2794118E+04  0.7818609E-02  0.8305097E-01
       -1   -1    0    0    0  501  0.00000000000E+00  0.00000000000E+00  0.76629561597E+03  0.76629561599E+03  0.50400001928E-02 0. -1.
        1   -1    0    0  501    0  0.00000000000E+00  0.00000000000E+00 -0.25470247374E+04  0.25470247374E+04  0.50400001928E-02 0.  1.
    10030    2    1    2    0    0  0.00000000000E+00  0.00000000000E+00 -0.17807291214E+04  0.33133203533E+04  0.27941180290E+04 0.  0.
        2    1    3    3  502    0 -0.12508496820E+04  0.47199628286E+03 -0.13711241324E+04  0.19150422461E+04  0.25500000920E-02 0.  1.
       -2    1    3    3    0  502  0.12508496820E+04 -0.47199628286E+03 -0.40960498898E+03  0.13982781072E+04  0.25500000920E-02 0. -1.
</event>
<event>
 5   0  0.7681342E-06  0.2868565E+04  0.7818609E-02  0.8282292E-01
        1   -1    0    0  501    0  0.00000000000E+00  0.00000000000E+00  0.17147276166E+04  0.17147276167E+04  0.50400001928E-02 0.  1.
       -1   -1    0    0    0  501  0.00000000000E+00  0.00000000000E+00 -0.11997041266E+04  0.11997041266E+04  0.50400001928E-02 0. -1.
    10030    2    1    2    0    0  0.00000000000E+00  0.00000000000E+00  0.51502349007E+03  0.29144317432E+04  0.28685646569E+04 0.  0.
        2    1    3    3  502    0  0.48704696875E+03 -0.35438768370E+03 -0.10649774847E+04  0.12235123305E+04  0.25500000920E-02 0. -1.
       -2    1    3    3    0  502 -0.48704696875E+03  0.35438768370E+03  0.15800009747E+04  0.16909194127E+04  0.25500000920E-02 0.  1.
</event>
<event>
 5   0  0.7509685E-06  0.2830294E+04  0.7818609E-02  0.8293924E-01
        1   -1    0    0  501    0  0.00000000000E+00  0.00000000000E+00  0.19539571201E+04  0.19539571201E+04  0.50400001928E-02 0.  1.
       -1   -1    0    0    0  501  0.00000000000E+00  0.00000000000E+00 -0.10249158253E+04  0.10249158253E+04  0.50400001928E-02 0. -1.
    10030    2    1    2    0    0  0.00000000000E+00  0.00000000000E+00  0.92904129477E+03  0.29788729454E+04  0.28302943835E+04 0.  0.
        4    1    3    3  502    0 -0.38299485526E+03 -0.79630633811E+03  0.16279218701E+04  0.18522742970E+04  0.12699999809E+01 0.  1.
       -4    1    3    3    0  502  0.38299485526E+03  0.79630633811E+03 -0.69888057528E+03  0.11265986484E+04  0.12699999809E+01 0. -1.
</event>
<event>
 5   0  0.7613444E-06  0.2636778E+04  0.7818609E-02  0.8355815E-01
        1   -1    0    0  501    0  0.00000000000E+00  0.00000000000E+00  0.14008518501E+04  0.14008518501E+04  0.50400001928E-02 0.  1.
       -1   -1    0    0    0  501  0.00000000000E+00  0.00000000000E+00 -0.12407803358E+04  0.12407803358E+04  0.50400001928E-02 0. -1.
    10030    2    1    2    0    0  0.00000000000E+00  0.00000000000E+00  0.16007151430E+03  0.26416321860E+04  0.26367779042E+04 0.  0.
        5    1    3    3  502    0  0.46170888809E+03 -0.10827859395E+04 -0.51479702818E+03  0.12847717923E+04  0.46999998093E+01 0. -1.
       -5    1    3    3    0  502 -0.46170888809E+03  0.10827859395E+04  0.67486854248E+03  0.13568603936E+04  0.46999998093E+01 0.  1.
</event>
<event>
 5   0  0.7613444E-06  0.2894654E+04  0.7818609E-02  0.8274470E-01
       -1   -1    0    0    0  501  0.00000000000E+00  0.00000000000E+00  0.21892325706E+04  0.21892325706E+04  0.50400001928E-02 0. -1.
        1   -1    0    0  501    0  0.00000000000E+00  0.00000000000E+00 -0.95684449841E+03  0.95684449842E+03  0.50400001928E-02 0.  1.
    10030    2    1    2    0    0  0.00000000000E+00  0.00000000000E+00  0.12323880722E+04  0.31460770690E+04  0.28946537900E+04 0.  0.
        5    1    3    3  502    0 -0.35285259001E+03  0.13125954694E+04  0.75684411172E+02  0.13613089424E+04  0.46999998093E+01 0.  1.
       -5    1    3    3    0  502  0.35285259001E+03 -0.13125954694E+04  0.11567036610E+04  0.17847681267E+04  0.46999998093E+01 0. -1.
</event>
<event>
 5   0  0.1874272E-05  0.2824603E+04  0.7818609E-02  0.8295671E-01
        2   -1    0    0  501    0  0.00000000000E+00  0.00000000000E+00  0.19750008334E+04  0.19750008334E+04  0.25500000920E-02 0. -1.
       -2   -1    0    0    0  501  0.00000000000E+00  0.00000000000E+00 -0.10099211156E+04  0.10099211156E+04  0.25500000920E-02 0.  1.
    10030    2    1    2    0    0  0.00000000000E+00  0.00000000000E+00  0.96507971776E+03  0.29849219490E+04  0.28246026588E+04 0.  0.
        3    1    3    3  502    0  0.11376804048E+04  0.46175757713E+02 -0.40043590609E+03  0.12069788023E+04  0.10100000352E+00 0.  1.
       -3    1    3    3    0  502 -0.11376804048E+04 -0.46175757713E+02  0.13655156239E+04  0.17779431468E+04  0.10100000352E+00 0. -1.
</event>
<event>
 5   0  0.1874272E-05  0.2828714E+04  0.7818609E-02  0.8294409E-01
        2   -1    0    0  501    0  0.00000000000E+00  0.00000000000E+00  0.14563453696E+04  0.14563453696E+04  0.25500000920E-02 0. -1.
       -2   -1    0    0    0  501  0.00000000000E+00  0.00000000000E+00 -0.13735795717E+04  0.13735795718E+04  0.25500000920E-02 0.  1.
    10030    2    1    2    0    0  0.00000000000E+00  0.00000000000E+00  0.82765797884E+02  0.28299249414E+04  0.28287143717E+04 0.  0.
        3    1    3    3  502    0  0.58223204156E+03 -0.86201048707E+03 -0.91733301663E+03  0.13869232508E+04  0.10100000352E+00 0.  1.
       -3    1    3    3    0  502 -0.58223204156E+03  0.86201048707E+03  0.10000988145E+04  0.14430016906E+04  0.10100000352E+00 0. -1.
</event>
<event>
 5   0  0.6288000E-06  0.2840821E+04  0.7818609E-02  0.8290706E-01
        3   -1    0    0  501    0  0.00000000000E+00  0.00000000000E+00  0.15299226959E+04  0.15299226992E+04  0.10100000352E+00 0.  1.
       -3   -1    0    0    0  501  0.00000000000E+00  0.00000000000E+00 -0.13187369059E+04  0.13187369098E+04  0.10100000352E+00 0. -1.
    10030    2    1    2    0    0  0.00000000000E+00  0.00000000000E+00  0.21118578995E+03  0.28486596090E+04  0.28408206789E+04 0.  0.
        1    1    3    3  502    0  0.13035368065E+04  0.43526443122E+03  0.46561312460E+03  0.14510199560E+04  0.50400001928E-02 0.  1.
       -1    1    3    3    0  502 -0.13035368065E+04 -0.43526443122E+03 -0.25442733465E+03  0.13976396530E+04  0.50400001928E-02 0. -1.
</event>
<event>
 5   0  0.1904553E-05  0.2816007E+04  0.7818609E-02  0.8298316E-01
       -2   -1    0    0    0  501  0.00000000000E+00  0.00000000000E+00  0.82455986173E+03  0.82455986174E+03  0.25500000920E-02 0. -1.
        2   -1    0    0  501    0  0.00000000000E+00  0.00000000000E+00 -0.24042817551E+04  0.24042817551E+04  0.25500000920E-02 0.  1.
    10030    2    1    2    0    0  0.00000000000E+00  0.00000000000E+00 -0.15797218933E+04  0.32288416168E+04  0.28160072667E+04 0.  0.
        1    1    3    3  502    0  0.11942145592E+04 -0.74206899936E+03 -0.87611884415E+03  0.16566227821E+04  0.50400001928E-02 0.  1.
       -1    1    3    3    0  502 -0.11942145592E+04  0.74206899936E+03 -0.70360304917E+03  0.15722188347E+04  0.50400001928E-02 0. -1.
</event>
<event>
 5   0  0.7681342E-06  0.2961176E+04  0.7818609E-02  0.8254905E-01
        1   -1    0    0  501    0  0.00000000000E+00  0.00000000000E+00  0.20704679952E+04  0.20704679952E+04  0.50400001928E-02 0.  1.
       -1   -1    0    0    0  501  0.00000000000E+00  0.00000000000E+00 -0.10587661799E+04  0.10587661799E+04  0.50400001928E-02 0. -1.
    10030    2    1    2    0    0  0.00000000000E+00  0.00000000000E+00  0.10117018153E+04  0.31292341751E+04  0.29611764486E+04 0.  0.
        2    1    3    3  502    0 -0.11538165511E+04 -0.92096155554E+03  0.62484094985E+03  0.16030873442E+04  0.25500000920E-02 0.  1.
       -2    1    3    3    0  502  0.11538165511E+04  0.92096155554E+03  0.38686086541E+03  0.15261468310E+04  0.25500000920E-02 0. -1.
</event>
<event>
 5   0  0.1874272E-05  0.2793156E+04  0.7818609E-02  0.8305396E-01
        2   -1    0    0  501    0  0.00000000000E+00  0.00000000000E+00  0.11054737262E+04  0.11054737262E+04  0.25500000920E-02 0. -1.
       -2   -1    0    0    0  501  0.00000000000E+00  0.00000000000E+00 -0.17643388878E+04  0.17643388878E+04  0.25500000920E-02 0.  1.
    10030    2    1    2    0    0  0.00000000000E+00  0.00000000000E+00 -0.65886516162E+03  0.28698126141E+04  0.27931561250E+04 0.  0.
        3    1    3    3  502    0 -0.18738062698E+03  0.13811902749E+04 -0.41919265235E+03  0.14555138490E+04  0.10100000352E+00 0.  1.
       -3    1    3    3    0  502  0.18738062698E+03 -0.13811902749E+04 -0.23967250928E+03  0.14142987650E+04  0.10100000352E+00 0. -1.
</event>
<event>
 5   0  0.1923559E-05  0.2823122E+04  0.7818609E-02  0.8296126E-01
       -2   -1    0    0    0  501  0.00000000000E+00  0.00000000000E+00  0.21172856482E+04  0.21172856482E+04  0.25500000920E-02 0.  1.
        2   -1    0    0  501    0  0.00000000000E+00  0.00000000000E+00 -0.94106563573E+03  0.94106563573E+03  0.25500000920E-02 0. -1.
    10030    2    1    2    0    0  0.00000000000E+00  0.00000000000E+00  0.11762200125E+04  0.30583512839E+04  0.28231222181E+04 0.  0.
        4    1    3    3  502    0 -0.16687344984E+03  0.26587039344E+02 -0.93006853683E+03  0.94529504125E+03  0.12699999809E+01 0. -1.
       -4    1    3    3    0  502  0.16687344984E+03 -0.26587039344E+02  0.21062885493E+04  0.21130562427E+04  0.12699999809E+01 0.  1.
</event>
<event>
 5   0  0.1814230E-05  0.2812900E+04  0.7818609E-02  0.8299274E-01
       -2   -1    0    0    0  501  0.00000000000E+00  0.00000000000E+00  0.11486777094E+04  0.11486777094E+04  0.25500000920E-02 0. -1.
        2   -1    0    0  501    0  0.00000000000E+00  0.00000000000E+00 -0.17220687937E+04  0.17220687937E+04  0.25500000920E-02 0.  1.
    10030    2    1    2    0    0  0.00000000000E+00  0.00000000000E+00 -0.57339108426E+03  0.28707465031E+04  0.28129003092E+04 0.  0.
        5    1    3    3  502    0  0.92780455896E+03 -0.41198917213E+03 -0.12801215249E+04  0.16337960662E+04  0.46999998093E+01 0.  1.
       -5    1    3    3    0  502 -0.92780455896E+03  0.41198917213E+03  0.70673044060E+03  0.12369504369E+04  0.46999998093E+01 0. -1.
</event>
<event>
 5   0  0.7388013E-06  0.2811325E+04  0.7818609E-02  0.8299761E-01
       -1   -1    0    0    0  501  0.00000000000E+00  0.00000000000E+00  0.72769439239E+03  0.72769439241E+03  0.50400001928E-02 0. -1.
        1   -1    0    0  501    0  0.00000000000E+00  0.00000000000E+00 -0.27152707141E+04  0.27152707141E+04  0.50400001928E-02 0.  1.
    10030    2    1    2    0    0  0.00000000000E+00  0.00000000000E+00 -0.19875763217E+04  0.34429651065E+04  0.28113251484E+04 0.  0.
        1    1    3    3  502    0 -0.35571994817E+03 -0.13819111845E+03 -0.26506153123E+04  0.26779460414E+04  0.50400001928E-02 0.  1.
       -1    1    3    3    0  502  0.35571994817E+03  0.13819111845E+03  0.66303899066E+03  0.76501906506E+03  0.50400001928E-02 0. -1.
</event>
<event>
 5   0  0.7555871E-06  0.2538983E+04  0.7818609E-02  0.8389228E-01
        1   -1    0    0  501    0  0.00000000000E+00  0.00000000000E+00  0.92409335583E+03  0.92409335585E+03  0.50400001928E-02 0. -1.
       -1   -1    0    0    0  501  0.00000000000E+00  0.00000000000E+00 -0.17439884043E+04  0.17439884043E+04  0.50400001928E-02 0.  1.
    10030    2    1    2    0    0  0.00000000000E+00  0.00000000000E+00 -0.81989504845E+03  0.26680817601E+04  0.25389825498E+04 0.  0.
        3    1    3    3  502    0  0.75316918205E+03 -0.10130727294E+04 -0.55104270133E+03  0.13773990855E+04  0.10100000352E+00 0. -1.
       -3    1    3    3    0  502 -0.75316918205E+03  0.10130727294E+04 -0.26885234711E+03  0.12906826746E+04  0.10100000352E+00 0.  1.
</event>
<event>
 5   0  0.7509685E-06  0.2796255E+04  0.7818609E-02  0.8304432E-01
       -1   -1    0    0    0  501  0.00000000000E+00  0.00000000000E+00  0.11712413962E+04  0.11712413962E+04  0.50400001928E-02 0.  1.
        1   -1    0    0  501    0  0.00000000000E+00  0.00000000000E+00 -0.16689647481E+04  0.16689647482E+04  0.50400001928E-02 0. -1.
    10030    2    1    2    0    0  0.00000000000E+00  0.00000000000E+00 -0.49772335196E+03  0.28402061444E+04  0.27962550684E+04 0.  0.
        4    1    3    3  502    0  0.71227884236E+02 -0.38352550601E+03 -0.16125716298E+04  0.16590823064E+04  0.12699999809E+01 0. -1.
       -4    1    3    3    0  502 -0.71227884236E+02  0.38352550601E+03  0.11148482778E+04  0.11811238380E+04  0.12699999809E+01 0.  1.
</event>
<event>
 5   0  0.7613444E-06  0.2814818E+04  0.7818609E-02  0.8298683E-01
        1   -1    0    0  501    0  0.00000000000E+00  0.00000000000E+00  0.14940650620E+04  0.14940650620E+04  0.50400001928E-02 0.  1.
       -1   -1    0    0    0  501  0.00000000000E+00  0.00000000000E+00 -0.13257793397E+04  0.13257793397E+04  0.50400001928E-02 0. -1.
    10030    2    1    2    0    0  0.00000000000E+00  0.00000000000E+00  0.16828572229E+03  0.28198444016E+04  0.28148183538E+04 0.  0.
        5    1    3    3  502    0  0.98982514397E+03 -0.83904159580E+03  0.63012416229E+03  0.14425058631E+04  0.46999998093E+01 0. -1.
       -5    1    3    3    0  502 -0.98982514397E+03  0.83904159580E+03 -0.46183843999E+03  0.13773385386E+04  0.46999998093E+01 0.  1.
</event>
<event>
 5   0  0.1874272E-05  0.3011241E+04  0.7818609E-02  0.8240528E-01
        2   -1    0    0  501    0  0.00000000000E+00  0.00000000000E+00  0.16307015075E+04  0.16307015075E+04  0.25500000920E-02 0.  1.
       -2   -1    0    0    0  501  0.00000000000E+00  0.00000000000E+00 -0.13901338026E+04  0.13901338026E+04  0.25500000920E-02 0. -1.
    10030    2    1    2    0    0  0.00000000000E+00  0.00000000000E+00  0.24056770484E+03  0.30208353101E+04  0.30112411312E+04 0.  0.
        3    1    3    3  502    0  0.13069274375E+04 -0.30022517572E+03 -0.56651321701E+03  0.14557237781E+04  0.10100000352E+00 0. -1.
       -3    1    3    3    0  502 -0.13069274375E+04  0.30022517572E+03  0.80708092185E+03  0.15651115320E+04  0.10100000352E+00 0.  1.
</event>
<event>
 5   0  0.7681342E-06  0.2725463E+04  0.7818609E-02  0.8326790E-01
        1   -1    0    0  501    0  0.00000000000E+00  0.00000000000E+00  0.15256166859E+04  0.15256166859E+04  0.50400001928E-02 0.  1.
       -1   -1    0    0    0  501  0.00000000000E+00  0.00000000000E+00 -0.12172371461E+04  0.12172371461E+04  0.50400001928E-02 0. -1.
    10030    2    1    2    0    0  0.00000000000E+00  0.00000000000E+00  0.30837953977E+03  0.27428538321E+04  0.27254631172E+04 0.  0.
        2    1    3    3  502    0  0.88015332722E+03 -0.73179393292E+03  0.89839805786E+03  0.14550983850E+04  0.25500000920E-02 0.  1.
       -2    1    3    3    0  502 -0.88015332722E+03  0.73179393292E+03 -0.59001851809E+03  0.12877554470E+04  0.25500000920E-02 0. -1.
</event>
<event>
 5   0  0.7509685E-06  0.2754549E+04  0.7818609E-02  0.8317520E-01
        1   -1    0    0  501    0  0.00000000000E+00  0.00000000000E+00  0.12032506135E+04  0.12032506135E+04  0.50400001928E-02 0.  1.
       -1   -1    0    0    0  501  0.00000000000E+00  0.00000000000E+00 -0.15764674263E+04  0.15764674263E+04  0.50400001928E-02 0. -1.
    10030    2    1    2    0    0  0.00000000000E+00  0.00000000000E+00 -0.37321681280E+03  0.27797180398E+04  0.27545492537E+04 0.  0.
        4    1    3    3  502    0 -0.61463905624E+03 -0.11950961988E+04 -0.49077194385E+03  0.14306973151E+04  0.12699999809E+01 0.  1.
       -4    1    3    3    0  502  0.61463905624E+03  0.11950961988E+04  0.11755513106E+03  0.13490207246E+04  0.12699999809E+01 0. -1.
</event>
<event>
 5   0  0.7555871E-06  0.2725661E+04  0.7818609E-02  0.8326727E-01
       -1   -1    0    0    0  501  0.00000000000E+00  0.00000000000E+00  0.15531809313E+04  0.15531809313E+04  0.50400001928E-02 0. -1.
        1   -1    0    0  501    0  0.00000000000E+00  0.00000000000E+00 -0.11958080968E+04  0.11958080969E+04  0.50400001928E-02 0.  1.
    10030    2    1    2    0    0  0.00000000000E+00  0.00000000000E+00  0.35737283449E+03  0.27489890282E+04  0.27256605318E+04 0.  0.
        3    1    3    3  502    0  0.12975016015E+04  0.40570169504E+03  0.27543477165E+03  0.13870719501E+04  0.10100000352E+00 0. -1.
       -3    1    3    3    0  502 -0.12975016015E+04 -0.40570169504E+03  0.81938062848E+02  0.13619170781E+04  0.10100000352E+00 0.  1.
</event>
<event>
 5   0  0.7509685E-06  0.2806824E+04  0.7818609E-02  0.8301153E-01
       -1   -1    0    0    0  501  0.00000000000E+00  0.00000000000E+00  0.13102415804E+04  0.13102415804E+04  0.50400001928E-02 0. -1.
        1   -1    0    0  501    0  0.00000000000E+00  0.00000000000E+00 -0.15032075162E+04  0.15032075162E+04  0.50400001928E-02 0.  1.
    10030    2    1    2    0    0  0.00000000000E+00  0.00000000000E+00 -0.19296593581E+03  0.28134490967E+04  0.28068238219E+04 0.  0.
        4    1    3    3  502    0  0.99982990715E+03  0.39878413884E+03  0.80612839323E+03  0.13448171742E+04  0.12699999809E+01 0. -1.
       -4    1    3    3    0  502 -0.99982990715E+03 -0.39878413884E+03 -0.99909432904E+03  0.14686319225E+04  0.12699999809E+01 0.  1.
</event>
<event>
 5   0  0.1832502E-05  0.2794744E+04  0.7818609E-02  0.8304902E-01
       -2   -1    0    0    0  501  0.00000000000E+00  0.00000000000E+00  0.70945802765E+03  0.70945802765E+03  0.25500000920E-02 0. -1.
        2   -1    0    0  501    0  0.00000000000E+00  0.00000000000E+00 -0.27523104327E+04  0.27523104327E+04  0.25500000920E-02 0.  1.
    10030    2    1    2    0    0  0.00000000000E+00  0.00000000000E+00 -0.20428524050E+04  0.34617684603E+04  0.27947441608E+04 0.  0.
        2    1    3    3  502    0  0.79078380593E+03  0.70987295809E+03  0.10255429661E+03  0.10676029356E+04  0.25500000920E-02 0. -1.
       -2    1    3    3    0  502 -0.79078380593E+03 -0.70987295809E+03 -0.21454067016E+04  0.23941655247E+04  0.25500000920E-02 0.  1.
</event>
<event>
 5   0  0.1814230E-05  0.2805607E+04  0.7818609E-02  0.8301530E-01
        2   -1    0    0  501    0  0.00000000000E+00  0.00000000000E+00  0.17107655031E+04  0.17107655031E+04  0.25500000920E-02 0.  1.
       -2   -1    0    0    0  501  0.00000000000E+00  0.00000000000E+00 -0.11502788512E+04  0.11502788512E+04  0.25500000920E-02 0. -1.
    10030    2    1    2    0    0  0.00000000000E+00  0.00000000000E+00  0.56048665184E+03  0.28610443543E+04  0.28056067990E+04 0.  0.
        5    1    3    3  502    0 -0.16140537409E+00 -0.25764950899E+03 -0.11259352204E+04  0.11550478371E+04  0.46999998093E+01 0. -1.
       -5    1    3    3    0  502  0.16140537409E+00  0.25764950899E+03  0.16864218722E+04  0.17059965172E+04  0.46999998093E+01 0.  1.
</event>
<event>
 5   0  0.1874272E-05  0.2589891E+04  0.7818609E-02  0.8371643E-01
        2   -1    0    0  501    0  0.00000000000E+00  0.00000000000E+00  0.11509160669E+04  0.11509160669E+04  0.25500000920E-02 0.  1.
       -2   -1    0    0    0  501  0.00000000000E+00  0.00000000000E+00 -0.14569991712E+04  0.14569991712E+04  0.25500000920E-02 0. -1.
    10030    2    1    2    0    0  0.00000000000E+00  0.00000000000E+00 -0.30608310437E+03  0.26079152381E+04  0.25898909286E+04 0.  0.
        3    1    3    3  502    0 -0.62674658556E+03  0.55108199191E+02 -0.12927469059E+04  0.14377213809E+04  0.10100000352E+00 0. -1.
       -3    1    3    3    0  502  0.62674658556E+03 -0.55108199191E+02  0.98666380150E+03  0.11701938572E+04  0.10100000352E+00 0.  1.
</event>
<event>
 5   0  0.1814230E-05  0.2855333E+04  0.7818609E-02  0.8286293E-01
        2   -1    0    0  501    0  0.00000000000E+00  0.00000000000E+00  0.18504535191E+04  0.18504535191E+04  0.25500000920E-02 0. -1.
       -2   -1    0    0    0  501  0.00000000000E+00  0.00000000000E+00 -0.11014768171E+04  0.11014768171E+04  0.25500000920E-02 0.  1.
    10030    2    1    2    0    0  0.00000000000E+00  0.00000000000E+00  0.74897670197E+03  0.29519303361E+04  0.28553330120E+04 0.  0.
        5    1    3    3  502    0  0.12177826629E+04 -0.67401508555E+02 -0.39268909910E+03  0.12813135432E+04  0.46999998093E+01 0.  1.
       -5    1    3    3    0  502 -0.12177826629E+04  0.67401508555E+02  0.11416658011E+04  0.16706167929E+04  0.46999998093E+01 0. -1.
</event>
<event>
 5   0  0.7509685E-06  0.2538934E+04  0.7818609E-02  0.8389245E-01
       -1   -1    0    0    0  501  0.00000000000E+00  0.00000000000E+00  0.11541501995E+04  0.11541501996E+04  0.50400001928E-02 0. -1.
        1   -1    0    0  501    0  0.00000000000E+00  0.00000000000E+00 -0.13963058333E+04  0.13963058333E+04  0.50400001928E-02 0.  1.
    10030    2    1    2    0    0  0.00000000000E+00  0.00000000000E+00 -0.24215563377E+03  0.25504560329E+04  0.25389341513E+04 0.  0.
        4    1    3    3  502    0 -0.56924861158E+03  0.34112812591E+03 -0.12081777041E+04  0.13784438174E+04  0.12699999809E+01 0.  1.
       -4    1    3    3    0  502  0.56924861158E+03 -0.34112812591E+03  0.96602207031E+03  0.11720122155E+04  0.12699999809E+01 0. -1.
</event>
<event>
 5   0  0.7613444E-06  0.2543419E+04  0.7818609E-02  0.8387679E-01
       -1   -1    0    0    0  501  0.00000000000E+00  0.00000000000E+00  0.11890337275E+04  0.11890337275E+04  0.50400001928E-02 0. -1.
        1   -1    0    0  501    0  0.00000000000E+00  0.00000000000E+00 -0.13601334675E+04  0.13601334675E+04  0.50400001928E-02 0.  1.
    10030    2    1    2    0    0  0.00000000000E+00  0.00000000000E+00 -0.17109973996E+03  0.25491671950E+04  0.25434186181E+04 0.  0.
        5    1    3    3  502    0  0.17049610947E+03 -0.16113115835E+03 -0.13382509267E+04  0.13586647145E+04  0.46999998093E+01 0.  1.
       -5    1    3    3    0  502 -0.17049610947E+03  0.16113115835E+03  0.11671511867E+04  0.11905024806E+04  0.46999998093E+01 0. -1.
</event>
<event>
 5   0  0.7555871E-06  0.2840319E+04  0.7818609E-02  0.8290859E-01
       -1   -1    0    0    0  501  0.00000000000E+00  0.00000000000E+00  0.13691188300E+04  0.13691188300E+04  0.50400001928E-02 0. -1.
        1   -1    0    0  501    0  0.00000000000E+00  0.00000000000E+00 -0.14731030888E+04  0.14731030888E+04  0.50400001928E-02 0.  1.
    10030    2    1    2    0    0  0.00000000000E+00  0.00000000000E+00 -0.10398425878E+03  0.28422219188E+04  0.28403191211E+04 0.  0.
        3    1    3    3  502    0  0.89318310237E+03 -0.27335871312E+03  0.10184684715E+04  0.13819475670E+04  0.10100000352E+00 0. -1.
       -3    1    3    3    0  502 -0.89318310237E+03  0.27335871312E+03 -0.11224527303E+04  0.14602743517E+04  0.10100000352E+00 0.  1.
</event>
<event>
 5   0  0.7613444E-06  0.2820552E+04  0.7818609E-02  0.8296916E-01
        1   -1    0    0  501    0  0.00000000000E+00  0.00000000000E+00  0.19892257683E+04  0.19892257683E+04  0.50400001928E-02 0.  1.
       -1   -1    0    0    0  501  0.00000000000E+00  0.00000000000E+00 -0.99982535365E+03  0.99982535367E+03  0.50400001928E-02 0. -1.
    10030    2    1    2    0    0  0.00000000000E+00  0.00000000000E+00  0.98940041466E+03  0.29890511220E+04  0.28205519725E+04 0.  0.
        5    1    3    3  502    0 -0.10353398737E+04 -0.45013012466E+03 -0.40095890459E+03  0.11980550556E+04  0.46999998093E+01 0. -1.
       -5    1    3    3    0  502  0.10353398737E+04  0.45013012466E+03  0.13903593193E+04  0.17909960664E+04  0.46999998093E+01 0.  1.
</event>
<event>
 5   0  0.1832502E-05  0.2625216E+04  0.7818609E-02  0.8359686E-01
       -2   -1    0    0    0  501  0.00000000000E+00  0.00000000000E+00  0.92364319797E+03  0.92364319798E+03  0.25500000920E-02 0. -1.
        2   -1    0    0  501    0  0.00000000000E+00  0.00000000000E+00 -0.18653741911E+04  0.18653741911E+04  0.25500000920E-02 0.  1.
    10030    2    1    2    0    0  0.00000000000E+00  0.00000000000E+00 -0.94173099308E+03  0.27890173890E+04  0.26252163212E+04 0.  0.
        2    1    3    3  502    0 -0.49462927854E+03  0.12147295311E+04 -0.52621441729E+03  0.14131976401E+04  0.25500000920E-02 0.  1.
       -2    1    3    3    0  502  0.49462927854E+03 -0.12147295311E+04 -0.41551657579E+03  0.13758197490E+04  0.25500000920E-02 0. -1.
</event>
<event>
 5   0  0.1874272E-05  0.3081244E+04  0.7818609E-02  0.8220904E-01
        2   -1    0    0  501    0  0.00000000000E+00  0.00000000000E+00  0.16161222693E+04  0.16161222693E+04  0.25500000920E-02 0. -1.
       -2   -1    0    0    0  501  0.00000000000E+00  0.00000000000E+00 -0.14686489245E+04  0.14686489245E+04  0.25500000920E-02 0.  1.
    10030    2    1    2    0    0  0.00000000000E+00  0.00000000000E+00  0.14747334483E+03  0.30847711938E+04  0.30812440557E+04 0.  0.
        3    1    3    3  502    0 -0.36163558168E+03 -0.85218179760E+03 -0.11591445314E+04  0.14834453697E+04  0.10100000352E+00 0.  1.
       -3    1    3    3    0  502  0.36163558168E+03  0.85218179760E+03  0.13066178762E+04  0.16013258241E+04  0.10100000352E+00 0. -1.
</event>
<event>
 5   0  0.1874272E-05  0.2814309E+04  0.7818609E-02  0.8298840E-01
        2   -1    0    0  501    0  0.00000000000E+00  0.00000000000E+00  0.12236143371E+04  0.12236143371E+04  0.25500000920E-02 0.  1.
       -2   -1    0    0    0  501  0.00000000000E+00  0.00000000000E+00 -0.16182255896E+04  0.16182255896E+04  0.25500000920E-02 0. -1.
    10030    2    1    2    0    0  0.00000000000E+00  0.00000000000E+00 -0.39461125253E+03  0.28418399268E+04  0.28143091743E+04 0.  0.
        3    1    3    3  502    0  0.95196258853E+03 -0.69140351532E+03 -0.97674543906E+03  0.15291511547E+04  0.10100000352E+00 0. -1.
       -3    1    3    3    0  502 -0.95196258853E+03  0.69140351532E+03  0.58213418653E+03  0.13126887721E+04  0.10100000352E+00 0.  1.
</event>
<event>
 5   0  0.7681342E-06  0.2811143E+04  0.7818609E-02  0.8299817E-01
        1   -1    0    0  501    0  0.00000000000E+00  0.00000000000E+00  0.17998018739E+04  0.17998018739E+04  0.50400001928E-02 0.  1.
       -1   -1    0    0    0  501  0.00000000000E+00  0.00000000000E+00 -0.10976937604E+04  0.10976937604E+04  0.50400001928E-02 0. -1.
    10030    2    1    2    0    0  0.00000000000E+00  0.00000000000E+00  0.70210811349E+03  0.28974956344E+04  0.28111430323E+04 0.  0.
        2    1    3    3  502    0 -0.12412982063E+04  0.46501154477E+03 -0.13082650544E+03  0.13319806861E+04  0.25500000920E-02 0. -1.
       -2    1    3    3    0  502  0.12412982063E+04 -0.46501154477E+03  0.83293461892E+03  0.15655149482E+04  0.25500000920E-02 0.  1.
</event>
<event>
 5   0  0.1923559E-05  0.2765933E+04  0.7818609E-02  0.8313924E-01
       -2   -1    0    0    0  501  0.00000000000E+00  0.00000000000E+00  0.11630885929E+04  0.11630885929E+04  0.25500000920E-02 0. -1.
        2   -1    0    0  501    0  0.00000000000E+00  0.00000000000E+00 -0.16444110036E+04  0.16444110036E+04  0.25500000920E-02 0.  1.
    10030    2    1    2    0    0  0.00000000000E+00  0.00000000000E+00 -0.48132241072E+03  0.28074995966E+04  0.27659325230E+04 0.  0.
        4    1    3    3  502    0  0.53555377934E+03 -0.12092494812E+04 -0.65107906776E+03  0.14741125207E+04  0.12699999809E+01 0.  1.
       -4    1    3    3    0  502 -0.53555377934E+03  0.12092494812E+04  0.16975665704E+03  0.13333870758E+04  0.12699999809E+01 0. -1.
</event>
<event>
 5   0  0.1874272E-05  0.2973538E+04  0.7818609E-02  0.8251328E-01
        2   -1    0    0  501    0  0.00000000000E+00  0.00000000000E+00  0.16858566356E+04  0.16858566356E+04  0.25500000920E-02 0. -1.
       -2   -1    0    0    0  501  0.00000000000E+00  0.00000000000E+00 -0.13111925916E+04  0.13111925916E+04  0.25500000920E-02 0.  1.
    10030    2    1    2    0    0  0.00000000000E+00  0.00000000000E+00  0.37466404401E+03  0.29970492272E+04  0.29735384518E+04 0.  0.
        3    1    3    3  502    0  0.11774622508E+04 -0.85220565244E+03  0.50255214462E+03  0.15379305882E+04  0.10100000352E+00 0. -1.
       -3    1    3    3    0  502 -0.11774622508E+04  0.85220565244E+03 -0.12788810061E+03  0.14591186389E+04  0.10100000352E+00 0.  1.
</event>
<event>
 5   0  0.1874272E-05  0.1755998E+04  0.7818609E-02  0.8730056E-01
        2   -1    0    0  501    0  0.00000000000E+00  0.00000000000E+00  0.16737064371E+04  0.16737064371E+04  0.25500000920E-02 0.  1.
       -2   -1    0    0    0  501  0.00000000000E+00  0.00000000000E+00 -0.46058372209E+03  0.46058372210E+03  0.25500000920E-02 0. -1.
    10030    2    1    2    0    0  0.00000000000E+00  0.00000000000E+00  0.12131227151E+04  0.21342901592E+04  0.17559976543E+04 0.  0.
        3    1    3    3  502    0 -0.86894356777E+03 -0.12292302835E+03  0.57419954205E+03  0.10487507422E+04  0.10100000352E+00 0.  1.
       -3    1    3    3    0  502  0.86894356777E+03  0.12292302835E+03  0.63892317300E+03  0.10855394171E+04  0.10100000352E+00 0. -1.
</event>
<event>
 5   0  0.1874272E-05  0.2756349E+04  0.7818609E-02  0.8316950E-01
       -2   -1    0    0    0  501  0.00000000000E+00  0.00000000000E+00  0.90930926629E+03  0.90930926629E+03  0.25500000920E-02 0.  1.
        2   -1    0    0  501    0  0.00000000000E+00  0.00000000000E+00 -0.20888002810E+04  0.20888002810E+04  0.25500000920E-02 0. -1.
    10030    2    1    2    0    0  0.00000000000E+00  0.00000000000E+00 -0.11794910148E+04  0.29981095473E+04  0.27563493617E+04 0.  0.
        3    1    3    3  502    0  0.40310228584E+03  0.18728832402E+03  0.82920458534E+03  0.94082337541E+03  0.10100000352E+00 0.  1.
       -3    1    3    3    0  502 -0.40310228584E+03 -0.18728832402E+03 -0.20086956001E+04  0.20572861719E+04  0.10100000352E+00 0. -1.
</event>
<event>
 5   0  0.1814230E-05  0.2774389E+04  0.7818609E-02  0.8311264E-01
       -2   -1    0    0    0  501  0.00000000000E+00  0.00000000000E+00  0.10763602643E+04  0.10763602643E+04  0.25500000920E-02 0. -1.
        2   -1    0    0  501    0  0.00000000000E+00  0.00000000000E+00 -0.17877927991E+04  0.17877927991E+04  0.25500000920E-02 0.  1.
    10030    2    1    2    0    0  0.00000000000E+00  0.00000000000E+00 -0.71143253477E+03  0.28641530634E+04  0.27743893957E+04 0.  0.
        5    1    3    3  502    0 -0.10389332861E+04 -0.87411343080E+03 -0.62210858272E+02  0.13591721539E+04  0.46999998093E+01 0. -1.
       -5    1    3    3    0  502  0.10389332861E+04  0.87411343080E+03 -0.64922167650E+03  0.15049809096E+04  0.46999998093E+01 0.  1.
</event>
<event>
 5   0  0.7555871E-06  0.1986583E+04  0.7818609E-02  0.8612919E-01
        1   -1    0    0  501    0  0.00000000000E+00  0.00000000000E+00  0.64758926493E+03  0.64758926495E+03  0.50400001928E-02 0. -1.
       -1   -1    0    0    0  501  0.00000000000E+00  0.00000000000E+00 -0.15235400277E+04  0.15235400277E+04  0.50400001928E-02 0.  1.
    10030    2    1    2    0    0  0.00000000000E+00  0.00000000000E+00 -0.87595076274E+03  0.21711292926E+04  0.19865831638E+04 0.  0.
        3    1    3    3  502    0 -0.61587062742E+03 -0.72456627387E+03 -0.75157232267E+03  0.12120865816E+04  0.10100000352E+00 0.  1.
       -3    1    3    3    0  502  0.61587062742E+03  0.72456627387E+03 -0.12437844007E+03  0.95904271100E+03  0.10100000352E+00 0. -1.
</event>
<event>
 5   0  0.7681342E-06  0.2779403E+04  0.7818609E-02  0.8309692E-01
       -1   -1    0    0    0  501  0.00000000000E+00  0.00000000000E+00  0.14448945714E+04  0.14448945714E+04  0.50400001928E-02 0.  1.
        1   -1    0    0  501    0  0.00000000000E+00  0.00000000000E+00 -0.13366166371E+04  0.13366166371E+04  0.50400001928E-02 0. -1.
    10030    2    1    2    0    0  0.00000000000E+00  0.00000000000E+00  0.10827793431E+03  0.27815112085E+04  0.27794029021E+04 0.  0.
        2    1    3    3  502    0 -0.95729133085E+03  0.29645190196E+03  0.10176671445E+04  0.14282635749E+04  0.25500000920E-02 0.  1.
       -2    1    3    3    0  502  0.95729133085E+03 -0.29645190196E+03 -0.90938921020E+03  0.13532476336E+04  0.25500000920E-02 0. -1.
</event>
<event>
 5   0  0.7509685E-06  0.2723534E+04  0.7818609E-02  0.8327409E-01
       -1   -1    0    0    0  501  0.00000000000E+00  0.00000000000E+00  0.14611625794E+04  0.14611625794E+04  0.50400001928E-02 0.  1.
        1   -1    0    0  501    0  0.00000000000E+00  0.00000000000E+00 -0.12691327364E+04  0.12691327364E+04  0.50400001928E-02 0. -1.
    10030    2    1    2    0    0  0.00000000000E+00  0.00000000000E+00  0.19202984299E+03  0.27302953158E+04  0.27235339269E+04 0.  0.
        4    1    3    3  502    0 -0.12674421594E+04 -0.24275815342E+03 -0.33988232749E+03  0.13344896995E+04  0.12699999809E+01 0. -1.
       -4    1    3    3    0  502  0.12674421594E+04  0.24275815342E+03  0.53191217048E+03  0.13958056163E+04  0.12699999809E+01 0.  1.
</event>
<event>
 5   0  0.1874272E-05  0.2738148E+04  0.7818609E-02  0.8322733E-01
       -2   -1    0    0    0  501  0.00000000000E+00  0.00000000000E+00  0.23731426596E+04  0.23731426596E+04  0.25500000920E-02 0.  1.
        2   -1    0    0  501    0  0.00000000000E+00  0.00000000000E+00 -0.78982312792E+03  0.78982312793E+03  0.25500000920E-02 0. -1.
    10030    2    1    2    0    0  0.00000000000E+00  0.00000000000E+00  0.15833195316E+04  0.31629657875E+04  0.27381475186E+04 0.  0.
        3    1    3    3  502    0 -0.10400685741E+04  0.88268718913E+03  0.65752506240E+03  0.15143376541E+04  0.10100000352E+00 0. -1.
       -3    1    3    3    0  502  0.10400685741E+04 -0.88268718913E+03  0.92579446924E+03  0.16486281334E+04  0.10100000352E+00 0.  1.
</event>
<event>
 5   0  0.1874272E-05  0.2773029E+04  0.7818609E-02  0.8311691E-01
       -2   -1    0    0    0  501  0.00000000000E+00  0.00000000000E+00  0.13857119115E+04  0.13857119115E+04  0.25500000920E-02 0.  1.
        2   -1    0    0  501    0  0.00000000000E+00  0.00000000000E+00 -0.13873171431E+04  0.13873171432E+04  0.25500000920E-02 0. -1.
    10030    2    1    2    0    0  0.00000000000E+00  0.00000000000E+00 -0.16052316171E+01  0.27730290547E+04  0.27730285901E+04 0.  0.
        3    1    3    3  502    0  0.75705119771E+03  0.40638423926E+03 -0.10889880830E+04  0.13871444485E+04  0.10100000352E+00 0. -1.
       -3    1    3    3    0  502 -0.75705119771E+03 -0.40638423926E+03  0.10873828514E+04  0.13858846062E+04  0.10100000352E+00 0.  1.
</event>
<event>
 5   0  0.1904553E-05  0.2780308E+04  0.7818609E-02  0.8309408E-01
        2   -1    0    0  501    0  0.00000000000E+00  0.00000000000E+00  0.15739297828E+04  0.15739297828E+04  0.25500000920E-02 0. -1.
       -2   -1    0    0    0  501  0.00000000000E+00  0.00000000000E+00 -0.12278362339E+04  0.12278362339E+04  0.25500000920E-02 0.  1.
    10030    2    1    2    0    0  0.00000000000E+00  0.00000000000E+00  0.34609354890E+03  0.28017660167E+04  0.27803079088E+04 0.  0.
        1    1    3    3  502    0 -0.50075759917E+02 -0.13812590247E+04  0.23089880936E+02  0.13823592939E+04  0.50400001928E-02 0. -1.
       -1    1    3    3    0  502  0.50075759917E+02  0.13812590247E+04  0.32300366797E+03  0.14194067227E+04  0.50400001928E-02 0.  1.
</event>
<event>
 5   0  0.7388013E-06  0.2798235E+04  0.7818609E-02  0.8303817E-01
        1   -1    0    0  501    0  0.00000000000E+00  0.00000000000E+00  0.26596971452E+04  0.26596971452E+04  0.50400001928E-02 0. -1.
       -1   -1    0    0    0  501  0.00000000000E+00  0.00000000000E+00 -0.73599717697E+03  0.73599717699E+03  0.50400001928E-02 0.  1.
    10030    2    1    2    0    0  0.00000000000E+00  0.00000000000E+00  0.19236999682E+04  0.33956943222E+04  0.27982348654E+04 0.  0.
        1    1    3    3  502    0 -0.24199251850E+03  0.99160256206E+03 -0.19938338543E+03  0.10399950743E+04  0.50400001928E-02 0.  1.
       -1    1    3    3    0  502  0.24199251850E+03 -0.99160256206E+03  0.21230833536E+04  0.23556992479E+04  0.50400001928E-02 0. -1.
</event>
<event>
 5   0  0.1832502E-05  0.2794796E+04  0.7818609E-02  0.8304886E-01
       -2   -1    0    0    0  501  0.00000000000E+00  0.00000000000E+00  0.11470914987E+04  0.11470914987E+04  0.25500000920E-02 0.  1.
        2   -1    0    0  501    0  0.00000000000E+00  0.00000000000E+00 -0.17023235623E+04  0.17023235623E+04  0.25500000920E-02 0. -1.
    10030    2    1    2    0    0  0.00000000000E+00  0.00000000000E+00 -0.55523206357E+03  0.28494150610E+04  0.27947957967E+04 0.  0.
        2    1    3    3  502    0  0.78229301109E+03 -0.41209713167E+03  0.82561945609E+03  0.12097329819E+04  0.25500000920E-02 0.  1.
       -2    1    3    3    0  502 -0.78229301109E+03  0.41209713167E+03 -0.13808515197E+04  0.16396820791E+04  0.25500000920E-02 0. -1.
</event>
<event>
 5   0  0.1874272E-05  0.2124133E+04  0.7818609E-02  0.8550687E-01
       -2   -1    0    0    0  501  0.00000000000E+00  0.00000000000E+00  0.73789866471E+03  0.73789866472E+03  0.25500000920E-02 0.  1.
        2   -1    0    0  501    0  0.00000000000E+00  0.00000000000E+00 -0.15286450445E+04  0.15286450445E+04  0.25500000920E-02 0. -1.
    10030    2    1    2    0    0  0.00000000000E+00  0.00000000000E+00 -0.79074637980E+03  0.22665437092E+04  0.21241328934E+04 0.  0.
        3    1    3    3  502    0  0.10156096955E+04 -0.29453514575E+03 -0.50084942373E+03  0.11700701523E+04  0.10100000352E+00 0.  1.
       -3    1    3    3    0  502 -0.10156096955E+04  0.29453514575E+03 -0.28989695607E+03  0.10964735570E+04  0.10100000352E+00 0. -1.
</event>
<event>
 5   0  0.7388013E-06  0.2720199E+04  0.7818609E-02  0.8328481E-01
       -1   -1    0    0    0  501  0.00000000000E+00  0.00000000000E+00  0.87588372725E+03  0.87588372726E+03  0.50400001928E-02 0.  1.
        1   -1    0    0  501    0  0.00000000000E+00  0.00000000000E+00 -0.21120043666E+04  0.21120043666E+04  0.50400001928E-02 0. -1.
    10030    2    1    2    0    0  0.00000000000E+00  0.00000000000E+00 -0.12361206393E+04  0.29878880938E+04  0.27201987108E+04 0.  0.
        1    1    3    3  502    0 -0.31447178657E+03 -0.94959167675E+03 -0.16302976374E+04  0.19127172409E+04  0.50400001928E-02 0. -1.
       -1    1    3    3    0  502  0.31447178657E+03  0.94959167675E+03  0.39417699810E+03  0.10751708529E+04  0.50400001928E-02 0.  1.
</event>
<event>
 5   0  0.1923559E-05  0.2673561E+04  0.7818609E-02  0.8343635E-01
       -2   -1    0    0    0  501  0.00000000000E+00  0.00000000000E+00  0.14670818462E+04  0.14670818462E+04  0.25500000920E-02 0.  1.
        2   -1    0    0  501    0  0.00000000000E+00  0.00000000000E+00 -0.12180523280E+04  0.12180523280E+04  0.25500000920E-02 0. -1.
    10030    2    1    2    0    0  0.00000000000E+00  0.00000000000E+00  0.24902951816E+03  0.26851341742E+04  0.26735612640E+04 0.  0.
        4    1    3    3  502    0 -0.10187915872E+04  0.23511747277E+03 -0.71201584153E+03  0.12649840693E+04  0.12699999809E+01 0. -1.
       -4    1    3    3    0  502  0.10187915872E+04 -0.23511747277E+03  0.96104535968E+03  0.14201501049E+04  0.12699999809E+01 0.  1.
</event>
<event>
 5   0  0.6288000E-06  0.2797349E+04  0.7818609E-02  0.8304092E-01
       -3   -1    0    0    0  501  0.00000000000E+00  0.00000000000E+00  0.82090027178E+03  0.82090027799E+03  0.10100000352E+00 0.  1.
        3   -1    0    0  501    0  0.00000000000E+00  0.00000000000E+00 -0.23831041374E+04  0.23831041395E+04  0.10100000352E+00 0. -1.
    10030    2    1    2    0    0  0.00000000000E+00  0.00000000000E+00 -0.15622038656E+04  0.32040044175E+04  0.27973493507E+04 0.  0.
        3    1    3    3  502    0  0.54817485731E+03 -0.12233912064E+04 -0.32423057237E+03  0.13792415280E+04  0.10100000352E+00 0.  1.
       -3    1    3    3    0  502 -0.54817485731E+03  0.12233912064E+04 -0.12379732933E+04  0.18247628896E+04  0.10100000352E+00 0. -1.
</event>
<event>
 5   0  0.1814230E-05  0.2856814E+04  0.7818609E-02  0.8285844E-01
       -2   -1    0    0    0  501  0.00000000000E+00  0.00000000000E+00  0.18160601253E+04  0.18160601253E+04  0.25500000920E-02 0. -1.
        2   -1    0    0  501    0  0.00000000000E+00  0.00000000000E+00 -0.11235016194E+04  0.11235016194E+04  0.25500000920E-02 0.  1.
    10030    2    1    2    0    0  0.00000000000E+00  0.00000000000E+00  0.69255850590E+03  0.29395617446E+04  0.28568139538E+04 0.  0.
        5    1    3    3  502    0 -0.81039800718E+03 -0.56168036880E+03  0.14097008966E+04  0.17203222008E+04  0.46999998093E+01 0. -1.
       -5    1    3    3    0  502  0.81039800718E+03  0.56168036880E+03 -0.71714239069E+03  0.12192395438E+04  0.46999998093E+01 0.  1.
</event>
<event>
 5   0  0.1923559E-05  0.2588249E+04  0.7818609E-02  0.8372204E-01
       -2   -1    0    0    0  501  0.00000000000E+00  0.00000000000E+00  0.12213649699E+04  0.12213649699E+04  0.25500000920E-02 0.  1.
        2   -1    0    0  501    0  0.00000000000E+00  0.00000000000E+00 -0.13712184273E+04  0.13712184273E+04  0.25500000920E-02 0. -1.
    10030    2    1    2    0    0  0.00000000000E+00  0.00000000000E+00 -0.14985345739E+03  0.25925833972E+04  0.25882489472E+04 0.  0.
        4    1    3    3  502    0 -0.17096607435E+03 -0.11910932101E+04  0.40213139303E+03  0.12687173459E+04  0.12699999809E+01 0.  1.
       -4    1    3    3    0  502  0.17096607435E+03  0.11910932101E+04 -0.55198485042E+03  0.13238660513E+04  0.12699999809E+01 0. -1.
</event>
<event>
 5   0  0.1874272E-05  0.2792385E+04  0.7818609E-02  0.8305636E-01
        2   -1    0    0  501    0  0.00000000000E+00  0.00000000000E+00  0.18400946806E+04  0.18400946806E+04  0.25500000920E-02 0.  1.
       -2   -1    0    0    0  501  0.00000000000E+00  0.00000000000E+00 -0.10593766831E+04  0.10593766831E+04  0.25500000920E-02 0. -1.
    10030    2    1    2    0    0  0.00000000000E+00  0.00000000000E+00  0.78071799752E+03  0.28994713637E+04  0.27923849300E+04 0.  0.
        3    1    3    3  502    0 -0.24573822131E+03 -0.13173872017E+04 -0.16399839764E+02  0.13402109078E+04  0.10100000352E+00 0. -1.
       -3    1    3    3    0  502  0.24573822131E+03  0.13173872017E+04  0.79711783729E+03  0.15592604559E+04  0.10100000352E+00 0.  1.
</event>
<event>
 5   0  0.1874272E-05  0.2737034E+04  0.7818609E-02  0.8323088E-01
        2   -1    0    0  501    0  0.00000000000E+00  0.00000000000E+00  0.13048683980E+04  0.13048683980E+04  0.25500000920E-02 0. -1.
       -2   -1    0    0    0  501  0.00000000000E+00  0.00000000000E+00 -0.14352701863E+04  0.14352701863E+04  0.25500000920E-02 0.  1.
    10030    2    1    2    0    0  0.00000000000E+00  0.00000000000E+00 -0.13040178828E+03  0.27401385842E+04  0.27370339483E+04 0.  0.
        3    1    3    3  502    0  0.10041853782E+04  0.52657611271E+03  0.70193718649E+03  0.13335615848E+04  0.10100000352E+00 0. -1.
       -3    1    3    3    0  502 -0.10041853782E+04 -0.52657611271E+03 -0.83233897477E+03  0.14065769995E+04  0.10100000352E+00 0.  1.
</event>
<event>
 5   0  0.1832502E-05  0.2940302E+04  0.7818609E-02  0.8260986E-01
       -2   -1    0    0    0  501  0.00000000000E+00  0.00000000000E+00  0.13210334313E+04  0.13210334313E+04  0.25500000920E-02 0.  1.
        2   -1    0    0  501    0  0.00000000000E+00  0.00000000000E+00 -0.16361014137E+04  0.16361014137E+04  0.25500000920E-02 0. -1.
    10030    2    1    2    0    0  0.00000000000E+00  0.00000000000E+00 -0.31506798241E+03  0.29571348450E+04  0.29403024773E+04 0.  0.
        2    1    3    3  502    0 -0.12946082077E+04 -0.59220136519E+03  0.21148858700E+03  0.14392499056E+04  0.25500000920E-02 0. -1.
       -2    1    3    3    0  502  0.12946082077E+04  0.59220136519E+03 -0.52655656941E+03  0.15178849394E+04  0.25500000920E-02 0.  1.
</event>
<event>
 5   0  0.1874272E-05  0.2745283E+04  0.7818609E-02  0.8320460E-01
       -2   -1    0    0    0  501  0.00000000000E+00  0.00000000000E+00  0.23579390806E+04  0.23579390806E+04  0.25500000920E-02 0. -1.
        2   -1    0    0  501    0  0.00000000000E+00  0.00000000000E+00 -0.79906418883E+03  0.79906418883E+03  0.25500000920E-02 0.  1.
    10030    2    1    2    0    0  0.00000000000E+00  0.00000000000E+00  0.15588748918E+04  0.31570032694E+04  0.27452829936E+04 0.  0.
        3    1    3    3  502    0  0.10729616092E+04  0.18202185363E+03 -0.18253882891E+03  0.11034939983E+04  0.10100000352E+00 0.  1.
       -3    1    3    3    0  502 -0.10729616092E+04 -0.18202185363E+03  0.17414137207E+04  0.20535092712E+04  0.10100000352E+00 0. -1.
</event>
<event>
 5   0  0.7613444E-06  0.2853523E+04  0.7818609E-02  0.8286842E-01
       -1   -1    0    0    0  501  0.00000000000E+00  0.00000000000E+00  0.16147027783E+04  0.16147027783E+04  0.50400001928E-02 0.  1.
        1   -1    0    0  501    0  0.00000000000E+00  0.00000000000E+00 -0.12606956526E+04  0.12606956526E+04  0.50400001928E-02 0. -1.
    10030    2    1    2    0    0  0.00000000000E+00  0.00000000000E+00  0.35400712570E+03  0.28753984309E+04  0.28535232768E+04 0.  0.
        5    1    3    3  502    0  0.76474851551E+03 -0.84008422575E+03  0.10467803852E+04  0.15447825294E+04  0.46999998093E+01 0.  1.
       -5    1    3    3    0  502 -0.76474851551E+03  0.84008422575E+03 -0.69277325947E+03  0.13306159015E+04  0.46999998093E+01 0. -1.
</event>
<event>
 5   0  0.1904553E-05  0.2824234E+04  0.7818609E-02  0.8295784E-01
        2   -1    0    0  501    0  0.00000000000E+00  0.00000000000E+00  0.23846245226E+04  0.23846245226E+04  0.25500000920E-02 0.  1.
       -2   -1    0    0    0  501  0.00000000000E+00  0.00000000000E+00 -0.83622142629E+03  0.83622142629E+03  0.25500000920E-02 0. -1.
    10030    2    1    2    0    0  0.00000000000E+00  0.00000000000E+00  0.15484030963E+04  0.32208459489E+04  0.28242337860E+04 0.  0.
        1    1    3    3  502    0 -0.52453142058E+03  0.39414951193E+03 -0.65183397598E+03  0.92486462858E+03  0.50400001928E-02 0. -1.
       -1    1    3    3    0  502  0.52453142058E+03 -0.39414951193E+03  0.22002370723E+04  0.22959813203E+04  0.50400001928E-02 0.  1.
</event>
<event>
 5   0  0.7555871E-06  0.2641931E+04  0.7818609E-02  0.8354096E-01
        1   -1    0    0  501    0  0.00000000000E+00  0.00000000000E+00  0.15177598007E+04  0.15177598007E+04  0.50400001928E-02 0.  1.
       -1   -1    0    0    0  501  0.00000000000E+00  0.00000000000E+00 -0.11496877012E+04  0.11496877012E+04  0.50400001928E-02 0. -1.
    10030    2    1    2    0    0  0.00000000000E+00  0.00000000000E+00  0.36807209944E+03  0.26674475019E+04  0.26419309425E+04 0.  0.
        3    1    3    3  502    0 -0.68183093812E+03 -0.39407966866E+03  0.12548249939E+04  0.14814783120E+04  0.10100000352E+00 0.  1.
       -3    1    3    3    0  502  0.68183093812E+03  0.39407966866E+03 -0.88675289446E+03  0.11859691899E+04  0.10100000352E+00 0. -1.
</event>
<event>
 5   0  0.1923559E-05  0.2934829E+04  0.7818609E-02  0.8262590E-01
       -2   -1    0    0    0  501  0.00000000000E+00  0.00000000000E+00  0.11809763013E+04  0.11809763013E+04  0.25500000920E-02 0.  1.
        2   -1    0    0  501    0  0.00000000000E+00  0.00000000000E+00 -0.18233262068E+04  0.18233262068E+04  0.25500000920E-02 0. -1.
    10030    2    1    2    0    0  0.00000000000E+00  0.00000000000E+00 -0.64234990547E+03  0.30043025082E+04  0.29348288126E+04 0.  0.
        4    1    3    3  502    0 -0.11866252227E+04 -0.32945843863E+03 -0.11379865222E+04  0.16767937320E+04  0.12699999809E+01 0. -1.
       -4    1    3    3    0  502  0.11866252227E+04  0.32945843863E+03  0.49563661674E+03  0.13275087762E+04  0.12699999809E+01 0.  1.
</event>
<event>
 5   0  0.1923559E-05  0.2783834E+04  0.7818609E-02  0.8308305E-01
       -2   -1    0    0    0  501  0.00000000000E+00  0.00000000000E+00  0.77852637722E+03  0.77852637723E+03  0.25500000920E-02 0. -1.
        2   -1    0    0  501    0  0.00000000000E+00  0.00000000000E+00 -0.24885895942E+04  0.24885895942E+04  0.25500000920E-02 0.  1.
    10030    2    1    2    0    0  0.00000000000E+00  0.00000000000E+00 -0.17100632170E+04  0.32671159715E+04  0.27838337890E+04 0.  0.
        4    1    3    3  502    0 -0.86417402839E+03 -0.55320093348E+03 -0.19588444796E+04  0.22113121291E+04  0.12699999809E+01 0.  1.
       -4    1    3    3    0  502  0.86417402839E+03  0.55320093348E+03  0.24878126255E+03  0.10558038424E+04  0.12699999809E+01 0. -1.
</event>
<event>
 5   0  0.1923559E-05  0.2786228E+04  0.7818609E-02  0.8307557E-01
       -2   -1    0    0    0  501  0.00000000000E+00  0.00000000000E+00  0.98767722216E+03  0.98767722216E+03  0.25500000920E-02 0.  1.
        2   -1    0    0  501    0  0.00000000000E+00  0.00000000000E+00 -0.19649800843E+04  0.19649800843E+04  0.25500000920E-02 0. -1.
    10030    2    1    2    0    0  0.00000000000E+00  0.00000000000E+00 -0.97730286217E+03  0.29526573065E+04  0.27862276083E+04 0.  0.
        4    1    3    3  502    0  0.24846159207E+03 -0.30640812297E+03 -0.19045535956E+04  0.19449794631E+04  0.12699999809E+01 0. -1.
       -4    1    3    3    0  502 -0.24846159207E+03  0.30640812297E+03  0.92725073341E+03  0.10076778434E+04  0.12699999809E+01 0.  1.
</event>
<event>
 5   0  0.1904553E-05  0.2812394E+04  0.7818609E-02  0.8299431E-01
       -2   -1    0    0    0  501  0.00000000000E+00  0.00000000000E+00  0.92766918228E+03  0.92766918228E+03  0.25500000920E-02 0.  1.
        2   -1    0    0  501    0  0.00000000000E+00  0.00000000000E+00 -0.21315686641E+04  0.21315686641E+04  0.25500000920E-02 0. -1.
    10030    2    1    2    0    0  0.00000000000E+00  0.00000000000E+00 -0.12038994818E+04  0.30592378463E+04  0.28123943959E+04 0.  0.
        1    1    3    3  502    0 -0.92531457502E+03 -0.92086289370E+03 -0.33393521103E+02  0.13058754378E+04  0.50400001928E-02 0. -1.
       -1    1    3    3    0  502  0.92531457502E+03  0.92086289370E+03 -0.11705059607E+04  0.17533624086E+04  0.50400001928E-02 0.  1.
</event>
<event>
 5   0  0.7509685E-06  0.2743503E+04  0.7818609E-02  0.8321026E-01
        1   -1    0    0  501    0  0.00000000000E+00  0.00000000000E+00  0.16263975057E+04  0.16263975057E+04  0.50400001928E-02 0. -1.
       -1   -1    0    0    0  501  0.00000000000E+00  0.00000000000E+00 -0.11569758483E+04  0.11569758483E+04  0.50400001928E-02 0.  1.
    10030    2    1    2    0    0  0.00000000000E+00  0.00000000000E+00  0.46942165735E+03  0.27833733540E+04  0.27435033325E+04 0.  0.
        4    1    3    3  502    0  0.11810088460E+04  0.20164544899E+03  0.91244455346E+03  0.15059878677E+04  0.12699999809E+01 0. -1.
       -4    1    3    3    0  502 -0.11810088460E+04 -0.20164544899E+03 -0.44302289611E+03  0.12773854864E+04  0.12699999809E+01 0.  1.
</event>
<event>
 5   0  0.7613444E-06  0.2723601E+04  0.7818609E-02  0.8327388E-01
        1   -1    0    0  501    0  0.00000000000E+00  0.00000000000E+00  0.16019407543E+04  0.16019407543E+04  0.50400001928E-02 0. -1.
       -1   -1    0    0    0  501  0.00000000000E+00  0.00000000000E+00 -0.11576582745E+04  0.11576582745E+04  0.50400001928E-02 0.  1.
    10030    2    1    2    0    0  0.00000000000E+00  0.00000000000E+00  0.44428247980E+03  0.27595990288E+04  0.27236005357E+04 0.  0.
        5    1    3    3  502    0 -0.91195365414E+03  0.88297867100E+03 -0.27749618484E+03  0.12993602362E+04  0.46999998093E+01 0.  1.
       -5    1    3    3    0  502  0.91195365414E+03 -0.88297867100E+03  0.72177866464E+03  0.14602387926E+04  0.46999998093E+01 0. -1.
</event>
<event>
 5   0  0.1923559E-05  0.2982045E+04  0.7818609E-02  0.8248877E-01
       -2   -1    0    0    0  501  0.00000000000E+00  0.00000000000E+00  0.11655115740E+04  0.11655115740E+04  0.25500000920E-02 0.  1.
        2   -1    0    0  501    0  0.00000000000E+00  0.00000000000E+00 -0.19074442235E+04  0.19074442235E+04  0.25500000920E-02 0. -1.
    10030    2    1    2    0    0  0.00000000000E+00  0.00000000000E+00 -0.74193264958E+03  0.30729557975E+04  0.29820451500E+04 0.  0.
        4    1    3    3  502    0 -0.14336618109E+04  0.39728652218E+03 -0.47362227160E+03  0.15612630905E+04  0.12699999809E+01 0. -1.
       -4    1    3    3    0  502  0.14336618109E+04 -0.39728652218E+03 -0.26831037798E+03  0.15116927070E+04  0.12699999809E+01 0.  1.
</event>
<event>
 5   0  0.1904553E-05  0.2786401E+04  0.7818609E-02  0.8307503E-01
       -2   -1    0    0    0  501  0.00000000000E+00  0.00000000000E+00  0.99106621934E+03  0.99106621934E+03  0.25500000920E-02 0. -1.
        2   -1    0    0  501    0  0.00000000000E+00  0.00000000000E+00 -0.19585051827E+04  0.19585051827E+04  0.25500000920E-02 0.  1.
    10030    2    1    2    0    0  0.00000000000E+00  0.00000000000E+00 -0.96743896336E+03  0.29495714020E+04  0.27864014980E+04 0.  0.
        1    1    3    3  502    0  0.10587493067E+04 -0.63822035216E+03 -0.11637835414E+04  0.16978419961E+04  0.50400001928E-02 0.  1.
       -1    1    3    3    0  502 -0.10587493067E+04  0.63822035216E+03  0.19634457806E+03  0.12517294060E+04  0.50400001928E-02 0. -1.
</event>
<event>
 5   0  0.1832502E-05  0.2813028E+04  0.7818609E-02  0.8299235E-01
       -2   -1    0    0    0  501  0.00000000000E+00  0.00000000000E+00  0.11760190314E+04  0.11760190314E+04  0.25500000920E-02 0.  1.
        2   -1    0    0  501    0  0.00000000000E+00  0.00000000000E+00 -0.16821845876E+04  0.16821845876E+04  0.25500000920E-02 0. -1.
    10030    2    1    2    0    0  0.00000000000E+00  0.00000000000E+00 -0.50616555621E+03  0.28582036190E+04  0.28130276140E+04 0.  0.
        2    1    3    3  502    0  0.13213267742E+04 -0.30862609397E+03  0.12317023828E+03  0.13624703365E+04  0.25500000920E-02 0. -1.
       -2    1    3    3    0  502 -0.13213267742E+04  0.30862609397E+03 -0.62933579449E+03  0.14957332825E+04  0.25500000920E-02 0.  1.
</event>
<event>
 5   0  0.1814230E-05  0.2790682E+04  0.7818609E-02  0.8306167E-01
        2   -1    0    0  501    0  0.00000000000E+00  0.00000000000E+00  0.14062435863E+04  0.14062435863E+04  0.25500000920E-02 0. -1.
       -2   -1    0    0    0  501  0.00000000000E+00  0.00000000000E+00 -0.13845232978E+04  0.13845232978E+04  0.25500000920E-02 0.  1.
    10030    2    1    2    0    0  0.00000000000E+00  0.00000000000E+00  0.21720288507E+02  0.27907668840E+04  0.27906823592E+04 0.  0.
        5    1    3    3  502    0  0.11728840553E+04  0.73161952433E+03  0.20068365350E+03  0.13968608214E+04  0.46999998093E+01 0. -1.
       -5    1    3    3    0  502 -0.11728840553E+04 -0.73161952433E+03 -0.17896336499E+03  0.13939060627E+04  0.46999998093E+01 0.  1.
</event>
<event>
 5   0  0.1832502E-05  0.2765691E+04  0.7818609E-02  0.8314000E-01
        2   -1    0    0  501    0  0.00000000000E+00  0.00000000000E+00  0.15735980576E+04  0.15735980576E+04  0.25500000920E-02 0. -1.
       -2   -1    0    0    0  501  0.00000000000E+00  0.00000000000E+00 -0.12152164376E+04  0.12152164376E+04  0.25500000920E-02 0.  1.
    10030    2    1    2    0    0  0.00000000000E+00  0.00000000000E+00  0.35838162001E+03  0.27888144951E+04  0.27656913969E+04 0.  0.
        2    1    3    3  502    0 -0.41266864161E+03 -0.58694316130E+03 -0.10128367792E+04  0.12412235994E+04  0.25500000920E-02 0.  1.
       -2    1    3    3    0  502  0.41266864161E+03  0.58694316130E+03  0.13712183992E+04  0.15475908958E+04  0.25500000920E-02 0. -1.
</event>
<event>
 5   0  0.7555871E-06  0.2746998E+04  0.7818609E-02  0.8319915E-01
        1   -1    0    0  501    0  0.00000000000E+00  0.00000000000E+00  0.24375706335E+04  0.24375706335E+04  0.50400001928E-02 0.  1.
       -1   -1    0    0    0  501  0.00000000000E+00  0.00000000000E+00 -0.77392597492E+03  0.77392597494E+03  0.50400001928E-02 0. -1.
    10030    2    1    2    0    0  0.00000000000E+00  0.00000000000E+00  0.16636446586E+04  0.32114966085E+04  0.27469978005E+04 0.  0.
        3    1    3    3  502    0  0.13773389978E+03 -0.27335621190E+03 -0.73354289032E+03  0.79484553712E+03  0.10100000352E+00 0. -1.
       -3    1    3    3    0  502 -0.13773389978E+03  0.27335621190E+03  0.23971875489E+04  0.24166510714E+04  0.10100000352E+00 0.  1.
</event>
<event>
 5   0  0.1904553E-05  0.2761450E+04  0.7818609E-02  0.8315337E-01
        2   -1    0    0  501    0  0.00000000000E+00  0.00000000000E+00  0.23813497739E+04  0.23813497739E+04  0.25500000920E-02 0. -1.
       -2   -1    0    0    0  501  0.00000000000E+00  0.00000000000E+00 -0.80055531102E+03  0.80055531102E+03  0.25500000920E-02 0.  1.
    10030    2    1    2    0    0  0.00000000000E+00  0.00000000000E+00  0.15807944629E+04  0.31819050849E+04  0.27614504949E+04 0.  0.
        1    1    3    3  502    0  0.11415969779E+04  0.37021240397E+03  0.37316892948E+01  0.12001311635E+04  0.50400001928E-02 0.  1.
       -1    1    3    3    0  502 -0.11415969779E+04 -0.37021240397E+03  0.15770627736E+04  0.19817739215E+04  0.50400001928E-02 0. -1.
</event>
<event>
 5   0  0.7509685E-06  0.2655061E+04  0.7818609E-02  0.8349735E-01
       -1   -1    0    0    0  501  0.00000000000E+00  0.00000000000E+00  0.22382460572E+04  0.22382460572E+04  0.50400001928E-02 0. -1.
        1   -1    0    0  501    0  0.00000000000E+00  0.00000000000E+00 -0.78737426715E+03  0.78737426716E+03  0.50400001928E-02 0.  1.
    10030    2    1    2    0    0  0.00000000000E+00  0.00000000000E+00  0.14508717900E+04  0.30256203243E+04  0.26550610908E+04 0.  0.
        4    1    3    3  502    0 -0.11931503427E+04  0.84311227438E+02  0.13816718393E+04  0.18274941334E+04  0.12699999809E+01 0. -1.
       -4    1    3    3    0  502  0.11931503427E+04 -0.84311227438E+02  0.69199950692E+02  0.11981261909E+04  0.12699999809E+01 0.  1.
</event>
<event>
 5   0  0.7509685E-06  0.2777570E+04  0.7818609E-02  0.8310266E-01
       -1   -1    0    0    0  501  0.00000000000E+00  0.00000000000E+00  0.11579768965E+04  0.11579768965E+04  0.50400001928E-02 0.  1.
        1   -1    0    0  501    0  0.00000000000E+00  0.00000000000E+00 -0.16655980194E+04  0.16655980194E+04  0.50400001928E-02 0. -1.
    10030    2    1    2    0    0  0.00000000000E+00  0.00000000000E+00 -0.50762112290E+03  0.28235749159E+04  0.27775701793E+04 0.  0.
        4    1    3    3  502    0 -0.25570695753E+03  0.10840753832E+04  0.58945700143E+03  0.12601851665E+04  0.12699999809E+01 0.  1.
       -4    1    3    3    0  502  0.25570695753E+03 -0.10840753832E+04 -0.10970781243E+04  0.15633897493E+04  0.12699999809E+01 0. -1.
</event>
<event>
 5   0  0.1874272E-05  0.3118077E+04  0.7818609E-02  0.8210794E-01
        2   -1    0    0  501    0  0.00000000000E+00  0.00000000000E+00  0.19825627900E+04  0.19825627900E+04  0.25500000920E-02 0.  1.
       -2   -1    0    0    0  501  0.00000000000E+00  0.00000000000E+00 -0.12259898055E+04  0.12259898055E+04  0.25500000920E-02 0. -1.
    10030    2    1    2    0    0  0.00000000000E+00  0.00000000000E+00  0.75657298454E+03  0.32085525955E+04  0.31180774649E+04 0.  0.
        3    1    3    3  502    0 -0.44646440722E+03 -0.14345979712E+04  0.80653528534E+03  0.17052568670E+04  0.10100000352E+00 0.  1.
       -3    1    3    3    0  502  0.44646440722E+03  0.14345979712E+04 -0.49962300800E+02  0.15032957285E+04  0.10100000352E+00 0. -1.
</event>
<event>
 5   0  0.1814230E-05  0.2437945E+04  0.7818609E-02  0.8425433E-01
       -2   -1    0    0    0  501  0.00000000000E+00  0.00000000000E+00  0.12195872557E+04  0.12195872557E+04  0.25500000920E-02 0.  1.
        2   -1    0    0  501    0  0.00000000000E+00  0.00000000000E+00 -0.12183579938E+04  0.12183579938E+04  0.25500000920E-02 0. -1.
    10030    2    1    2    0    0  0.00000000000E+00  0.00000000000E+00  0.12292619020E+01  0.24379452495E+04  0.24379449396E+04 0.  0.
        5    1    3    3  502    0  0.94788079208E+02  0.37107667571E+03  0.11578481654E+04  0.12195561256E+04  0.46999998093E+01 0.  1.
       -5    1    3    3    0  502 -0.94788079208E+02 -0.37107667571E+03 -0.11566189035E+04  0.12183891239E+04  0.46999998093E+01 0. -1.
</event>
<event>
 5   0  0.1814230E-05  0.2806892E+04  0.7818609E-02  0.8301132E-01
        2   -1    0    0  501    0  0.00000000000E+00  0.00000000000E+00  0.20883738881E+04  0.20883738881E+04  0.25500000920E-02 0.  1.
       -2   -1    0    0    0  501  0.00000000000E+00  0.00000000000E+00 -0.94315525950E+03  0.94315525950E+03  0.25500000920E-02 0. -1.
    10030    2    1    2    0    0  0.00000000000E+00  0.00000000000E+00  0.11452186286E+04  0.30315291476E+04  0.28068921008E+04 0.  0.
        5    1    3    3  502    0  0.12653038730E+04 -0.34598910777E+03  0.33744026445E+02  0.13121978139E+04  0.46999998093E+01 0. -1.
       -5    1    3    3    0  502 -0.12653038730E+04  0.34598910777E+03  0.11114746021E+04  0.17193313336E+04  0.46999998093E+01 0.  1.
</event>
<event>
 5   0  0.1904553E-05  0.2637104E+04  0.7818609E-02  0.8355706E-01
       -2   -1    0    0    0  501  0.00000000000E+00  0.00000000000E+00  0.17853350980E+04  0.17853350980E+04  0.25500000920E-02 0. -1.
        2   -1    0    0  501    0  0.00000000000E+00  0.00000000000E+00 -0.97381119504E+03  0.97381119504E+03  0.25500000920E-02 0.  1.
    10030    2    1    2    0    0  0.00000000000E+00  0.00000000000E+00  0.81152390295E+03  0.27591462930E+04  0.26371039459E+04 0.  0.
        1    1    3    3  502    0  0.15994435933E+03 -0.36572489033E+03  0.17205988362E+04  0.17662947796E+04  0.50400001928E-02 0. -1.
       -1    1    3    3    0  502 -0.15994435933E+03  0.36572489033E+03 -0.90907493321E+03  0.99285151342E+03  0.50400001928E-02 0.  1.
</event>
<event>
 5   0  0.7509685E-06  0.2778508E+04  0.7818609E-02  0.8309972E-01
       -1   -1    0    0    0  501  0.00000000000E+00  0.00000000000E+00  0.77793597901E+03  0.77793597902E+03  0.50400001928E-02 0.  1.
        1   -1    0    0  501    0  0.00000000000E+00  0.00000000000E+00 -0.24809585053E+04  0.24809585053E+04  0.50400001928E-02 0. -1.
    10030    2    1    2    0    0  0.00000000000E+00  0.00000000000E+00 -0.17030225263E+04  0.32588944843E+04  0.27785081491E+04 0.  0.
        4    1    3    3  502    0  0.68556474661E+03 -0.28710876025E+03  0.52512553137E+03  0.91004884407E+03  0.12699999809E+01 0.  1.
       -4    1    3    3    0  502 -0.68556474661E+03  0.28710876025E+03 -0.22281480576E+04  0.23488456402E+04  0.12699999809E+01 0. -1.
</event>
<event>
 5   0  0.6288000E-06  0.3258417E+04  0.7818609E-02  0.8173558E-01
        3   -1    0    0  501    0  0.00000000000E+00  0.00000000000E+00  0.21332593976E+04  0.21332594000E+04  0.10100000352E+00 0.  1.
       -3   -1    0    0    0  501  0.00000000000E+00  0.00000000000E+00 -0.12442556353E+04  0.12442556394E+04  0.10100000352E+00 0. -1.
    10030    2    1    2    0    0  0.00000000000E+00  0.00000000000E+00  0.88900376232E+03  0.33775150395E+04  0.32584168169E+04 0.  0.
        3    1    3    3  502    0  0.56645759183E+03 -0.29982060030E+03 -0.11080955440E+04  0.12800946607E+04  0.10100000352E+00 0. -1.
       -3    1    3    3    0  502 -0.56645759183E+03  0.29982060030E+03  0.19970993063E+04  0.20974203787E+04  0.10100000352E+00 0.  1.
</event>
<event>
 5   0  0.1814230E-05  0.2846702E+04  0.7818609E-02  0.8288914E-01
       -2   -1    0    0    0  501  0.00000000000E+00  0.00000000000E+00  0.14991161666E+04  0.14991161666E+04  0.25500000920E-02 0. -1.
        2   -1    0    0  501    0  0.00000000000E+00  0.00000000000E+00 -0.13514154243E+04  0.13514154243E+04  0.25500000920E-02 0.  1.
    10030    2    1    2    0    0  0.00000000000E+00  0.00000000000E+00  0.14770074228E+03  0.28505315909E+04  0.28467024505E+04 0.  0.
        5    1    3    3  502    0 -0.13706237705E+04 -0.25512439326E+02  0.45730961654E+03  0.14451347965E+04  0.46999998093E+01 0. -1.
       -5    1    3    3    0  502  0.13706237705E+04  0.25512439326E+02 -0.30960887426E+03  0.14053967944E+04  0.46999998093E+01 0.  1.
</event>
<event>
 5   0  0.1832502E-05  0.2948345E+04  0.7818609E-02  0.8258637E-01
        2   -1    0    0  501    0  0.00000000000E+00  0.00000000000E+00  0.15315279350E+04  0.15315279350E+04  0.25500000920E-02 0. -1.
       -2   -1    0    0    0  501  0.00000000000E+00  0.00000000000E+00 -0.14189648416E+04  0.14189648416E+04  0.25500000920E-02 0.  1.
    10030    2    1    2    0    0  0.00000000000E+00  0.00000000000E+00  0.11256309337E+03  0.29504927766E+04  0.29483448196E+04 0.  0.
        2    1    3    3  502    0 -0.80357056384E+02  0.56002307112E+03  0.14185598808E+04  0.15272181350E+04  0.25500000920E-02 0. -1.
       -2    1    3    3    0  502  0.80357056384E+02 -0.56002307112E+03 -0.13059967874E+04  0.14232746416E+04  0.25500000920E-02 0.  1.
</event>
<event>
 5   0  0.1874272E-05  0.2847771E+04  0.7818609E-02  0.8288589E-01
       -2   -1    0    0    0  501  0.00000000000E+00  0.00000000000E+00  0.94583459437E+03  0.94583459437E+03  0.25500000920E-02 0.  1.
        2   -1    0    0  501    0  0.00000000000E+00  0.00000000000E+00 -0.21435570784E+04  0.21435570784E+04  0.25500000920E-02 0. -1.
    10030    2    1    2    0    0  0.00000000000E+00  0.00000000000E+00 -0.11977224841E+04  0.30893916728E+04  0.28477713671E+04 0.  0.
        3    1    3    3  502    0 -0.36308865720E+03  0.11715251164E+04 -0.13835172235E+04  0.18488981554E+04  0.10100000352E+00 0. -1.
       -3    1    3    3    0  502  0.36308865720E+03 -0.11715251164E+04  0.18579473942E+03  0.12404935174E+04  0.10100000352E+00 0.  1.
</event>
<event>
 5   0  0.7388013E-06  0.2356043E+04  0.7818609E-02  0.8456146E-01
       -1   -1    0    0    0  501  0.00000000000E+00  0.00000000000E+00  0.74146246506E+03  0.74146246508E+03  0.50400001928E-02 0.  1.
        1   -1    0    0  501    0  0.00000000000E+00  0.00000000000E+00 -0.18716189729E+04  0.18716189729E+04  0.50400001928E-02 0. -1.
    10030    2    1    2    0    0  0.00000000000E+00  0.00000000000E+00 -0.11301565079E+04  0.26130814380E+04  0.23560434778E+04 0.  0.
        1    1    3    3  502    0 -0.12359986558E+03 -0.42299760011E+03  0.64659788214E+03  0.78249135311E+03  0.50400001928E-02 0.  1.
       -1    1    3    3    0  502  0.12359986558E+03  0.42299760011E+03 -0.17767543900E+04  0.18305900849E+04  0.50400001928E-02 0. -1.
</event>
<event>
 5   0  0.1874272E-05  0.2819602E+04  0.7818609E-02  0.8297208E-01
       -2   -1    0    0    0  501  0.00000000000E+00  0.00000000000E+00  0.17581965115E+04  0.17581965115E+04  0.25500000920E-02 0.  1.
        2   -1    0    0  501    0  0.00000000000E+00  0.00000000000E+00 -0.11304418552E+04  0.11304418552E+04  0.25500000920E-02 0. -1.
    10030    2    1    2    0    0  0.00000000000E+00  0.00000000000E+00  0.62775465626E+03  0.28886383667E+04  0.28196020473E+04 0.  0.
        3    1    3    3  502    0 -0.12907376847E+04  0.42708198043E+03  0.69601980466E+03  0.15273658263E+04  0.10100000352E+00 0.  1.
       -3    1    3    3    0  502  0.12907376847E+04 -0.42708198043E+03 -0.68265148407E+02  0.13612725404E+04  0.10100000352E+00 0. -1.
</event>
<event>
 5   0  0.1814230E-05  0.2758880E+04  0.7818609E-02  0.8316149E-01
        2   -1    0    0  501    0  0.00000000000E+00  0.00000000000E+00  0.16068920009E+04  0.16068920009E+04  0.25500000920E-02 0.  1.
       -2   -1    0    0    0  501  0.00000000000E+00  0.00000000000E+00 -0.11841835944E+04  0.11841835944E+04  0.25500000920E-02 0. -1.
    10030    2    1    2    0    0  0.00000000000E+00  0.00000000000E+00  0.42270840656E+03  0.27910755953E+04  0.27588803131E+04 0.  0.
        5    1    3    3  502    0 -0.21589840771E+03  0.86348702653E+03  0.12775077150E+04  0.15570067499E+04  0.46999998093E+01 0.  1.
       -5    1    3    3    0  502  0.21589840771E+03 -0.86348702653E+03 -0.85479930845E+03  0.12340688454E+04  0.46999998093E+01 0. -1.
</event>
<event>
 5   0  0.7388013E-06  0.2839467E+04  0.7818609E-02  0.8291119E-01
        1   -1    0    0  501    0  0.00000000000E+00  0.00000000000E+00  0.17365482547E+04  0.17365482547E+04  0.50400001928E-02 0. -1.
       -1   -1    0    0    0  501  0.00000000000E+00  0.00000000000E+00 -0.11607185063E+04  0.11607185063E+04  0.50400001928E-02 0.  1.
    10030    2    1    2    0    0  0.00000000000E+00  0.00000000000E+00  0.57582974845E+03  0.28972667610E+04  0.28394673418E+04 0.  0.
        1    1    3    3  502    0  0.14563787749E+03 -0.11146273875E+04 -0.59693952449E+03  0.12727691858E+04  0.50400001928E-02 0.  1.
       -1    1    3    3    0  502 -0.14563787749E+03  0.11146273875E+04  0.11727692729E+04  0.16244975752E+04  0.50400001928E-02 0. -1.
</event>
<event>
 5   0  0.7681342E-06  0.2749418E+04  0.7818609E-02  0.8319146E-01
       -1   -1    0    0    0  501  0.00000000000E+00  0.00000000000E+00  0.76169132728E+03  0.76169132730E+03  0.50400001928E-02 0.  1.
        1   -1    0    0  501    0  0.00000000000E+00  0.00000000000E+00 -0.24810898366E+04  0.24810898366E+04  0.50400001928E-02 0. -1.
    10030    2    1    2    0    0  0.00000000000E+00  0.00000000000E+00 -0.17193985093E+04  0.32427811639E+04  0.27494178371E+04 0.  0.
        2    1    3    3  502    0 -0.38709339796E+03  0.89212754413E+03  0.28629911218E+03  0.10137554120E+04  0.25500000920E-02 0.  1.
       -2    1    3    3    0  502  0.38709339796E+03 -0.89212754413E+03 -0.20056976215E+04  0.22290257519E+04  0.25500000920E-02 0. -1.
</event>
<event>
 5   0  0.1923559E-05  0.2834506E+04  0.7818609E-02  0.8292635E-01
       -2   -1    0    0    0  501  0.00000000000E+00  0.00000000000E+00  0.86185423421E+03  0.86185423421E+03  0.25500000920E-02 0.  1.
        2   -1    0    0  501    0  0.00000000000E+00  0.00000000000E+00 -0.23305632016E+04  0.23305632016E+04  0.25500000920E-02 0. -1.
    10030    2    1    2    0    0  0.00000000000E+00  0.00000000000E+00 -0.14687089674E+04  0.31924174358E+04  0.28345057865E+04 0.  0.
        4    1    3    3  502    0 -0.10903656143E+04  0.27563704180E+03 -0.17056476344E+04  0.20430634884E+04  0.12699999809E+01 0. -1.
       -4    1    3    3    0  502  0.10903656143E+04 -0.27563704180E+03  0.23693866708E+03  0.11493539474E+04  0.12699999809E+01 0.  1.
</event>
<event>
 5   0  0.1923559E-05  0.2808033E+04  0.7818609E-02  0.8300779E-01
       -2   -1    0    0    0  501  0.00000000000E+00  0.00000000000E+00  0.13452151808E+04  0.13452151808E+04  0.25500000920E-02 0.  1.
        2   -1    0    0  501    0  0.00000000000E+00  0.00000000000E+00 -0.14653877956E+04  0.14653877956E+04  0.25500000920E-02 0. -1.
    10030    2    1    2    0    0  0.00000000000E+00  0.00000000000E+00 -0.12017261478E+03  0.28106029764E+04  0.28080326981E+04 0.  0.
        4    1    3    3  502    0 -0.69617337725E+03 -0.23133048121E+03  0.11381264593E+04  0.13540696485E+04  0.12699999809E+01 0.  1.
       -4    1    3    3    0  502  0.69617337725E+03  0.23133048121E+03 -0.12582990741E+04  0.14565333279E+04  0.12699999809E+01 0. -1.
</event>
<event>
 5   0  0.1832502E-05  0.2764400E+04  0.7818609E-02  0.8314407E-01
        2   -1    0    0  501    0  0.00000000000E+00  0.00000000000E+00  0.12061156581E+04  0.12061156581E+04  0.25500000920E-02 0.  1.
       -2   -1    0    0    0  501  0.00000000000E+00  0.00000000000E+00 -0.15839913640E+04  0.15839913640E+04  0.25500000920E-02 0. -1.
    10030    2    1    2    0    0  0.00000000000E+00  0.00000000000E+00 -0.37787570594E+03  0.27901070221E+04  0.27643999612E+04 0.  0.
        2    1    3    3  502    0  0.32511624790E+01  0.95242235463E+03 -0.11999303108E+04  0.15319763909E+04  0.25500000920E-02 0. -1.
       -2    1    3    3    0  502 -0.32511624790E+01 -0.95242235463E+03  0.82205460484E+03  0.12581306311E+04  0.25500000920E-02 0.  1.
</event>
<event>
 5   0  0.1904553E-05  0.2822366E+04  0.7818609E-02  0.8296358E-01
        2   -1    0    0  501    0  0.00000000000E+00  0.00000000000E+00  0.19542599385E+04  0.19542599385E+04  0.25500000920E-02 0.  1.
       -2   -1    0    0    0  501  0.00000000000E+00  0.00000000000E+00 -0.10190239312E+04  0.10190239312E+04  0.25500000920E-02 0. -1.
    10030    2    1    2    0    0  0.00000000000E+00  0.00000000000E+00  0.93523600725E+03  0.29732838697E+04  0.28223661315E+04 0.  0.
        1    1    3    3  502    0  0.63189686896E+03  0.11653361870E+04  0.97736739396E+03  0.16469818167E+04  0.50400001928E-02 0.  1.
       -1    1    3    3    0  502 -0.63189686896E+03 -0.11653361870E+04 -0.42131386708E+02  0.13263020529E+04  0.50400001928E-02 0. -1.
</event>
<event>
 5   0  0.1923559E-05  0.2759742E+04  0.7818609E-02  0.8315877E-01
       -2   -1    0    0    0  501  0.00000000000E+00  0.00000000000E+00  0.13693516193E+04  0.13693516193E+04  0.25500000920E-02 0.  1.
        2   -1    0    0  501    0  0.00000000000E+00  0.00000000000E+00 -0.13904710947E+04  0.13904710947E+04  0.25500000920E-02 0. -1.
    10030    2    1    2    0    0  0.00000000000E+00  0.00000000000E+00 -0.21119475402E+02  0.27598227139E+04  0.27597419046E+04 0.  0.
        4    1    3    3  502    0  0.12080909446E+04 -0.64854590475E+03 -0.16531151790E+03  0.13810955911E+04  0.12699999809E+01 0.  1.
       -4    1    3    3    0  502 -0.12080909446E+04  0.64854590475E+03  0.14419204249E+03  0.13787271228E+04  0.12699999809E+01 0. -1.
</event>
<event>
 5   0  0.1874272E-05  0.2635110E+04  0.7818609E-02  0.8356372E-01
       -2   -1    0    0    0  501  0.00000000000E+00  0.00000000000E+00  0.90961600461E+03  0.90961600461E+03  0.25500000920E-02 0. -1.
        2   -1    0    0  501    0  0.00000000000E+00  0.00000000000E+00 -0.19084446764E+04  0.19084446764E+04  0.25500000920E-02 0.  1.
    10030    2    1    2    0    0  0.00000000000E+00  0.00000000000E+00 -0.99882867178E+03  0.28180606810E+04  0.26351104884E+04 0.  0.
        3    1    3    3  502    0  0.12704152551E+04  0.24852987806E+03 -0.23695792343E+03  0.13160057326E+04  0.10100000352E+00 0. -1.
       -3    1    3    3    0  502 -0.12704152551E+04 -0.24852987806E+03 -0.76187074835E+03  0.15020549484E+04  0.10100000352E+00 0.  1.
</event>
<event>
 5   0  0.7555871E-06  0.2817703E+04  0.7818609E-02  0.8297793E-01
        1   -1    0    0  501    0  0.00000000000E+00  0.00000000000E+00  0.15858613820E+04  0.15858613820E+04  0.50400001928E-02 0.  1.
       -1   -1    0    0    0  501  0.00000000000E+00  0.00000000000E+00 -0.12515989703E+04  0.12515989703E+04  0.50400001928E-02 0. -1.
    10030    2    1    2    0    0  0.00000000000E+00  0.00000000000E+00  0.33426241168E+03  0.28374603524E+04  0.28177029459E+04 0.  0.
        3    1    3    3  502    0 -0.10943279960E+03 -0.62505638030E+02 -0.12459113614E+04  0.12522689899E+04  0.10100000352E+00 0. -1.
       -3    1    3    3    0  502  0.10943279960E+03  0.62505638030E+02  0.15801737731E+04  0.15851913625E+04  0.10100000352E+00 0.  1.
</event>
<event>
 5   0  0.7555871E-06  0.2780330E+04  0.7818609E-02  0.8309401E-01
       -1   -1    0    0    0  501  0.00000000000E+00  0.00000000000E+00  0.10095036268E+04  0.10095036269E+04  0.50400001928E-02 0. -1.
        1   -1    0    0  501    0  0.00000000000E+00  0.00000000000E+00 -0.19143651783E+04  0.19143651783E+04  0.50400001928E-02 0.  1.
    10030    2    1    2    0    0  0.00000000000E+00  0.00000000000E+00 -0.90486155146E+03  0.29238688052E+04  0.27803299017E+04 0.  0.
        3    1    3    3  502    0 -0.11451001848E+04  0.50868468178E+03 -0.10856322791E+04  0.16578938429E+04  0.10100000352E+00 0.  1.
       -3    1    3    3    0  502  0.11451001848E+04 -0.50868468178E+03  0.18077072768E+03  0.12659749622E+04  0.10100000352E+00 0. -1.
</event>
<event>
 5   0  0.7509685E-06  0.2789610E+04  0.7818609E-02  0.8306501E-01
       -1   -1    0    0    0  501  0.00000000000E+00  0.00000000000E+00  0.14572722908E+04  0.14572722908E+04  0.50400001928E-02 0.  1.
        1   -1    0    0  501    0  0.00000000000E+00  0.00000000000E+00 -0.13350155274E+04  0.13350155274E+04  0.50400001928E-02 0. -1.
    10030    2    1    2    0    0  0.00000000000E+00  0.00000000000E+00  0.12225676340E+03  0.27922878181E+04  0.27896101059E+04 0.  0.
        4    1    3    3  502    0 -0.62463475049E+03  0.12278895739E+04  0.27950779307E+03  0.14057053733E+04  0.12699999809E+01 0.  1.
       -4    1    3    3    0  502  0.62463475049E+03 -0.12278895739E+04 -0.15725102967E+03  0.13865824449E+04  0.12699999809E+01 0. -1.
</event>
<event>
 5   0  0.7388013E-06  0.2760497E+04  0.7818609E-02  0.8315638E-01
        1   -1    0    0  501    0  0.00000000000E+00  0.00000000000E+00  0.17224362287E+04  0.17224362287E+04  0.50400001928E-02 0.  1.
       -1   -1    0    0    0  501  0.00000000000E+00  0.00000000000E+00 -0.11060415686E+04  0.11060415686E+04  0.50400001928E-02 0. -1.
    10030    2    1    2    0    0  0.00000000000E+00  0.00000000000E+00  0.61639466017E+03  0.28284777973E+04  0.27604971061E+04 0.  0.
        1    1    3    3  502    0 -0.59281555094E+02 -0.44573245166E+03 -0.10288886335E+04  0.11228550848E+04  0.50400001928E-02 0. -1.
       -1    1    3    3    0  502  0.59281555094E+02  0.44573245166E+03  0.16452832937E+04  0.17056227126E+04  0.50400001928E-02 0.  1.
</event>
<event>
 5   0  0.1904553E-05  0.2287200E+04  0.7818609E-02  0.8482985E-01
       -2   -1    0    0    0  501  0.00000000000E+00  0.00000000000E+00  0.12244166816E+04  0.12244166816E+04  0.25500000920E-02 0. -1.
        2   -1    0    0  501    0  0.00000000000E+00  0.00000000000E+00 -0.10681179766E+04  0.10681179766E+04  0.25500000920E-02 0.  1.
    10030    2    1    2    0    0  0.00000000000E+00  0.00000000000E+00  0.15629870500E+03  0.22925346582E+04  0.22872004447E+04 0.  0.
        1    1    3    3  502    0  0.41049941052E+03  0.32592722866E+03  0.10969267965E+04  0.12157247720E+04  0.50400001928E-02 0. -1.
       -1    1    3    3    0  502 -0.41049941052E+03 -0.32592722866E+03 -0.94062809152E+03  0.10768098862E+04  0.50400001928E-02 0.  1.
</event>
<event>
 5   0  0.1923559E-05  0.2843029E+04  0.7818609E-02  0.8290033E-01
       -2   -1    0    0    0  501  0.00000000000E+00  0.00000000000E+00  0.91519061620E+03  0.91519061621E+03  0.25500000920E-02 0. -1.
        2   -1    0    0  501    0  0.00000000000E+00  0.00000000000E+00 -0.22079586955E+04  0.22079586955E+04  0.25500000920E-02 0.  1.
    10030    2    1    2    0    0  0.00000000000E+00  0.00000000000E+00 -0.12927680793E+04  0.31231493117E+04  0.28430287224E+04 0.  0.
        4    1    3    3  502    0  0.25138203682E+02 -0.10798775735E+04 -0.16615186703E+04  0.19817702711E+04  0.12699999809E+01 0.  1.
       -4    1    3    3    0  502 -0.25138203682E+02  0.10798775735E+04  0.36875059099E+03  0.11413790406E+04  0.12699999809E+01 0. -1.
</event>
<event>
 5   0  0.1832502E-05  0.2782533E+04  0.7818609E-02  0.8308712E-01
       -2   -1    0    0    0  501  0.00000000000E+00  0.00000000000E+00  0.11769893562E+04  0.11769893562E+04  0.25500000920E-02 0. -1.
        2   -1    0    0  501    0  0.00000000000E+00  0.00000000000E+00 -0.16445537182E+04  0.16445537182E+04  0.25500000920E-02 0.  1.
    10030    2    1    2    0    0  0.00000000000E+00  0.00000000000E+00 -0.46756436200E+03  0.28215430744E+04  0.27825328189E+04 0.  0.
        2    1    3    3  502    0  0.12197000546E+03 -0.10680494072E+04 -0.11293493123E+04  0.15591780167E+04  0.25500000920E-02 0.  1.
       -2    1    3    3    0  502 -0.12197000546E+03  0.10680494072E+04  0.66178495033E+03  0.12623650577E+04  0.25500000920E-02 0. -1.
</event>
<event>
 5   0  0.6288000E-06  0.2815379E+04  0.7818609E-02  0.8298510E-01
        3   -1    0    0  501    0  0.00000000000E+00  0.00000000000E+00  0.13018795305E+04  0.13018795344E+04  0.10100000352E+00 0.  1.
       -3   -1    0    0    0  501  0.00000000000E+00  0.00000000000E+00 -0.15220987342E+04  0.15220987375E+04  0.10100000352E+00 0. -1.
    10030    2    1    2    0    0  0.00000000000E+00  0.00000000000E+00 -0.22021920364E+03  0.28239782719E+04  0.28153786216E+04 0.  0.
        4    1    3    3  502    0 -0.37923051449E+02 -0.11804797433E+03 -0.15166102788E+04  0.15216707373E+04  0.12699999809E+01 0. -1.
       -4    1    3    3    0  502  0.37923051449E+02  0.11804797433E+03  0.12963910752E+04  0.13023075346E+04  0.12699999809E+01 0.  1.
</event>
<event>
 5   0  0.7555871E-06  0.2687514E+04  0.7818609E-02  0.8339067E-01
        1   -1    0    0  501    0  0.00000000000E+00  0.00000000000E+00  0.13918414684E+04  0.13918414684E+04  0.50400001928E-02 0. -1.
       -1   -1    0    0    0  501  0.00000000000E+00  0.00000000000E+00 -0.12973341164E+04  0.12973341164E+04  0.50400001928E-02 0.  1.
    10030    2    1    2    0    0  0.00000000000E+00  0.00000000000E+00  0.94507352029E+02  0.26891755848E+04  0.26875144067E+04 0.  0.
        3    1    3    3  502    0  0.12727494779E+04  0.29784971108E+03  0.35901925140E+03  0.13555443618E+04  0.10100000352E+00 0. -1.
       -3    1    3    3    0  502 -0.12727494779E+04 -0.29784971108E+03 -0.26451189937E+03  0.13336312230E+04  0.10100000352E+00 0.  1.
</event>
<event>
 5   0  0.1904553E-05  0.2247341E+04  0.7818609E-02  0.8498978E-01
        2   -1    0    0  501    0  0.00000000000E+00  0.00000000000E+00  0.11043727551E+04  0.11043727551E+04  0.25500000920E-02 0. -1.
       -2   -1    0    0    0  501  0.00000000000E+00  0.00000000000E+00 -0.11433059519E+04  0.11433059519E+04  0.25500000920E-02 0.  1.
    10030    2    1    2    0    0  0.00000000000E+00  0.00000000000E+00 -0.38933196784E+02  0.22476787070E+04  0.22473414907E+04 0.  0.
        1    1    3    3  502    0  0.94888285795E+03  0.42447708527E+03  0.40730162400E+03  0.11164470820E+04  0.50400001928E-02 0.  1.
       -1    1    3    3    0  502 -0.94888285795E+03 -0.42447708527E+03 -0.44623482078E+03  0.11312316250E+04  0.50400001928E-02 0. -1.
</event>
<event>
 5   0  0.7509685E-06  0.2813125E+04  0.7818609E-02  0.8299205E-01
        1   -1    0    0  501    0  0.00000000000E+00  0.00000000000E+00  0.15746707777E+04  0.15746707777E+04  0.50400001928E-02 0. -1.
       -1   -1    0    0    0  501  0.00000000000E+00  0.00000000000E+00 -0.12564012506E+04  0.12564012506E+04  0.50400001928E-02 0.  1.
    10030    2    1    2    0    0  0.00000000000E+00  0.00000000000E+00  0.31826952706E+03  0.28310720283E+04  0.28131251905E+04 0.  0.
        4    1    3    3  502    0 -0.62779876804E+03  0.10788419793E+04 -0.49337299152E+03  0.13421809979E+04  0.12699999809E+01 0.  1.
       -4    1    3    3    0  502  0.62779876804E+03 -0.10788419793E+04  0.81164251857E+03  0.14888910304E+04  0.12699999809E+01 0. -1.
</event>
<event>
 5   0  0.7555871E-06  0.1759788E+04  0.7818609E-02  0.8727981E-01
       -1   -1    0    0    0  501  0.00000000000E+00  0.00000000000E+00  0.10376336737E+04  0.10376336737E+04  0.50400001928E-02 0.  1.
        1   -1    0    0  501    0  0.00000000000E+00  0.00000000000E+00 -0.74613383229E+03  0.74613383231E+03  0.50400001928E-02 0. -1.
    10030    2    1    2    0    0  0.00000000000E+00  0.00000000000E+00  0.29149984142E+03  0.17837675060E+04  0.17597881571E+04 0.  0.
        3    1    3    3  502    0 -0.61606578279E+03 -0.37486540599E+03 -0.36525492068E+03  0.80837632858E+03  0.10100000352E+00 0. -1.
       -3    1    3    3    0  502  0.61606578279E+03  0.37486540599E+03  0.65675476209E+03  0.97539117746E+03  0.10100000352E+00 0.  1.
</event>
<event>
 5   0  0.7388013E-06  0.2837164E+04  0.7818609E-02  0.8291823E-01
       -1   -1    0    0    0  501  0.00000000000E+00  0.00000000000E+00  0.12937250446E+04  0.12937250446E+04  0.50400001928E-02 0.  1.
        1   -1    0    0  501    0  0.00000000000E+00  0.00000000000E+00 -0.15554884851E+04  0.15554884851E+04  0.50400001928E-02 0. -1.
    10030    2    1    2    0    0  0.00000000000E+00  0.00000000000E+00 -0.26176344048E+03  0.28492135297E+04  0.28371636609E+04 0.  0.
        1    1    3    3  502    0 -0.72972020770E+02  0.12802001704E+04  0.47843816839E+03  0.13686272221E+04  0.50400001928E-02 0.  1.
       -1    1    3    3    0  502  0.72972020770E+02 -0.12802001704E+04 -0.74020160887E+03  0.14805863075E+04  0.50400001928E-02 0. -1.
</event>
<event>
 5   0  0.6288000E-06  0.2799254E+04  0.7818609E-02  0.8303500E-01
        3   -1    0    0  501    0  0.00000000000E+00  0.00000000000E+00  0.12548614412E+04  0.12548614452E+04  0.10100000352E+00 0. -1.
       -3   -1    0    0    0  501  0.00000000000E+00  0.00000000000E+00 -0.15610928046E+04  0.15610928078E+04  0.10100000352E+00 0.  1.
    10030    2    1    2    0    0  0.00000000000E+00  0.00000000000E+00 -0.30623136342E+03  0.28159542531E+04  0.27992535983E+04 0.  0.
        4    1    3    3  502    0  0.30318301271E+03  0.66719537368E+03 -0.13526575949E+04  0.15384257498E+04  0.12699999809E+01 0.  1.
       -4    1    3    3    0  502 -0.30318301271E+03 -0.66719537368E+03  0.10464262314E+04  0.12775285032E+04  0.12699999809E+01 0. -1.
</event>
<event>
 5   0  0.7555871E-06  0.2774045E+04  0.7818609E-02  0.8311372E-01
       -1   -1    0    0    0  501  0.00000000000E+00  0.00000000000E+00  0.17923769315E+04  0.17923769315E+04  0.50400001928E-02 0.  1.
        1   -1    0    0  501    0  0.00000000000E+00  0.00000000000E+00 -0.10733412168E+04  0.10733412169E+04  0.50400001928E-02 0. -1.
    10030    2    1    2    0    0  0.00000000000E+00  0.00000000000E+00  0.71903571463E+03  0.28657181483E+04  0.27740454479E+04 0.  0.
        3    1    3    3  502    0 -0.36555956337E+03  0.94656904402E+03 -0.61735606519E+03  0.11877521925E+04  0.10100000352E+00 0. -1.
       -3    1    3    3    0  502  0.36555956337E+03 -0.94656904402E+03  0.13363917798E+04  0.16779659558E+04  0.10100000352E+00 0.  1.
</event>
<event>
 5   0  0.1923559E-05  0.2808295E+04  0.7818609E-02  0.8300698E-01
        2   -1    0    0  501    0  0.00000000000E+00  0.00000000000E+00  0.17539458620E+04  0.17539458620E+04  0.25500000920E-02 0. -1.
       -2   -1    0    0    0  501  0.00000000000E+00  0.00000000000E+00 -0.11241112308E+04  0.11241112308E+04  0.25500000920E-02 0.  1.
    10030    2    1    2    0    0  0.00000000000E+00  0.00000000000E+00  0.62983463122E+03  0.28780570928E+04  0.28082950284E+04 0.  0.
        4    1    3    3  502    0  0.10024623306E+04  0.94880520848E+03  0.57913284702E+03  0.14968495299E+04  0.12699999809E+01 0. -1.
       -4    1    3    3    0  502 -0.10024623306E+04 -0.94880520848E+03  0.50701784203E+02  0.13812075628E+04  0.12699999809E+01 0.  1.
</event>
<event>
 5   0  0.1904553E-05  0.2829401E+04  0.7818609E-02  0.8294198E-01
        2   -1    0    0  501    0  0.00000000000E+00  0.00000000000E+00  0.14283097860E+04  0.14283097860E+04  0.25500000920E-02 0.  1.
       -2   -1    0    0    0  501  0.00000000000E+00  0.00000000000E+00 -0.14012212860E+04  0.14012212860E+04  0.25500000920E-02 0. -1.
    10030    2    1    2    0    0  0.00000000000E+00  0.00000000000E+00  0.27088500026E+02  0.28295310719E+04  0.28294014032E+04 0.  0.
        1    1    3    3  502    0  0.11718034696E+04  0.29673536876E+02 -0.77856160781E+03  0.14071823149E+04  0.50400001928E-02 0. -1.
       -1    1    3    3    0  502 -0.11718034696E+04 -0.29673536876E+02  0.80565010784E+03  0.14223487570E+04  0.50400001928E-02 0.  1.
</event>
<event>
 5   0  0.7509685E-06  0.2697630E+04  0.7818609E-02  0.8335774E-01
        1   -1    0    0  501    0  0.00000000000E+00  0.00000000000E+00  0.28825343014E+04  0.28825343014E+04  0.50400001928E-02 0.  1.
       -1   -1    0    0    0  501  0.00000000000E+00  0.00000000000E+00 -0.63114645642E+03  0.63114645644E+03  0.50400001928E-02 0. -1.
    10030    2    1    2    0    0  0.00000000000E+00  0.00000000000E+00  0.22513878449E+04  0.35136807578E+04  0.26976295594E+04 0.  0.
        4    1    3    3  502    0 -0.68868595687E+03 -0.95005992406E+03  0.19920298314E+04  0.23119443480E+04  0.12699999809E+01 0.  1.
       -4    1    3    3    0  502  0.68868595687E+03  0.95005992406E+03  0.25935801360E+03  0.12017364098E+04  0.12699999809E+01 0. -1.
</event>
<event>
 5   0  0.1814230E-05  0.2673479E+04  0.7818609E-02  0.8343662E-01
       -2   -1    0    0    0  501  0.00000000000E+00  0.00000000000E+00  0.18519978036E+04  0.18519978036E+04  0.25500000920E-02 0.  1.
        2   -1    0    0  501    0  0.00000000000E+00  0.00000000000E+00 -0.96483536268E+03  0.96483536268E+03  0.25500000920E-02 0. -1.
    10030    2    1    2    0    0  0.00000000000E+00  0.00000000000E+00  0.88716244088E+03  0.28168331662E+04  0.26734793603E+04 0.  0.
        5    1    3    3  502    0  0.78468380463E+03 -0.37906050177E+03 -0.62439489716E+03  0.10720571882E+04  0.46999998093E+01 0. -1.
       -5    1    3    3    0  502 -0.78468380463E+03  0.37906050177E+03  0.15115573380E+04  0.17447759780E+04  0.46999998093E+01 0.  1.
</event>
<event>
 5   0  0.7509685E-06  0.2787664E+04  0.7818609E-02  0.8307108E-01
       -1   -1    0    0    0  501  0.00000000000E+00  0.00000000000E+00  0.10420533109E+04  0.10420533110E+04  0.50400001928E-02 0. -1.
        1   -1    0    0  501    0  0.00000000000E+00  0.00000000000E+00 -0.18643647337E+04  0.18643647337E+04  0.50400001928E-02 0.  1.
    10030    2    1    2    0    0  0.00000000000E+00  0.00000000000E+00 -0.82231142277E+03  0.29064180447E+04  0.27876638561E+04 0.  0.
        4    1    3    3  502    0 -0.32352771037E+03  0.98554533330E+03 -0.13818358380E+04  0.17278430714E+04  0.12699999809E+01 0.  1.
       -4    1    3    3    0  502  0.32352771037E+03 -0.98554533330E+03  0.55952441527E+03  0.11785749732E+04  0.12699999809E+01 0. -1.
</event>
<event>
 5   0  0.7388013E-06  0.2580444E+04  0.7818609E-02  0.8374874E-01
       -1   -1    0    0    0  501  0.00000000000E+00  0.00000000000E+00  0.12039609447E+04  0.12039609447E+04  0.50400001928E-02 0.  1.
        1   -1    0    0  501    0  0.00000000000E+00  0.00000000000E+00 -0.13826635691E+04  0.13826635691E+04  0.50400001928E-02 0. -1.
    10030    2    1    2    0    0  0.00000000000E+00  0.00000000000E+00 -0.17870262436E+03  0.25866245138E+04  0.25804440988E+04 0.  0.
        1    1    3    3  502    0 -0.29545203812E+03  0.12034974120E+04  0.27063974968E+03  0.12684414853E+04  0.50400001928E-02 0.  1.
       -1    1    3    3    0  502  0.29545203812E+03 -0.12034974120E+04 -0.44934237404E+03  0.13181830285E+04  0.50400001928E-02 0. -1.
</event>
<event>
 5   0  0.7388013E-06  0.2239365E+04  0.7818609E-02  0.8502220E-01
        1   -1    0    0  501    0  0.00000000000E+00  0.00000000000E+00  0.17620655047E+04  0.17620655047E+04  0.50400001928E-02 0. -1.
       -1   -1    0    0    0  501  0.00000000000E+00  0.00000000000E+00 -0.71148793265E+03  0.71148793267E+03  0.50400001928E-02 0.  1.
    10030    2    1    2    0    0  0.00000000000E+00  0.00000000000E+00  0.10505775721E+04  0.24735534374E+04  0.22393645020E+04 0.  0.
        1    1    3    3  502    0  0.14619287796E+03 -0.14287100783E+03  0.17412804340E+04  0.17532375858E+04  0.50400001928E-02 0. -1.
       -1    1    3    3    0  502 -0.14619287796E+03  0.14287100783E+03 -0.69070286196E+03  0.72031585155E+03  0.50400001928E-02 0.  1.
</event>
<event>
 5   0  0.7555871E-06  0.2725637E+04  0.7818609E-02  0.8326734E-01
       -1   -1    0    0    0  501  0.00000000000E+00  0.00000000000E+00  0.10257042395E+04  0.10257042395E+04  0.50400001928E-02 0.  1.
        1   -1    0    0  501    0  0.00000000000E+00  0.00000000000E+00 -0.18107314088E+04  0.18107314088E+04  0.50400001928E-02 0. -1.
    10030    2    1    2    0    0  0.00000000000E+00  0.00000000000E+00 -0.78502716934E+03  0.28364356483E+04  0.27256374540E+04 0.  0.
        3    1    3    3  502    0  0.31449604429E+03 -0.76463370280E+02  0.98512848145E+03  0.10369342043E+04  0.10100000352E+00 0.  1.
       -3    1    3    3    0  502 -0.31449604429E+03  0.76463370280E+02 -0.17701556508E+04  0.17995014440E+04  0.10100000352E+00 0. -1.
</event>
<event>
 5   0  0.1814230E-05  0.2646822E+04  0.7818609E-02  0.8352469E-01
        2   -1    0    0  501    0  0.00000000000E+00  0.00000000000E+00  0.10145354888E+04  0.10145354888E+04  0.25500000920E-02 0.  1.
       -2   -1    0    0    0  501  0.00000000000E+00  0.00000000000E+00 -0.17263236370E+04  0.17263236370E+04  0.25500000920E-02 0. -1.
    10030    2    1    2    0    0  0.00000000000E+00  0.00000000000E+00 -0.71178814820E+03  0.27408591257E+04  0.26468219394E+04 0.  0.
        5    1    3    3  502    0 -0.10234396419E+04 -0.50503320306E+03 -0.10497036776E+04  0.15506086345E+04  0.46999998093E+01 0. -1.
       -5    1    3    3    0  502  0.10234396419E+04  0.50503320306E+03  0.33791552942E+03  0.11902504912E+04  0.46999998093E+01 0.  1.
</event>
<event>
 5   0  0.1904553E-05  0.2840068E+04  0.7818609E-02  0.8290936E-01
       -2   -1    0    0    0  501  0.00000000000E+00  0.00000000000E+00  0.90671257809E+03  0.90671257810E+03  0.25500000920E-02 0.  1.
        2   -1    0    0  501    0  0.00000000000E+00  0.00000000000E+00 -0.22239651888E+04  0.22239651888E+04  0.25500000920E-02 0. -1.
    10030    2    1    2    0    0  0.00000000000E+00  0.00000000000E+00 -0.13172526107E+04  0.31306777669E+04  0.28400684569E+04 0.  0.
        1    1    3    3  502    0 -0.57081156811E+03  0.12847771489E+04 -0.43810888600E+03  0.14725547747E+04  0.50400001928E-02 0.  1.
       -1    1    3    3    0  502  0.57081156811E+03 -0.12847771489E+04 -0.87914372472E+03  0.16581229922E+04  0.50400001928E-02 0. -1.
</event>
<event>
 5   0  0.7509685E-06  0.2911741E+04  0.7818609E-02  0.8269393E-01
        1   -1    0    0  501    0  0.00000000000E+00  0.00000000000E+00  0.15841588589E+04  0.15841588590E+04  0.50400001928E-02 0.  1.
       -1   -1    0    0    0  501  0.00000000000E+00  0.00000000000E+00 -0.13379708231E+04  0.13379708231E+04  0.50400001928E-02 0. -1.
    10030    2    1    2    0    0  0.00000000000E+00  0.00000000000E+00  0.24618803587E+03  0.29221296820E+04  0.29117406014E+04 0.  0.
        4    1    3    3  502    0 -0.79194911047E+03  0.12212922633E+04  0.94381911724E+02  0.14586458597E+04  0.12699999809E+01 0. -1.
       -4    1    3    3    0  502  0.79194911047E+03 -0.12212922633E+04  0.15180612415E+03  0.14634838223E+04  0.12699999809E+01 0.  1.
</event>
<event>
 5   0  0.7555871E-06  0.2781634E+04  0.7818609E-02  0.8308993E-01
        1   -1    0    0  501    0  0.00000000000E+00  0.00000000000E+00  0.13448772836E+04  0.13448772836E+04  0.50400001928E-02 0.  1.
       -1   -1    0    0    0  501  0.00000000000E+00  0.00000000000E+00 -0.14383257866E+04  0.14383257866E+04  0.50400001928E-02 0. -1.
    10030    2    1    2    0    0  0.00000000000E+00  0.00000000000E+00 -0.93448502986E+02  0.27832030702E+04  0.27816338198E+04 0.  0.
        3    1    3    3  502    0 -0.12464778579E+04  0.60857843398E+03  0.54806666662E+02  0.13881925448E+04  0.10100000352E+00 0. -1.
       -3    1    3    3    0  502  0.12464778579E+04 -0.60857843398E+03 -0.14825516965E+03  0.13950105254E+04  0.10100000352E+00 0.  1.
</event>
<event>
 5   0  0.1814230E-05  0.2784570E+04  0.7818609E-02  0.8308075E-01
        2   -1    0    0  501    0  0.00000000000E+00  0.00000000000E+00  0.22884405731E+04  0.22884405731E+04  0.25500000920E-02 0.  1.
       -2   -1    0    0    0  501  0.00000000000E+00  0.00000000000E+00 -0.84706511909E+03  0.84706511909E+03  0.25500000920E-02 0. -1.
    10030    2    1    2    0    0  0.00000000000E+00  0.00000000000E+00  0.14413754540E+04  0.31355056921E+04  0.27845704779E+04 0.  0.
        5    1    3    3  502    0 -0.58900794278E+03  0.11621513427E+04  0.12733715968E+04  0.18218187104E+04  0.46999998093E+01 0.  1.
       -5    1    3    3    0  502  0.58900794278E+03 -0.11621513427E+04  0.16800385719E+03  0.13136869818E+04  0.46999998093E+01 0. -1.
</event>
<event>
 5   0  0.7613444E-06  0.2779836E+04  0.7818609E-02  0.8309556E-01
       -1   -1    0    0    0  501  0.00000000000E+00  0.00000000000E+00  0.10699002094E+04  0.10699002094E+04  0.50400001928E-02 0.  1.
        1   -1    0    0  501    0  0.00000000000E+00  0.00000000000E+00 -0.18056558512E+04  0.18056558512E+04  0.50400001928E-02 0. -1.
    10030    2    1    2    0    0  0.00000000000E+00  0.00000000000E+00 -0.73575564178E+03  0.28755560606E+04  0.27798356594E+04 0.  0.
        5    1    3    3  502    0  0.51153982305E+03 -0.12157061734E+04  0.85665671515E+02  0.13217318895E+04  0.46999998093E+01 0.  1.
       -5    1    3    3    0  502 -0.51153982305E+03  0.12157061734E+04 -0.82142131330E+03  0.15538241710E+04  0.46999998093E+01 0. -1.
</event>
<event>
 5   0  0.7555871E-06  0.2793227E+04  0.7818609E-02  0.8305374E-01
        1   -1    0    0  501    0  0.00000000000E+00  0.00000000000E+00  0.98389347626E+03  0.98389347627E+03  0.50400001928E-02 0.  1.
       -1   -1    0    0    0  501  0.00000000000E+00  0.00000000000E+00 -0.19824591994E+04  0.19824591994E+04  0.50400001928E-02 0. -1.
    10030    2    1    2    0    0  0.00000000000E+00  0.00000000000E+00 -0.99856572309E+03  0.29663526756E+04  0.27932265739E+04 0.  0.
        3    1    3    3  502    0 -0.78572076369E+02 -0.48763464631E+01 -0.19801010975E+04  0.19816653896E+04  0.10100000352E+00 0. -1.
       -3    1    3    3    0  502  0.78572076369E+02  0.48763464631E+01  0.98153537437E+03  0.98468728604E+03  0.10100000352E+00 0.  1.
</event>
<event>
 5   0  0.1923559E-05  0.2791983E+04  0.7818609E-02  0.8305762E-01
        2   -1    0    0  501    0  0.00000000000E+00  0.00000000000E+00  0.25445528969E+04  0.25445528969E+04  0.25500000920E-02 0.  1.
       -2   -1    0    0    0  501  0.00000000000E+00  0.00000000000E+00 -0.76586814925E+03  0.76586814925E+03  0.25500000920E-02 0. -1.
    10030    2    1    2    0    0  0.00000000000E+00  0.00000000000E+00  0.17786847476E+04  0.33104210461E+04  0.27919828207E+04 0.  0.
        4    1    3    3  502    0 -0.92706211946E+03  0.37918638313E+03 -0.26362213421E+03  0.10357242534E+04  0.12699999809E+01 0. -1.
       -4    1    3    3    0  502  0.92706211946E+03 -0.37918638313E+03  0.20423068818E+04  0.22746967928E+04  0.12699999809E+01 0.  1.
</event>
<event>
 5   0  0.1832502E-05  0.2866098E+04  0.7818609E-02  0.8283036E-01
        2   -1    0    0  501    0  0.00000000000E+00  0.00000000000E+00  0.10961642476E+04  0.10961642476E+04  0.25500000920E-02 0.  1.
       -2   -1    0    0    0  501  0.00000000000E+00  0.00000000000E+00 -0.18734682845E+04  0.18734682845E+04  0.25500000920E-02 0. -1.
    10030    2    1    2    0    0  0.00000000000E+00  0.00000000000E+00 -0.77730403688E+03  0.29696325321E+04  0.28660976623E+04 0.  0.
        2    1    3    3  502    0  0.60785528941E+03 -0.12929035450E+04 -0.27261851615E+03  0.14544443905E+04  0.25500000920E-02 0.  1.
       -2    1    3    3    0  502 -0.60785528941E+03  0.12929035450E+04 -0.50468552073E+03  0.15151881416E+04  0.25500000920E-02 0. -1.
</event>
<event>
 5   0  0.7681342E-06  0.2151720E+04  0.7818609E-02  0.8538796E-01
       -1   -1    0    0    0  501  0.00000000000E+00  0.00000000000E+00  0.62604921148E+03  0.62604921150E+03  0.50400001928E-02 0. -1.
        1   -1    0    0  501    0  0.00000000000E+00  0.00000000000E+00 -0.18488566505E+04  0.18488566505E+04  0.50400001928E-02 0.  1.
    10030    2    1    2    0    0  0.00000000000E+00  0.00000000000E+00 -0.12228074391E+04  0.24749058620E+04  0.21517204728E+04 0.  0.
        2    1    3    3  502    0 -0.82951251344E+02 -0.10624118242E+04 -0.44128528797E+03  0.11534004073E+04  0.25500000920E-02 0.  1.
       -2    1    3    3    0  502  0.82951251344E+02  0.10624118242E+04 -0.78152215108E+03  0.13215054547E+04  0.25500000920E-02 0. -1.
</event>
<event>
 5   0  0.1832502E-05  0.2908309E+04  0.7818609E-02  0.8270409E-01
       -2   -1    0    0    0  501  0.00000000000E+00  0.00000000000E+00  0.13045690916E+04  0.13045690916E+04  0.25500000920E-02 0. -1.
        2   -1    0    0  501    0  0.00000000000E+00  0.00000000000E+00 -0.16208922243E+04  0.16208922243E+04  0.25500000920E-02 0.  1.
    10030    2    1    2    0    0  0.00000000000E+00  0.00000000000E+00 -0.31632313266E+03  0.29254613159E+04  0.29083094035E+04 0.  0.
        2    1    3    3  502    0 -0.17713924529E+03  0.17905187279E+03  0.12824607399E+04  0.13069596148E+04  0.25500000920E-02 0. -1.
       -2    1    3    3    0  502  0.17713924529E+03 -0.17905187279E+03 -0.15987838726E+04  0.16185017011E+04  0.25500000920E-02 0.  1.
</event>
<event>
 5   0  0.7681342E-06  0.2828920E+04  0.7818609E-02  0.8294346E-01
        1   -1    0    0  501    0  0.00000000000E+00  0.00000000000E+00  0.10453494274E+04  0.10453494274E+04  0.50400001928E-02 0.  1.
       -1   -1    0    0    0  501  0.00000000000E+00  0.00000000000E+00 -0.19139024369E+04  0.19139024369E+04  0.50400001928E-02 0. -1.
    10030    2    1    2    0    0  0.00000000000E+00  0.00000000000E+00 -0.86855300945E+03  0.29592518643E+04  0.28289198056E+04 0.  0.
        2    1    3    3  502    0 -0.92171984542E+03  0.19944535305E+03 -0.15370514622E+04  0.18032950729E+04  0.25500000920E-02 0. -1.
       -2    1    3    3    0  502  0.92171984542E+03 -0.19944535305E+03  0.66849845279E+03  0.11559567914E+04  0.25500000920E-02 0.  1.
</event>
<event>
 5   0  0.7388013E-06  0.2666831E+04  0.7818609E-02  0.8345848E-01
        1   -1    0    0  501    0  0.00000000000E+00  0.00000000000E+00  0.88607448797E+03  0.88607448798E+03  0.50400001928E-02 0. -1.
       -1   -1    0    0    0  501  0.00000000000E+00  0.00000000000E+00 -0.20065990554E+04  0.20065990554E+04  0.50400001928E-02 0.  1.
    10030    2    1    2    0    0  0.00000000000E+00  0.00000000000E+00 -0.11205245674E+04  0.28926735433E+04  0.26668305012E+04 0.  0.
        1    1    3    3  502    0 -0.37284640755E+03 -0.86930236908E+03  0.45916661246E+03  0.10514442594E+04  0.50400001928E-02 0. -1.
       -1    1    3    3    0  502  0.37284640755E+03  0.86930236908E+03 -0.15796911798E+04  0.18412292840E+04  0.50400001928E-02 0.  1.
</event>
<event>
 5   0  0.1832502E-05  0.2792227E+04  0.7818609E-02  0.8305686E-01
       -2   -1    0    0    0  501  0.00000000000E+00  0.00000000000E+00  0.60897673191E+03  0.60897673191E+03  0.25500000920E-02 0.  1.
        2   -1    0    0  501    0  0.00000000000E+00  0.00000000000E+00 -0.32006687088E+04  0.32006687088E+04  0.25500000920E-02 0. -1.
    10030    2    1    2    0    0  0.00000000000E+00  0.00000000000E+00 -0.25916919769E+04  0.38096454407E+04  0.27922269035E+04 0.  0.
        2    1    3    3  502    0 -0.94562221745E+03  0.97997971617E+03 -0.87626753156E+03  0.16193845773E+04  0.25500000920E-02 0.  1.
       -2    1    3    3    0  502  0.94562221745E+03 -0.97997971617E+03 -0.17154244453E+04  0.21902608634E+04  0.25500000920E-02 0. -1.
</event>
<event>
 5   0  0.1923559E-05  0.2643655E+04  0.7818609E-02  0.8353522E-01
       -2   -1    0    0    0  501  0.00000000000E+00  0.00000000000E+00  0.11182036166E+04  0.11182036166E+04  0.25500000920E-02 0.  1.
        2   -1    0    0  501    0  0.00000000000E+00  0.00000000000E+00 -0.15625310494E+04  0.15625310494E+04  0.25500000920E-02 0. -1.
    10030    2    1    2    0    0  0.00000000000E+00  0.00000000000E+00 -0.44432743273E+03  0.26807346660E+04  0.26436549476E+04 0.  0.
        4    1    3    3  502    0  0.11275950123E+04 -0.56418006141E+03 -0.62453733705E+03  0.14070601095E+04  0.12699999809E+01 0. -1.
       -4    1    3    3    0  502 -0.11275950123E+04  0.56418006141E+03  0.18020990432E+03  0.12736745565E+04  0.12699999809E+01 0.  1.
</event>
<event>
 5   0  0.1904553E-05  0.2763511E+04  0.7818609E-02  0.8314687E-01
        2   -1    0    0  501    0  0.00000000000E+00  0.00000000000E+00  0.19795697868E+04  0.19795697868E+04  0.25500000920E-02 0. -1.
       -2   -1    0    0    0  501  0.00000000000E+00  0.00000000000E+00 -0.96447610930E+03  0.96447610930E+03  0.25500000920E-02 0.  1.
    10030    2    1    2    0    0  0.00000000000E+00  0.00000000000E+00  0.10150936775E+04  0.29440458961E+04  0.27635106413E+04 0.  0.
        1    1    3    3  502    0  0.12963436551E+04 -0.12497219619E+03  0.99935806352E+03  0.16415972286E+04  0.50400001928E-02 0. -1.
       -1    1    3    3    0  502 -0.12963436551E+04  0.12497219619E+03  0.15735614012E+02  0.13024486675E+04  0.50400001928E-02 0.  1.
</event>
<event>
 5   0  0.1904553E-05  0.2786602E+04  0.7818609E-02  0.8307440E-01
        2   -1    0    0  501    0  0.00000000000E+00  0.00000000000E+00  0.16163071288E+04  0.16163071288E+04  0.25500000920E-02 0. -1.
       -2   -1    0    0    0  501  0.00000000000E+00  0.00000000000E+00 -0.12010631861E+04  0.12010631861E+04  0.25500000920E-02 0.  1.
    10030    2    1    2    0    0  0.00000000000E+00  0.00000000000E+00  0.41524394271E+03  0.28173703150E+04  0.27866015072E+04 0.  0.
        1    1    3    3  502    0 -0.58159898756E+03  0.12370721600E+04 -0.64950966924E+02  0.13685114320E+04  0.50400001928E-02 0.  1.
       -1    1    3    3    0  502  0.58159898756E+03 -0.12370721600E+04  0.48019490963E+03  0.14488588829E+04  0.50400001928E-02 0. -1.
</event>
<event>
 5   0  0.7681342E-06  0.2893750E+04  0.7818609E-02  0.8274739E-01
        1   -1    0    0  501    0  0.00000000000E+00  0.00000000000E+00  0.20052256875E+04  0.20052256875E+04  0.50400001928E-02 0.  1.
       -1   -1    0    0    0  501  0.00000000000E+00  0.00000000000E+00 -0.10439959821E+04  0.10439959821E+04  0.50400001928E-02 0. -1.
    10030    2    1    2    0    0  0.00000000000E+00  0.00000000000E+00  0.96122970543E+03  0.30492216696E+04  0.28937502041E+04 0.  0.
        2    1    3    3  502    0 -0.41784733005E+03  0.13243460474E+04  0.90858708574E+03  0.16595238284E+04  0.25500000920E-02 0.  1.
       -2    1    3    3    0  502  0.41784733005E+03 -0.13243460474E+04  0.52642619689E+02  0.13896978412E+04  0.25500000920E-02 0. -1.
</event>
<event>
 5   0  0.6288000E-06  0.2712571E+04  0.7818609E-02  0.8330937E-01
        4   -1    0    0  501    0  0.00000000000E+00  0.00000000000E+00  0.24329006101E+04  0.24329009416E+04  0.12699999809E+01 0.  1.
       -4   -1    0    0    0  501  0.00000000000E+00  0.00000000000E+00 -0.75609697475E+03  0.75609804135E+03  0.12699999809E+01 0. -1.
    10030    2    1    2    0    0  0.00000000000E+00  0.00000000000E+00  0.16768036353E+04  0.31889989829E+04  0.27125714887E+04 0.  0.
        5    1    3    3  502    0 -0.50124013854E+03 -0.12222017606E+04  0.47705819093E+03  0.14045018432E+04  0.46999998093E+01 0. -1.
       -5    1    3    3    0  502  0.50124013854E+03  0.12222017606E+04  0.11997454444E+04  0.17844971397E+04  0.46999998093E+01 0.  1.
</event>
<event>
 5   0  0.1904553E-05  0.2801369E+04  0.7818609E-02  0.8302843E-01
       -2   -1    0    0    0  501  0.00000000000E+00  0.00000000000E+00  0.95148389345E+03  0.95148389346E+03  0.25500000920E-02 0. -1.
        2   -1    0    0  501    0  0.00000000000E+00  0.00000000000E+00 -0.20619557295E+04  0.20619557295E+04  0.25500000920E-02 0.  1.
    10030    2    1    2    0    0  0.00000000000E+00  0.00000000000E+00 -0.11104718361E+04  0.30134396230E+04  0.28013694263E+04 0.  0.
        1    1    3    3  502    0 -0.10863001405E+04 -0.34285592722E+03 -0.14319956693E+04  0.18298114054E+04  0.50400001928E-02 0.  1.
       -1    1    3    3    0  502  0.10863001405E+04  0.34285592722E+03  0.32152383326E+03  0.11836282176E+04  0.50400001928E-02 0. -1.
</event>
<event>
 5   0  0.1814230E-05  0.2885775E+04  0.7818609E-02  0.8277123E-01
       -2   -1    0    0    0  501  0.00000000000E+00  0.00000000000E+00  0.95817878354E+03  0.95817878354E+03  0.25500000920E-02 0.  1.
        2   -1    0    0  501    0  0.00000000000E+00  0.00000000000E+00 -0.21727927766E+04  0.21727927766E+04  0.25500000920E-02 0. -1.
    10030    2    1    2    0    0  0.00000000000E+00  0.00000000000E+00 -0.12146139931E+04  0.31309715602E+04  0.28857747241E+04 0.  0.
        5    1    3    3  502    0 -0.59719046514E+03 -0.79890440715E+03  0.52388127821E+03  0.11266580613E+04  0.46999998093E+01 0.  1.
       -5    1    3    3    0  502  0.59719046514E+03  0.79890440715E+03 -0.17384952713E+04  0.20043134989E+04  0.46999998093E+01 0. -1.
</event>
<event>
 5   0  0.1923559E-05  0.2762308E+04  0.7818609E-02  0.8315067E-01
       -2   -1    0    0    0  501  0.00000000000E+00  0.00000000000E+00  0.80034428190E+03  0.80034428190E+03  0.25500000920E-02 0. -1.
        2   -1    0    0  501    0  0.00000000000E+00  0.00000000000E+00 -0.23834577375E+04  0.23834577375E+04  0.25500000920E-02 0.  1.
    10030    2    1    2    0    0  0.00000000000E+00  0.00000000000E+00 -0.15831134556E+04  0.31838020194E+04  0.27623082893E+04 0.  0.
        4    1    3    3  502    0 -0.25846944801E+03 -0.13567250022E+04 -0.78151060429E+03  0.15869056761E+04  0.12699999809E+01 0. -1.
       -4    1    3    3    0  502  0.25846944801E+03  0.13567250022E+04 -0.80160285127E+03  0.15968963433E+04  0.12699999809E+01 0.  1.
</event>
<event>
 5   0  0.7388013E-06  0.2855187E+04  0.7818609E-02  0.8286337E-01
        1   -1    0    0  501    0  0.00000000000E+00  0.00000000000E+00  0.13179631984E+04  0.13179631984E+04  0.50400001928E-02 0. -1.
       -1   -1    0    0    0  501  0.00000000000E+00  0.00000000000E+00 -0.15463427178E+04  0.15463427178E+04  0.50400001928E-02 0.  1.
    10030    2    1    2    0    0  0.00000000000E+00  0.00000000000E+00 -0.22837951941E+03  0.28643059162E+04  0.28551867149E+04 0.  0.
        1    1    3    3  502    0 -0.74979212212E+03 -0.59732392628E+02 -0.13314350898E+04  0.15292075017E+04  0.50400001928E-02 0. -1.
       -1    1    3    3    0  502  0.74979212212E+03  0.59732392628E+02  0.11030555703E+04  0.13350984145E+04  0.50400001928E-02 0.  1.
</event>
<event>
 5   0  0.1874272E-05  0.2728664E+04  0.7818609E-02  0.8325764E-01
       -2   -1    0    0    0  501  0.00000000000E+00  0.00000000000E+00  0.10815358425E+04  0.10815358425E+04  0.25500000920E-02 0. -1.
        2   -1    0    0  501    0  0.00000000000E+00  0.00000000000E+00 -0.17210726551E+04  0.17210726551E+04  0.25500000920E-02 0.  1.
    10030    2    1    2    0    0  0.00000000000E+00  0.00000000000E+00 -0.63953681260E+03  0.28026084976E+04  0.27286639691E+04 0.  0.
        3    1    3    3  502    0  0.18315352536E+03 -0.26952003632E+03  0.10409792648E+04  0.10907905866E+04  0.10100000352E+00 0. -1.
       -3    1    3    3    0  502 -0.18315352536E+03  0.26952003632E+03 -0.16805160774E+04  0.17118179110E+04  0.10100000352E+00 0.  1.
</event>
<event>
 5   0  0.1904553E-05  0.2736284E+04  0.7818609E-02  0.8323327E-01
       -2   -1    0    0    0  501  0.00000000000E+00  0.00000000000E+00  0.11884662027E+04  0.11884662027E+04  0.25500000920E-02 0. -1.
        2   -1    0    0  501    0  0.00000000000E+00  0.00000000000E+00 -0.15749822012E+04  0.15749822012E+04  0.25500000920E-02 0.  1.
    10030    2    1    2    0    0  0.00000000000E+00  0.00000000000E+00 -0.38651599850E+03  0.27634484038E+04  0.27362844267E+04 0.  0.
        1    1    3    3  502    0 -0.53947628411E+03  0.10111647708E+04 -0.94788679179E+03  0.14872720749E+04  0.50400001928E-02 0.  1.
       -1    1    3    3    0  502  0.53947628411E+03 -0.10111647708E+04  0.56137079329E+03  0.12761763289E+04  0.50400001928E-02 0. -1.
</event>
<event>
 5   0  0.7509685E-06  0.2833005E+04  0.7818609E-02  0.8293094E-01
        1   -1    0    0  501    0  0.00000000000E+00  0.00000000000E+00  0.17582038452E+04  0.17582038452E+04  0.50400001928E-02 0. -1.
       -1   -1    0    0    0  501  0.00000000000E+00  0.00000000000E+00 -0.11412100026E+04  0.11412100026E+04  0.50400001928E-02 0.  1.
    10030    2    1    2    0    0  0.00000000000E+00  0.00000000000E+00  0.61699384261E+03  0.28994138477E+04  0.28330053404E+04 0.  0.
        4    1    3    3  502    0  0.13748846203E+04 -0.30877628212E+03  0.45619789908E+03  0.14811376194E+04  0.12699999809E+01 0. -1.
       -4    1    3    3    0  502 -0.13748846203E+04  0.30877628212E+03  0.16079594352E+03  0.14182762283E+04  0.12699999809E+01 0.  1.
</event>
<event>
 5   0  0.1874272E-05  0.2817615E+04  0.7818609E-02  0.8297820E-01
        2   -1    0    0  501    0  0.00000000000E+00  0.00000000000E+00  0.27649554835E+04  0.27649554835E+04  0.25500000920E-02 0.  1.
       -2   -1    0    0    0  501  0.00000000000E+00  0.00000000000E+00 -0.71781946629E+03  0.71781946629E+03  0.25500000920E-02 0. -1.
    10030    2    1    2    0    0  0.00000000000E+00  0.00000000000E+00  0.20471360172E+04  0.34827749498E+04  0.28176152111E+04 0.  0.
        3    1    3    3  502    0 -0.24648318477E+03 -0.10453105676E+04  0.21505719070E+04  0.24038277144E+04  0.10100000352E+00 0.  1.
       -3    1    3    3    0  502  0.24648318477E+03  0.10453105676E+04 -0.10343588983E+03  0.10789472354E+04  0.10100000352E+00 0. -1.
</event>
<event>
 5   0  0.1904553E-05  0.2681226E+04  0.7818609E-02  0.8341122E-01
        2   -1    0    0  501    0  0.00000000000E+00  0.00000000000E+00  0.15600723841E+04  0.15600723841E+04  0.25500000920E-02 0.  1.
       -2   -1    0    0    0  501  0.00000000000E+00  0.00000000000E+00 -0.11520256921E+04  0.11520256921E+04  0.25500000920E-02 0. -1.
    10030    2    1    2    0    0  0.00000000000E+00  0.00000000000E+00  0.40804669202E+03  0.27120980763E+04  0.26812261882E+04 0.  0.
        1    1    3    3  502    0  0.11448589852E+04 -0.25827669065E+03 -0.45138355806E+03  0.12574402815E+04  0.50400001928E-02 0. -1.
       -1    1    3    3    0  502 -0.11448589852E+04  0.25827669065E+03  0.85943025008E+03  0.14546577947E+04  0.50400001928E-02 0.  1.
</event>
<event>
 5   0  0.7681342E-06  0.2714393E+04  0.7818609E-02  0.8330350E-01
       -1   -1    0    0    0  501  0.00000000000E+00  0.00000000000E+00  0.99709170505E+03  0.99709170507E+03  0.50400001928E-02 0.  1.
        1   -1    0    0  501    0  0.00000000000E+00  0.00000000000E+00 -0.18473555929E+04  0.18473555929E+04  0.50400001928E-02 0. -1.
    10030    2    1    2    0    0  0.00000000000E+00  0.00000000000E+00 -0.85026388781E+03  0.28444472979E+04  0.27143934409E+04 0.  0.
        2    1    3    3  502    0 -0.47492763309E+03 -0.12685195618E+04 -0.33569149129E+03  0.13954880554E+04  0.25500000920E-02 0. -1.
       -2    1    3    3    0  502  0.47492763309E+03  0.12685195618E+04 -0.51457239652E+03  0.14489592426E+04  0.25500000920E-02 0.  1.
</event>
<event>
 5   0  0.1814230E-05  0.2533366E+04  0.7818609E-02  0.8391194E-01
        2   -1    0    0  501    0  0.00000000000E+00  0.00000000000E+00  0.18595909479E+04  0.18595909479E+04  0.25500000920E-02 0. -1.
       -2   -1    0    0    0  501  0.00000000000E+00  0.00000000000E+00 -0.86281632002E+03  0.86281632002E+03  0.25500000920E-02 0.  1.
    10030    2    1    2    0    0  0.00000000000E+00  0.00000000000E+00  0.99677462792E+03  0.27224072680E+04  0.25333656810E+04 0.  0.
        5    1    3    3  502    0 -0.34237632396E+03 -0.11268822380E+04  0.99941671285E+03  0.15446491451E+04  0.46999998093E+01 0. -1.
       -5    1    3    3    0  502  0.34237632396E+03  0.11268822380E+04 -0.26420849309E+01  0.11777581229E+04  0.46999998093E+01 0.  1.
</event>
<event>
 5   0  0.7388013E-06  0.2703183E+04  0.7818609E-02  0.8333973E-01
        1   -1    0    0  501    0  0.00000000000E+00  0.00000000000E+00  0.15487359856E+04  0.15487359856E+04  0.50400001928E-02 0. -1.
       -1   -1    0    0    0  501  0.00000000000E+00  0.00000000000E+00 -0.11795426794E+04  0.11795426794E+04  0.50400001928E-02 0.  1.
    10030    2    1    2    0    0  0.00000000000E+00  0.00000000000E+00  0.36919330620E+03  0.27282786650E+04  0.27031834523E+04 0.  0.
        1    1    3    3  502    0 -0.98419217770E+01  0.12091046046E+04 -0.42497168022E+03  0.12816519564E+04  0.50400001928E-02 0.  1.
       -1    1    3    3    0  502  0.98419217770E+01 -0.12091046046E+04  0.79416498642E+03  0.14466267086E+04  0.50400001928E-02 0. -1.
</event>
<event>
 5   0  0.1904553E-05  0.2125782E+04  0.7818609E-02  0.8549970E-01
        2   -1    0    0  501    0  0.00000000000E+00  0.00000000000E+00  0.28068250233E+04  0.28068250233E+04  0.25500000920E-02 0.  1.
       -2   -1    0    0    0  501  0.00000000000E+00  0.00000000000E+00 -0.40249657501E+03  0.40249657502E+03  0.25500000920E-02 0. -1.
    10030    2    1    2    0    0  0.00000000000E+00  0.00000000000E+00  0.24043284483E+04  0.32093215983E+04  0.21257821700E+04 0.  0.
        1    1    3    3  502    0  0.90801971336E+03 -0.12551838321E+03  0.20144444048E+04  0.22131969918E+04  0.50400001928E-02 0.  1.
       -1    1    3    3    0  502 -0.90801971336E+03  0.12551838321E+03  0.38988404349E+03  0.99612460655E+03  0.50400001928E-02 0. -1.
</event>
<event>
 5   0  0.1832502E-05  0.2806674E+04  0.7818609E-02  0.8301199E-01
        2   -1    0    0  501    0  0.00000000000E+00  0.00000000000E+00  0.13801919882E+04  0.13801919882E+04  0.25500000920E-02 0.  1.
       -2   -1    0    0    0  501  0.00000000000E+00  0.00000000000E+00 -0.14268696615E+04  0.14268696615E+04  0.25500000920E-02 0. -1.
    10030    2    1    2    0    0  0.00000000000E+00  0.00000000000E+00 -0.46677673330E+02  0.28070616497E+04  0.28066735293E+04 0.  0.
        2    1    3    3  502    0  0.95527628284E+02  0.13433074737E+04 -0.41804969051E+03  0.14100943374E+04  0.25500000920E-02 0.  1.
       -2    1    3    3    0  502 -0.95527628284E+02 -0.13433074737E+04  0.37137201718E+03  0.13969673123E+04  0.25500000920E-02 0. -1.
</event>
<event>
 5   0  0.6288000E-06  0.2766504E+04  0.7818609E-02  0.8313744E-01
        3   -1    0    0  501    0  0.00000000000E+00  0.00000000000E+00  0.28804382680E+04  0.28804382698E+04  0.10100000352E+00 0. -1.
       -3   -1    0    0    0  501  0.00000000000E+00  0.00000000000E+00 -0.66426908378E+03  0.66426909146E+03  0.10100000352E+00 0.  1.
    10030    2    1    2    0    0  0.00000000000E+00  0.00000000000E+00  0.22161691842E+04  0.35447073613E+04  0.27665040075E+04 0.  0.
        4    1    3    3  502    0 -0.32305025469E+03 -0.80503241241E+03  0.24886438845E+04  0.26354864160E+04  0.12699999809E+01 0. -1.
       -4    1    3    3    0  502  0.32305025469E+03  0.80503241241E+03 -0.27247470029E+03  0.90922094525E+03  0.12699999809E+01 0.  1.
</event>
<event>
 5   0  0.7555871E-06  0.2752141E+04  0.7818609E-02  0.8318282E-01
        1   -1    0    0  501    0  0.00000000000E+00  0.00000000000E+00  0.14673121005E+04  0.14673121005E+04  0.50400001928E-02 0.  1.
       -1   -1    0    0    0  501  0.00000000000E+00  0.00000000000E+00 -0.12905028581E+04  0.12905028581E+04  0.50400001928E-02 0. -1.
    10030    2    1    2    0    0  0.00000000000E+00  0.00000000000E+00  0.17680924244E+03  0.27578149586E+04  0.27521413186E+04 0.  0.
        3    1    3    3  502    0 -0.10379674447E+04 -0.12360082632E+03  0.98518916139E+03  0.14364021980E+04  0.10100000352E+00 0.  1.
       -3    1    3    3    0  502  0.10379674447E+04  0.12360082632E+03 -0.80837991895E+03  0.13214127606E+04  0.10100000352E+00 0. -1.
</event>
<event>
 5   0  0.1874272E-05  0.2829884E+04  0.7818609E-02  0.8294050E-01
       -2   -1    0    0    0  501  0.00000000000E+00  0.00000000000E+00  0.86448482604E+03  0.86448482605E+03  0.25500000920E-02 0.  1.
        2   -1    0    0  501    0  0.00000000000E+00  0.00000000000E+00 -0.23159005042E+04  0.23159005042E+04  0.25500000920E-02 0. -1.
    10030    2    1    2    0    0  0.00000000000E+00  0.00000000000E+00 -0.14514156782E+04  0.31803853302E+04  0.28298839867E+04 0.  0.
        3    1    3    3  502    0 -0.11641909928E+04  0.60281367505E+03 -0.12748654718E+03  0.13171855695E+04  0.10100000352E+00 0.  1.
       -3    1    3    3    0  502  0.11641909928E+04 -0.60281367505E+03 -0.13239291310E+04  0.18631997608E+04  0.10100000352E+00 0. -1.
</event>
<event>
 5   0  0.1814230E-05  0.2768649E+04  0.7818609E-02  0.8313068E-01
       -2   -1    0    0    0  501  0.00000000000E+00  0.00000000000E+00  0.92360821481E+03  0.92360821481E+03  0.25500000920E-02 0. -1.
        2   -1    0    0  501    0  0.00000000000E+00  0.00000000000E+00 -0.20748556300E+04  0.20748556300E+04  0.25500000920E-02 0.  1.
    10030    2    1    2    0    0  0.00000000000E+00  0.00000000000E+00 -0.11512474152E+04  0.29984638448E+04  0.27686485544E+04 0.  0.
        5    1    3    3  502    0 -0.19970231218E+03 -0.10167625172E+04  0.41852923562E+03  0.11175311365E+04  0.46999998093E+01 0. -1.
       -5    1    3    3    0  502  0.19970231218E+03  0.10167625172E+04 -0.15697766508E+04  0.18809327084E+04  0.46999998093E+01 0.  1.
</event>
<event>
 5   0  0.6288000E-06  0.1750971E+04  0.7818609E-02  0.8732816E-01
       -3   -1    0    0    0  501  0.00000000000E+00  0.00000000000E+00  0.13622446198E+04  0.13622446235E+04  0.10100000352E+00 0.  1.
        3   -1    0    0  501    0  0.00000000000E+00  0.00000000000E+00 -0.56265562393E+03  0.56265563300E+03  0.10100000352E+00 0. -1.
    10030    2    1    2    0    0  0.00000000000E+00  0.00000000000E+00  0.79958899586E+03  0.19249002565E+04  0.17509707123E+04 0.  0.
        4    1    3    3  502    0 -0.81192184956E+02 -0.62087460872E+02 -0.55607302529E+03  0.56538999465E+03  0.12699999809E+01 0. -1.
       -4    1    3    3    0  502  0.81192184956E+02  0.62087460872E+02  0.13556620211E+04  0.13595102619E+04  0.12699999809E+01 0.  1.
</event>
<event>
 5   0  0.1904553E-05  0.2830522E+04  0.7818609E-02  0.8293855E-01
        2   -1    0    0  501    0  0.00000000000E+00  0.00000000000E+00  0.12189425974E+04  0.12189425974E+04  0.25500000920E-02 0. -1.
       -2   -1    0    0    0  501  0.00000000000E+00  0.00000000000E+00 -0.16431971699E+04  0.16431971699E+04  0.25500000920E-02 0.  1.
    10030    2    1    2    0    0  0.00000000000E+00  0.00000000000E+00 -0.42425457249E+03  0.28621397674E+04  0.28305215254E+04 0.  0.
        1    1    3    3  502    0  0.20875411922E+03 -0.11760288661E+04  0.55552416872E+03  0.13172810172E+04  0.50400001928E-02 0.  1.
       -1    1    3    3    0  502 -0.20875411922E+03  0.11760288661E+04 -0.97977874121E+03  0.15448587502E+04  0.50400001928E-02 0. -1.
</event>
<event>
 5   0  0.7388013E-06  0.2781867E+04  0.7818609E-02  0.8308920E-01
       -1   -1    0    0    0  501  0.00000000000E+00  0.00000000000E+00  0.11783617671E+04  0.11783617671E+04  0.50400001928E-02 0. -1.
        1   -1    0    0  501    0  0.00000000000E+00  0.00000000000E+00 -0.16418524321E+04  0.16418524321E+04  0.50400001928E-02 0.  1.
    10030    2    1    2    0    0  0.00000000000E+00  0.00000000000E+00 -0.46349066498E+03  0.28202141992E+04  0.27818670947E+04 0.  0.
        1    1    3    3  502    0 -0.73685432688E+03 -0.52246596558E+03 -0.13040454324E+04  0.15863352338E+04  0.50400001928E-02 0.  1.
       -1    1    3    3    0  502  0.73685432688E+03  0.52246596558E+03  0.84055476738E+03  0.12338789654E+04  0.50400001928E-02 0. -1.
</event>
<event>
 5   0  0.1874272E-05  0.2803017E+04  0.7818609E-02  0.8302332E-01
        2   -1    0    0  501    0  0.00000000000E+00  0.00000000000E+00  0.17887008875E+04  0.17887008875E+04  0.25500000920E-02 0.  1.
       -2   -1    0    0    0  501  0.00000000000E+00  0.00000000000E+00 -0.10981298068E+04  0.10981298068E+04  0.25500000920E-02 0. -1.
    10030    2    1    2    0    0  0.00000000000E+00  0.00000000000E+00  0.69057108071E+03  0.28868306943E+04  0.28030167749E+04 0.  0.
        3    1    3    3  502    0  0.91250976638E+03  0.35600422507E+03  0.13776621786E+04  0.16903745652E+04  0.10100000352E+00 0.  1.
       -3    1    3    3    0  502 -0.91250976638E+03 -0.35600422507E+03 -0.68709109790E+03  0.11964561292E+04  0.10100000352E+00 0. -1.
</event>
<event>
 5   0  0.1923559E-05  0.2916954E+04  0.7818609E-02  0.8267851E-01
        2   -1    0    0  501    0  0.00000000000E+00  0.00000000000E+00  0.24801838347E+04  0.24801838347E+04  0.25500000920E-02 0. -1.
       -2   -1    0    0    0  501  0.00000000000E+00  0.00000000000E+00 -0.85766040555E+03  0.85766040556E+03  0.25500000920E-02 0.  1.
    10030    2    1    2    0    0  0.00000000000E+00  0.00000000000E+00  0.16225234291E+04  0.33378442402E+04  0.29169542153E+04 0.  0.
        4    1    3    3  502    0  0.11033940867E+04 -0.95323713287E+03  0.77481791761E+03  0.16512068194E+04  0.12699999809E+01 0.  1.
       -4    1    3    3    0  502 -0.11033940867E+04  0.95323713287E+03  0.84770551149E+03  0.16866374208E+04  0.12699999809E+01 0. -1.
</event>
<event>
 5   0  0.1832502E-05  0.2785126E+04  0.7818609E-02  0.8307901E-01
        2   -1    0    0  501    0  0.00000000000E+00  0.00000000000E+00  0.16722859061E+04  0.16722859061E+04  0.25500000920E-02 0.  1.
       -2   -1    0    0    0  501  0.00000000000E+00  0.00000000000E+00 -0.11596290106E+04  0.11596290106E+04  0.25500000920E-02 0. -1.
    10030    2    1    2    0    0  0.00000000000E+00  0.00000000000E+00  0.51265689549E+03  0.28319149167E+04  0.27851256709E+04 0.  0.
        2    1    3    3  502    0 -0.86869334432E+03 -0.33041982410E+03 -0.79812070781E+03  0.12250722635E+04  0.25500000920E-02 0. -1.
       -2    1    3    3    0  502  0.86869334432E+03  0.33041982410E+03  0.13107776033E+04  0.16068426531E+04  0.25500000920E-02 0.  1.
</event>
<event>
 5   0  0.1832502E-05  0.2706482E+04  0.7818609E-02  0.8332905E-01
        2   -1    0    0  501    0  0.00000000000E+00  0.00000000000E+00  0.11450342957E+04  0.11450342957E+04  0.25500000920E-02 0. -1.
       -2   -1    0    0    0  501  0.00000000000E+00  0.00000000000E+00 -0.15993067067E+04  0.15993067067E+04  0.25500000920E-02 0.  1.
    10030    2    1    2    0    0  0.00000000000E+00  0.00000000000E+00 -0.45427241100E+03  0.27443410024E+04  0.27064818703E+04 0.  0.
        2    1    3    3  502    0 -0.11686297536E+04  0.51617726978E+03 -0.67961428109E+03  0.14470694683E+04  0.25500000920E-02 0.  1.
       -2    1    3    3    0  502  0.11686297536E+04 -0.51617726978E+03  0.22534187009E+03  0.12972715342E+04  0.25500000920E-02 0. -1.
</event>
<event>
 5   0  0.1904553E-05  0.2729875E+04  0.7818609E-02  0.8325376E-01
        2   -1    0    0  501    0  0.00000000000E+00  0.00000000000E+00  0.58516935520E+03  0.58516935521E+03  0.25500000920E-02 0. -1.
       -2   -1    0    0    0  501  0.00000000000E+00  0.00000000000E+00 -0.31837868814E+04  0.31837868814E+04  0.25500000920E-02 0.  1.
    10030    2    1    2    0    0  0.00000000000E+00  0.00000000000E+00 -0.25986175262E+04  0.37689562366E+04  0.27298751008E+04 0.  0.
        1    1    3    3  502    0 -0.92305217300E+02  0.96408247776E+03 -0.26272161433E+04  0.28000428462E+04  0.50400001928E-02 0.  1.
       -1    1    3    3    0  502  0.92305217300E+02 -0.96408247776E+03  0.28598617135E+02  0.96891339035E+03  0.50400001928E-02 0. -1.
</event>
<event>
 5   0  0.6288000E-06  0.2794701E+04  0.7818609E-02  0.8304915E-01
        3   -1    0    0  501    0  0.00000000000E+00  0.00000000000E+00  0.14988432715E+04  0.14988432749E+04  0.10100000352E+00 0. -1.
       -3   -1    0    0    0  501  0.00000000000E+00  0.00000000000E+00 -0.13027299203E+04  0.13027299242E+04  0.10100000352E+00 0.  1.
    10030    2    1    2    0    0  0.00000000000E+00  0.00000000000E+00  0.19611335119E+03  0.28015731991E+04  0.27947006894E+04 0.  0.
        4    1    3    3  502    0 -0.22779797035E+03  0.13747705890E+04 -0.56398842178E+01  0.13935277209E+04  0.12699999809E+01 0.  1.
       -4    1    3    3    0  502  0.22779797035E+03 -0.13747705890E+04  0.20175323541E+03  0.14080454782E+04  0.12699999809E+01 0. -1.
</event>
<event>
 5   0  0.7388013E-06  0.2805474E+04  0.7818609E-02  0.8301571E-01
       -1   -1    0    0    0  501  0.00000000000E+00  0.00000000000E+00  0.11704192946E+04  0.11704192946E+04  0.50400001928E-02 0. -1.
        1   -1    0    0  501    0  0.00000000000E+00  0.00000000000E+00 -0.16811677084E+04  0.16811677084E+04  0.50400001928E-02 0.  1.
    10030    2    1    2    0    0  0.00000000000E+00  0.00000000000E+00 -0.51074841387E+03  0.28515870030E+04  0.28054740229E+04 0.  0.
        1    1    3    3  502    0 -0.63506722241E+03 -0.34859370823E+03  0.96555347148E+03  0.12071128600E+04  0.50400001928E-02 0. -1.
       -1    1    3    3    0  502  0.63506722241E+03  0.34859370823E+03 -0.14763018853E+04  0.16444741430E+04  0.50400001928E-02 0.  1.
</event>
<event>
 5   0  0.1904553E-05  0.2803184E+04  0.7818609E-02  0.8302281E-01
       -2   -1    0    0    0  501  0.00000000000E+00  0.00000000000E+00  0.11009324770E+04  0.11009324770E+04  0.25500000920E-02 0.  1.
        2   -1    0    0  501    0  0.00000000000E+00  0.00000000000E+00 -0.17843597811E+04  0.17843597811E+04  0.25500000920E-02 0. -1.
    10030    2    1    2    0    0  0.00000000000E+00  0.00000000000E+00 -0.68342730410E+03  0.28852922581E+04  0.28031836426E+04 0.  0.
        1    1    3    3  502    0 -0.66796395769E+03  0.57108205028E+03 -0.14655512144E+04  0.17088449078E+04  0.50400001928E-02 0. -1.
       -1    1    3    3    0  502  0.66796395769E+03 -0.57108205028E+03  0.78212391026E+03  0.11764473503E+04  0.50400001928E-02 0.  1.
</event>
<event>
 5   0  0.7681342E-06  0.2815008E+04  0.7818609E-02  0.8298624E-01
        1   -1    0    0  501    0  0.00000000000E+00  0.00000000000E+00  0.16631562409E+04  0.16631562409E+04  0.50400001928E-02 0.  1.
       -1   -1    0    0    0  501  0.00000000000E+00  0.00000000000E+00 -0.11911491739E+04  0.11911491739E+04  0.50400001928E-02 0. -1.
    10030    2    1    2    0    0  0.00000000000E+00  0.00000000000E+00  0.47200706703E+03  0.28543054148E+04  0.28150077672E+04 0.  0.
        2    1    3    3  502    0  0.69759146437E+03  0.19413235767E+03 -0.98780296470E+03  0.12247758654E+04  0.25500000920E-02 0. -1.
       -2    1    3    3    0  502 -0.69759146437E+03 -0.19413235767E+03  0.14598100317E+04  0.16295295493E+04  0.25500000920E-02 0.  1.
</event>
<event>
 5   0  0.7555871E-06  0.2825833E+04  0.7818609E-02  0.8295293E-01
        1   -1    0    0  501    0  0.00000000000E+00  0.00000000000E+00  0.11964139395E+04  0.11964139395E+04  0.50400001928E-02 0.  1.
       -1   -1    0    0    0  501  0.00000000000E+00  0.00000000000E+00 -0.16685976575E+04  0.16685976575E+04  0.50400001928E-02 0. -1.
    10030    2    1    2    0    0  0.00000000000E+00  0.00000000000E+00 -0.47218371806E+03  0.28650115970E+04  0.28258333262E+04 0.  0.
        3    1    3    3  502    0  0.99148985505E+03 -0.71548951718E+03 -0.95397374548E+03  0.15508202021E+04  0.10100000352E+00 0. -1.
       -3    1    3    3    0  502 -0.99148985505E+03  0.71548951718E+03  0.48179002742E+03  0.13141913950E+04  0.10100000352E+00 0.  1.
</event>
<event>
 5   0  0.7509685E-06  0.2623301E+04  0.7818609E-02  0.8360329E-01
        1   -1    0    0  501    0  0.00000000000E+00  0.00000000000E+00  0.11373769297E+04  0.11373769297E+04  0.50400001928E-02 0. -1.
       -1   -1    0    0    0  501  0.00000000000E+00  0.00000000000E+00 -0.15126273823E+04  0.15126273823E+04  0.50400001928E-02 0.  1.
    10030    2    1    2    0    0  0.00000000000E+00  0.00000000000E+00 -0.37525045262E+03  0.26500043120E+04  0.26233013459E+04 0.  0.
        4    1    3    3  502    0  0.78563693377E+03  0.53026397054E+03  0.72825725152E+03  0.11953097956E+04  0.12699999809E+01 0. -1.
       -4    1    3    3    0  502 -0.78563693377E+03 -0.53026397054E+03 -0.11035077041E+04  0.14546945164E+04  0.12699999809E+01 0.  1.
</event>
<event>
 5   0  0.1904553E-05  0.2888593E+04  0.7818609E-02  0.8276279E-01
       -2   -1    0    0    0  501  0.00000000000E+00  0.00000000000E+00  0.95299200385E+03  0.95299200386E+03  0.25500000920E-02 0. -1.
        2   -1    0    0  501    0  0.00000000000E+00  0.00000000000E+00 -0.21888877243E+04  0.21888877243E+04  0.25500000920E-02 0.  1.
    10030    2    1    2    0    0  0.00000000000E+00  0.00000000000E+00 -0.12358957205E+04  0.31418797282E+04  0.28885930822E+04 0.  0.
        1    1    3    3  502    0 -0.10946191739E+04  0.49688352796E+03 -0.14887130861E+04  0.19134657114E+04  0.50400001928E-02 0.  1.
       -1    1    3    3    0  502  0.10946191739E+04 -0.49688352796E+03  0.25281736563E+03  0.12284140167E+04  0.50400001928E-02 0. -1.
</event>
<event>
 5   0  0.7681342E-06  0.2825763E+04  0.7818609E-02  0.8295314E-01
        1   -1    0    0  501    0  0.00000000000E+00  0.00000000000E+00  0.97303593685E+03  0.97303593686E+03  0.50400001928E-02 0. -1.
       -1   -1    0    0    0  501  0.00000000000E+00  0.00000000000E+00 -0.20515523185E+04  0.20515523185E+04  0.50400001928E-02 0.  1.
    10030    2    1    2    0    0  0.00000000000E+00  0.00000000000E+00 -0.10785163817E+04  0.30245882554E+04  0.28257629995E+04 0.  0.
        2    1    3    3  502    0  0.34626872141E+03 -0.13690916725E+04 -0.58616027490E+03  0.15290186078E+04  0.25500000920E-02 0. -1.
       -2    1    3    3    0  502 -0.34626872141E+03  0.13690916725E+04 -0.49235610676E+03  0.14955696476E+04  0.25500000920E-02 0.  1.
</event>
<event>
 5   0  0.7613444E-06  0.2827341E+04  0.7818609E-02  0.8294830E-01
        1   -1    0    0  501    0  0.00000000000E+00  0.00000000000E+00  0.11059949914E+04  0.11059949914E+04  0.50400001928E-02 0.  1.
       -1   -1    0    0    0  501  0.00000000000E+00  0.00000000000E+00 -0.18069374875E+04  0.18069374875E+04  0.50400001928E-02 0. -1.
    10030    2    1    2    0    0  0.00000000000E+00  0.00000000000E+00 -0.70094249608E+03  0.29129324789E+04  0.28273406664E+04 0.  0.
        5    1    3    3  502    0 -0.17973653137E+03  0.13800965918E+04 -0.95034414048E+02  0.13950001625E+04  0.46999998093E+01 0.  1.
       -5    1    3    3    0  502  0.17973653137E+03 -0.13800965918E+04 -0.60590808203E+03  0.15179323165E+04  0.46999998093E+01 0. -1.
</event>
<event>
 5   0  0.7613444E-06  0.2723868E+04  0.7818609E-02  0.8327302E-01
        1   -1    0    0  501    0  0.00000000000E+00  0.00000000000E+00  0.12180680018E+04  0.12180680018E+04  0.50400001928E-02 0.  1.
       -1   -1    0    0    0  501  0.00000000000E+00  0.00000000000E+00 -0.15227922593E+04  0.15227922593E+04  0.50400001928E-02 0. -1.
    10030    2    1    2    0    0  0.00000000000E+00  0.00000000000E+00 -0.30472425750E+03  0.27408602611E+04  0.27238682233E+04 0.  0.
        5    1    3    3  502    0  0.77327449620E+03 -0.46254723053E+03  0.87525246864E+03  0.12561816592E+04  0.46999998093E+01 0.  1.
       -5    1    3    3    0  502 -0.77327449620E+03  0.46254723053E+03 -0.11799767261E+04  0.14846786020E+04  0.46999998093E+01 0. -1.
</event>
<event>
 5   0  0.1904553E-05  0.2129211E+04  0.7818609E-02  0.8548484E-01
        2   -1    0    0  501    0  0.00000000000E+00  0.00000000000E+00  0.24917826932E+04  0.24917826932E+04  0.25500000920E-02 0. -1.
       -2   -1    0    0    0  501  0.00000000000E+00  0.00000000000E+00 -0.45484899469E+03  0.45484899470E+03  0.25500000920E-02 0.  1.
    10030    2    1    2    0    0  0.00000000000E+00  0.00000000000E+00  0.20369336985E+04  0.29466316879E+04  0.21292109835E+04 0.  0.
        1    1    3    3  502    0 -0.96361735949E+03 -0.34548297306E+03  0.14230509462E+04  0.17529948362E+04  0.50400001928E-02 0. -1.
       -1    1    3    3    0  502  0.96361735949E+03  0.34548297306E+03  0.61388275234E+03  0.11936368517E+04  0.50400001928E-02 0.  1.
</event>
<event>
 5   0  0.7613444E-06  0.2801603E+04  0.7818609E-02  0.8302771E-01
       -1   -1    0    0    0  501  0.00000000000E+00  0.00000000000E+00  0.12491775446E+04  0.12491775446E+04  0.50400001928E-02 0. -1.
        1   -1    0    0  501    0  0.00000000000E+00  0.00000000000E+00 -0.15708298613E+04  0.15708298614E+04  0.50400001928E-02 0.  1.
    10030    2    1    2    0    0  0.00000000000E+00  0.00000000000E+00 -0.32165231673E+03  0.28200074060E+04  0.28016033904E+04 0.  0.
        5    1    3    3  502    0 -0.86737897006E+03 -0.10987661092E+04 -0.10959921948E+03  0.14041607171E+04  0.46999998093E+01 0. -1.
       -5    1    3    3    0  502  0.86737897006E+03  0.10987661092E+04 -0.21205309725E+03  0.14158466889E+04  0.46999998093E+01 0.  1.
</event>
<event>
 5   0  0.1832502E-05  0.2797709E+04  0.7818609E-02  0.8303980E-01
        2   -1    0    0  501    0  0.00000000000E+00  0.00000000000E+00  0.17566629679E+04  0.17566629679E+04  0.25500000920E-02 0. -1.
       -2   -1    0    0    0  501  0.00000000000E+00  0.00000000000E+00 -0.11139264673E+04  0.11139264673E+04  0.25500000920E-02 0.  1.
    10030    2    1    2    0    0  0.00000000000E+00  0.00000000000E+00  0.64273650068E+03  0.28705894352E+04  0.27977086153E+04 0.  0.
        2    1    3    3  502    0  0.17156425491E+03 -0.12957960727E+04 -0.18988035892E+03  0.13208241012E+04  0.25500000920E-02 0.  1.
       -2    1    3    3    0  502 -0.17156425491E+03  0.12957960727E+04  0.83261685960E+03  0.15497653340E+04  0.25500000920E-02 0. -1.
</event>
<event>
 5   0  0.7681342E-06  0.2807067E+04  0.7818609E-02  0.8301078E-01
       -1   -1    0    0    0  501  0.00000000000E+00  0.00000000000E+00  0.11753566118E+04  0.11753566118E+04  0.50400001928E-02 0. -1.
        1   -1    0    0  501    0  0.00000000000E+00  0.00000000000E+00 -0.16760076285E+04  0.16760076285E+04  0.50400001928E-02 0.  1.
    10030    2    1    2    0    0  0.00000000000E+00  0.00000000000E+00 -0.50065101675E+03  0.28513642403E+04  0.28070672579E+04 0.  0.
        2    1    3    3  502    0  0.60306896476E+02 -0.62496975598E+03  0.10247451151E+04  0.12018014265E+04  0.25500000920E-02 0. -1.
       -2    1    3    3    0  502 -0.60306896476E+02  0.62496975598E+03 -0.15253961319E+04  0.16495628139E+04  0.25500000920E-02 0.  1.
</event>
<event>
 5   0  0.1814230E-05  0.2512452E+04  0.7818609E-02  0.8398563E-01
       -2   -1    0    0    0  501  0.00000000000E+00  0.00000000000E+00  0.11481531179E+04  0.11481531179E+04  0.25500000920E-02 0.  1.
        2   -1    0    0  501    0  0.00000000000E+00  0.00000000000E+00 -0.13744718012E+04  0.13744718012E+04  0.25500000920E-02 0. -1.
    10030    2    1    2    0    0  0.00000000000E+00  0.00000000000E+00 -0.22631868328E+03  0.25226249191E+04  0.25124522555E+04 0.  0.
        5    1    3    3  502    0 -0.49137595188E+03 -0.92838395675E+03  0.57864047476E+03  0.11992472582E+04  0.46999998093E+01 0.  1.
       -5    1    3    3    0  502  0.49137595188E+03  0.92838395675E+03 -0.80495915804E+03  0.13233776609E+04  0.46999998093E+01 0. -1.
</event>
<event>
 5   0  0.1923559E-05  0.2803741E+04  0.7818609E-02  0.8302108E-01
       -2   -1    0    0    0  501  0.00000000000E+00  0.00000000000E+00  0.16219524192E+04  0.16219524192E+04  0.25500000920E-02 0. -1.
        2   -1    0    0  501    0  0.00000000000E+00  0.00000000000E+00 -0.12116517998E+04  0.12116517998E+04  0.25500000920E-02 0.  1.
    10030    2    1    2    0    0  0.00000000000E+00  0.00000000000E+00  0.41030061941E+03  0.28336042191E+04  0.28037414774E+04 0.  0.
        4    1    3    3  502    0 -0.43708614013E+03 -0.12103057992E+04 -0.35697115403E+03  0.13354079673E+04  0.12699999809E+01 0.  1.
       -4    1    3    3    0  502  0.43708614013E+03  0.12103057992E+04  0.76727177344E+03  0.14981962517E+04  0.12699999809E+01 0. -1.
</event>
<event>
 5   0  0.1923559E-05  0.2814606E+04  0.7818609E-02  0.8298748E-01
       -2   -1    0    0    0  501  0.00000000000E+00  0.00000000000E+00  0.11647433243E+04  0.11647433243E+04  0.25500000920E-02 0.  1.
        2   -1    0    0  501    0  0.00000000000E+00  0.00000000000E+00 -0.17003756391E+04  0.17003756391E+04  0.25500000920E-02 0. -1.
    10030    2    1    2    0    0  0.00000000000E+00  0.00000000000E+00 -0.53563231479E+03  0.28651189635E+04  0.28146056026E+04 0.  0.
        4    1    3    3  502    0 -0.19487859272E+03  0.12095307634E+04 -0.97274508370E+03  0.15643455323E+04  0.12699999809E+01 0.  1.
       -4    1    3    3    0  502  0.19487859272E+03 -0.12095307634E+04  0.43711276891E+03  0.13007734312E+04  0.12699999809E+01 0. -1.
</event>
<event>
 5   0  0.6288000E-06  0.1794607E+04  0.7818609E-02  0.8709173E-01
       -3   -1    0    0    0  501  0.00000000000E+00  0.00000000000E+00  0.49237044801E+03  0.49237045837E+03  0.10100000352E+00 0.  1.
        3   -1    0    0  501    0  0.00000000000E+00  0.00000000000E+00 -0.16352597537E+04  0.16352597568E+04  0.10100000352E+00 0. -1.
    10030    2    1    2    0    0  0.00000000000E+00  0.00000000000E+00 -0.11428893057E+04  0.21276302152E+04  0.17946070231E+04 0.  0.
        4    1    3    3  502    0  0.52219470186E+03  0.14332829033E+03  0.27681448095E+03  0.60815966260E+03  0.12699999809E+01 0.  1.
       -4    1    3    3    0  502 -0.52219470186E+03 -0.14332829033E+03 -0.14197037866E+04  0.15194705526E+04  0.12699999809E+01 0. -1.
</event>
<event>
 5   0  0.6288000E-06  0.2800712E+04  0.7818609E-02  0.8303047E-01
        3   -1    0    0  501    0  0.00000000000E+00  0.00000000000E+00  0.12156704929E+04  0.12156704971E+04  0.10100000352E+00 0.  1.
       -3   -1    0    0    0  501  0.00000000000E+00  0.00000000000E+00 -0.16130985709E+04  0.16130985741E+04  0.10100000352E+00 0. -1.
    10030    2    1    2    0    0  0.00000000000E+00  0.00000000000E+00 -0.39742807801E+03  0.28287690712E+04  0.28007115847E+04 0.  0.
        5    1    3    3  502    0  0.12755732767E+04 -0.51766363273E+02  0.38255751054E+03  0.13327187548E+04  0.46999998093E+01 0.  1.
       -5    1    3    3    0  502 -0.12755732767E+04  0.51766363273E+02 -0.77998558856E+03  0.14960503163E+04  0.46999998093E+01 0. -1.
</event>
<event>
 5   0  0.7613444E-06  0.2824873E+04  0.7818609E-02  0.8295588E-01
        1   -1    0    0  501    0  0.00000000000E+00  0.00000000000E+00  0.14466958531E+04  0.14466958531E+04  0.50400001928E-02 0.  1.
       -1   -1    0    0    0  501  0.00000000000E+00  0.00000000000E+00 -0.13789886123E+04  0.13789886123E+04  0.50400001928E-02 0. -1.
    10030    2    1    2    0    0  0.00000000000E+00  0.00000000000E+00  0.67707240741E+02  0.28256844654E+04  0.28248731702E+04 0.  0.
        5    1    3    3  502    0 -0.12122906625E+02  0.66454801370E+03  0.12804795696E+04  0.14427130850E+04  0.46999998093E+01 0.  1.
       -5    1    3    3    0  502  0.12122906625E+02 -0.66454801370E+03 -0.12127723289E+04  0.13829713804E+04  0.46999998093E+01 0. -1.
</event>
<event>
 5   0  0.1923559E-05  0.2698391E+04  0.7818609E-02  0.8335527E-01
       -2   -1    0    0    0  501  0.00000000000E+00  0.00000000000E+00  0.10246759431E+04  0.10246759431E+04  0.25500000920E-02 0. -1.
        2   -1    0    0  501    0  0.00000000000E+00  0.00000000000E+00 -0.17764921616E+04  0.17764921616E+04  0.25500000920E-02 0.  1.
    10030    2    1    2    0    0  0.00000000000E+00  0.00000000000E+00 -0.75181621850E+03  0.28011681046E+04  0.26983912103E+04 0.  0.
        4    1    3    3  502    0 -0.10291562485E+04 -0.34075883071E+02 -0.12808944660E+04  0.16434768010E+04  0.12699999809E+01 0.  1.
       -4    1    3    3    0  502  0.10291562485E+04  0.34075883071E+02  0.52907824750E+03  0.11576913036E+04  0.12699999809E+01 0. -1.
</event>
<event>
 5   0  0.1814230E-05  0.2739605E+04  0.7818609E-02  0.8322268E-01
        2   -1    0    0  501    0  0.00000000000E+00  0.00000000000E+00  0.28156175925E+04  0.28156175925E+04  0.25500000920E-02 0. -1.
       -2   -1    0    0    0  501  0.00000000000E+00  0.00000000000E+00 -0.66641090981E+03  0.66641090981E+03  0.25500000920E-02 0.  1.
    10030    2    1    2    0    0  0.00000000000E+00  0.00000000000E+00  0.21492066827E+04  0.34820285024E+04  0.27396045565E+04 0.  0.
        5    1    3    3  502    0  0.54930700747E+03  0.46319665638E+03 -0.40764638223E+03  0.82612771039E+03  0.46999998093E+01 0.  1.
       -5    1    3    3    0  502 -0.54930700747E+03 -0.46319665638E+03  0.25568530650E+04  0.26559007920E+04  0.46999998093E+01 0. -1.
</event>
<event>
 5   0  0.7613444E-06  0.2821996E+04  0.7818609E-02  0.8296472E-01
       -1   -1    0    0    0  501  0.00000000000E+00  0.00000000000E+00  0.17890146066E+04  0.17890146066E+04  0.50400001928E-02 0.  1.
        1   -1    0    0  501    0  0.00000000000E+00  0.00000000000E+00 -0.11128556579E+04  0.11128556579E+04  0.50400001928E-02 0. -1.
    10030    2    1    2    0    0  0.00000000000E+00  0.00000000000E+00  0.67615894869E+03  0.29018702645E+04  0.28219957668E+04 0.  0.
        5    1    3    3  502    0  0.87591667709E+03  0.13325075019E+03 -0.79114054600E+03  0.11878178485E+04  0.46999998093E+01 0. -1.
       -5    1    3    3    0  502 -0.87591667709E+03 -0.13325075019E+03  0.14672994947E+04  0.17140524160E+04  0.46999998093E+01 0.  1.
</event>
<event>
 5   0  0.1923559E-05  0.2540206E+04  0.7818609E-02  0.8388800E-01
       -2   -1    0    0    0  501  0.00000000000E+00  0.00000000000E+00  0.13455773138E+04  0.13455773138E+04  0.25500000920E-02 0.  1.
        2   -1    0    0  501    0  0.00000000000E+00  0.00000000000E+00 -0.11988616760E+04  0.11988616760E+04  0.25500000920E-02 0. -1.
    10030    2    1    2    0    0  0.00000000000E+00  0.00000000000E+00  0.14671563783E+03  0.25444389898E+04  0.25402055614E+04 0.  0.
        4    1    3    3  502    0 -0.14961933971E+03 -0.11730023348E+04  0.53763760670E+03  0.12989904670E+04  0.12699999809E+01 0.  1.
       -4    1    3    3    0  502  0.14961933971E+03  0.11730023348E+04 -0.39092196887E+03  0.12454485228E+04  0.12699999809E+01 0. -1.
</event>
<event>
 5   0  0.1904553E-05  0.2740338E+04  0.7818609E-02  0.8322034E-01
       -2   -1    0    0    0  501  0.00000000000E+00  0.00000000000E+00  0.10806854090E+04  0.10806854090E+04  0.25500000920E-02 0. -1.
        2   -1    0    0  501    0  0.00000000000E+00  0.00000000000E+00 -0.17371960973E+04  0.17371960973E+04  0.25500000920E-02 0.  1.
    10030    2    1    2    0    0  0.00000000000E+00  0.00000000000E+00 -0.65651068827E+03  0.28178815063E+04  0.27403375521E+04 0.  0.
        1    1    3    3  502    0 -0.10408341242E+03  0.43353836849E+03 -0.16605149463E+04  0.17193309049E+04  0.50400001928E-02 0.  1.
       -1    1    3    3    0  502  0.10408341242E+03 -0.43353836849E+03  0.10040042580E+04  0.10985506014E+04  0.50400001928E-02 0. -1.
</event>
<event>
 5   0  0.7555871E-06  0.2689217E+04  0.7818609E-02  0.8338512E-01
        1   -1    0    0  501    0  0.00000000000E+00  0.00000000000E+00  0.19216344853E+04  0.19216344853E+04  0.50400001928E-02 0. -1.
       -1   -1    0    0    0  501  0.00000000000E+00  0.00000000000E+00 -0.94085080707E+03  0.94085080708E+03  0.50400001928E-02 0.  1.
    10030    2    1    2    0    0  0.00000000000E+00  0.00000000000E+00  0.98078367820E+03  0.28624852924E+04  0.26892165077E+04 0.  0.
        3    1    3    3  502    0  0.62230722494E+03  0.11538286104E+04  0.17215617370E+03  0.13222044103E+04  0.10100000352E+00 0.  1.
       -3    1    3    3    0  502 -0.62230722494E+03 -0.11538286104E+04  0.80862750450E+03  0.15402808820E+04  0.10100000352E+00 0. -1.
</event>
<event>
 5   0  0.1874272E-05  0.2389399E+04  0.7818609E-02  0.8443483E-01
        2   -1    0    0  501    0  0.00000000000E+00  0.00000000000E+00  0.15842914727E+04  0.15842914727E+04  0.25500000920E-02 0.  1.
       -2   -1    0    0    0  501  0.00000000000E+00  0.00000000000E+00 -0.90091169407E+03  0.90091169408E+03  0.25500000920E-02 0. -1.
    10030    2    1    2    0    0  0.00000000000E+00  0.00000000000E+00  0.68337977866E+03  0.24852031668E+04  0.23893988488E+04 0.  0.
        3    1    3    3  502    0 -0.10919849216E+03 -0.60648892347E+03  0.14062283847E+04  0.15353277842E+04  0.10100000352E+00 0.  1.
       -3    1    3    3    0  502  0.10919849216E+03  0.60648892347E+03 -0.72284860602E+03  0.94987538257E+03  0.10100000352E+00 0. -1.
</event>
<event>
 5   0  0.7555871E-06  0.2800497E+04  0.7818609E-02  0.8303114E-01
        1   -1    0    0  501    0  0.00000000000E+00  0.00000000000E+00  0.12288265225E+04  0.12288265225E+04  0.50400001928E-02 0.  1.
       -1   -1    0    0    0  501  0.00000000000E+00  0.00000000000E+00 -0.15955837390E+04  0.15955837390E+04  0.50400001928E-02 0. -1.
    10030    2    1    2    0    0  0.00000000000E+00  0.00000000000E+00 -0.36675721648E+03  0.28244102615E+04  0.28004968255E+04 0.  0.
        3    1    3    3  502    0 -0.58036323544E+02 -0.13856313167E+04  0.11541602484E+02  0.13868942207E+04  0.10100000352E+00 0. -1.
       -3    1    3    3    0  502  0.58036323544E+02  0.13856313167E+04 -0.37829881896E+03  0.14375160407E+04  0.10100000352E+00 0.  1.
</event>
<event>
 5   0  0.7613444E-06  0.2801845E+04  0.7818609E-02  0.8302696E-01
        1   -1    0    0  501    0  0.00000000000E+00  0.00000000000E+00  0.11711923724E+04  0.11711923724E+04  0.50400001928E-02 0. -1.
       -1   -1    0    0    0  501  0.00000000000E+00  0.00000000000E+00 -0.16757142022E+04  0.16757142022E+04  0.50400001928E-02 0.  1.
    10030    2    1    2    0    0  0.00000000000E+00  0.00000000000E+00 -0.50452182985E+03  0.28469065746E+04  0.28018448864E+04 0.  0.
        5    1    3    3  502    0  0.21319136788E+02  0.11466960044E+04  0.56516203663E+03  0.12785915883E+04  0.46999998093E+01 0. -1.
       -5    1    3    3    0  502 -0.21319136788E+02 -0.11466960044E+04 -0.10696838665E+04  0.15683149863E+04  0.46999998093E+01 0.  1.
</event>
<event>
 5   0  0.7388013E-06  0.2659956E+04  0.7818609E-02  0.8348116E-01
        1   -1    0    0  501    0  0.00000000000E+00  0.00000000000E+00  0.19070082117E+04  0.19070082117E+04  0.50400001928E-02 0. -1.
       -1   -1    0    0    0  501  0.00000000000E+00  0.00000000000E+00 -0.92754815592E+03  0.92754815593E+03  0.50400001928E-02 0.  1.
    10030    2    1    2    0    0  0.00000000000E+00  0.00000000000E+00  0.97946005579E+03  0.28345563676E+04  0.26599563531E+04 0.  0.
        1    1    3    3  502    0 -0.37339598502E+03  0.72130800268E+03 -0.63255258645E+03  0.10294817002E+04  0.50400001928E-02 0.  1.
       -1    1    3    3    0  502  0.37339598502E+03 -0.72130800268E+03  0.16120126422E+04  0.18050746675E+04  0.50400001928E-02 0. -1.
</event>
<event>
 5   0  0.7388013E-06  0.2775901E+04  0.7818609E-02  0.8310789E-01
        1   -1    0    0  501    0  0.00000000000E+00  0.00000000000E+00  0.11697534552E+04  0.11697534552E+04  0.50400001928E-02 0. -1.
       -1   -1    0    0    0  501  0.00000000000E+00  0.00000000000E+00 -0.16468481560E+04  0.16468481560E+04  0.50400001928E-02 0.  1.
    10030    2    1    2    0    0  0.00000000000E+00  0.00000000000E+00 -0.47709470082E+03  0.28166016112E+04  0.27759008056E+04 0.  0.
        1    1    3    3  502    0 -0.84761727097E+03  0.10879761751E+04 -0.80510251971E+02  0.13815314315E+04  0.50400001928E-02 0. -1.
       -1    1    3    3    0  502  0.84761727097E+03 -0.10879761751E+04 -0.39658444885E+03  0.14350701797E+04  0.50400001928E-02 0.  1.
</event>
<event>
 5   0  0.1874272E-05  0.2816206E+04  0.7818609E-02  0.8298255E-01
       -2   -1    0    0    0  501  0.00000000000E+00  0.00000000000E+00  0.10231380624E+04  0.10231380625E+04  0.25500000920E-02 0.  1.
        2   -1    0    0  501    0  0.00000000000E+00  0.00000000000E+00 -0.19379141969E+04  0.19379141969E+04  0.25500000920E-02 0. -1.
    10030    2    1    2    0    0  0.00000000000E+00  0.00000000000E+00 -0.91477613445E+03  0.29610522594E+04  0.28162057997E+04 0.  0.
        3    1    3    3  502    0 -0.11217335691E+04 -0.42175314302E+03  0.31995595063E+03  0.12403764486E+04  0.10100000352E+00 0.  1.
       -3    1    3    3    0  502  0.11217335691E+04  0.42175314302E+03 -0.12347320851E+04  0.17206758108E+04  0.10100000352E+00 0. -1.
</event>
<event>
 5   0  0.7388013E-06  0.2536135E+04  0.7818609E-02  0.8390224E-01
       -1   -1    0    0    0  501  0.00000000000E+00  0.00000000000E+00  0.16703793046E+04  0.16703793046E+04  0.50400001928E-02 0.  1.
        1   -1    0    0  501    0  0.00000000000E+00  0.00000000000E+00 -0.96265238218E+03  0.96265238220E+03  0.50400001928E-02 0. -1.
    10030    2    1    2    0    0  0.00000000000E+00  0.00000000000E+00  0.70772692238E+03  0.26330316868E+04  0.25361345522E+04 0.  0.
        1    1    3    3  502    0 -0.47221798091E+03 -0.10326946256E+04  0.93982658465E+03  0.14740156107E+04  0.50400001928E-02 0.  1.
       -1    1    3    3    0  502  0.47221798091E+03  0.10326946256E+04 -0.23209966228E+03  0.11590160761E+04  0.50400001928E-02 0. -1.
</event>
<event>
 5   0  0.7681342E-06  0.2804838E+04  0.7818609E-02  0.8301768E-01
        1   -1    0    0  501    0  0.00000000000E+00  0.00000000000E+00  0.19221069171E+04  0.19221069171E+04  0.50400001928E-02 0. -1.
       -1   -1    0    0    0  501  0.00000000000E+00  0.00000000000E+00 -0.10232409999E+04  0.10232410000E+04  0.50400001928E-02 0.  1.
    10030    2    1    2    0    0  0.00000000000E+00  0.00000000000E+00  0.89886591718E+03  0.29453479171E+04  0.28048376808E+04 0.  0.
        2    1    3    3  502    0 -0.60505062674E+03 -0.12499816212E+04  0.65477510563E+03  0.15353405985E+04  0.25500000920E-02 0. -1.
       -2    1    3    3    0  502  0.60505062674E+03  0.12499816212E+04  0.24409081155E+03  0.14100073186E+04  0.25500000920E-02 0.  1.
</event>
<event>
 5   0  0.7613444E-06  0.2807177E+04  0.7818609E-02  0.8301044E-01
       -1   -1    0    0    0  501  0.00000000000E+00  0.00000000000E+00  0.10517104296E+04  0.10517104296E+04  0.50400001928E-02 0.  1.
        1   -1    0    0  501    0  0.00000000000E+00  0.00000000000E+00 -0.18731972391E+04  0.18731972391E+04  0.50400001928E-02 0. -1.
    10030    2    1    2    0    0  0.00000000000E+00  0.00000000000E+00 -0.82148680954E+03  0.29249076687E+04  0.28071772819E+04 0.  0.
        5    1    3    3  502    0 -0.16707562848E+03  0.34604365456E+03 -0.18173142552E+04  0.18575019969E+04  0.46999998093E+01 0. -1.
       -5    1    3    3    0  502  0.16707562848E+03 -0.34604365456E+03  0.99582744567E+03  0.10674056717E+04  0.46999998093E+01 0.  1.
</event>
<event>
 5   0  0.1923559E-05  0.2780265E+04  0.7818609E-02  0.8309422E-01
       -2   -1    0    0    0  501  0.00000000000E+00  0.00000000000E+00  0.13315978741E+04  0.13315978741E+04  0.25500000920E-02 0. -1.
        2   -1    0    0  501    0  0.00000000000E+00  0.00000000000E+00 -0.14512402315E+04  0.14512402315E+04  0.25500000920E-02 0.  1.
    10030    2    1    2    0    0  0.00000000000E+00  0.00000000000E+00 -0.11964235741E+03  0.27828381056E+04  0.27802650284E+04 0.  0.
        4    1    3    3  502    0 -0.21360303997E+03  0.26773383944E+03  0.12887041140E+04  0.13334420024E+04  0.12699999809E+01 0. -1.
       -4    1    3    3    0  502  0.21360303997E+03 -0.26773383944E+03 -0.14083464714E+04  0.14493961032E+04  0.12699999809E+01 0.  1.
</event>
<event>
 5   0  0.1874272E-05  0.2815596E+04  0.7818609E-02  0.8298443E-01
       -2   -1    0    0    0  501  0.00000000000E+00  0.00000000000E+00  0.12624379176E+04  0.12624379176E+04  0.25500000920E-02 0.  1.
        2   -1    0    0  501    0  0.00000000000E+00  0.00000000000E+00 -0.15698956812E+04  0.15698956812E+04  0.25500000920E-02 0. -1.
    10030    2    1    2    0    0  0.00000000000E+00  0.00000000000E+00 -0.30745776359E+03  0.28323335988E+04  0.28155964445E+04 0.  0.
        3    1    3    3  502    0  0.41065617575E+03  0.10818069822E+04  0.65287986743E+03  0.13286071552E+04  0.10100000352E+00 0.  1.
       -3    1    3    3    0  502 -0.41065617575E+03 -0.10818069822E+04 -0.96033763102E+03  0.15037264436E+04  0.10100000352E+00 0. -1.
</event>
<event>
 5   0  0.7388013E-06  0.2722468E+04  0.7818609E-02  0.8327751E-01
        1   -1    0    0  501    0  0.00000000000E+00  0.00000000000E+00  0.13832215199E+04  0.13832215199E+04  0.50400001928E-02 0. -1.
       -1   -1    0    0    0  501  0.00000000000E+00  0.00000000000E+00 -0.13395960733E+04  0.13395960733E+04  0.50400001928E-02 0.  1.
    10030    2    1    2    0    0  0.00000000000E+00  0.00000000000E+00  0.43625446583E+02  0.27228175932E+04  0.27224680836E+04 0.  0.
        1    1    3    3  502    0 -0.76138372137E+03 -0.92999827003E+03 -0.61729682848E+03  0.13511688747E+04  0.50400001928E-02 0.  1.
       -1    1    3    3    0  502  0.76138372137E+03  0.92999827003E+03  0.66092227506E+03  0.13716487186E+04  0.50400001928E-02 0. -1.
</event>
<event>
 5   0  0.7681342E-06  0.2787557E+04  0.7818609E-02  0.8307142E-01
       -1   -1    0    0    0  501  0.00000000000E+00  0.00000000000E+00  0.13956080975E+04  0.13956080975E+04  0.50400001928E-02 0.  1.
        1   -1    0    0  501    0  0.00000000000E+00  0.00000000000E+00 -0.13919508190E+04  0.13919508190E+04  0.50400001928E-02 0. -1.
    10030    2    1    2    0    0  0.00000000000E+00  0.00000000000E+00  0.36572785031E+01  0.27875589165E+04  0.27875565174E+04 0.  0.
        2    1    3    3  502    0 -0.62756426091E+03 -0.63024579914E+03  0.10749424020E+04  0.13951873840E+04  0.25500000920E-02 0.  1.
       -2    1    3    3    0  502  0.62756426091E+03  0.63024579914E+03 -0.10712851235E+04  0.13923715325E+04  0.25500000920E-02 0. -1.
</event>
<event>
 5   0  0.7509685E-06  0.2619574E+04  0.7818609E-02  0.8361582E-01
        1   -1    0    0  501    0  0.00000000000E+00  0.00000000000E+00  0.19406417725E+04  0.19406417725E+04  0.50400001928E-02 0.  1.
       -1   -1    0    0    0  501  0.00000000000E+00  0.00000000000E+00 -0.88400781084E+03  0.88400781086E+03  0.50400001928E-02 0. -1.
    10030    2    1    2    0    0  0.00000000000E+00  0.00000000000E+00  0.10566339616E+04  0.28246495833E+04  0.26195743814E+04 0.  0.
        4    1    3    3  502    0  0.11469505595E+04 -0.52420974489E+03  0.90992871644E+03  0.15550766298E+04  0.12699999809E+01 0. -1.
       -4    1    3    3    0  502 -0.11469505595E+04  0.52420974489E+03  0.14670524519E+03  0.12695729536E+04  0.12699999809E+01 0.  1.
</event>
<event>
 5   0  0.7555871E-06  0.2312791E+04  0.7818609E-02  0.8472895E-01
        1   -1    0    0  501    0  0.00000000000E+00  0.00000000000E+00  0.17444035505E+04  0.17444035506E+04  0.50400001928E-02 0.  1.
       -1   -1    0    0    0  501  0.00000000000E+00  0.00000000000E+00 -0.76659471638E+03  0.76659471640E+03  0.50400001928E-02 0. -1.
    10030    2    1    2    0    0  0.00000000000E+00  0.00000000000E+00  0.97780883417E+03  0.25109982669E+04  0.23127909937E+04 0.  0.
        3    1    3    3  502    0  0.68594123862E+03 -0.92643426088E+03  0.38907479126E+03  0.12166244392E+04  0.10100000352E+00 0.  1.
       -3    1    3    3    0  502 -0.68594123862E+03  0.92643426088E+03  0.58873404291E+03  0.12943738278E+04  0.10100000352E+00 0. -1.
</event>
<event>
 5   0  0.7388013E-06  0.2827305E+04  0.7818609E-02  0.8294841E-01
        1   -1    0    0  501    0  0.00000000000E+00  0.00000000000E+00  0.13225767531E+04  0.13225767531E+04  0.50400001928E-02 0. -1.
       -1   -1    0    0    0  501  0.00000000000E+00  0.00000000000E+00 -0.15110003020E+04  0.15110003020E+04  0.50400001928E-02 0.  1.
    10030    2    1    2    0    0  0.00000000000E+00  0.00000000000E+00 -0.18842354895E+03  0.28335770551E+04  0.28273053414E+04 0.  0.
        1    1    3    3  502    0  0.13568393421E+04  0.35969040053E+03  0.73562343949E+02  0.14056321008E+04  0.50400001928E-02 0. -1.
       -1    1    3    3    0  502 -0.13568393421E+04 -0.35969040053E+03 -0.26198589290E+03  0.14279449543E+04  0.50400001928E-02 0.  1.
</event>
<event>
 5   0  0.1923559E-05  0.2757623E+04  0.7818609E-02  0.8316547E-01
        2   -1    0    0  501    0  0.00000000000E+00  0.00000000000E+00  0.14391492829E+04  0.14391492829E+04  0.25500000920E-02 0.  1.
       -2   -1    0    0    0  501  0.00000000000E+00  0.00000000000E+00 -0.13210034372E+04  0.13210034372E+04  0.25500000920E-02 0. -1.
    10030    2    1    2    0    0  0.00000000000E+00  0.00000000000E+00  0.11814584567E+03  0.27601527201E+04  0.27576229977E+04 0.  0.
        4    1    3    3  502    0 -0.40431584208E+03  0.11267701157E+04  0.74383306369E+03  0.14093868998E+04  0.12699999809E+01 0.  1.
       -4    1    3    3    0  502  0.40431584208E+03 -0.11267701157E+04 -0.62568721802E+03  0.13507658204E+04  0.12699999809E+01 0. -1.
</event>
<event>
 5   0  0.1923559E-05  0.2554682E+04  0.7818609E-02  0.8383760E-01
       -2   -1    0    0    0  501  0.00000000000E+00  0.00000000000E+00  0.80018112109E+03  0.80018112110E+03  0.25500000920E-02 0.  1.
        2   -1    0    0  501    0  0.00000000000E+00  0.00000000000E+00 -0.20390391098E+04  0.20390391098E+04  0.25500000920E-02 0. -1.
    10030    2    1    2    0    0  0.00000000000E+00  0.00000000000E+00 -0.12388579887E+04  0.28392202309E+04  0.25546824467E+04 0.  0.
        4    1    3    3  502    0  0.74836624130E+03  0.22633337280E+03 -0.17420428319E+04  0.19094485245E+04  0.12699999809E+01 0. -1.
       -4    1    3    3    0  502 -0.74836624130E+03 -0.22633337280E+03  0.50318484315E+03  0.92977170641E+03  0.12699999809E+01 0.  1.
</event>
<event>
 5   0  0.7388013E-06  0.2777612E+04  0.7818609E-02  0.8310253E-01
        1   -1    0    0  501    0  0.00000000000E+00  0.00000000000E+00  0.12703178910E+04  0.12703178910E+04  0.50400001928E-02 0. -1.
       -1   -1    0    0    0  501  0.00000000000E+00  0.00000000000E+00 -0.15183455047E+04  0.15183455047E+04  0.50400001928E-02 0.  1.
    10030    2    1    2    0    0  0.00000000000E+00  0.00000000000E+00 -0.24802761369E+03  0.27886633958E+04  0.27776115347E+04 0.  0.
        1    1    3    3  502    0 -0.58796657176E+03 -0.21958547125E+02 -0.13870314806E+04  0.15066662522E+04  0.50400001928E-02 0.  1.
       -1    1    3    3    0  502  0.58796657176E+03  0.21958547125E+02  0.11390038669E+04  0.12819971436E+04  0.50400001928E-02 0. -1.
</event>
<event>
 5   0  0.7509685E-06  0.2808643E+04  0.7818609E-02  0.8300590E-01
       -1   -1    0    0    0  501  0.00000000000E+00  0.00000000000E+00  0.12068932734E+04  0.12068932734E+04  0.50400001928E-02 0. -1.
        1   -1    0    0  501    0  0.00000000000E+00  0.00000000000E+00 -0.16340453540E+04  0.16340453540E+04  0.50400001928E-02 0.  1.
    10030    2    1    2    0    0  0.00000000000E+00  0.00000000000E+00 -0.42715208062E+03  0.28409386275E+04  0.28086426232E+04 0.  0.
        4    1    3    3  502    0  0.90083681002E+03 -0.59552882075E+03  0.69449707916E+03  0.12839350998E+04  0.12699999809E+01 0. -1.
       -4    1    3    3    0  502 -0.90083681002E+03  0.59552882075E+03 -0.11216491598E+04  0.15570035277E+04  0.12699999809E+01 0.  1.
</event>
<event>
 5   0  0.1923559E-05  0.1998560E+04  0.7818609E-02  0.8607294E-01
        2   -1    0    0  501    0  0.00000000000E+00  0.00000000000E+00  0.11556530558E+04  0.11556530558E+04  0.25500000920E-02 0.  1.
       -2   -1    0    0    0  501  0.00000000000E+00  0.00000000000E+00 -0.86406577311E+03  0.86406577311E+03  0.25500000920E-02 0. -1.
    10030    2    1    2    0    0  0.00000000000E+00  0.00000000000E+00  0.29158728266E+03  0.20197188289E+04  0.19985597325E+04 0.  0.
        4    1    3    3  502    0 -0.21913357147E+03  0.72876454498E+02  0.11283152308E+04  0.11517062876E+04  0.12699999809E+01 0.  1.
       -4    1    3    3    0  502  0.21913357147E+03 -0.72876454498E+02 -0.83672794817E+03  0.86801254133E+03  0.12699999809E+01 0. -1.
</event>
<event>
 5   0  0.1923559E-05  0.2810889E+04  0.7818609E-02  0.8299896E-01
       -2   -1    0    0    0  501  0.00000000000E+00  0.00000000000E+00  0.87717332841E+03  0.87717332841E+03  0.25500000920E-02 0.  1.
        2   -1    0    0  501    0  0.00000000000E+00  0.00000000000E+00 -0.22518635882E+04  0.22518635882E+04  0.25500000920E-02 0. -1.
    10030    2    1    2    0    0  0.00000000000E+00  0.00000000000E+00 -0.13746902598E+04  0.31290369166E+04  0.28108893104E+04 0.  0.
        4    1    3    3  502    0 -0.26280002410E+03  0.11091206564E+04 -0.16026373076E+04  0.19666368337E+04  0.12699999809E+01 0. -1.
       -4    1    3    3    0  502  0.26280002410E+03 -0.11091206564E+04  0.22794704780E+03  0.11624000829E+04  0.12699999809E+01 0.  1.
</event>
<event>
 5   0  0.1814230E-05  0.2624096E+04  0.7818609E-02  0.8360062E-01
       -2   -1    0    0    0  501  0.00000000000E+00  0.00000000000E+00  0.17427055267E+04  0.17427055267E+04  0.25500000920E-02 0.  1.
        2   -1    0    0  501    0  0.00000000000E+00  0.00000000000E+00 -0.98781476631E+03  0.98781476632E+03  0.25500000920E-02 0. -1.
    10030    2    1    2    0    0  0.00000000000E+00  0.00000000000E+00  0.75489076038E+03  0.27305202930E+04  0.26240962274E+04 0.  0.
        5    1    3    3  502    0 -0.37867368422E+03 -0.51728662619E+03  0.15686298409E+04  0.16945798537E+04  0.46999998093E+01 0.  1.
       -5    1    3    3    0  502  0.37867368422E+03  0.51728662619E+03 -0.81373908049E+03  0.10359404393E+04  0.46999998093E+01 0. -1.
</event>
<event>
 5   0  0.1904553E-05  0.2782585E+04  0.7818609E-02  0.8308696E-01
       -2   -1    0    0    0  501  0.00000000000E+00  0.00000000000E+00  0.95136536740E+03  0.95136536740E+03  0.25500000920E-02 0.  1.
        2   -1    0    0  501    0  0.00000000000E+00  0.00000000000E+00 -0.20346485824E+04  0.20346485824E+04  0.25500000920E-02 0. -1.
    10030    2    1    2    0    0  0.00000000000E+00  0.00000000000E+00 -0.10832832150E+04  0.29860139498E+04  0.27825845512E+04 0.  0.
        1    1    3    3  502    0 -0.99780938368E+03  0.58456943517E+03 -0.13717232741E+04  0.17941487484E+04  0.50400001928E-02 0. -1.
       -1    1    3    3    0  502  0.99780938368E+03 -0.58456943517E+03  0.28844005906E+03  0.11918652014E+04  0.50400001928E-02 0.  1.
</event>
<event>
 5   0  0.6288000E-06  0.2806390E+04  0.7818609E-02  0.8301287E-01
        3   -1    0    0  501    0  0.00000000000E+00  0.00000000000E+00  0.12380589117E+04  0.12380589159E+04  0.10100000352E+00 0. -1.
       -3   -1    0    0    0  501  0.00000000000E+00  0.00000000000E+00 -0.15903575777E+04  0.15903575810E+04  0.10100000352E+00 0.  1.
    10030    2    1    2    0    0  0.00000000000E+00  0.00000000000E+00 -0.35229866600E+03  0.28284164968E+04  0.28063901242E+04 0.  0.
        4    1    3    3  502    0 -0.91739763076E+03 -0.12294645769E+03  0.88674666264E+03  0.12818172651E+04  0.12699999809E+01 0. -1.
       -4    1    3    3    0  502  0.91739763076E+03  0.12294645769E+03 -0.12390453286E+04  0.15465992318E+04  0.12699999809E+01 0.  1.
</event>
<event>
 5   0  0.1814230E-05  0.2805166E+04  0.7818609E-02  0.8301666E-01
       -2   -1    0    0    0  501  0.00000000000E+00  0.00000000000E+00  0.15142235626E+04  0.15142235626E+04  0.25500000920E-02 0. -1.
        2   -1    0    0  501    0  0.00000000000E+00  0.00000000000E+00 -0.12991736141E+04  0.12991736141E+04  0.25500000920E-02 0.  1.
    10030    2    1    2    0    0  0.00000000000E+00  0.00000000000E+00  0.21504994848E+03  0.28133971767E+04  0.28051661615E+04 0.  0.
        5    1    3    3  502    0 -0.35620539850E+03 -0.10281059061E+04  0.99518306093E+03  0.14745492379E+04  0.46999998093E+01 0. -1.
       -5    1    3    3    0  502  0.35620539850E+03  0.10281059061E+04 -0.78013311246E+03  0.13388479388E+04  0.46999998093E+01 0.  1.
</event>
<event>
 5   0  0.7681342E-06  0.2835897E+04  0.7818609E-02  0.8292210E-01
       -1   -1    0    0    0  501  0.00000000000E+00  0.00000000000E+00  0.84175960331E+03  0.84175960332E+03  0.50400001928E-02 0.  1.
        1   -1    0    0  501    0  0.00000000000E+00  0.00000000000E+00 -0.23885414002E+04  0.23885414002E+04  0.50400001928E-02 0. -1.
    10030    2    1    2    0    0  0.00000000000E+00  0.00000000000E+00 -0.15467817969E+04  0.32303010036E+04  0.28358967975E+04 0.  0.
        2    1    3    3  502    0 -0.13196528771E+04 -0.27679205881E+03 -0.12731324834E+04  0.18544443589E+04  0.25500000920E-02 0.  1.
       -2    1    3    3    0  502  0.13196528771E+04  0.27679205881E+03 -0.27364931349E+03  0.13758566447E+04  0.25500000920E-02 0. -1.
</event>
<event>
 5   0  0.1814230E-05  0.2691045E+04  0.7818609E-02  0.8337916E-01
       -2   -1    0    0    0  501  0.00000000000E+00  0.00000000000E+00  0.15580479157E+04  0.15580479157E+04  0.25500000920E-02 0. -1.
        2   -1    0    0  501    0  0.00000000000E+00  0.00000000000E+00 -0.11619866658E+04  0.11619866658E+04  0.25500000920E-02 0.  1.
    10030    2    1    2    0    0  0.00000000000E+00  0.00000000000E+00  0.39606124989E+03  0.27200345815E+04  0.26910450778E+04 0.  0.
        5    1    3    3  502    0 -0.28894239697E+03  0.28710679828E+02  0.15259937834E+04  0.15533805487E+04  0.46999998093E+01 0. -1.
       -5    1    3    3    0  502  0.28894239697E+03 -0.28710679828E+02 -0.11299325336E+04  0.11666540328E+04  0.46999998093E+01 0.  1.
</event>
<event>
 5   0  0.7555871E-06  0.2846843E+04  0.7818609E-02  0.8288871E-01
        1   -1    0    0  501    0  0.00000000000E+00  0.00000000000E+00  0.15771393409E+04  0.15771393409E+04  0.50400001928E-02 0. -1.
       -1   -1    0    0    0  501  0.00000000000E+00  0.00000000000E+00 -0.12846859480E+04  0.12846859480E+04  0.50400001928E-02 0.  1.
    10030    2    1    2    0    0  0.00000000000E+00  0.00000000000E+00  0.29245339298E+03  0.28618252889E+04  0.28468429878E+04 0.  0.
        3    1    3    3  502    0 -0.57334236747E+03  0.10124220779E+04 -0.67809417817E+03  0.13466742957E+04  0.10100000352E+00 0.  1.
       -3    1    3    3    0  502  0.57334236747E+03 -0.10124220779E+04  0.97054757115E+03  0.15151509932E+04  0.10100000352E+00 0. -1.
</event>
<event>
 5   0  0.7509685E-06  0.2782794E+04  0.7818609E-02  0.8308630E-01
        1   -1    0    0  501    0  0.00000000000E+00  0.00000000000E+00  0.16880624098E+04  0.16880624098E+04  0.50400001928E-02 0. -1.
       -1   -1    0    0    0  501  0.00000000000E+00  0.00000000000E+00 -0.11468685078E+04  0.11468685079E+04  0.50400001928E-02 0.  1.
    10030    2    1    2    0    0  0.00000000000E+00  0.00000000000E+00  0.54119390193E+03  0.28349309176E+04  0.27827940039E+04 0.  0.
        4    1    3    3  502    0  0.43884915082E+02  0.36147645052E+03 -0.10974676277E+04  0.11562992333E+04  0.12699999809E+01 0.  1.
       -4    1    3    3    0  502 -0.43884915082E+02 -0.36147645052E+03  0.16386615297E+04  0.16786316844E+04  0.12699999809E+01 0. -1.
</event>
<event>
 5   0  0.7555871E-06  0.2813398E+04  0.7818609E-02  0.8299121E-01
        1   -1    0    0  501    0  0.00000000000E+00  0.00000000000E+00  0.15326780000E+04  0.15326780000E+04  0.50400001928E-02 0. -1.
       -1   -1    0    0    0  501  0.00000000000E+00  0.00000000000E+00 -0.12910749562E+04  0.12910749562E+04  0.50400001928E-02 0.  1.
    10030    2    1    2    0    0  0.00000000000E+00  0.00000000000E+00  0.24160304380E+03  0.28237529562E+04  0.28133980747E+04 0.  0.
        3    1    3    3  502    0  0.79035202844E+01  0.85586877020E+03  0.12412562838E+04  0.15077436751E+04  0.10100000352E+00 0. -1.
       -3    1    3    3    0  502 -0.79035202844E+01 -0.85586877020E+03 -0.99965324003E+03  0.13160092811E+04  0.10100000352E+00 0.  1.
</event>
<event>
 5   0  0.7555871E-06  0.2788545E+04  0.7818609E-02  0.8306833E-01
        1   -1    0    0  501    0  0.00000000000E+00  0.00000000000E+00  0.15304249212E+04  0.15304249212E+04  0.50400001928E-02 0.  1.
       -1   -1    0    0    0  501  0.00000000000E+00  0.00000000000E+00 -0.12702331186E+04  0.12702331186E+04  0.50400001928E-02 0. -1.
    10030    2    1    2    0    0  0.00000000000E+00  0.00000000000E+00  0.26019180257E+03  0.28006580399E+04  0.27885454420E+04 0.  0.
        3    1    3    3  502    0  0.67396587128E+03 -0.10809538158E+03 -0.10909488856E+04  0.12868893070E+04  0.10100000352E+00 0. -1.
       -3    1    3    3    0  502 -0.67396587128E+03  0.10809538158E+03  0.13511406882E+04  0.15137687329E+04  0.10100000352E+00 0.  1.
</event>
<event>
 5   0  0.1832502E-05  0.2974070E+04  0.7818609E-02  0.8251174E-01
        2   -1    0    0  501    0  0.00000000000E+00  0.00000000000E+00  0.16211668347E+04  0.16211668347E+04  0.25500000920E-02 0. -1.
       -2   -1    0    0    0  501  0.00000000000E+00  0.00000000000E+00 -0.13640012269E+04  0.13640012269E+04  0.25500000920E-02 0.  1.
    10030    2    1    2    0    0  0.00000000000E+00  0.00000000000E+00  0.25716560783E+03  0.29851680617E+04  0.29740703096E+04 0.  0.
        2    1    3    3  502    0 -0.10973520732E+04  0.94958586416E+03 -0.19724932255E+03  0.14645143158E+04  0.25500000920E-02 0.  1.
       -2    1    3    3    0  502  0.10973520732E+04 -0.94958586416E+03  0.45441493037E+03  0.15206537459E+04  0.25500000920E-02 0. -1.
</event>
<event>
 5   0  0.7613444E-06  0.2796481E+04  0.7818609E-02  0.8304362E-01
        1   -1    0    0  501    0  0.00000000000E+00  0.00000000000E+00  0.15269170691E+04  0.15269170691E+04  0.50400001928E-02 0.  1.
       -1   -1    0    0    0  501  0.00000000000E+00  0.00000000000E+00 -0.12804076341E+04  0.12804076341E+04  0.50400001928E-02 0. -1.
    10030    2    1    2    0    0  0.00000000000E+00  0.00000000000E+00  0.24650943505E+03  0.28073247032E+04  0.27964808399E+04 0.  0.
        5    1    3    3  502    0 -0.90281266792E+03  0.84378533961E+03 -0.53350671290E+03  0.13459925391E+04  0.46999998093E+01 0. -1.
       -5    1    3    3    0  502  0.90281266792E+03 -0.84378533961E+03  0.78001614795E+03  0.14613321641E+04  0.46999998093E+01 0.  1.
</event>
<event>
 5   0  0.7681342E-06  0.2811381E+04  0.7818609E-02  0.8299744E-01
       -1   -1    0    0    0  501  0.00000000000E+00  0.00000000000E+00  0.72987768433E+03  0.72987768435E+03  0.50400001928E-02 0. -1.
        1   -1    0    0  501    0  0.00000000000E+00  0.00000000000E+00 -0.27072566349E+04  0.27072566349E+04  0.50400001928E-02 0.  1.
    10030    2    1    2    0    0  0.00000000000E+00  0.00000000000E+00 -0.19773789506E+04  0.34371343193E+04  0.28113813001E+04 0.  0.
        2    1    3    3  502    0  0.10122741961E+04 -0.22317959514E+02  0.20341487702E+03  0.10327510599E+04  0.25500000920E-02 0. -1.
       -2    1    3    3    0  502 -0.10122741961E+04  0.22317959514E+02 -0.21807938276E+04  0.24043832594E+04  0.25500000920E-02 0.  1.
</event>
<event>
 5   0  0.7555871E-06  0.2798539E+04  0.7818609E-02  0.8303722E-01
        1   -1    0    0  501    0  0.00000000000E+00  0.00000000000E+00  0.17688274241E+04  0.17688274241E+04  0.50400001928E-02 0. -1.
       -1   -1    0    0    0  501  0.00000000000E+00  0.00000000000E+00 -0.11069222798E+04  0.11069222798E+04  0.50400001928E-02 0.  1.
    10030    2    1    2    0    0  0.00000000000E+00  0.00000000000E+00  0.66190514427E+03  0.28757497039E+04  0.27985385363E+04 0.  0.
        3    1    3    3  502    0 -0.66139141302E+03 -0.34758974553E+03  0.15466817657E+04  0.17176966341E+04  0.10100000352E+00 0. -1.
       -3    1    3    3    0  502  0.66139141302E+03  0.34758974553E+03 -0.88477662139E+03  0.11580530698E+04  0.10100000352E+00 0.  1.
</event>
<event>
 5   0  0.1904553E-05  0.2807923E+04  0.7818609E-02  0.8300813E-01
       -2   -1    0    0    0  501  0.00000000000E+00  0.00000000000E+00  0.26364954334E+04  0.26364954335E+04  0.25500000920E-02 0. -1.
        2   -1    0    0  501    0  0.00000000000E+00  0.00000000000E+00 -0.74762410299E+03  0.74762410300E+03  0.25500000920E-02 0.  1.
    10030    2    1    2    0    0  0.00000000000E+00  0.00000000000E+00  0.18888713305E+04  0.33841195364E+04  0.28079227436E+04 0.  0.
        1    1    3    3  502    0  0.50471020373E+03  0.12137906626E+04  0.35022322611E+03  0.13603957037E+04  0.50400001928E-02 0.  1.
       -1    1    3    3    0  502 -0.50471020373E+03 -0.12137906626E+04  0.15386481043E+04  0.20237238328E+04  0.50400001928E-02 0. -1.
</event>
<event>
 5   0  0.1832502E-05  0.2801179E+04  0.7818609E-02  0.8302902E-01
        2   -1    0    0  501    0  0.00000000000E+00  0.00000000000E+00  0.13972696856E+04  0.13972696856E+04  0.25500000920E-02 0. -1.
       -2   -1    0    0    0  501  0.00000000000E+00  0.00000000000E+00 -0.14039174838E+04  0.14039174838E+04  0.25500000920E-02 0.  1.
    10030    2    1    2    0    0  0.00000000000E+00  0.00000000000E+00 -0.66477982535E+01  0.28011871694E+04  0.28011792811E+04 0.  0.
        2    1    3    3  502    0 -0.18574941243E+03  0.12478461941E+04 -0.61162518705E+03  0.14020372099E+04  0.25500000920E-02 0.  1.
       -2    1    3    3    0  502  0.18574941243E+03 -0.12478461941E+04  0.60497738879E+03  0.13991499596E+04  0.25500000920E-02 0. -1.
</event>
<event>
 5   0  0.7555871E-06  0.2706094E+04  0.7818609E-02  0.8333030E-01
        1   -1    0    0  501    0  0.00000000000E+00  0.00000000000E+00  0.12464073902E+04  0.12464073902E+04  0.50400001928E-02 0. -1.
       -1   -1    0    0    0  501  0.00000000000E+00  0.00000000000E+00 -0.14688102004E+04  0.14688102005E+04  0.50400001928E-02 0.  1.
    10030    2    1    2    0    0  0.00000000000E+00  0.00000000000E+00 -0.22240281023E+03  0.27152175907E+04  0.27060937816E+04 0.  0.
        3    1    3    3  502    0 -0.76926376271E+03 -0.11044300799E+04 -0.25024474355E+03  0.13689978013E+04  0.10100000352E+00 0.  1.
       -3    1    3    3    0  502  0.76926376271E+03  0.11044300799E+04  0.27841933321E+02  0.13462197894E+04  0.10100000352E+00 0. -1.
</event>
<event>
 5   0  0.1904553E-05  0.2913002E+04  0.7818609E-02  0.8269020E-01
        2   -1    0    0  501    0  0.00000000000E+00  0.00000000000E+00  0.16937744583E+04  0.16937744583E+04  0.25500000920E-02 0. -1.
       -2   -1    0    0    0  501  0.00000000000E+00  0.00000000000E+00 -0.12524660898E+04  0.12524660898E+04  0.25500000920E-02 0.  1.
    10030    2    1    2    0    0  0.00000000000E+00  0.00000000000E+00  0.44130836847E+03  0.29462405482E+04  0.29130019381E+04 0.  0.
        1    1    3    3  502    0  0.50732088183E+03 -0.12429060263E+04 -0.35077499245E+03  0.13875276439E+04  0.50400001928E-02 0.  1.
       -1    1    3    3    0  502 -0.50732088183E+03  0.12429060263E+04  0.79208336092E+03  0.15587129043E+04  0.50400001928E-02 0. -1.
</event>
<event>
 5   0  0.7388013E-06  0.2612253E+04  0.7818609E-02  0.8364051E-01
        1   -1    0    0  501    0  0.00000000000E+00  0.00000000000E+00  0.84587502667E+03  0.84587502668E+03  0.50400001928E-02 0. -1.
       -1   -1    0    0    0  501  0.00000000000E+00  0.00000000000E+00 -0.20168068037E+04  0.20168068037E+04  0.50400001928E-02 0.  1.
    10030    2    1    2    0    0  0.00000000000E+00  0.00000000000E+00 -0.11709317770E+04  0.28626818303E+04  0.26122530573E+04 0.  0.
        1    1    3    3  502    0 -0.88165879390E+03  0.17792575695E+03  0.45242294245E+03  0.10068099735E+04  0.50400001928E-02 0. -1.
       -1    1    3    3    0  502  0.88165879390E+03 -0.17792575695E+03 -0.16233547194E+04  0.18558718568E+04  0.50400001928E-02 0.  1.
</event>
<event>
 5   0  0.7555871E-06  0.2784606E+04  0.7818609E-02  0.8308064E-01
        1   -1    0    0  501    0  0.00000000000E+00  0.00000000000E+00  0.18080652274E+04  0.18080652274E+04  0.50400001928E-02 0. -1.
       -1   -1    0    0    0  501  0.00000000000E+00  0.00000000000E+00 -0.10721448285E+04  0.10721448285E+04  0.50400001928E-02 0.  1.
    10030    2    1    2    0    0  0.00000000000E+00  0.00000000000E+00  0.73592039891E+03  0.28802100560E+04  0.27846061002E+04 0.  0.
        3    1    3    3  502    0 -0.11179524166E+03  0.18840192260E+03 -0.10542060799E+04  0.10767283453E+04  0.10100000352E+00 0.  1.
       -3    1    3    3    0  502  0.11179524166E+03 -0.18840192260E+03  0.17901264788E+04  0.18034817107E+04  0.10100000352E+00 0. -1.
</event>
<event>
 5   0  0.1923559E-05  0.2801725E+04  0.7818609E-02  0.8302733E-01
       -2   -1    0    0    0  501  0.00000000000E+00  0.00000000000E+00  0.69744946337E+03  0.69744946338E+03  0.25500000920E-02 0.  1.
        2   -1    0    0  501    0  0.00000000000E+00  0.00000000000E+00 -0.28137036542E+04  0.28137036542E+04  0.25500000920E-02 0. -1.
    10030    2    1    2    0    0  0.00000000000E+00  0.00000000000E+00 -0.21162541909E+04  0.35111531176E+04  0.28017252569E+04 0.  0.
        4    1    3    3  502    0  0.35655891440E+03  0.11949329188E+04 -0.18580405925E+04  0.22377031519E+04  0.12699999809E+01 0. -1.
       -4    1    3    3    0  502 -0.35655891440E+03 -0.11949329188E+04 -0.25821359839E+03  0.12734499657E+04  0.12699999809E+01 0.  1.
</event>
<event>
 5   0  0.1814230E-05  0.2786160E+04  0.7818609E-02  0.8307578E-01
        2   -1    0    0  501    0  0.00000000000E+00  0.00000000000E+00  0.13824739230E+04  0.13824739230E+04  0.25500000920E-02 0. -1.
       -2   -1    0    0    0  501  0.00000000000E+00  0.00000000000E+00 -0.14037677418E+04  0.14037677418E+04  0.25500000920E-02 0.  1.
    10030    2    1    2    0    0  0.00000000000E+00  0.00000000000E+00 -0.21293818800E+02  0.27862416648E+04  0.27861602948E+04 0.  0.
        5    1    3    3  502    0  0.38745022150E+03 -0.67605603317E+03 -0.11654450142E+04  0.14019463632E+04  0.46999998093E+01 0.  1.
       -5    1    3    3    0  502 -0.38745022150E+03  0.67605603317E+03  0.11441511954E+04  0.13842953016E+04  0.46999998093E+01 0. -1.
</event>
<event>
 5   0  0.1904553E-05  0.2859697E+04  0.7818609E-02  0.8284971E-01
       -2   -1    0    0    0  501  0.00000000000E+00  0.00000000000E+00  0.30384266485E+04  0.30384266485E+04  0.25500000920E-02 0. -1.
        2   -1    0    0  501    0  0.00000000000E+00  0.00000000000E+00 -0.67287026956E+03  0.67287026956E+03  0.25500000920E-02 0.  1.
    10030    2    1    2    0    0  0.00000000000E+00  0.00000000000E+00  0.23655563789E+04  0.37112969181E+04  0.28596971574E+04 0.  0.
        1    1    3    3  502    0 -0.10095446771E+03  0.42912908896E+03  0.29480273059E+04  0.29808066989E+04  0.50400001928E-02 0. -1.
       -1    1    3    3    0  502  0.10095446771E+03 -0.42912908896E+03 -0.58247092698E+03  0.73049021920E+03  0.50400001928E-02 0.  1.
</event>
<event>
 5   0  0.1814230E-05  0.2708858E+04  0.7818609E-02  0.8332137E-01
       -2   -1    0    0    0  501  0.00000000000E+00  0.00000000000E+00  0.13313348679E+04  0.13313348679E+04  0.25500000920E-02 0. -1.
        2   -1    0    0  501    0  0.00000000000E+00  0.00000000000E+00 -0.13779238207E+04  0.13779238208E+04  0.25500000920E-02 0.  1.
    10030    2    1    2    0    0  0.00000000000E+00  0.00000000000E+00 -0.46588952841E+02  0.27092586887E+04  0.27088580826E+04 0.  0.
        5    1    3    3  502    0  0.66033906860E+03 -0.69893532890E+03  0.93073214960E+03  0.13382237122E+04  0.46999998093E+01 0. -1.
       -5    1    3    3    0  502 -0.66033906860E+03  0.69893532890E+03 -0.97732110244E+03  0.13710349765E+04  0.46999998093E+01 0.  1.
</event>
<event>
 5   0  0.1923559E-05  0.2792128E+04  0.7818609E-02  0.8305717E-01
       -2   -1    0    0    0  501  0.00000000000E+00  0.00000000000E+00  0.15842128558E+04  0.15842128558E+04  0.25500000920E-02 0.  1.
        2   -1    0    0  501    0  0.00000000000E+00  0.00000000000E+00 -0.12302602702E+04  0.12302602702E+04  0.25500000920E-02 0. -1.
    10030    2    1    2    0    0  0.00000000000E+00  0.00000000000E+00  0.35395258563E+03  0.28144731260E+04  0.27921276017E+04 0.  0.
        4    1    3    3  502    0 -0.10788462507E+04  0.97659776510E+02 -0.71072241111E+03  0.12955981719E+04  0.12699999809E+01 0. -1.
       -4    1    3    3    0  502  0.10788462507E+04 -0.97659776510E+02  0.10646749967E+04  0.15188749541E+04  0.12699999809E+01 0.  1.
</event>
<event>
 5   0  0.7555871E-06  0.2670541E+04  0.7818609E-02  0.8344627E-01
        1   -1    0    0  501    0  0.00000000000E+00  0.00000000000E+00  0.30486302933E+04  0.30486302933E+04  0.50400001928E-02 0.  1.
       -1   -1    0    0    0  501  0.00000000000E+00  0.00000000000E+00 -0.58483549449E+03  0.58483549451E+03  0.50400001928E-02 0. -1.
    10030    2    1    2    0    0  0.00000000000E+00  0.00000000000E+00  0.24637947988E+04  0.36334657878E+04  0.26705409228E+04 0.  0.
        3    1    3    3  502    0  0.11825271749E+04  0.56418732258E+03  0.15821474144E+04  0.20542318042E+04  0.10100000352E+00 0.  1.
       -3    1    3    3    0  502 -0.11825271749E+04 -0.56418732258E+03  0.88164738447E+03  0.15792339837E+04  0.10100000352E+00 0. -1.
</event>
<event>
 5   0  0.7555871E-06  0.2803191E+04  0.7818609E-02  0.8302278E-01
        1   -1    0    0  501    0  0.00000000000E+00  0.00000000000E+00  0.17319701823E+04  0.17319701823E+04  0.50400001928E-02 0. -1.
       -1   -1    0    0    0  501  0.00000000000E+00  0.00000000000E+00 -0.11342402438E+04  0.11342402438E+04  0.50400001928E-02 0.  1.
    10030    2    1    2    0    0  0.00000000000E+00  0.00000000000E+00  0.59772993849E+03  0.28662104260E+04  0.28031912398E+04 0.  0.
        3    1    3    3  502    0 -0.76439392449E+03  0.11172987413E+04  0.67009145258E+03  0.15105221330E+04  0.10100000352E+00 0.  1.
       -3    1    3    3    0  502  0.76439392449E+03 -0.11172987413E+04 -0.72361514091E+02  0.13556882931E+04  0.10100000352E+00 0. -1.
</event>
<event>
 5   0  0.1874272E-05  0.2784905E+04  0.7818609E-02  0.8307970E-01
       -2   -1    0    0    0  501  0.00000000000E+00  0.00000000000E+00  0.13968435674E+04  0.13968435674E+04  0.25500000920E-02 0.  1.
        2   -1    0    0  501    0  0.00000000000E+00  0.00000000000E+00 -0.13880749253E+04  0.13880749253E+04  0.25500000920E-02 0. -1.
    10030    2    1    2    0    0  0.00000000000E+00  0.00000000000E+00  0.87686420641E+01  0.27849184927E+04  0.27849046881E+04 0.  0.
        3    1    3    3  502    0 -0.51756026380E+02  0.60069499228E+03 -0.12507754213E+04  0.13885072289E+04  0.10100000352E+00 0. -1.
       -3    1    3    3    0  502  0.51756026380E+02 -0.60069499228E+03  0.12595440634E+04  0.13964112638E+04  0.10100000352E+00 0.  1.
</event>
<event>
 5   0  0.1923559E-05  0.1807290E+04  0.7818609E-02  0.8702432E-01
       -2   -1    0    0    0  501  0.00000000000E+00  0.00000000000E+00  0.99479359082E+03  0.99479359083E+03  0.25500000920E-02 0.  1.
        2   -1    0    0  501    0  0.00000000000E+00  0.00000000000E+00 -0.82084794190E+03  0.82084794191E+03  0.25500000920E-02 0. -1.
    10030    2    1    2    0    0  0.00000000000E+00  0.00000000000E+00  0.17394564892E+03  0.18156415327E+04  0.18072899841E+04 0.  0.
        4    1    3    3  502    0  0.53808204915E+03 -0.22193086450E+02  0.81596217206E+03  0.97766083272E+03  0.12699999809E+01 0.  1.
       -4    1    3    3    0  502 -0.53808204915E+03  0.22193086450E+02 -0.64201652314E+03  0.83798070001E+03  0.12699999809E+01 0. -1.
</event>
<event>
 5   0  0.7681342E-06  0.2839755E+04  0.7818609E-02  0.8291031E-01
       -1   -1    0    0    0  501  0.00000000000E+00  0.00000000000E+00  0.81654980855E+03  0.81654980857E+03  0.50400001928E-02 0. -1.
        1   -1    0    0  501    0  0.00000000000E+00  0.00000000000E+00 -0.24689890771E+04  0.24689890771E+04  0.50400001928E-02 0.  1.
    10030    2    1    2    0    0  0.00000000000E+00  0.00000000000E+00 -0.16524392685E+04  0.32855388857E+04  0.28397553122E+04 0.  0.
        2    1    3    3  502    0 -0.12414532002E+04 -0.27815233567E+03 -0.15556471186E+04  0.20096299977E+04  0.25500000920E-02 0.  1.
       -2    1    3    3    0  502  0.12414532002E+04  0.27815233567E+03 -0.96792149895E+02  0.12759088879E+04  0.25500000920E-02 0. -1.
</event>
<event>
 5   0  0.7388013E-06  0.2741358E+04  0.7818609E-02  0.8321709E-01
        1   -1    0    0  501    0  0.00000000000E+00  0.00000000000E+00  0.90669236530E+03  0.90669236531E+03  0.50400001928E-02 0. -1.
       -1   -1    0    0    0  501  0.00000000000E+00  0.00000000000E+00 -0.20721047648E+04  0.20721047648E+04  0.50400001928E-02 0.  1.
    10030    2    1    2    0    0  0.00000000000E+00  0.00000000000E+00 -0.11654123995E+04  0.29787971301E+04  0.27413584737E+04 0.  0.
        1    1    3    3  502    0 -0.37971923546E+03 -0.76662573445E+03 -0.17463773637E+04  0.19446685093E+04  0.50400001928E-02 0.  1.
       -1    1    3    3    0  502  0.37971923546E+03  0.76662573445E+03  0.58096496429E+03  0.10341286208E+04  0.50400001928E-02 0. -1.
</event>
<event>
 5   0  0.7681342E-06  0.2781937E+04  0.7818609E-02  0.8308898E-01
       -1   -1    0    0    0  501  0.00000000000E+00  0.00000000000E+00  0.77692570723E+03  0.77692570724E+03  0.50400001928E-02 0.  1.
        1   -1    0    0  501    0  0.00000000000E+00  0.00000000000E+00 -0.24903188963E+04  0.24903188963E+04  0.50400001928E-02 0. -1.
    10030    2    1    2    0    0  0.00000000000E+00  0.00000000000E+00 -0.17133931891E+04  0.32672446035E+04  0.27819365699E+04 0.  0.
        2    1    3    3  502    0 -0.82421711537E+02  0.13546993311E+04 -0.12144493871E+04  0.18212333540E+04  0.25500000920E-02 0. -1.
       -2    1    3    3    0  502  0.82421711537E+02 -0.13546993311E+04 -0.49894380201E+03  0.14460112495E+04  0.25500000920E-02 0.  1.
</event>
<event>
 5   0  0.1923559E-05  0.2855896E+04  0.7818609E-02  0.8286122E-01
       -2   -1    0    0    0  501  0.00000000000E+00  0.00000000000E+00  0.10170131085E+04  0.10170131085E+04  0.25500000920E-02 0.  1.
        2   -1    0    0  501    0  0.00000000000E+00  0.00000000000E+00 -0.20049256006E+04  0.20049256006E+04  0.25500000920E-02 0. -1.
    10030    2    1    2    0    0  0.00000000000E+00  0.00000000000E+00 -0.98791249204E+03  0.30219387091E+04  0.28558960887E+04 0.  0.
        4    1    3    3  502    0 -0.13698097281E+04  0.23326800661E+03 -0.84208496429E+03  0.16247773244E+04  0.12699999809E+01 0. -1.
       -4    1    3    3    0  502  0.13698097281E+04 -0.23326800661E+03 -0.14582752776E+03  0.13971613846E+04  0.12699999809E+01 0.  1.
</event>
<event>
 5   0  0.1923559E-05  0.2672025E+04  0.7818609E-02  0.8344139E-01
       -2   -1    0    0    0  501  0.00000000000E+00  0.00000000000E+00  0.77727328381E+03  0.77727328382E+03  0.25500000920E-02 0. -1.
        2   -1    0    0  501    0  0.00000000000E+00  0.00000000000E+00 -0.22963994429E+04  0.22963994429E+04  0.25500000920E-02 0.  1.
    10030    2    1    2    0    0  0.00000000000E+00  0.00000000000E+00 -0.15191261591E+04  0.30736727267E+04  0.26720254010E+04 0.  0.
        4    1    3    3  502    0  0.12679695848E+04 -0.12678440448E+03 -0.12212786021E+04  0.17650337646E+04  0.12699999809E+01 0.  1.
       -4    1    3    3    0  502 -0.12679695848E+04  0.12678440448E+03 -0.29784755696E+03  0.13086389622E+04  0.12699999809E+01 0. -1.
</event>
<event>
 5   0  0.1814230E-05  0.2992190E+04  0.7818609E-02  0.8245965E-01
       -2   -1    0    0    0  501  0.00000000000E+00  0.00000000000E+00  0.10035484079E+04  0.10035484079E+04  0.25500000920E-02 0. -1.
        2   -1    0    0  501    0  0.00000000000E+00  0.00000000000E+00 -0.22303854868E+04  0.22303854868E+04  0.25500000920E-02 0.  1.
    10030    2    1    2    0    0  0.00000000000E+00  0.00000000000E+00 -0.12268370789E+04  0.32339338947E+04  0.29921897027E+04 0.  0.
        5    1    3    3  502    0 -0.12858708714E+04 -0.27741523414E+03 -0.13836330764E+04  0.19091583722E+04  0.46999998093E+01 0.  1.
       -5    1    3    3    0  502  0.12858708714E+04  0.27741523414E+03  0.15679599751E+03  0.13247755224E+04  0.46999998093E+01 0. -1.
</event>
<event>
 5   0  0.7555871E-06  0.2802292E+04  0.7818609E-02  0.8302557E-01
        1   -1    0    0  501    0  0.00000000000E+00  0.00000000000E+00  0.26601400606E+04  0.26601400606E+04  0.50400001928E-02 0. -1.
       -1   -1    0    0    0  501  0.00000000000E+00  0.00000000000E+00 -0.73801009398E+03  0.73801009400E+03  0.50400001928E-02 0.  1.
    10030    2    1    2    0    0  0.00000000000E+00  0.00000000000E+00  0.19221299666E+04  0.33981501546E+04  0.28022920734E+04 0.  0.
        3    1    3    3  502    0 -0.20014447548E+03 -0.10146116100E+04 -0.18531568702E+03  0.10506362093E+04  0.10100000352E+00 0.  1.
       -3    1    3    3    0  502  0.20014447548E+03  0.10146116100E+04  0.21074456537E+04  0.23475139453E+04  0.10100000352E+00 0. -1.
</event>
<event>
 5   0  0.7681342E-06  0.2480997E+04  0.7818609E-02  0.8409787E-01
        1   -1    0    0  501    0  0.00000000000E+00  0.00000000000E+00  0.16503929917E+04  0.16503929917E+04  0.50400001928E-02 0. -1.
       -1   -1    0    0    0  501  0.00000000000E+00  0.00000000000E+00 -0.93240643793E+03  0.93240643795E+03  0.50400001928E-02 0.  1.
    10030    2    1    2    0    0  0.00000000000E+00  0.00000000000E+00  0.71798655377E+03  0.25827994297E+04  0.24809974209E+04 0.  0.
        2    1    3    3  502    0 -0.25164648935E+03 -0.11526714807E+04 -0.39953967141E+02  0.11804972756E+04  0.25500000920E-02 0.  1.
       -2    1    3    3    0  502  0.25164648935E+03  0.11526714807E+04  0.75794052092E+03  0.14023021541E+04  0.25500000920E-02 0. -1.
</event>
<event>
 5   0  0.1904553E-05  0.2889990E+04  0.7818609E-02  0.8275862E-01
        2   -1    0    0  501    0  0.00000000000E+00  0.00000000000E+00  0.11575741341E+04  0.11575741341E+04  0.25500000920E-02 0. -1.
       -2   -1    0    0    0  501  0.00000000000E+00  0.00000000000E+00 -0.18037810365E+04  0.18037810365E+04  0.25500000920E-02 0.  1.
    10030    2    1    2    0    0  0.00000000000E+00  0.00000000000E+00 -0.64620690238E+03  0.29613551707E+04  0.28899898073E+04 0.  0.
        1    1    3    3  502    0  0.30874117834E+01 -0.11324921410E+04  0.59653430450E+03  0.12800004523E+04  0.50400001928E-02 0.  1.
       -1    1    3    3    0  502 -0.30874117834E+01  0.11324921410E+04 -0.12427412069E+04  0.16813547183E+04  0.50400001928E-02 0. -1.
</event>
<event>
 5   0  0.7509685E-06  0.1724709E+04  0.7818609E-02  0.8747396E-01
        1   -1    0    0  501    0  0.00000000000E+00  0.00000000000E+00  0.12343093746E+04  0.12343093746E+04  0.50400001928E-02 0.  1.
       -1   -1    0    0    0  501  0.00000000000E+00  0.00000000000E+00 -0.60248678837E+03  0.60248678839E+03  0.50400001928E-02 0. -1.
    10030    2    1    2    0    0  0.00000000000E+00  0.00000000000E+00  0.63182258624E+03  0.18367961630E+04  0.17247087766E+04 0.  0.
        4    1    3    3  502    0 -0.68854860143E+03 -0.50143770999E+03  0.17257417776E+03  0.86909286803E+03  0.12699999809E+01 0. -1.
       -4    1    3    3    0  502  0.68854860143E+03  0.50143770999E+03  0.45924840847E+03  0.96770329498E+03  0.12699999809E+01 0.  1.
</event>
<event>
 5   0  0.1923559E-05  0.2781685E+04  0.7818609E-02  0.8308977E-01
       -2   -1    0    0    0  501  0.00000000000E+00  0.00000000000E+00  0.11315246132E+04  0.11315246132E+04  0.25500000920E-02 0.  1.
        2   -1    0    0  501    0  0.00000000000E+00  0.00000000000E+00 -0.17095897061E+04  0.17095897061E+04  0.25500000920E-02 0. -1.
    10030    2    1    2    0    0  0.00000000000E+00  0.00000000000E+00 -0.57806509284E+03  0.28411143193E+04  0.27816849792E+04 0.  0.
        4    1    3    3  502    0  0.26066083244E+03 -0.36989284918E+03  0.10542370874E+04  0.11472498589E+04  0.12699999809E+01 0.  1.
       -4    1    3    3    0  502 -0.26066083244E+03  0.36989284918E+03 -0.16323021803E+04  0.16938644603E+04  0.12699999809E+01 0. -1.
</event>
<event>
 5   0  0.1832502E-05  0.2743722E+04  0.7818609E-02  0.8320956E-01
        2   -1    0    0  501    0  0.00000000000E+00  0.00000000000E+00  0.17456354119E+04  0.17456354119E+04  0.25500000920E-02 0. -1.
       -2   -1    0    0    0  501  0.00000000000E+00  0.00000000000E+00 -0.10781191828E+04  0.10781191828E+04  0.25500000920E-02 0.  1.
    10030    2    1    2    0    0  0.00000000000E+00  0.00000000000E+00  0.66751622904E+03  0.28237545947E+04  0.27437223065E+04 0.  0.
        2    1    3    3  502    0 -0.14986952658E+03  0.13315326913E+04  0.30960432017E+02  0.13402980009E+04  0.25500000920E-02 0.  1.
       -2    1    3    3    0  502  0.14986952658E+03 -0.13315326913E+04  0.63655579703E+03  0.14834565938E+04  0.25500000920E-02 0. -1.
</event>
<event>
 5   0  0.7509685E-06  0.2779683E+04  0.7818609E-02  0.8309604E-01
        1   -1    0    0  501    0  0.00000000000E+00  0.00000000000E+00  0.15175847676E+04  0.15175847676E+04  0.50400001928E-02 0.  1.
       -1   -1    0    0    0  501  0.00000000000E+00  0.00000000000E+00 -0.12728508808E+04  0.12728508808E+04  0.50400001928E-02 0. -1.
    10030    2    1    2    0    0  0.00000000000E+00  0.00000000000E+00  0.24473388676E+03  0.27904356484E+04  0.27796827935E+04 0.  0.
        4    1    3    3  502    0  0.36882920810E+03 -0.61718020605E+03 -0.10716504516E+04  0.12904970728E+04  0.12699999809E+01 0. -1.
       -4    1    3    3    0  502 -0.36882920810E+03  0.61718020605E+03  0.13163843384E+04  0.14999385756E+04  0.12699999809E+01 0.  1.
</event>
<event>
 5   0  0.1923559E-05  0.2593560E+04  0.7818609E-02  0.8370392E-01
        2   -1    0    0  501    0  0.00000000000E+00  0.00000000000E+00  0.18565751313E+04  0.18565751313E+04  0.25500000920E-02 0.  1.
       -2   -1    0    0    0  501  0.00000000000E+00  0.00000000000E+00 -0.90577443862E+03  0.90577443862E+03  0.25500000920E-02 0. -1.
    10030    2    1    2    0    0  0.00000000000E+00  0.00000000000E+00  0.95080069270E+03  0.27623495699E+04  0.25935599452E+04 0.  0.
        4    1    3    3  502    0 -0.86030052482E+03  0.58404479536E+03  0.13006907588E+04  0.16652397362E+04  0.12699999809E+01 0.  1.
       -4    1    3    3    0  502  0.86030052482E+03 -0.58404479536E+03 -0.34989006615E+03  0.10971098337E+04  0.12699999809E+01 0. -1.
</event>
<event>
 5   0  0.7555871E-06  0.2736887E+04  0.7818609E-02  0.8323135E-01
       -1   -1    0    0    0  501  0.00000000000E+00  0.00000000000E+00  0.68738500542E+03  0.68738500544E+03  0.50400001928E-02 0. -1.
        1   -1    0    0  501    0  0.00000000000E+00  0.00000000000E+00 -0.27242917913E+04  0.27242917913E+04  0.50400001928E-02 0.  1.
    10030    2    1    2    0    0  0.00000000000E+00  0.00000000000E+00 -0.20369067859E+04  0.34116767968E+04  0.27368867918E+04 0.  0.
        3    1    3    3  502    0  0.43297382597E+03 -0.10311483560E+04 -0.20014969048E+04  0.22927544867E+04  0.10100000352E+00 0.  1.
       -3    1    3    3    0  502 -0.43297382597E+03  0.10311483560E+04 -0.35409881091E+02  0.11189223101E+04  0.10100000352E+00 0. -1.
</event>
<event>
 5   0  0.1814230E-05  0.2766824E+04  0.7818609E-02  0.8313643E-01
       -2   -1    0    0    0  501  0.00000000000E+00  0.00000000000E+00  0.11583422163E+04  0.11583422163E+04  0.25500000920E-02 0. -1.
        2   -1    0    0  501    0  0.00000000000E+00  0.00000000000E+00 -0.16522135777E+04  0.16522135777E+04  0.25500000920E-02 0.  1.
    10030    2    1    2    0    0  0.00000000000E+00  0.00000000000E+00 -0.49387136140E+03  0.28105557941E+04  0.27668239825E+04 0.  0.
        5    1    3    3  502    0  0.32952635248E+03 -0.63283967817E+03 -0.14508832325E+04  0.16168357739E+04  0.46999998093E+01 0.  1.
       -5    1    3    3    0  502 -0.32952635248E+03  0.63283967817E+03  0.95701187111E+03  0.11937200202E+04  0.46999998093E+01 0. -1.
</event>
<event>
 5   0  0.1814230E-05  0.2753644E+04  0.7818609E-02  0.8317806E-01
       -2   -1    0    0    0  501  0.00000000000E+00  0.00000000000E+00  0.55390891088E+03  0.55390891088E+03  0.25500000920E-02 0.  1.
        2   -1    0    0  501    0  0.00000000000E+00  0.00000000000E+00 -0.34222944260E+04  0.34222944260E+04  0.25500000920E-02 0. -1.
    10030    2    1    2    0    0  0.00000000000E+00  0.00000000000E+00 -0.28683855151E+04  0.39762033369E+04  0.27536444057E+04 0.  0.
        5    1    3    3  502    0  0.80118720025E+03  0.38265166445E+03 -0.29536630531E+04  0.30842293604E+04  0.46999998093E+01 0. -1.
       -5    1    3    3    0  502 -0.80118720025E+03 -0.38265166445E+03  0.85277538044E+02  0.89197397644E+03  0.46999998093E+01 0.  1.
</event>
<event>
 5   0  0.1904553E-05  0.2829300E+04  0.7818609E-02  0.8294229E-01
        2   -1    0    0  501    0  0.00000000000E+00  0.00000000000E+00  0.13219293562E+04  0.13219293562E+04  0.25500000920E-02 0. -1.
       -2   -1    0    0    0  501  0.00000000000E+00  0.00000000000E+00 -0.15138738384E+04  0.15138738384E+04  0.25500000920E-02 0.  1.
    10030    2    1    2    0    0  0.00000000000E+00  0.00000000000E+00 -0.19194448212E+03  0.28358031946E+04  0.28292997498E+04 0.  0.
        1    1    3    3  502    0 -0.13193071712E+04 -0.38840665070E+02  0.41426987355E+03  0.13833652943E+04  0.50400001928E-02 0. -1.
       -1    1    3    3    0  502  0.13193071712E+04  0.38840665070E+02 -0.60621435567E+03  0.14524379003E+04  0.50400001928E-02 0.  1.
</event>
<event>
 5   0  0.7509685E-06  0.2724666E+04  0.7818609E-02  0.8327046E-01
        1   -1    0    0  501    0  0.00000000000E+00  0.00000000000E+00  0.18729533623E+04  0.18729533623E+04  0.50400001928E-02 0.  1.
       -1   -1    0    0    0  501  0.00000000000E+00  0.00000000000E+00 -0.99092223525E+03  0.99092223526E+03  0.50400001928E-02 0. -1.
    10030    2    1    2    0    0  0.00000000000E+00  0.00000000000E+00  0.88203112706E+03  0.28638755976E+04  0.27246659482E+04 0.  0.
        4    1    3    3  502    0  0.79656675845E+02 -0.95624582992E+03 -0.57545013281E+03  0.11188814689E+04  0.12699999809E+01 0. -1.
       -4    1    3    3    0  502 -0.79656675845E+02  0.95624582992E+03  0.14574812599E+04  0.17449941286E+04  0.12699999809E+01 0.  1.
</event>
<event>
 5   0  0.7555871E-06  0.2847059E+04  0.7818609E-02  0.8288806E-01
        1   -1    0    0  501    0  0.00000000000E+00  0.00000000000E+00  0.25581526389E+04  0.25581526389E+04  0.50400001928E-02 0. -1.
       -1   -1    0    0    0  501  0.00000000000E+00  0.00000000000E+00 -0.79214811285E+03  0.79214811287E+03  0.50400001928E-02 0.  1.
    10030    2    1    2    0    0  0.00000000000E+00  0.00000000000E+00  0.17660045261E+04  0.33503007518E+04  0.28470586825E+04 0.  0.
        3    1    3    3  502    0  0.10053006711E+04 -0.89745079679E+03  0.34324527368E+03  0.13906346393E+04  0.10100000352E+00 0.  1.
       -3    1    3    3    0  502 -0.10053006711E+04  0.89745079679E+03  0.14227592524E+04  0.19596661125E+04  0.10100000352E+00 0. -1.
</event>
<event>
 5   0  0.7555871E-06  0.2944674E+04  0.7818609E-02  0.8259708E-01
       -1   -1    0    0    0  501  0.00000000000E+00  0.00000000000E+00  0.15407131796E+04  0.15407131796E+04  0.50400001928E-02 0.  1.
        1   -1    0    0  501    0  0.00000000000E+00  0.00000000000E+00 -0.14069954908E+04  0.14069954908E+04  0.50400001928E-02 0. -1.
    10030    2    1    2    0    0  0.00000000000E+00  0.00000000000E+00  0.13371768877E+03  0.29477086704E+04  0.29446741731E+04 0.  0.
        3    1    3    3  502    0  0.44763817807E+03 -0.12880774612E+02 -0.13371665111E+04  0.14101631613E+04  0.10100000352E+00 0. -1.
       -3    1    3    3    0  502 -0.44763817807E+03  0.12880774612E+02  0.14708841999E+04  0.15375455091E+04  0.10100000352E+00 0.  1.
</event>
<event>
 5   0  0.1923559E-05  0.2778616E+04  0.7818609E-02  0.8309938E-01
        2   -1    0    0  501    0  0.00000000000E+00  0.00000000000E+00  0.10773073552E+04  0.10773073552E+04  0.25500000920E-02 0. -1.
       -2   -1    0    0    0  501  0.00000000000E+00  0.00000000000E+00 -0.17916676412E+04  0.17916676412E+04  0.25500000920E-02 0.  1.
    10030    2    1    2    0    0  0.00000000000E+00  0.00000000000E+00 -0.71436028604E+03  0.28689749964E+04  0.27786160065E+04 0.  0.
        4    1    3    3  502    0 -0.10928685192E+04 -0.74692167829E+03 -0.79270452364E+03  0.15429308696E+04  0.12699999809E+01 0.  1.
       -4    1    3    3    0  502  0.10928685192E+04  0.74692167829E+03  0.78344237599E+02  0.13260441268E+04  0.12699999809E+01 0. -1.
</event>
<event>
 5   0  0.7613444E-06  0.2689565E+04  0.7818609E-02  0.8338399E-01
        1   -1    0    0  501    0  0.00000000000E+00  0.00000000000E+00  0.13936519025E+04  0.13936519025E+04  0.50400001928E-02 0. -1.
       -1   -1    0    0    0  501  0.00000000000E+00  0.00000000000E+00 -0.12976266221E+04  0.12976266221E+04  0.50400001928E-02 0.  1.
    10030    2    1    2    0    0  0.00000000000E+00  0.00000000000E+00  0.96025280404E+02  0.26912785246E+04  0.26895648797E+04 0.  0.
        5    1    3    3  502    0  0.50476490666E+03 -0.11235796482E+03  0.12901761212E+04  0.13899598688E+04  0.46999998093E+01 0. -1.
       -5    1    3    3    0  502 -0.50476490666E+03  0.11235796482E+03 -0.11941508408E+04  0.13013186557E+04  0.46999998093E+01 0.  1.
</event>
<event>
 5   0  0.7509685E-06  0.2780812E+04  0.7818609E-02  0.8309250E-01
        1   -1    0    0  501    0  0.00000000000E+00  0.00000000000E+00  0.24422144039E+04  0.24422144039E+04  0.50400001928E-02 0. -1.
       -1   -1    0    0    0  501  0.00000000000E+00  0.00000000000E+00 -0.79158851717E+03  0.79158851719E+03  0.50400001928E-02 0.  1.
    10030    2    1    2    0    0  0.00000000000E+00  0.00000000000E+00  0.16506258868E+04  0.32338029211E+04  0.27808120243E+04 0.  0.
        4    1    3    3  502    0  0.11651952237E+04 -0.56747518860E+03  0.23978530276E+03  0.13180313363E+04  0.12699999809E+01 0.  1.
       -4    1    3    3    0  502 -0.11651952237E+04  0.56747518860E+03  0.14108405840E+04  0.19157715849E+04  0.12699999809E+01 0. -1.
</event>
<event>
 5   0  0.7681342E-06  0.2834058E+04  0.7818609E-02  0.8292772E-01
       -1   -1    0    0    0  501  0.00000000000E+00  0.00000000000E+00  0.14866859756E+04  0.14866859756E+04  0.50400001928E-02 0.  1.
        1   -1    0    0  501    0  0.00000000000E+00  0.00000000000E+00 -0.13506360883E+04  0.13506360883E+04  0.50400001928E-02 0. -1.
    10030    2    1    2    0    0  0.00000000000E+00  0.00000000000E+00  0.13604988724E+03  0.28373220639E+04  0.28340583837E+04 0.  0.
        2    1    3    3  502    0 -0.39674289042E+03 -0.13577494900E+04  0.15228320799E+03  0.14227012245E+04  0.25500000920E-02 0.  1.
       -2    1    3    3    0  502  0.39674289042E+03  0.13577494900E+04 -0.16233320741E+02  0.14146208394E+04  0.25500000920E-02 0. -1.
</event>
<event>
 5   0  0.1874272E-05  0.2058053E+04  0.7818609E-02  0.8579950E-01
       -2   -1    0    0    0  501  0.00000000000E+00  0.00000000000E+00  0.54356382437E+03  0.54356382437E+03  0.25500000920E-02 0. -1.
        2   -1    0    0  501    0  0.00000000000E+00  0.00000000000E+00 -0.19480606987E+04  0.19480606987E+04  0.25500000920E-02 0.  1.
    10030    2    1    2    0    0  0.00000000000E+00  0.00000000000E+00 -0.14044968743E+04  0.24916245231E+04  0.20580527918E+04 0.  0.
        3    1    3    3  502    0 -0.94333333825E+03  0.39797198656E+03 -0.57739179247E+03  0.11754321679E+04  0.10100000352E+00 0. -1.
       -3    1    3    3    0  502  0.94333333825E+03 -0.39797198656E+03 -0.82710508185E+03  0.13161923552E+04  0.10100000352E+00 0.  1.
</event>
<event>
 5   0  0.1923559E-05  0.2730506E+04  0.7818609E-02  0.8325174E-01
        2   -1    0    0  501    0  0.00000000000E+00  0.00000000000E+00  0.16353393119E+04  0.16353393119E+04  0.25500000920E-02 0.  1.
       -2   -1    0    0    0  501  0.00000000000E+00  0.00000000000E+00 -0.11397731441E+04  0.11397731441E+04  0.25500000920E-02 0. -1.
    10030    2    1    2    0    0  0.00000000000E+00  0.00000000000E+00  0.49556616776E+03  0.27751124560E+04  0.27305060550E+04 0.  0.
        4    1    3    3  502    0  0.13611427578E+04 -0.10442356432E+03  0.23016999053E+03  0.13844109669E+04  0.12699999809E+01 0. -1.
       -4    1    3    3    0  502 -0.13611427578E+04  0.10442356432E+03  0.26539617723E+03  0.13907014891E+04  0.12699999809E+01 0.  1.
</event>
<event>
 5   0  0.1904553E-05  0.2832358E+04  0.7818609E-02  0.8293292E-01
        2   -1    0    0  501    0  0.00000000000E+00  0.00000000000E+00  0.30012963478E+04  0.30012963478E+04  0.25500000920E-02 0.  1.
       -2   -1    0    0    0  501  0.00000000000E+00  0.00000000000E+00 -0.66823204490E+03  0.66823204491E+03  0.25500000920E-02 0. -1.
    10030    2    1    2    0    0  0.00000000000E+00  0.00000000000E+00  0.23330643029E+04  0.36695283927E+04  0.28323576016E+04 0.  0.
        1    1    3    3  502    0 -0.38230059524E+03 -0.10773828553E+04  0.83619314919E+02  0.11462546628E+04  0.50400001928E-02 0. -1.
       -1    1    3    3    0  502  0.38230059524E+03  0.10773828553E+04  0.22494449879E+04  0.25232737299E+04  0.50400001928E-02 0.  1.
</event>
<event>
 5   0  0.1874272E-05  0.2735487E+04  0.7818609E-02  0.8323582E-01
        2   -1    0    0  501    0  0.00000000000E+00  0.00000000000E+00  0.13363924615E+04  0.13363924615E+04  0.25500000920E-02 0. -1.
       -2   -1    0    0    0  501  0.00000000000E+00  0.00000000000E+00 -0.13998300949E+04  0.13998300949E+04  0.25500000920E-02 0.  1.
    10030    2    1    2    0    0  0.00000000000E+00  0.00000000000E+00 -0.63437633312E+02  0.27362225564E+04  0.27354870763E+04 0.  0.
        3    1    3    3  502    0  0.77869331713E+03  0.83047948006E+03 -0.78998788731E+03  0.13856912792E+04  0.10100000352E+00 0.  1.
       -3    1    3    3    0  502 -0.77869331713E+03 -0.83047948006E+03  0.72655025400E+03  0.13505312772E+04  0.10100000352E+00 0. -1.
</event>
<event>
 5   0  0.7613444E-06  0.2800411E+04  0.7818609E-02  0.8303141E-01
        1   -1    0    0  501    0  0.00000000000E+00  0.00000000000E+00  0.11926324425E+04  0.11926324425E+04  0.50400001928E-02 0.  1.
       -1   -1    0    0    0  501  0.00000000000E+00  0.00000000000E+00 -0.16439062293E+04  0.16439062293E+04  0.50400001928E-02 0. -1.
    10030    2    1    2    0    0  0.00000000000E+00  0.00000000000E+00 -0.45127378679E+03  0.28365386719E+04  0.28004113281E+04 0.  0.
        5    1    3    3  502    0  0.82929531692E+03 -0.77300541387E+03  0.60672207981E+03  0.12858467501E+04  0.46999998093E+01 0.  1.
       -5    1    3    3    0  502 -0.82929531692E+03  0.77300541387E+03 -0.10579958666E+04  0.15506919218E+04  0.46999998093E+01 0. -1.
</event>
<event>
 5   0  0.7509685E-06  0.2800977E+04  0.7818609E-02  0.8302965E-01
        1   -1    0    0  501    0  0.00000000000E+00  0.00000000000E+00  0.15119120883E+04  0.15119120883E+04  0.50400001928E-02 0.  1.
       -1   -1    0    0    0  501  0.00000000000E+00  0.00000000000E+00 -0.12972769344E+04  0.12972769344E+04  0.50400001928E-02 0. -1.
    10030    2    1    2    0    0  0.00000000000E+00  0.00000000000E+00  0.21463515389E+03  0.28091890226E+04  0.28009774572E+04 0.  0.
        4    1    3    3  502    0 -0.61577347080E+03 -0.71642515799E+03 -0.92960178745E+03  0.13253690318E+04  0.12699999809E+01 0. -1.
       -4    1    3    3    0  502  0.61577347080E+03  0.71642515799E+03  0.11442369413E+04  0.14838199908E+04  0.12699999809E+01 0.  1.
</event>
<event>
 5   0  0.7613444E-06  0.2776453E+04  0.7818609E-02  0.8310616E-01
       -1   -1    0    0    0  501  0.00000000000E+00  0.00000000000E+00  0.16499819000E+04  0.16499819000E+04  0.50400001928E-02 0.  1.
        1   -1    0    0  501    0  0.00000000000E+00  0.00000000000E+00 -0.11679962384E+04  0.11679962384E+04  0.50400001928E-02 0. -1.
    10030    2    1    2    0    0  0.00000000000E+00  0.00000000000E+00  0.48198566158E+03  0.28179781384E+04  0.27764528828E+04 0.  0.
        5    1    3    3  502    0  0.95943423891E+02 -0.48504896420E+03 -0.10755869013E+04  0.11838018882E+04  0.46999998093E+01 0. -1.
       -5    1    3    3    0  502 -0.95943423891E+02  0.48504896420E+03  0.15575725628E+04  0.16341762502E+04  0.46999998093E+01 0.  1.
</event>
<event>
 5   0  0.7555871E-06  0.2715541E+04  0.7818609E-02  0.8329980E-01
       -1   -1    0    0    0  501  0.00000000000E+00  0.00000000000E+00  0.63464052773E+03  0.63464052775E+03  0.50400001928E-02 0. -1.
        1   -1    0    0  501    0  0.00000000000E+00  0.00000000000E+00 -0.29048577536E+04  0.29048577536E+04  0.50400001928E-02 0.  1.
    10030    2    1    2    0    0  0.00000000000E+00  0.00000000000E+00 -0.22702172259E+04  0.35394982814E+04  0.27155407990E+04 0.  0.
        3    1    3    3  502    0  0.79339035166E+03  0.39556314567E+03 -0.24755459131E+04  0.26294991977E+04  0.10100000352E+00 0.  1.
       -3    1    3    3    0  502 -0.79339035166E+03 -0.39556314567E+03  0.20532868726E+03  0.90999908370E+03  0.10100000352E+00 0. -1.
</event>
<event>
 5   0  0.1923559E-05  0.2855928E+04  0.7818609E-02  0.8286112E-01
       -2   -1    0    0    0  501  0.00000000000E+00  0.00000000000E+00  0.16789226556E+04  0.16789226556E+04  0.25500000920E-02 0.  1.
        2   -1    0    0  501    0  0.00000000000E+00  0.00000000000E+00 -0.12145178710E+04  0.12145178710E+04  0.25500000920E-02 0. -1.
    10030    2    1    2    0    0  0.00000000000E+00  0.00000000000E+00  0.46440478465E+03  0.28934405266E+04  0.28559282689E+04 0.  0.
        4    1    3    3  502    0  0.13920581287E+04  0.26285870924E+03  0.41388835718E+03  0.14758813366E+04  0.12699999809E+01 0.  1.
       -4    1    3    3    0  502 -0.13920581287E+04 -0.26285870924E+03  0.50516427468E+02  0.14175591900E+04  0.12699999809E+01 0. -1.
</event>
<event>
 5   0  0.1904553E-05  0.2763470E+04  0.7818609E-02  0.8314700E-01
        2   -1    0    0  501    0  0.00000000000E+00  0.00000000000E+00  0.19661912526E+04  0.19661912527E+04  0.25500000920E-02 0.  1.
       -2   -1    0    0    0  501  0.00000000000E+00  0.00000000000E+00 -0.97100994905E+03  0.97100994905E+03  0.25500000920E-02 0. -1.
    10030    2    1    2    0    0  0.00000000000E+00  0.00000000000E+00  0.99518130360E+03  0.29372012017E+04  0.27634697524E+04 0.  0.
        1    1    3    3  502    0 -0.11534631722E+04  0.93968215827E+02 -0.30477475437E+03  0.11967434838E+04  0.50400001928E-02 0. -1.
       -1    1    3    3    0  502  0.11534631722E+04 -0.93968215827E+02  0.12999560580E+04  0.17404577179E+04  0.50400001928E-02 0.  1.
</event>
<event>
 5   0  0.1832502E-05  0.2786892E+04  0.7818609E-02  0.8307349E-01
       -2   -1    0    0    0  501  0.00000000000E+00  0.00000000000E+00  0.20110969494E+04  0.20110969494E+04  0.25500000920E-02 0.  1.
        2   -1    0    0  501    0  0.00000000000E+00  0.00000000000E+00 -0.96548907855E+03  0.96548907855E+03  0.25500000920E-02 0. -1.
    10030    2    1    2    0    0  0.00000000000E+00  0.00000000000E+00  0.10456078709E+04  0.29765860280E+04  0.27868922768E+04 0.  0.
        2    1    3    3  502    0  0.11180493381E+03  0.37044721607E+03  0.19525617933E+04  0.19905348627E+04  0.25500000920E-02 0.  1.
       -2    1    3    3    0  502 -0.11180493381E+03 -0.37044721607E+03 -0.90695392241E+03  0.98605116525E+03  0.25500000920E-02 0. -1.
</event>
<event>
 5   0  0.7555871E-06  0.2645658E+04  0.7818609E-02  0.8352856E-01
        1   -1    0    0  501    0  0.00000000000E+00  0.00000000000E+00  0.35676143190E+04  0.35676143190E+04  0.50400001928E-02 0. -1.
       -1   -1    0    0    0  501  0.00000000000E+00  0.00000000000E+00 -0.49048918991E+03  0.49048918994E+03  0.50400001928E-02 0.  1.
    10030    2    1    2    0    0  0.00000000000E+00  0.00000000000E+00  0.30771251291E+04  0.40581035090E+04  0.26456577687E+04 0.  0.
        3    1    3    3  502    0 -0.91876782116E+03 -0.59906368721E+03  0.40425879470E+03  0.11689468738E+04  0.10100000352E+00 0.  1.
       -3    1    3    3    0  502  0.91876782116E+03  0.59906368721E+03  0.26728663344E+04  0.28891566351E+04  0.10100000352E+00 0. -1.
</event>
<event>
 5   0  0.1874272E-05  0.2479596E+04  0.7818609E-02  0.8410291E-01
       -2   -1    0    0    0  501  0.00000000000E+00  0.00000000000E+00  0.92361498907E+03  0.92361498907E+03  0.25500000920E-02 0.  1.
        2   -1    0    0  501    0  0.00000000000E+00  0.00000000000E+00 -0.16642205350E+04  0.16642205350E+04  0.25500000920E-02 0. -1.
    10030    2    1    2    0    0  0.00000000000E+00  0.00000000000E+00 -0.74060554596E+03  0.25878355241E+04  0.24795959600E+04 0.  0.
        3    1    3    3  502    0 -0.58522411686E+03 -0.31505633571E+03  0.72197339029E+03  0.98132224479E+03  0.10100000352E+00 0.  1.
       -3    1    3    3    0  502  0.58522411686E+03  0.31505633571E+03 -0.14625789363E+04  0.16065132793E+04  0.10100000352E+00 0. -1.
</event>
<event>
 5   0  0.1814230E-05  0.2775072E+04  0.7818609E-02  0.8311050E-01
       -2   -1    0    0    0  501  0.00000000000E+00  0.00000000000E+00  0.82445090412E+03  0.82445090413E+03  0.25500000920E-02 0.  1.
        2   -1    0    0  501    0  0.00000000000E+00  0.00000000000E+00 -0.23351976864E+04  0.23351976864E+04  0.25500000920E-02 0. -1.
    10030    2    1    2    0    0  0.00000000000E+00  0.00000000000E+00 -0.15107467823E+04  0.31596485905E+04  0.27750717784E+04 0.  0.
        5    1    3    3  502    0  0.11572099819E+04 -0.66503588343E+03 -0.32357264025E+03  0.13733641221E+04  0.46999998093E+01 0.  1.
       -5    1    3    3    0  502 -0.11572099819E+04  0.66503588343E+03 -0.11871741420E+04  0.17862844684E+04  0.46999998093E+01 0. -1.
</event>
<event>
 5   0  0.1904553E-05  0.2636649E+04  0.7818609E-02  0.8355858E-01
       -2   -1    0    0    0  501  0.00000000000E+00  0.00000000000E+00  0.13970375320E+04  0.13970375320E+04  0.25500000920E-02 0.  1.
        2   -1    0    0  501    0  0.00000000000E+00  0.00000000000E+00 -0.12440464724E+04  0.12440464724E+04  0.25500000920E-02 0. -1.
    10030    2    1    2    0    0  0.00000000000E+00  0.00000000000E+00  0.15299105953E+03  0.26410840044E+04  0.26366490957E+04 0.  0.
        1    1    3    3  502    0 -0.39635454164E+03  0.24795758230E+03 -0.11582171341E+04  0.12490183406E+04  0.50400001928E-02 0. -1.
       -1    1    3    3    0  502  0.39635454164E+03 -0.24795758230E+03  0.13112081936E+04  0.13920656638E+04  0.50400001928E-02 0.  1.
</event>
<event>
 5   0  0.7555871E-06  0.2803484E+04  0.7818609E-02  0.8302188E-01
       -1   -1    0    0    0  501  0.00000000000E+00  0.00000000000E+00  0.12776530921E+04  0.12776530921E+04  0.50400001928E-02 0.  1.
        1   -1    0    0  501    0  0.00000000000E+00  0.00000000000E+00 -0.15378827980E+04  0.15378827980E+04  0.50400001928E-02 0. -1.
    10030    2    1    2    0    0  0.00000000000E+00  0.00000000000E+00 -0.26022970597E+03  0.28155358901E+04  0.28034840554E+04 0.  0.
        3    1    3    3  502    0  0.27269327244E+03 -0.12711250346E+04 -0.65654398047E+03  0.14564238679E+04  0.10100000352E+00 0. -1.
       -3    1    3    3    0  502 -0.27269327244E+03  0.12711250346E+04  0.39631427450E+03  0.13591120222E+04  0.10100000352E+00 0.  1.
</event>
<event>
 5   0  0.7509685E-06  0.2746518E+04  0.7818609E-02  0.8320067E-01
       -1   -1    0    0    0  501  0.00000000000E+00  0.00000000000E+00  0.93705984894E+03  0.93705984896E+03  0.50400001928E-02 0. -1.
        1   -1    0    0  501    0  0.00000000000E+00  0.00000000000E+00 -0.20125079285E+04  0.20125079285E+04  0.50400001928E-02 0.  1.
    10030    2    1    2    0    0  0.00000000000E+00  0.00000000000E+00 -0.10754480796E+04  0.29495677775E+04  0.27465180688E+04 0.  0.
        4    1    3    3  502    0  0.47158024711E+03 -0.44010766000E+03  0.76423869086E+03  0.10000725330E+04  0.12699999809E+01 0. -1.
       -4    1    3    3    0  502 -0.47158024711E+03  0.44010766000E+03 -0.18396867704E+04  0.19494952444E+04  0.12699999809E+01 0.  1.
</event>
<event>
 5   0  0.7555871E-06  0.2795427E+04  0.7818609E-02  0.8304689E-01
        1   -1    0    0  501    0  0.00000000000E+00  0.00000000000E+00  0.82843054098E+03  0.82843054100E+03  0.50400001928E-02 0. -1.
       -1   -1    0    0    0  501  0.00000000000E+00  0.00000000000E+00 -0.23581985322E+04  0.23581985322E+04  0.50400001928E-02 0.  1.
    10030    2    1    2    0    0  0.00000000000E+00  0.00000000000E+00 -0.15297679913E+04  0.31866290732E+04  0.27954274706E+04 0.  0.
        3    1    3    3  502    0  0.83572298643E+03  0.88837509583E+03 -0.15430241300E+04  0.19668672291E+04  0.10100000352E+00 0.  1.
       -3    1    3    3    0  502 -0.83572298643E+03 -0.88837509583E+03  0.13256138784E+02  0.12197618441E+04  0.10100000352E+00 0. -1.
</event>
<event>
 5   0  0.1923559E-05  0.2210922E+04  0.7818609E-02  0.8513896E-01
        2   -1    0    0  501    0  0.00000000000E+00  0.00000000000E+00  0.11282484833E+04  0.11282484833E+04  0.25500000920E-02 0. -1.
       -2   -1    0    0    0  501  0.00000000000E+00  0.00000000000E+00 -0.10831337387E+04  0.10831337387E+04  0.25500000920E-02 0.  1.
    10030    2    1    2    0    0  0.00000000000E+00  0.00000000000E+00  0.45114744558E+02  0.22113822220E+04  0.22109219777E+04 0.  0.
        4    1    3    3  502    0 -0.72664072842E+03 -0.19891246449E+03 -0.78660390737E+03  0.10891832888E+04  0.12699999809E+01 0.  1.
       -4    1    3    3    0  502  0.72664072842E+03  0.19891246449E+03  0.83171865192E+03  0.11221989332E+04  0.12699999809E+01 0. -1.
</event>
<event>
 5   0  0.1814230E-05  0.2755004E+04  0.7818609E-02  0.8317376E-01
        2   -1    0    0  501    0  0.00000000000E+00  0.00000000000E+00  0.22793724081E+04  0.22793724081E+04  0.25500000920E-02 0.  1.
       -2   -1    0    0    0  501  0.00000000000E+00  0.00000000000E+00 -0.83247109007E+03  0.83247109008E+03  0.25500000920E-02 0. -1.
    10030    2    1    2    0    0  0.00000000000E+00  0.00000000000E+00  0.14469013180E+04  0.31118434981E+04  0.27550039080E+04 0.  0.
        5    1    3    3  502    0  0.44730974538E+03 -0.82939353588E+02  0.21920599628E+04  0.22387750926E+04  0.46999998093E+01 0.  1.
       -5    1    3    3    0  502 -0.44730974538E+03  0.82939353588E+02 -0.74515864486E+03  0.87306840551E+03  0.46999998093E+01 0. -1.
</event>
<event>
 5   0  0.1832502E-05  0.2806460E+04  0.7818609E-02  0.8301266E-01
        2   -1    0    0  501    0  0.00000000000E+00  0.00000000000E+00  0.89811259139E+03  0.89811259139E+03  0.25500000920E-02 0.  1.
       -2   -1    0    0    0  501  0.00000000000E+00  0.00000000000E+00 -0.21924355990E+04  0.21924355990E+04  0.25500000920E-02 0. -1.
    10030    2    1    2    0    0  0.00000000000E+00  0.00000000000E+00 -0.12943230076E+04  0.30905481904E+04  0.28064597038E+04 0.  0.
        2    1    3    3  502    0 -0.25842159341E+03  0.41541102502E+03  0.80115290769E+03  0.93871935165E+03  0.25500000920E-02 0.  1.
       -2    1    3    3    0  502  0.25842159341E+03 -0.41541102502E+03 -0.20954759153E+04  0.21518288388E+04  0.25500000920E-02 0. -1.
</event>
<event>
 5   0  0.1874272E-05  0.2860640E+04  0.7818609E-02  0.8284685E-01
       -2   -1    0    0    0  501  0.00000000000E+00  0.00000000000E+00  0.11705028760E+04  0.11705028760E+04  0.25500000920E-02 0.  1.
        2   -1    0    0  501    0  0.00000000000E+00  0.00000000000E+00 -0.17478091742E+04  0.17478091742E+04  0.25500000920E-02 0. -1.
    10030    2    1    2    0    0  0.00000000000E+00  0.00000000000E+00 -0.57730629821E+03  0.29183120502E+04  0.28606402536E+04 0.  0.
        3    1    3    3  502    0 -0.10496332745E+04 -0.91694862256E+03  0.39215163262E+02  0.13942964630E+04  0.10100000352E+00 0.  1.
       -3    1    3    3    0  502  0.10496332745E+04  0.91694862256E+03 -0.61652146147E+03  0.15240155872E+04  0.10100000352E+00 0. -1.
</event>
<event>
 5   0  0.1832502E-05  0.2822195E+04  0.7818609E-02  0.8296411E-01
        2   -1    0    0  501    0  0.00000000000E+00  0.00000000000E+00  0.12693348790E+04  0.12693348790E+04  0.25500000920E-02 0.  1.
       -2   -1    0    0    0  501  0.00000000000E+00  0.00000000000E+00 -0.15686924563E+04  0.15686924563E+04  0.25500000920E-02 0. -1.
    10030    2    1    2    0    0  0.00000000000E+00  0.00000000000E+00 -0.29935757729E+03  0.28380273353E+04  0.28221949254E+04 0.  0.
        2    1    3    3  502    0 -0.16410770269E+03  0.13946848825E+04 -0.28872519389E+03  0.14336804027E+04  0.25500000920E-02 0. -1.
       -2    1    3    3    0  502  0.16410770269E+03 -0.13946848825E+04 -0.10632383400E+02  0.14043469326E+04  0.25500000920E-02 0.  1.
</event>
<event>
 5   0  0.1874272E-05  0.2763401E+04  0.7818609E-02  0.8314722E-01
       -2   -1    0    0    0  501  0.00000000000E+00  0.00000000000E+00  0.87015244656E+03  0.87015244657E+03  0.25500000920E-02 0.  1.
        2   -1    0    0  501    0  0.00000000000E+00  0.00000000000E+00 -0.21939795724E+04  0.21939795724E+04  0.25500000920E-02 0. -1.
    10030    2    1    2    0    0  0.00000000000E+00  0.00000000000E+00 -0.13238271258E+04  0.30641320190E+04  0.27634013047E+04 0.  0.
        3    1    3    3  502    0 -0.11514748315E+04  0.18768645232E+02  0.18461567899E+03  0.11663316461E+04  0.10100000352E+00 0. -1.
       -3    1    3    3    0  502  0.11514748315E+04 -0.18768645232E+02 -0.15084428048E+04  0.18978003729E+04  0.10100000352E+00 0.  1.
</event>
<event>
 5   0  0.1874272E-05  0.2843877E+04  0.7818609E-02  0.8289774E-01
       -2   -1    0    0    0  501  0.00000000000E+00  0.00000000000E+00  0.75480994159E+03  0.75480994160E+03  0.25500000920E-02 0. -1.
        2   -1    0    0  501    0  0.00000000000E+00  0.00000000000E+00 -0.26787001283E+04  0.26787001283E+04  0.25500000920E-02 0.  1.
    10030    2    1    2    0    0  0.00000000000E+00  0.00000000000E+00 -0.19238901867E+04  0.34335100699E+04  0.28438772740E+04 0.  0.
        3    1    3    3  502    0 -0.11752264578E+03  0.94039026410E+03  0.31792250140E+03  0.99960999804E+03  0.10100000352E+00 0. -1.
       -3    1    3    3    0  502  0.11752264578E+03 -0.94039026410E+03 -0.22418126881E+04  0.24339000719E+04  0.10100000352E+00 0.  1.
</event>
<event>
 5   0  0.1832502E-05  0.2706549E+04  0.7818609E-02  0.8332883E-01
        2   -1    0    0  501    0  0.00000000000E+00  0.00000000000E+00  0.23049761905E+04  0.23049761905E+04  0.25500000920E-02 0. -1.
       -2   -1    0    0    0  501  0.00000000000E+00  0.00000000000E+00 -0.79452109848E+03  0.79452109849E+03  0.25500000920E-02 0.  1.
    10030    2    1    2    0    0  0.00000000000E+00  0.00000000000E+00  0.15104550920E+04  0.30994972890E+04  0.27065492531E+04 0.  0.
        2    1    3    3  502    0 -0.10487608024E+04 -0.80338369488E+03  0.10911154105E+04  0.17134343935E+04  0.25500000920E-02 0. -1.
       -2    1    3    3    0  502  0.10487608024E+04  0.80338369488E+03  0.41933968158E+03  0.13860628955E+04  0.25500000920E-02 0.  1.
</event>
<event>
 5   0  0.7613444E-06  0.2698209E+04  0.7818609E-02  0.8335586E-01
        1   -1    0    0  501    0  0.00000000000E+00  0.00000000000E+00  0.15958128457E+04  0.15958128457E+04  0.50400001928E-02 0.  1.
       -1   -1    0    0    0  501  0.00000000000E+00  0.00000000000E+00 -0.11405363631E+04  0.11405363631E+04  0.50400001928E-02 0. -1.
    10030    2    1    2    0    0  0.00000000000E+00  0.00000000000E+00  0.45527648262E+03  0.27363492088E+04  0.26982087238E+04 0.  0.
        5    1    3    3  502    0 -0.13165810728E+04  0.20001406680E+03  0.85541299998E+01  0.13317231737E+04  0.46999998093E+01 0. -1.
       -5    1    3    3    0  502  0.13165810728E+04 -0.20001406680E+03  0.44672235262E+03  0.14046260351E+04  0.46999998093E+01 0.  1.
</event>
<event>
 5   0  0.7681342E-06  0.2818164E+04  0.7818609E-02  0.8297651E-01
       -1   -1    0    0    0  501  0.00000000000E+00  0.00000000000E+00  0.14699998500E+04  0.14699998500E+04  0.50400001928E-02 0. -1.
        1   -1    0    0  501    0  0.00000000000E+00  0.00000000000E+00 -0.13506889472E+04  0.13506889472E+04  0.50400001928E-02 0.  1.
    10030    2    1    2    0    0  0.00000000000E+00  0.00000000000E+00  0.11931090277E+03  0.28206887972E+04  0.28181643315E+04 0.  0.
        2    1    3    3  502    0  0.34173033332E+02  0.13081576868E+04  0.58268284978E+03  0.14324676726E+04  0.25500000920E-02 0. -1.
       -2    1    3    3    0  502 -0.34173033332E+02 -0.13081576868E+04 -0.46337194702E+03  0.13882211246E+04  0.25500000920E-02 0.  1.
</event>
<event>
 5   0  0.7681342E-06  0.2738675E+04  0.7818609E-02  0.8322564E-01
       -1   -1    0    0    0  501  0.00000000000E+00  0.00000000000E+00  0.12967768184E+04  0.12967768184E+04  0.50400001928E-02 0. -1.
        1   -1    0    0  501    0  0.00000000000E+00  0.00000000000E+00 -0.14459582438E+04  0.14459582438E+04  0.50400001928E-02 0.  1.
    10030    2    1    2    0    0  0.00000000000E+00  0.00000000000E+00 -0.14918142540E+03  0.27427350623E+04  0.27386749577E+04 0.  0.
        2    1    3    3  502    0 -0.20402554300E+03  0.56662873530E+03  0.11570253671E+04  0.13043781070E+04  0.25500000920E-02 0. -1.
       -2    1    3    3    0  502  0.20402554300E+03 -0.56662873530E+03 -0.13062067925E+04  0.14383569552E+04  0.25500000920E-02 0.  1.
</event>
<event>
 5   0  0.7555871E-06  0.2823532E+04  0.7818609E-02  0.8296000E-01
       -1   -1    0    0    0  501  0.00000000000E+00  0.00000000000E+00  0.11233030855E+04  0.11233030855E+04  0.50400001928E-02 0.  1.
        1   -1    0    0  501    0  0.00000000000E+00  0.00000000000E+00 -0.17743059497E+04  0.17743059497E+04  0.50400001928E-02 0. -1.
    10030    2    1    2    0    0  0.00000000000E+00  0.00000000000E+00 -0.65100286415E+03  0.28976090352E+04  0.28235320773E+04 0.  0.
        3    1    3    3  502    0 -0.12914596373E+04 -0.25920742897E+03  0.19578871086E+03  0.13316867933E+04  0.10100000352E+00 0.  1.
       -3    1    3    3    0  502  0.12914596373E+04  0.25920742897E+03 -0.84679157502E+03  0.15659222419E+04  0.10100000352E+00 0. -1.
</event>
<event>
 5   0  0.1904553E-05  0.2693294E+04  0.7818609E-02  0.8337184E-01
        2   -1    0    0  501    0  0.00000000000E+00  0.00000000000E+00  0.10803712259E+04  0.10803712259E+04  0.25500000920E-02 0.  1.
       -2   -1    0    0    0  501  0.00000000000E+00  0.00000000000E+00 -0.16785510925E+04  0.16785510925E+04  0.25500000920E-02 0. -1.
    10030    2    1    2    0    0  0.00000000000E+00  0.00000000000E+00 -0.59817986652E+03  0.27589223184E+04  0.26932941180E+04 0.  0.
        1    1    3    3  502    0 -0.13085784012E+03 -0.12754140329E+04  0.12283694627E+03  0.12879804521E+04  0.50400001928E-02 0. -1.
       -1    1    3    3    0  502  0.13085784012E+03  0.12754140329E+04 -0.72101681280E+03  0.14709418663E+04  0.50400001928E-02 0.  1.
</event>
<event>
 5   0  0.7555871E-06  0.2519728E+04  0.7818609E-02  0.8395991E-01
        1   -1    0    0  501    0  0.00000000000E+00  0.00000000000E+00  0.14090363055E+04  0.14090363055E+04  0.50400001928E-02 0. -1.
       -1   -1    0    0    0  501  0.00000000000E+00  0.00000000000E+00 -0.11264839513E+04  0.11264839513E+04  0.50400001928E-02 0.  1.
    10030    2    1    2    0    0  0.00000000000E+00  0.00000000000E+00  0.28255235416E+03  0.25355202568E+04  0.25197275924E+04 0.  0.
        3    1    3    3  502    0  0.11050942565E+04  0.10528380243E+03 -0.45822524666E+03  0.12009531139E+04  0.10100000352E+00 0.  1.
       -3    1    3    3    0  502 -0.11050942565E+04 -0.10528380243E+03  0.74077760081E+03  0.13345671429E+04  0.10100000352E+00 0. -1.
</event>
<event>
 5   0  0.1874272E-05  0.2828465E+04  0.7818609E-02  0.8294485E-01
        2   -1    0    0  501    0  0.00000000000E+00  0.00000000000E+00  0.99945733908E+03  0.99945733908E+03  0.25500000920E-02 0.  1.
       -2   -1    0    0    0  501  0.00000000000E+00  0.00000000000E+00 -0.20011397227E+04  0.20011397227E+04  0.25500000920E-02 0. -1.
    10030    2    1    2    0    0  0.00000000000E+00  0.00000000000E+00 -0.10016823836E+04  0.30005970618E+04  0.28284651544E+04 0.  0.
        3    1    3    3  502    0  0.48300492851E+03 -0.49283126214E+03 -0.18104206527E+04  0.19374724162E+04  0.10100000352E+00 0. -1.
       -3    1    3    3    0  502 -0.48300492851E+03  0.49283126214E+03  0.80873826905E+03  0.10631246455E+04  0.10100000352E+00 0.  1.
</event>
<event>
 5   0  0.7388013E-06  0.2659012E+04  0.7818609E-02  0.8348428E-01
       -1   -1    0    0    0  501  0.00000000000E+00  0.00000000000E+00  0.11098589682E+04  0.11098589682E+04  0.50400001928E-02 0.  1.
        1   -1    0    0  501    0  0.00000000000E+00  0.00000000000E+00 -0.15926221063E+04  0.15926221063E+04  0.50400001928E-02 0. -1.
    10030    2    1    2    0    0  0.00000000000E+00  0.00000000000E+00 -0.48276313813E+03  0.27024810745E+04  0.26590117921E+04 0.  0.
        1    1    3    3  502    0 -0.52339459459E+02 -0.61343767064E+03  0.95624579401E+03  0.11372999663E+04  0.50400001928E-02 0.  1.
       -1    1    3    3    0  502  0.52339459459E+02  0.61343767064E+03 -0.14390089321E+04  0.15651811082E+04  0.50400001928E-02 0. -1.
</event>
<event>
 5   0  0.1923559E-05  0.2756124E+04  0.7818609E-02  0.8317021E-01
        2   -1    0    0  501    0  0.00000000000E+00  0.00000000000E+00  0.14131763433E+04  0.14131763433E+04  0.25500000920E-02 0. -1.
       -2   -1    0    0    0  501  0.00000000000E+00  0.00000000000E+00 -0.13438199551E+04  0.13438199552E+04  0.25500000920E-02 0.  1.
    10030    2    1    2    0    0  0.00000000000E+00  0.00000000000E+00  0.69356388157E+02  0.27569962985E+04  0.27561237783E+04 0.  0.
        4    1    3    3  502    0 -0.10151646512E+02 -0.11525337463E+04  0.79030853213E+03  0.13975071668E+04  0.12699999809E+01 0. -1.
       -4    1    3    3    0  502  0.10151646512E+02  0.11525337463E+04 -0.72095214397E+03  0.13594891317E+04  0.12699999809E+01 0.  1.
</event>
<event>
 5   0  0.1923559E-05  0.2765264E+04  0.7818609E-02  0.8314134E-01
        2   -1    0    0  501    0  0.00000000000E+00  0.00000000000E+00  0.10747132392E+04  0.10747132392E+04  0.25500000920E-02 0. -1.
       -2   -1    0    0    0  501  0.00000000000E+00  0.00000000000E+00 -0.17787732992E+04  0.17787732992E+04  0.25500000920E-02 0.  1.
    10030    2    1    2    0    0  0.00000000000E+00  0.00000000000E+00 -0.70406005996E+03  0.28534865384E+04  0.27652639760E+04 0.  0.
        4    1    3    3  502    0  0.35182766383E+03  0.23885842841E+02 -0.17315879784E+04  0.17671309454E+04  0.12699999809E+01 0.  1.
       -4    1    3    3    0  502 -0.35182766383E+03 -0.23885842841E+02  0.10275279184E+04  0.10863555930E+04  0.12699999809E+01 0. -1.
</event>
<event>
 5   0  0.7613444E-06  0.2784616E+04  0.7818609E-02  0.8308060E-01
       -1   -1    0    0    0  501  0.00000000000E+00  0.00000000000E+00  0.13069289019E+04  0.13069289019E+04  0.50400001928E-02 0. -1.
        1   -1    0    0  501    0  0.00000000000E+00  0.00000000000E+00 -0.14832652197E+04  0.14832652197E+04  0.50400001928E-02 0.  1.
    10030    2    1    2    0    0  0.00000000000E+00  0.00000000000E+00 -0.17633631782E+03  0.27901941215E+04  0.27846164438E+04 0.  0.
        5    1    3    3  502    0  0.13600185768E+03 -0.37887447078E+03 -0.14236760990E+04  0.14794992716E+04  0.46999998093E+01 0.  1.
       -5    1    3    3    0  502 -0.13600185768E+03  0.37887447078E+03  0.12473397812E+04  0.13106948499E+04  0.46999998093E+01 0. -1.
</event>
<event>
 5   0  0.7555871E-06  0.2793949E+04  0.7818609E-02  0.8305149E-01
        1   -1    0    0  501    0  0.00000000000E+00  0.00000000000E+00  0.18837085622E+04  0.18837085622E+04  0.50400001928E-02 0.  1.
       -1   -1    0    0    0  501  0.00000000000E+00  0.00000000000E+00 -0.10360085045E+04  0.10360085045E+04  0.50400001928E-02 0. -1.
    10030    2    1    2    0    0  0.00000000000E+00  0.00000000000E+00  0.84770005768E+03  0.29197170667E+04  0.27939492411E+04 0.  0.
        3    1    3    3  502    0  0.55317425028E+03  0.29927770400E+03  0.17273851970E+04  0.18383222036E+04  0.10100000352E+00 0.  1.
       -3    1    3    3    0  502 -0.55317425028E+03 -0.29927770400E+03 -0.87968513933E+03  0.10813948631E+04  0.10100000352E+00 0. -1.
</event>
<event>
 5   0  0.7681342E-06  0.2805074E+04  0.7818609E-02  0.8301695E-01
       -1   -1    0    0    0  501  0.00000000000E+00  0.00000000000E+00  0.95567950264E+03  0.95567950266E+03  0.50400001928E-02 0. -1.
        1   -1    0    0  501    0  0.00000000000E+00  0.00000000000E+00 -0.20583366662E+04  0.20583366662E+04  0.50400001928E-02 0.  1.
    10030    2    1    2    0    0  0.00000000000E+00  0.00000000000E+00 -0.11026571636E+04  0.30140161689E+04  0.28050740892E+04 0.  0.
        2    1    3    3  502    0 -0.43735419754E+03  0.79621251930E+03  0.59685391292E+03  0.10869533860E+04  0.25500000920E-02 0. -1.
       -2    1    3    3    0  502  0.43735419754E+03 -0.79621251930E+03 -0.16995110765E+04  0.19270627829E+04  0.25500000920E-02 0.  1.
</event>
<event>
 5   0  0.1923559E-05  0.1762100E+04  0.7818609E-02  0.8726718E-01
        2   -1    0    0  501    0  0.00000000000E+00  0.00000000000E+00  0.17209447830E+04  0.17209447830E+04  0.25500000920E-02 0.  1.
       -2   -1    0    0    0  501  0.00000000000E+00  0.00000000000E+00 -0.45105977913E+03  0.45105977913E+03  0.25500000920E-02 0. -1.
    10030    2    1    2    0    0  0.00000000000E+00  0.00000000000E+00  0.12698850039E+04  0.21720045621E+04  0.17620998538E+04 0.  0.
        4    1    3    3  502    0 -0.27761592783E+03 -0.40939633985E+03 -0.26374979457E+03  0.56057250513E+03  0.12699999809E+01 0. -1.
       -4    1    3    3    0  502  0.27761592783E+03  0.40939633985E+03  0.15336347984E+04  0.16114320570E+04  0.12699999809E+01 0.  1.
</event>
<event>
 5   0  0.7555871E-06  0.2173353E+04  0.7818609E-02  0.8529602E-01
        1   -1    0    0  501    0  0.00000000000E+00  0.00000000000E+00  0.11109691342E+04  0.11109691342E+04  0.50400001928E-02 0.  1.
       -1   -1    0    0    0  501  0.00000000000E+00  0.00000000000E+00 -0.10629148467E+04  0.10629148467E+04  0.50400001928E-02 0. -1.
    10030    2    1    2    0    0  0.00000000000E+00  0.00000000000E+00  0.48054287450E+02  0.21738839809E+04  0.21733527896E+04 0.  0.
        3    1    3    3  502    0 -0.89919424527E+03 -0.60246050734E+03  0.12078042492E+03  0.10890807476E+04  0.10100000352E+00 0.  1.
       -3    1    3    3    0  502  0.89919424527E+03  0.60246050734E+03 -0.72726137469E+02  0.10848032333E+04  0.10100000352E+00 0. -1.
</event>
<event>
 5   0  0.1832502E-05  0.2712178E+04  0.7818609E-02  0.8331064E-01
        2   -1    0    0  501    0  0.00000000000E+00  0.00000000000E+00  0.18372972558E+04  0.18372972558E+04  0.25500000920E-02 0. -1.
       -2   -1    0    0    0  501  0.00000000000E+00  0.00000000000E+00 -0.10009144493E+04  0.10009144493E+04  0.25500000920E-02 0.  1.
    10030    2    1    2    0    0  0.00000000000E+00  0.00000000000E+00  0.83638280645E+03  0.28382117051E+04  0.27121779964E+04 0.  0.
        2    1    3    3  502    0  0.71466174505E+03 -0.63854297630E+03 -0.58581901334E+03  0.11232374899E+04  0.25500000920E-02 0.  1.
       -2    1    3    3    0  502 -0.71466174505E+03  0.63854297630E+03  0.14222018198E+04  0.17149742152E+04  0.25500000920E-02 0. -1.
</event>
<event>
 5   0  0.1923559E-05  0.2780372E+04  0.7818609E-02  0.8309388E-01
       -2   -1    0    0    0  501  0.00000000000E+00  0.00000000000E+00  0.18428488819E+04  0.18428488819E+04  0.25500000920E-02 0. -1.
        2   -1    0    0  501    0  0.00000000000E+00  0.00000000000E+00 -0.10487118462E+04  0.10487118462E+04  0.25500000920E-02 0.  1.
    10030    2    1    2    0    0  0.00000000000E+00  0.00000000000E+00  0.79413703570E+03  0.28915607280E+04  0.27803722435E+04 0.  0.
        4    1    3    3  502    0  0.74360990756E+03 -0.87562322120E+02 -0.82109424263E+03  0.11112246501E+04  0.12699999809E+01 0.  1.
       -4    1    3    3    0  502 -0.74360990756E+03  0.87562322120E+02  0.16152312783E+04  0.17803360779E+04  0.12699999809E+01 0. -1.
</event>
<event>
 5   0  0.7613444E-06  0.2819661E+04  0.7818609E-02  0.8297190E-01
        1   -1    0    0  501    0  0.00000000000E+00  0.00000000000E+00  0.16574472570E+04  0.16574472570E+04  0.50400001928E-02 0. -1.
       -1   -1    0    0    0  501  0.00000000000E+00  0.00000000000E+00 -0.11992064607E+04  0.11992064608E+04  0.50400001928E-02 0.  1.
    10030    2    1    2    0    0  0.00000000000E+00  0.00000000000E+00  0.45824079622E+03  0.28566537177E+04  0.28196605887E+04 0.  0.
        5    1    3    3  502    0  0.22087588788E+03  0.69971957578E+03  0.14487439019E+04  0.16239687884E+04  0.46999998093E+01 0. -1.
       -5    1    3    3    0  502 -0.22087588788E+03 -0.69971957578E+03 -0.99050310566E+03  0.12326849293E+04  0.46999998093E+01 0.  1.
</event>
<event>
 5   0  0.7681342E-06  0.2772793E+04  0.7818609E-02  0.8311765E-01
        1   -1    0    0  501    0  0.00000000000E+00  0.00000000000E+00  0.13134963755E+04  0.13134963755E+04  0.50400001928E-02 0. -1.
       -1   -1    0    0    0  501  0.00000000000E+00  0.00000000000E+00 -0.14633429294E+04  0.14633429294E+04  0.50400001928E-02 0.  1.
    10030    2    1    2    0    0  0.00000000000E+00  0.00000000000E+00 -0.14984655390E+03  0.27768393049E+04  0.27727932731E+04 0.  0.
        2    1    3    3  502    0  0.12311025652E+04 -0.59796652225E+03  0.14657392839E+03  0.13764670008E+04  0.25500000920E-02 0.  1.
       -2    1    3    3    0  502 -0.12311025652E+04  0.59796652225E+03 -0.29642048229E+03  0.14003723041E+04  0.25500000920E-02 0. -1.
</event>
<event>
 5   0  0.1832502E-05  0.2857001E+04  0.7818609E-02  0.8285787E-01
       -2   -1    0    0    0  501  0.00000000000E+00  0.00000000000E+00  0.14212096777E+04  0.14212096777E+04  0.25500000920E-02 0. -1.
        2   -1    0    0  501    0  0.00000000000E+00  0.00000000000E+00 -0.14358284174E+04  0.14358284174E+04  0.25500000920E-02 0.  1.
    10030    2    1    2    0    0  0.00000000000E+00  0.00000000000E+00 -0.14618739675E+02  0.28570380951E+04  0.28570006946E+04 0.  0.
        2    1    3    3  502    0  0.55062003143E+03 -0.12922319494E+04 -0.26725009627E+03  0.14298490983E+04  0.25500000920E-02 0.  1.
       -2    1    3    3    0  502 -0.55062003143E+03  0.12922319494E+04  0.25263135659E+03  0.14271889967E+04  0.25500000920E-02 0. -1.
</event>
<event>
 5   0  0.1874272E-05  0.1987092E+04  0.7818609E-02  0.8612680E-01
        2   -1    0    0  501    0  0.00000000000E+00  0.00000000000E+00  0.12643758900E+04  0.12643758900E+04  0.25500000920E-02 0.  1.
       -2   -1    0    0    0  501  0.00000000000E+00  0.00000000000E+00 -0.78072787676E+03  0.78072787677E+03  0.25500000920E-02 0. -1.
    10030    2    1    2    0    0  0.00000000000E+00  0.00000000000E+00  0.48364801321E+03  0.20451037667E+04  0.19870918489E+04 0.  0.
        3    1    3    3  502    0 -0.47261718256E+02 -0.40018661974E+01 -0.77956200499E+03  0.78100359459E+03  0.10100000352E+00 0. -1.
       -3    1    3    3    0  502  0.47261718256E+02  0.40018661974E+01  0.12632100182E+04  0.12641001722E+04  0.10100000352E+00 0.  1.
</event>
<event>
 5   0  0.1814230E-05  0.2712868E+04  0.7818609E-02  0.8330842E-01
        2   -1    0    0  501    0  0.00000000000E+00  0.00000000000E+00  0.16982216302E+04  0.16982216302E+04  0.25500000920E-02 0.  1.
       -2   -1    0    0    0  501  0.00000000000E+00  0.00000000000E+00 -0.10834355320E+04  0.10834355320E+04  0.25500000920E-02 0. -1.
    10030    2    1    2    0    0  0.00000000000E+00  0.00000000000E+00  0.61478609814E+03  0.27816571622E+04  0.27128683384E+04 0.  0.
        5    1    3    3  502    0 -0.72236586094E+03 -0.87813402940E+03 -0.45092705780E+03  0.12232289696E+04  0.46999998093E+01 0. -1.
       -5    1    3    3    0  502  0.72236586094E+03  0.87813402940E+03  0.10657131559E+04  0.15584281926E+04  0.46999998093E+01 0.  1.
</event>
<event>
 5   0  0.7681342E-06  0.2861097E+04  0.7818609E-02  0.8284547E-01
        1   -1    0    0  501    0  0.00000000000E+00  0.00000000000E+00  0.15713047674E+04  0.15713047674E+04  0.50400001928E-02 0.  1.
       -1   -1    0    0    0  501  0.00000000000E+00  0.00000000000E+00 -0.13024007142E+04  0.13024007142E+04  0.50400001928E-02 0. -1.
    10030    2    1    2    0    0  0.00000000000E+00  0.00000000000E+00  0.26890405320E+03  0.28737054817E+04  0.28610966089E+04 0.  0.
        2    1    3    3  502    0 -0.13568636470E+04 -0.44819966044E+03  0.67025268636E+02  0.14305433509E+04  0.25500000920E-02 0. -1.
       -2    1    3    3    0  502  0.13568636470E+04  0.44819966044E+03  0.20187878456E+03  0.14431621308E+04  0.25500000920E-02 0.  1.
</event>
<event>
 5   0  0.1832502E-05  0.2755511E+04  0.7818609E-02  0.8317215E-01
        2   -1    0    0  501    0  0.00000000000E+00  0.00000000000E+00  0.10906518549E+04  0.10906518549E+04  0.25500000920E-02 0. -1.
       -2   -1    0    0    0  501  0.00000000000E+00  0.00000000000E+00 -0.17404360116E+04  0.17404360116E+04  0.25500000920E-02 0.  1.
    10030    2    1    2    0    0  0.00000000000E+00  0.00000000000E+00 -0.64978415673E+03  0.28310878665E+04  0.27555106709E+04 0.  0.
        2    1    3    3  502    0 -0.59302050084E+03  0.73730508985E+03  0.70403332421E+03  0.11793875663E+04  0.25500000920E-02 0. -1.
       -2    1    3    3    0  502  0.59302050084E+03 -0.73730508985E+03 -0.13538174809E+04  0.16517003002E+04  0.25500000920E-02 0.  1.
</event>
<event>
 5   0  0.7681342E-06  0.2390836E+04  0.7818609E-02  0.8442942E-01
        1   -1    0    0  501    0  0.00000000000E+00  0.00000000000E+00  0.12394044935E+04  0.12394044935E+04  0.50400001928E-02 0.  1.
       -1   -1    0    0    0  501  0.00000000000E+00  0.00000000000E+00 -0.11529923602E+04  0.11529923602E+04  0.50400001928E-02 0. -1.
    10030    2    1    2    0    0  0.00000000000E+00  0.00000000000E+00  0.86412133348E+02  0.23923968537E+04  0.23908357637E+04 0.  0.
        2    1    3    3  502    0 -0.57349095681E+02  0.11132800868E+04 -0.38874979326E+03  0.11805964053E+04  0.25500000920E-02 0. -1.
       -2    1    3    3    0  502  0.57349095681E+02 -0.11132800868E+04  0.47516192661E+03  0.12118004485E+04  0.25500000920E-02 0.  1.
</event>
<event>
 5   0  0.1814230E-05  0.2635805E+04  0.7818609E-02  0.8356140E-01
        2   -1    0    0  501    0  0.00000000000E+00  0.00000000000E+00  0.12122051833E+04  0.12122051833E+04  0.25500000920E-02 0.  1.
       -2   -1    0    0    0  501  0.00000000000E+00  0.00000000000E+00 -0.14328155308E+04  0.14328155308E+04  0.25500000920E-02 0. -1.
    10030    2    1    2    0    0  0.00000000000E+00  0.00000000000E+00 -0.22061034754E+03  0.26450207141E+04  0.26358045551E+04 0.  0.
        5    1    3    3  502    0  0.69603405074E+03  0.91250473299E+03  0.53981501738E+03  0.12682864939E+04  0.46999998093E+01 0.  1.
       -5    1    3    3    0  502 -0.69603405074E+03 -0.91250473299E+03 -0.76042536492E+03  0.13767342202E+04  0.46999998093E+01 0. -1.
</event>
<event>
 5   0  0.7388013E-06  0.2517731E+04  0.7818609E-02  0.8396696E-01
       -1   -1    0    0    0  501  0.00000000000E+00  0.00000000000E+00  0.14133079722E+04  0.14133079722E+04  0.50400001928E-02 0.  1.
        1   -1    0    0  501    0  0.00000000000E+00  0.00000000000E+00 -0.11213002008E+04  0.11213002008E+04  0.50400001928E-02 0. -1.
    10030    2    1    2    0    0  0.00000000000E+00  0.00000000000E+00  0.29200777137E+03  0.25346081730E+04  0.25177311318E+04 0.  0.
        1    1    3    3  502    0  0.66367509144E+03  0.12296447987E+03 -0.92373742209E+03  0.11440610627E+04  0.50400001928E-02 0. -1.
       -1    1    3    3    0  502 -0.66367509144E+03 -0.12296447987E+03  0.12157451935E+04  0.13905471102E+04  0.50400001928E-02 0.  1.
</event>
<event>
 5   0  0.7509685E-06  0.2941513E+04  0.7818609E-02  0.8260632E-01
        1   -1    0    0  501    0  0.00000000000E+00  0.00000000000E+00  0.24190360349E+04  0.24190360349E+04  0.50400001928E-02 0.  1.
       -1   -1    0    0    0  501  0.00000000000E+00  0.00000000000E+00 -0.89420942599E+03  0.89420942600E+03  0.50400001928E-02 0. -1.
    10030    2    1    2    0    0  0.00000000000E+00  0.00000000000E+00  0.15248266089E+04  0.33132454609E+04  0.29415130965E+04 0.  0.
        4    1    3    3  502    0 -0.91131604823E+03  0.78979127826E+03 -0.18592182323E+03  0.12201785690E+04  0.12699999809E+01 0. -1.
       -4    1    3    3    0  502  0.91131604823E+03 -0.78979127826E+03  0.17107484321E+04  0.20930668919E+04  0.12699999809E+01 0.  1.
</event>
<event>
 5   0  0.7388013E-06  0.2635890E+04  0.7818609E-02  0.8356111E-01
        1   -1    0    0  501    0  0.00000000000E+00  0.00000000000E+00  0.19126947608E+04  0.19126947608E+04  0.50400001928E-02 0.  1.
       -1   -1    0    0    0  501  0.00000000000E+00  0.00000000000E+00 -0.90813194439E+03  0.90813194440E+03  0.50400001928E-02 0. -1.
    10030    2    1    2    0    0  0.00000000000E+00  0.00000000000E+00  0.10045628164E+04  0.28208267052E+04  0.26358901435E+04 0.  0.
        1    1    3    3  502    0  0.25725761901E+03  0.62041664624E+03  0.17158084980E+04  0.18425789262E+04  0.50400001928E-02 0.  1.
       -1    1    3    3    0  502 -0.25725761901E+03 -0.62041664624E+03 -0.71124568160E+03  0.97824777899E+03  0.50400001928E-02 0. -1.
</event>
<event>
 5   0  0.1814230E-05  0.2751956E+04  0.7818609E-02  0.8318341E-01
        2   -1    0    0  501    0  0.00000000000E+00  0.00000000000E+00  0.18364167678E+04  0.18364167678E+04  0.25500000920E-02 0.  1.
       -2   -1    0    0    0  501  0.00000000000E+00  0.00000000000E+00 -0.10309832939E+04  0.10309832940E+04  0.25500000920E-02 0. -1.
    10030    2    1    2    0    0  0.00000000000E+00  0.00000000000E+00  0.80543347387E+03  0.28674000618E+04  0.27519556743E+04 0.  0.
        5    1    3    3  502    0 -0.59914173587E+03  0.48198534023E+03  0.15916415412E+04  0.17676610460E+04  0.46999998093E+01 0.  1.
       -5    1    3    3    0  502  0.59914173587E+03 -0.48198534023E+03 -0.78620806728E+03  0.10997390158E+04  0.46999998093E+01 0. -1.
</event>
<event>
 5   0  0.7613444E-06  0.2791246E+04  0.7818609E-02  0.8305991E-01
        1   -1    0    0  501    0  0.00000000000E+00  0.00000000000E+00  0.13359871267E+04  0.13359871267E+04  0.50400001928E-02 0.  1.
       -1   -1    0    0    0  501  0.00000000000E+00  0.00000000000E+00 -0.14579209378E+04  0.14579209378E+04  0.50400001928E-02 0. -1.
    10030    2    1    2    0    0  0.00000000000E+00  0.00000000000E+00 -0.12193381112E+03  0.27939080645E+04  0.27912460333E+04 0.  0.
        5    1    3    3  502    0 -0.84696397275E+03 -0.46852160712E+02 -0.11702649804E+04  0.14453668428E+04  0.46999998093E+01 0. -1.
       -5    1    3    3    0  502  0.84696397275E+03  0.46852160712E+02  0.10483311692E+04  0.13485412217E+04  0.46999998093E+01 0.  1.
</event>
<event>
 5   0  0.7555871E-06  0.2778955E+04  0.7818609E-02  0.8309832E-01
        1   -1    0    0  501    0  0.00000000000E+00  0.00000000000E+00  0.98159079682E+03  0.98159079683E+03  0.50400001928E-02 0. -1.
       -1   -1    0    0    0  501  0.00000000000E+00  0.00000000000E+00 -0.19668557623E+04  0.19668557623E+04  0.50400001928E-02 0.  1.
    10030    2    1    2    0    0  0.00000000000E+00  0.00000000000E+00 -0.98526496552E+03  0.29484465592E+04  0.27789548503E+04 0.  0.
        3    1    3    3  502    0  0.10234404832E+04 -0.60500688094E+03 -0.12556494714E+04  0.17291961583E+04  0.10100000352E+00 0.  1.
       -3    1    3    3    0  502 -0.10234404832E+04  0.60500688094E+03  0.27038450591E+03  0.12192504008E+04  0.10100000352E+00 0. -1.
</event>
<event>
 5   0  0.1904553E-05  0.2787924E+04  0.7818609E-02  0.8307027E-01
       -2   -1    0    0    0  501  0.00000000000E+00  0.00000000000E+00  0.88065302471E+03  0.88065302471E+03  0.25500000920E-02 0. -1.
        2   -1    0    0  501    0  0.00000000000E+00  0.00000000000E+00 -0.22064643634E+04  0.22064643634E+04  0.25500000920E-02 0.  1.
    10030    2    1    2    0    0  0.00000000000E+00  0.00000000000E+00 -0.13258113387E+04  0.30871173881E+04  0.27879236113E+04 0.  0.
        1    1    3    3  502    0 -0.33234384396E+02  0.13872580367E+04 -0.51625343355E+03  0.14805765743E+04  0.50400001928E-02 0. -1.
       -1    1    3    3    0  502  0.33234384396E+02 -0.13872580367E+04 -0.80955790515E+03  0.16065408138E+04  0.50400001928E-02 0.  1.
</event>
<event>
 5   0  0.7555871E-06  0.2789079E+04  0.7818609E-02  0.8306667E-01
        1   -1    0    0  501    0  0.00000000000E+00  0.00000000000E+00  0.93638154644E+03  0.93638154646E+03  0.50400001928E-02 0. -1.
       -1   -1    0    0    0  501  0.00000000000E+00  0.00000000000E+00 -0.20768676750E+04  0.20768676750E+04  0.50400001928E-02 0.  1.
    10030    2    1    2    0    0  0.00000000000E+00  0.00000000000E+00 -0.11404861285E+04  0.30132492214E+04  0.27890791063E+04 0.  0.
        3    1    3    3  502    0 -0.51334375135E+03  0.12298798485E+04 -0.10138735991E+04  0.16745345425E+04  0.10100000352E+00 0. -1.
       -3    1    3    3    0  502  0.51334375135E+03 -0.12298798485E+04 -0.12661252944E+03  0.13387146790E+04  0.10100000352E+00 0.  1.
</event>
<event>
 5   0  0.1874272E-05  0.2816339E+04  0.7818609E-02  0.8298214E-01
       -2   -1    0    0    0  501  0.00000000000E+00  0.00000000000E+00  0.13124757422E+04  0.13124757422E+04  0.25500000920E-02 0. -1.
        2   -1    0    0  501    0  0.00000000000E+00  0.00000000000E+00 -0.15108401734E+04  0.15108401734E+04  0.25500000920E-02 0.  1.
    10030    2    1    2    0    0  0.00000000000E+00  0.00000000000E+00 -0.19836443119E+03  0.28233159157E+04  0.28163388134E+04 0.  0.
        3    1    3    3  502    0  0.89542362931E+03  0.10846175345E+04 -0.16836329234E+03  0.14165185775E+04  0.10100000352E+00 0.  1.
       -3    1    3    3    0  502 -0.89542362931E+03 -0.10846175345E+04 -0.30001138855E+02  0.14067973381E+04  0.10100000352E+00 0. -1.
</event>
<event>
 5   0  0.7388013E-06  0.2856086E+04  0.7818609E-02  0.8286065E-01
        1   -1    0    0  501    0  0.00000000000E+00  0.00000000000E+00  0.17089932684E+04  0.17089932684E+04  0.50400001928E-02 0.  1.
       -1   -1    0    0    0  501  0.00000000000E+00  0.00000000000E+00 -0.11932792353E+04  0.11932792353E+04  0.50400001928E-02 0. -1.
    10030    2    1    2    0    0  0.00000000000E+00  0.00000000000E+00  0.51571403315E+03  0.29022725037E+04  0.28560855593E+04 0.  0.
        1    1    3    3  502    0  0.94126529115E+03  0.63033435860E+03 -0.62568893991E+03  0.12941361603E+04  0.50400001928E-02 0. -1.
       -1    1    3    3    0  502 -0.94126529115E+03 -0.63033435860E+03  0.11414029731E+04  0.16081363434E+04  0.50400001928E-02 0.  1.
</event>
<event>
 5   0  0.7388013E-06  0.2783980E+04  0.7818609E-02  0.8308259E-01
       -1   -1    0    0    0  501  0.00000000000E+00  0.00000000000E+00  0.12788226031E+04  0.12788226031E+04  0.50400001928E-02 0.  1.
        1   -1    0    0  501    0  0.00000000000E+00  0.00000000000E+00 -0.15151719423E+04  0.15151719423E+04  0.50400001928E-02 0. -1.
    10030    2    1    2    0    0  0.00000000000E+00  0.00000000000E+00 -0.23634933923E+03  0.27939945454E+04  0.27839799765E+04 0.  0.
        1    1    3    3  502    0  0.46582367632E+01  0.99849924472E+03 -0.10915158398E+04  0.14793340628E+04  0.50400001928E-02 0. -1.
       -1    1    3    3    0  502 -0.46582367632E+01 -0.99849924472E+03  0.85516650052E+03  0.13146604826E+04  0.50400001928E-02 0.  1.
</event>
<event>
 5   0  0.1904553E-05  0.2530324E+04  0.7818609E-02  0.8392261E-01
       -2   -1    0    0    0  501  0.00000000000E+00  0.00000000000E+00  0.55013565308E+03  0.55013565309E+03  0.25500000920E-02 0. -1.
        2   -1    0    0  501    0  0.00000000000E+00  0.00000000000E+00 -0.29095277927E+04  0.29095277927E+04  0.25500000920E-02 0.  1.
    10030    2    1    2    0    0  0.00000000000E+00  0.00000000000E+00 -0.23593921396E+04  0.34596634458E+04  0.25303240681E+04 0.  0.
        1    1    3    3  502    0 -0.48168521603E+03  0.68301873274E+03 -0.24783247327E+04  0.26154595614E+04  0.50400001928E-02 0.  1.
       -1    1    3    3    0  502  0.48168521603E+03 -0.68301873274E+03  0.11893259312E+03  0.84420388434E+03  0.50400001928E-02 0. -1.
</event>
<event>
 5   0  0.7555871E-06  0.2928979E+04  0.7818609E-02  0.8264307E-01
        1   -1    0    0  501    0  0.00000000000E+00  0.00000000000E+00  0.24768224071E+04  0.24768224071E+04  0.50400001928E-02 0. -1.
       -1   -1    0    0    0  501  0.00000000000E+00  0.00000000000E+00 -0.86591972248E+03  0.86591972249E+03  0.50400001928E-02 0.  1.
    10030    2    1    2    0    0  0.00000000000E+00  0.00000000000E+00  0.16109026846E+04  0.33427421295E+04  0.29289789152E+04 0.  0.
        3    1    3    3  502    0  0.22228358778E+03  0.14171697319E+03 -0.83861879576E+03  0.87907632699E+03  0.10100000352E+00 0.  1.
       -3    1    3    3    0  502 -0.22228358778E+03 -0.14171697319E+03  0.24495214803E+04  0.24636658026E+04  0.10100000352E+00 0. -1.
</event>
<event>
 5   0  0.7388013E-06  0.2813217E+04  0.7818609E-02  0.8299177E-01
       -1   -1    0    0    0  501  0.00000000000E+00  0.00000000000E+00  0.94341986713E+03  0.94341986715E+03  0.50400001928E-02 0.  1.
        1   -1    0    0  501    0  0.00000000000E+00  0.00000000000E+00 -0.20972071818E+04  0.20972071818E+04  0.50400001928E-02 0. -1.
    10030    2    1    2    0    0  0.00000000000E+00  0.00000000000E+00 -0.11537873147E+04  0.30406270490E+04  0.28132166080E+04 0.  0.
        1    1    3    3  502    0 -0.69907689177E+03 -0.44825549873E+03 -0.18039669629E+04  0.19859351187E+04  0.50400001928E-02 0. -1.
       -1    1    3    3    0  502  0.69907689177E+03  0.44825549873E+03  0.65017964817E+03  0.10546919302E+04  0.50400001928E-02 0.  1.
</event>
<event>
 5   0  0.1874272E-05  0.2749906E+04  0.7818609E-02  0.8318992E-01
       -2   -1    0    0    0  501  0.00000000000E+00  0.00000000000E+00  0.73734281330E+03  0.73734281330E+03  0.25500000920E-02 0.  1.
        2   -1    0    0  501    0  0.00000000000E+00  0.00000000000E+00 -0.25639300663E+04  0.25639300663E+04  0.25500000920E-02 0. -1.
    10030    2    1    2    0    0  0.00000000000E+00  0.00000000000E+00 -0.18265872530E+04  0.33012728796E+04  0.27499057498E+04 0.  0.
        3    1    3    3  502    0  0.55773112358E+03 -0.10096580527E+04 -0.14901033939E+02  0.11535577318E+04  0.10100000352E+00 0.  1.
       -3    1    3    3    0  502 -0.55773112358E+03  0.10096580527E+04 -0.18116862190E+04  0.21477151478E+04  0.10100000352E+00 0. -1.
</event>
<event>
 5   0  0.1814230E-05  0.2755266E+04  0.7818609E-02  0.8317293E-01
        2   -1    0    0  501    0  0.00000000000E+00  0.00000000000E+00  0.17229715917E+04  0.17229715917E+04  0.25500000920E-02 0.  1.
       -2   -1    0    0    0  501  0.00000000000E+00  0.00000000000E+00 -0.11015110516E+04  0.11015110516E+04  0.25500000920E-02 0. -1.
    10030    2    1    2    0    0  0.00000000000E+00  0.00000000000E+00  0.62146054006E+03  0.28244826433E+04  0.27552656858E+04 0.  0.
        5    1    3    3  502    0 -0.15825414502E+03 -0.16002758943E+03  0.17039898211E+04  0.17187951024E+04  0.46999998093E+01 0.  1.
       -5    1    3    3    0  502  0.15825414502E+03  0.16002758943E+03 -0.10825292810E+04  0.11056875409E+04  0.46999998093E+01 0. -1.
</event>
<event>
 5   0  0.1832502E-05  0.2819830E+04  0.7818609E-02  0.8297138E-01
       -2   -1    0    0    0  501  0.00000000000E+00  0.00000000000E+00  0.89538531640E+03  0.89538531640E+03  0.25500000920E-02 0. -1.
        2   -1    0    0  501    0  0.00000000000E+00  0.00000000000E+00 -0.22201173800E+04  0.22201173800E+04  0.25500000920E-02 0.  1.
    10030    2    1    2    0    0  0.00000000000E+00  0.00000000000E+00 -0.13247320636E+04  0.31155026964E+04  0.28198301387E+04 0.  0.
        2    1    3    3  502    0  0.72093487686E+03 -0.11772798282E+04 -0.34574154914E+03  0.14231205534E+04  0.25500000920E-02 0. -1.
       -2    1    3    3    0  502 -0.72093487686E+03  0.11772798282E+04 -0.97899051446E+03  0.16923821430E+04  0.25500000920E-02 0.  1.
</event>
<event>
 5   0  0.1832502E-05  0.2601697E+04  0.7818609E-02  0.8367625E-01
        2   -1    0    0  501    0  0.00000000000E+00  0.00000000000E+00  0.14265456863E+04  0.14265456864E+04  0.25500000920E-02 0. -1.
       -2   -1    0    0    0  501  0.00000000000E+00  0.00000000000E+00 -0.11862267829E+04  0.11862267829E+04  0.25500000920E-02 0.  1.
    10030    2    1    2    0    0  0.00000000000E+00  0.00000000000E+00  0.24031890348E+03  0.26127724692E+04  0.26016969079E+04 0.  0.
        2    1    3    3  502    0 -0.12069780874E+04  0.66330754175E+02  0.60284140178E+03  0.13507825984E+04  0.25500000920E-02 0.  1.
       -2    1    3    3    0  502  0.12069780874E+04 -0.66330754175E+02 -0.36252249830E+03  0.12619898709E+04  0.25500000920E-02 0. -1.
</event>
<event>
 5   0  0.1874272E-05  0.2752539E+04  0.7818609E-02  0.8318156E-01
        2   -1    0    0  501    0  0.00000000000E+00  0.00000000000E+00  0.23264739404E+04  0.23264739404E+04  0.25500000920E-02 0.  1.
       -2   -1    0    0    0  501  0.00000000000E+00  0.00000000000E+00 -0.81415802444E+03  0.81415802444E+03  0.25500000920E-02 0. -1.
    10030    2    1    2    0    0  0.00000000000E+00  0.00000000000E+00  0.15123159159E+04  0.31406319648E+04  0.27525387752E+04 0.  0.
        3    1    3    3  502    0  0.19551148526E+03 -0.11025363301E+04  0.16691720781E+04  0.20099618247E+04  0.10100000352E+00 0.  1.
       -3    1    3    3    0  502 -0.19551148526E+03  0.11025363301E+04 -0.15685616215E+03  0.11306701402E+04  0.10100000352E+00 0. -1.
</event>
<event>
 5   0  0.7681342E-06  0.1793277E+04  0.7818609E-02  0.8709883E-01
        1   -1    0    0  501    0  0.00000000000E+00  0.00000000000E+00  0.10130486787E+04  0.10130486787E+04  0.50400001928E-02 0. -1.
       -1   -1    0    0    0  501  0.00000000000E+00  0.00000000000E+00 -0.79360481650E+03  0.79360481652E+03  0.50400001928E-02 0.  1.
    10030    2    1    2    0    0  0.00000000000E+00  0.00000000000E+00  0.21944386219E+03  0.18066534952E+04  0.17932766778E+04 0.  0.
        2    1    3    3  502    0 -0.67898231079E+03 -0.16172661676E+03  0.67675947189E+03  0.97220155304E+03  0.25500000920E-02 0. -1.
       -2    1    3    3    0  502  0.67898231079E+03  0.16172661676E+03 -0.45731560970E+03  0.83445194218E+03  0.25500000920E-02 0.  1.
</event>
<event>
 5   0  0.1904553E-05  0.2296064E+04  0.7818609E-02  0.8479475E-01
       -2   -1    0    0    0  501  0.00000000000E+00  0.00000000000E+00  0.15988661579E+04  0.15988661579E+04  0.25500000920E-02 0. -1.
        2   -1    0    0  501    0  0.00000000000E+00  0.00000000000E+00 -0.82431984086E+03  0.82431984086E+03  0.25500000920E-02 0.  1.
    10030    2    1    2    0    0  0.00000000000E+00  0.00000000000E+00  0.77454631700E+03  0.24231859987E+04  0.22960636723E+04 0.  0.
        1    1    3    3  502    0 -0.10532200450E+04 -0.30341489663E+03  0.74771407826E+03  0.13268042077E+04  0.50400001928E-02 0. -1.
       -1    1    3    3    0  502  0.10532200450E+04  0.30341489663E+03  0.26832238740E+02  0.10963817910E+04  0.50400001928E-02 0.  1.
</event>
<event>
 5   0  0.7555871E-06  0.2910414E+04  0.7818609E-02  0.8269786E-01
       -1   -1    0    0    0  501  0.00000000000E+00  0.00000000000E+00  0.13647222932E+04  0.13647222932E+04  0.50400001928E-02 0. -1.
        1   -1    0    0  501    0  0.00000000000E+00  0.00000000000E+00 -0.15516913726E+04  0.15516913726E+04  0.50400001928E-02 0.  1.
    10030    2    1    2    0    0  0.00000000000E+00  0.00000000000E+00 -0.18696907939E+03  0.29164136658E+04  0.29104142718E+04 0.  0.
        3    1    3    3  502    0  0.82623940869E+03  0.69453584854E+03 -0.10714965201E+04  0.15209064429E+04  0.10100000352E+00 0.  1.
       -3    1    3    3    0  502 -0.82623940869E+03 -0.69453584854E+03  0.88452744073E+03  0.13955072228E+04  0.10100000352E+00 0. -1.
</event>
<event>
 5   0  0.7555871E-06  0.2779344E+04  0.7818609E-02  0.8309710E-01
       -1   -1    0    0    0  501  0.00000000000E+00  0.00000000000E+00  0.13675525259E+04  0.13675525259E+04  0.50400001928E-02 0. -1.
        1   -1    0    0  501    0  0.00000000000E+00  0.00000000000E+00 -0.14121490857E+04  0.14121490857E+04  0.50400001928E-02 0.  1.
    10030    2    1    2    0    0  0.00000000000E+00  0.00000000000E+00 -0.44596559769E+02  0.27797016116E+04  0.27793438428E+04 0.  0.
        3    1    3    3  502    0  0.10756298540E+04  0.20789108175E+03 -0.87738772464E+03  0.14035695616E+04  0.10100000352E+00 0. -1.
       -3    1    3    3    0  502 -0.10756298540E+04 -0.20789108175E+03  0.83279116487E+03  0.13761320500E+04  0.10100000352E+00 0.  1.
</event>
<event>
 5   0  0.7509685E-06  0.2787579E+04  0.7818609E-02  0.8307135E-01
       -1   -1    0    0    0  501  0.00000000000E+00  0.00000000000E+00  0.12822264736E+04  0.12822264736E+04  0.50400001928E-02 0.  1.
        1   -1    0    0  501    0  0.00000000000E+00  0.00000000000E+00 -0.15150594867E+04  0.15150594867E+04  0.50400001928E-02 0. -1.
    10030    2    1    2    0    0  0.00000000000E+00  0.00000000000E+00 -0.23283301308E+03  0.27972859604E+04  0.27875791526E+04 0.  0.
        4    1    3    3  502    0 -0.36531294123E+03  0.18443424904E+02  0.12332032367E+04  0.12863069388E+04  0.12699999809E+01 0.  1.
       -4    1    3    3    0  502  0.36531294123E+03 -0.18443424904E+02 -0.14660362498E+04  0.15109790215E+04  0.12699999809E+01 0. -1.
</event>
<event>
 5   0  0.1923559E-05  0.2576646E+04  0.7818609E-02  0.8376178E-01
       -2   -1    0    0    0  501  0.00000000000E+00  0.00000000000E+00  0.87680259998E+03  0.87680259999E+03  0.25500000920E-02 0. -1.
        2   -1    0    0  501    0  0.00000000000E+00  0.00000000000E+00 -0.18929871587E+04  0.18929871588E+04  0.25500000920E-02 0.  1.
    10030    2    1    2    0    0  0.00000000000E+00  0.00000000000E+00 -0.10161845588E+04  0.27697897587E+04  0.25766459303E+04 0.  0.
        4    1    3    3  502    0 -0.89590979108E+02  0.10653945562E+04  0.26459519528E+03  0.11014101571E+04  0.12699999809E+01 0. -1.
       -4    1    3    3    0  502  0.89590979108E+02 -0.10653945562E+04 -0.12807797540E+04  0.16683796016E+04  0.12699999809E+01 0.  1.
</event>
<event>
 5   0  0.7555871E-06  0.2808441E+04  0.7818609E-02  0.8300653E-01
       -1   -1    0    0    0  501  0.00000000000E+00  0.00000000000E+00  0.73133049080E+03  0.73133049081E+03  0.50400001928E-02 0. -1.
        1   -1    0    0  501    0  0.00000000000E+00  0.00000000000E+00 -0.26962295086E+04  0.26962295087E+04  0.50400001928E-02 0.  1.
    10030    2    1    2    0    0  0.00000000000E+00  0.00000000000E+00 -0.19648990179E+04  0.34275599995E+04  0.28084407417E+04 0.  0.
        3    1    3    3  502    0 -0.33672403436E+03 -0.59360326533E+03 -0.24802184508E+04  0.25723980030E+04  0.10100000352E+00 0.  1.
       -3    1    3    3    0  502  0.33672403436E+03  0.59360326533E+03  0.51531943299E+03  0.85516199643E+03  0.10100000352E+00 0. -1.
</event>
<event>
 5   0  0.1814230E-05  0.2900512E+04  0.7818609E-02  0.8272725E-01
       -2   -1    0    0    0  501  0.00000000000E+00  0.00000000000E+00  0.78221067608E+03  0.78221067608E+03  0.25500000920E-02 0. -1.
        2   -1    0    0  501    0  0.00000000000E+00  0.00000000000E+00 -0.26888445689E+04  0.26888445689E+04  0.25500000920E-02 0.  1.
    10030    2    1    2    0    0  0.00000000000E+00  0.00000000000E+00 -0.19066338928E+04  0.34710552450E+04  0.29005123190E+04 0.  0.
        5    1    3    3  502    0  0.10574027248E+04 -0.90828826290E+03 -0.14321971550E+04  0.19985742097E+04  0.46999998093E+01 0.  1.
       -5    1    3    3    0  502 -0.10574027248E+04  0.90828826290E+03 -0.47443673784E+03  0.14724810353E+04  0.46999998093E+01 0. -1.
</event>
<event>
 5   0  0.7555871E-06  0.2705172E+04  0.7818609E-02  0.8333329E-01
       -1   -1    0    0    0  501  0.00000000000E+00  0.00000000000E+00  0.72935513557E+03  0.72935513559E+03  0.50400001928E-02 0.  1.
        1   -1    0    0  501    0  0.00000000000E+00  0.00000000000E+00 -0.25083644496E+04  0.25083644496E+04  0.50400001928E-02 0. -1.
    10030    2    1    2    0    0  0.00000000000E+00  0.00000000000E+00 -0.17790093140E+04  0.32377195852E+04  0.27051717086E+04 0.  0.
        3    1    3    3  502    0  0.69485594438E+03 -0.76738766891E+03  0.15237108462E+03  0.10463869148E+04  0.10100000352E+00 0.  1.
       -3    1    3    3    0  502 -0.69485594438E+03  0.76738766891E+03 -0.19313803987E+04  0.21913326704E+04  0.10100000352E+00 0. -1.
</event>
<event>
 5   0  0.1904553E-05  0.2865832E+04  0.7818609E-02  0.8283117E-01
        2   -1    0    0  501    0  0.00000000000E+00  0.00000000000E+00  0.10224679306E+04  0.10224679306E+04  0.25500000920E-02 0.  1.
       -2   -1    0    0    0  501  0.00000000000E+00  0.00000000000E+00 -0.20081298579E+04  0.20081298579E+04  0.25500000920E-02 0. -1.
    10030    2    1    2    0    0  0.00000000000E+00  0.00000000000E+00 -0.98566192721E+03  0.30305977885E+04  0.28658320818E+04 0.  0.
        1    1    3    3  502    0  0.12522750218E+03 -0.25676186093E+03 -0.19777109372E+04  0.19982365054E+04  0.50400001928E-02 0. -1.
       -1    1    3    3    0  502 -0.12522750218E+03  0.25676186093E+03  0.99204900999E+03  0.10323612831E+04  0.50400001928E-02 0.  1.
</event>
<event>
 5   0  0.7555871E-06  0.2807786E+04  0.7818609E-02  0.8300855E-01
       -1   -1    0    0    0  501  0.00000000000E+00  0.00000000000E+00  0.21243517394E+04  0.21243517394E+04  0.50400001928E-02 0. -1.
        1   -1    0    0  501    0  0.00000000000E+00  0.00000000000E+00 -0.92777261872E+03  0.92777261874E+03  0.50400001928E-02 0.  1.
    10030    2    1    2    0    0  0.00000000000E+00  0.00000000000E+00  0.11965791207E+04  0.30521243582E+04  0.28077858725E+04 0.  0.
        3    1    3    3  502    0  0.13906935919E+04  0.54730736619E+02  0.79840565061E+03  0.16045172835E+04  0.10100000352E+00 0.  1.
       -3    1    3    3    0  502 -0.13906935919E+04 -0.54730736619E+02  0.39817347008E+03  0.14476070746E+04  0.10100000352E+00 0. -1.
</event>
<event>
 5   0  0.1814230E-05  0.2786328E+04  0.7818609E-02  0.8307525E-01
        2   -1    0    0  501    0  0.00000000000E+00  0.00000000000E+00  0.15733476630E+04  0.15733476630E+04  0.25500000920E-02 0.  1.
       -2   -1    0    0    0  501  0.00000000000E+00  0.00000000000E+00 -0.12336157211E+04  0.12336157211E+04  0.25500000920E-02 0. -1.
    10030    2    1    2    0    0  0.00000000000E+00  0.00000000000E+00  0.33973194192E+03  0.28069633841E+04  0.27863283453E+04 0.  0.
        5    1    3    3  502    0  0.11314568743E+04  0.79529700528E+03  0.71675376205E+00  0.13830092512E+04  0.46999998093E+01 0. -1.
       -5    1    3    3    0  502 -0.11314568743E+04 -0.79529700528E+03  0.33901518815E+03  0.14239541330E+04  0.46999998093E+01 0.  1.
</event>
<event>
 5   0  0.1874272E-05  0.2904068E+04  0.7818609E-02  0.8271668E-01
       -2   -1    0    0    0  501  0.00000000000E+00  0.00000000000E+00  0.14444157599E+04  0.14444157599E+04  0.25500000920E-02 0.  1.
        2   -1    0    0  501    0  0.00000000000E+00  0.00000000000E+00 -0.14596925385E+04  0.14596925385E+04  0.25500000920E-02 0. -1.
    10030    2    1    2    0    0  0.00000000000E+00  0.00000000000E+00 -0.15276778584E+02  0.29041082985E+04  0.29040681172E+04 0.  0.
        3    1    3    3  502    0  0.60636480814E+03  0.79314218848E+03 -0.10620011578E+04  0.14576005218E+04  0.10100000352E+00 0. -1.
       -3    1    3    3    0  502 -0.60636480814E+03 -0.79314218848E+03  0.10467243792E+04  0.14465077767E+04  0.10100000352E+00 0.  1.
</event>
<event>
 5   0  0.1874272E-05  0.2627606E+04  0.7818609E-02  0.8358884E-01
       -2   -1    0    0    0  501  0.00000000000E+00  0.00000000000E+00  0.97860403816E+03  0.97860403816E+03  0.25500000920E-02 0.  1.
        2   -1    0    0  501    0  0.00000000000E+00  0.00000000000E+00 -0.17638174946E+04  0.17638174946E+04  0.25500000920E-02 0. -1.
    10030    2    1    2    0    0  0.00000000000E+00  0.00000000000E+00 -0.78521345647E+03  0.27424215328E+04  0.26276064567E+04 0.  0.
        3    1    3    3  502    0 -0.30399872141E+03 -0.10851112097E+04  0.31233021372E+03  0.11693723669E+04  0.10100000352E+00 0.  1.
       -3    1    3    3    0  502  0.30399872141E+03  0.10851112097E+04 -0.10975436702E+04  0.15730491658E+04  0.10100000352E+00 0. -1.
</event>
<event>
 5   0  0.7388013E-06  0.2830486E+04  0.7818609E-02  0.8293866E-01
        1   -1    0    0  501    0  0.00000000000E+00  0.00000000000E+00  0.21333948810E+04  0.21333948810E+04  0.50400001928E-02 0.  1.
       -1   -1    0    0    0  501  0.00000000000E+00  0.00000000000E+00 -0.93883841061E+03  0.93883841062E+03  0.50400001928E-02 0. -1.
    10030    2    1    2    0    0  0.00000000000E+00  0.00000000000E+00  0.11945564704E+04  0.30722332916E+04  0.28304862192E+04 0.  0.
        1    1    3    3  502    0 -0.89739887872E+03 -0.98305390849E+03  0.11191704176E+04  0.17390405856E+04  0.50400001928E-02 0.  1.
       -1    1    3    3    0  502  0.89739887872E+03  0.98305390849E+03  0.75386052770E+02  0.13331927061E+04  0.50400001928E-02 0. -1.
</event>
<event>
 5   0  0.7509685E-06  0.2756105E+04  0.7818609E-02  0.8317027E-01
       -1   -1    0    0    0  501  0.00000000000E+00  0.00000000000E+00  0.10662023215E+04  0.10662023215E+04  0.50400001928E-02 0.  1.
        1   -1    0    0  501    0  0.00000000000E+00  0.00000000000E+00 -0.17811145803E+04  0.17811145803E+04  0.50400001928E-02 0. -1.
    10030    2    1    2    0    0  0.00000000000E+00  0.00000000000E+00 -0.71491225882E+03  0.28473169018E+04  0.27561048604E+04 0.  0.
        4    1    3    3  502    0 -0.66925108596E+01  0.13650658429E+04 -0.55231797873E+03  0.14725849068E+04  0.12699999809E+01 0.  1.
       -4    1    3    3    0  502  0.66925108596E+01 -0.13650658429E+04 -0.16259428009E+03  0.13747319950E+04  0.12699999809E+01 0. -1.
</event>
<event>
 5   0  0.7388013E-06  0.2780999E+04  0.7818609E-02  0.8309192E-01
       -1   -1    0    0    0  501  0.00000000000E+00  0.00000000000E+00  0.13969681813E+04  0.13969681813E+04  0.50400001928E-02 0. -1.
        1   -1    0    0  501    0  0.00000000000E+00  0.00000000000E+00 -0.13840607128E+04  0.13840607128E+04  0.50400001928E-02 0.  1.
    10030    2    1    2    0    0  0.00000000000E+00  0.00000000000E+00  0.12907468540E+02  0.27810288941E+04  0.27809989405E+04 0.  0.
        1    1    3    3  502    0  0.53473781402E+00  0.13384819723E+04  0.38322628992E+03  0.13922631452E+04  0.50400001928E-02 0. -1.
       -1    1    3    3    0  502 -0.53473781402E+00 -0.13384819723E+04 -0.37031882138E+03  0.13887657490E+04  0.50400001928E-02 0.  1.
</event>
<event>
 5   0  0.6288000E-06  0.1977682E+04  0.7818609E-02  0.8617126E-01
       -3   -1    0    0    0  501  0.00000000000E+00  0.00000000000E+00  0.11357314341E+04  0.11357314386E+04  0.10100000352E+00 0. -1.
        3   -1    0    0  501    0  0.00000000000E+00  0.00000000000E+00 -0.86094912203E+03  0.86094912796E+03  0.10100000352E+00 0.  1.
    10030    2    1    2    0    0  0.00000000000E+00  0.00000000000E+00  0.27478231211E+03  0.19966805666E+04  0.19776824735E+04 0.  0.
        5    1    3    3  502    0  0.30567572233E+03 -0.51807343115E+03 -0.65497106343E+03  0.88929573889E+03  0.46999998093E+01 0.  1.
       -5    1    3    3    0  502 -0.30567572233E+03  0.51807343115E+03  0.92975337554E+03  0.11073848277E+04  0.46999998093E+01 0. -1.
</event>
<event>
 5   0  0.7613444E-06  0.2213679E+04  0.7818609E-02  0.8512756E-01
        1   -1    0    0  501    0  0.00000000000E+00  0.00000000000E+00  0.19062289072E+04  0.19062289072E+04  0.50400001928E-02 0.  1.
       -1   -1    0    0    0  501  0.00000000000E+00  0.00000000000E+00 -0.64267919150E+03  0.64267919152E+03  0.50400001928E-02 0. -1.
    10030    2    1    2    0    0  0.00000000000E+00  0.00000000000E+00  0.12635497157E+04  0.25489080988E+04  0.22136789767E+04 0.  0.
        5    1    3    3  502    0 -0.52451009309E+03  0.79528156434E+03  0.12805633916E+04  0.15960727722E+04  0.46999998093E+01 0.  1.
       -5    1    3    3    0  502  0.52451009309E+03 -0.79528156434E+03 -0.17013675851E+02  0.95283532654E+03  0.46999998093E+01 0. -1.
</event>
<event>
 5   0  0.7509685E-06  0.2878373E+04  0.7818609E-02  0.8279341E-01
        1   -1    0    0  501    0  0.00000000000E+00  0.00000000000E+00  0.12982173043E+04  0.12982173043E+04  0.50400001928E-02 0.  1.
       -1   -1    0    0    0  501  0.00000000000E+00  0.00000000000E+00 -0.15954629368E+04  0.15954629368E+04  0.50400001928E-02 0. -1.
    10030    2    1    2    0    0  0.00000000000E+00  0.00000000000E+00 -0.29724563251E+03  0.28936802411E+04  0.28783728688E+04 0.  0.
        4    1    3    3  502    0 -0.10982022836E+04 -0.53592641855E+03  0.61567720815E+03  0.13683294265E+04  0.12699999809E+01 0.  1.
       -4    1    3    3    0  502  0.10982022836E+04  0.53592641855E+03 -0.91292284066E+03  0.15253508146E+04  0.12699999809E+01 0. -1.
</event>
<event>
 5   0  0.7681342E-06  0.2692752E+04  0.7818609E-02  0.8337360E-01
        1   -1    0    0  501    0  0.00000000000E+00  0.00000000000E+00  0.17421787280E+04  0.17421787280E+04  0.50400001928E-02 0. -1.
       -1   -1    0    0    0  501  0.00000000000E+00  0.00000000000E+00 -0.10404953137E+04  0.10404953138E+04  0.50400001928E-02 0.  1.
    10030    2    1    2    0    0  0.00000000000E+00  0.00000000000E+00  0.70168341429E+03  0.27826740418E+04  0.26927523482E+04 0.  0.
        2    1    3    3  502    0 -0.68707870059E+03  0.68781536155E+03  0.13133757674E+04  0.16340511066E+04  0.25500000920E-02 0. -1.
       -2    1    3    3    0  502  0.68707870059E+03 -0.68781536155E+03 -0.61169235315E+03  0.11486229352E+04  0.25500000920E-02 0.  1.
</event>
<event>
 5   0  0.1832502E-05  0.2874670E+04  0.7818609E-02  0.8280454E-01
       -2   -1    0    0    0  501  0.00000000000E+00  0.00000000000E+00  0.26064192602E+04  0.26064192602E+04  0.25500000920E-02 0.  1.
        2   -1    0    0  501    0  0.00000000000E+00  0.00000000000E+00 -0.79263225405E+03  0.79263225405E+03  0.25500000920E-02 0. -1.
    10030    2    1    2    0    0  0.00000000000E+00  0.00000000000E+00  0.18137870061E+04  0.33990515142E+04  0.28746700494E+04 0.  0.
        2    1    3    3  502    0 -0.12228848971E+04 -0.28062341921E+03  0.17360476977E+04  0.21419753928E+04  0.25500000920E-02 0.  1.
       -2    1    3    3    0  502  0.12228848971E+04  0.28062341921E+03  0.77739308431E+02  0.12570761214E+04  0.25500000920E-02 0. -1.
</event>
<event>
 5   0  0.7613444E-06  0.2804118E+04  0.7818609E-02  0.8301991E-01
       -1   -1    0    0    0  501  0.00000000000E+00  0.00000000000E+00  0.14239440611E+04  0.14239440612E+04  0.50400001928E-02 0. -1.
        1   -1    0    0  501    0  0.00000000000E+00  0.00000000000E+00 -0.13805103839E+04  0.13805103839E+04  0.50400001928E-02 0.  1.
    10030    2    1    2    0    0  0.00000000000E+00  0.00000000000E+00  0.43433677235E+02  0.28044544451E+04  0.28041180878E+04 0.  0.
        5    1    3    3  502    0  0.83300097047E+02  0.11472407425E+04  0.82346581861E+03  0.14146442210E+04  0.46999998093E+01 0.  1.
       -5    1    3    3    0  502 -0.83300097047E+02 -0.11472407425E+04 -0.78003214137E+03  0.13898102241E+04  0.46999998093E+01 0. -1.
</event>
<event>
 5   0  0.7555871E-06  0.2762871E+04  0.7818609E-02  0.8314889E-01
       -1   -1    0    0    0  501  0.00000000000E+00  0.00000000000E+00  0.12867277430E+04  0.12867277430E+04  0.50400001928E-02 0.  1.
        1   -1    0    0  501    0  0.00000000000E+00  0.00000000000E+00 -0.14831143674E+04  0.14831143674E+04  0.50400001928E-02 0. -1.
    10030    2    1    2    0    0  0.00000000000E+00  0.00000000000E+00 -0.19638662433E+03  0.27698421104E+04  0.27628712620E+04 0.  0.
        3    1    3    3  502    0  0.93548972195E+03  0.41056447429E+03 -0.10304104769E+04  0.14510168740E+04  0.10100000352E+00 0. -1.
       -3    1    3    3    0  502 -0.93548972195E+03 -0.41056447429E+03  0.83402385256E+03  0.13188252364E+04  0.10100000352E+00 0.  1.
</event>
<event>
 5   0  0.1832502E-05  0.2498780E+04  0.7818609E-02  0.8403420E-01
        2   -1    0    0  501    0  0.00000000000E+00  0.00000000000E+00  0.81848241218E+03  0.81848241218E+03  0.25500000920E-02 0. -1.
       -2   -1    0    0    0  501  0.00000000000E+00  0.00000000000E+00 -0.19071578697E+04  0.19071578697E+04  0.25500000920E-02 0.  1.
    10030    2    1    2    0    0  0.00000000000E+00  0.00000000000E+00 -0.10886754575E+04  0.27256402818E+04  0.24987798411E+04 0.  0.
        2    1    3    3  502    0  0.61768164920E+03  0.77834920380E+03  0.28179833120E+03  0.10328448104E+04  0.25500000920E-02 0. -1.
       -2    1    3    3    0  502 -0.61768164920E+03 -0.77834920380E+03 -0.13704737887E+04  0.16927954715E+04  0.25500000920E-02 0.  1.
</event>
<event>
 5   0  0.7681342E-06  0.2821879E+04  0.7818609E-02  0.8296508E-01
        1   -1    0    0  501    0  0.00000000000E+00  0.00000000000E+00  0.12219200582E+04  0.12219200583E+04  0.50400001928E-02 0.  1.
       -1   -1    0    0    0  501  0.00000000000E+00  0.00000000000E+00 -0.16291983440E+04  0.16291983440E+04  0.50400001928E-02 0. -1.
    10030    2    1    2    0    0  0.00000000000E+00  0.00000000000E+00 -0.40727828574E+03  0.28511184022E+04  0.28218789027E+04 0.  0.
        2    1    3    3  502    0  0.27631483101E+03 -0.12741502907E+04 -0.74861787954E+03  0.15034086533E+04  0.25500000920E-02 0. -1.
       -2    1    3    3    0  502 -0.27631483101E+03  0.12741502907E+04  0.34133959380E+03  0.13477097490E+04  0.25500000920E-02 0.  1.
</event>
<event>
 5   0  0.7613444E-06  0.2459863E+04  0.7818609E-02  0.8417426E-01
       -1   -1    0    0    0  501  0.00000000000E+00  0.00000000000E+00  0.12718519051E+04  0.12718519051E+04  0.50400001928E-02 0.  1.
        1   -1    0    0  501    0  0.00000000000E+00  0.00000000000E+00 -0.11893927300E+04  0.11893927300E+04  0.50400001928E-02 0. -1.
    10030    2    1    2    0    0  0.00000000000E+00  0.00000000000E+00  0.82459175118E+02  0.24612446352E+04  0.24598629309E+04 0.  0.
        5    1    3    3  502    0  0.10390589856E+04  0.12174653204E+03  0.68831034954E+03  0.12523014896E+04  0.46999998093E+01 0.  1.
       -5    1    3    3    0  502 -0.10390589856E+04 -0.12174653204E+03 -0.60585117442E+03  0.12089431456E+04  0.46999998093E+01 0. -1.
</event>
<event>
 5   0  0.1904553E-05  0.2677291E+04  0.7818609E-02  0.8342411E-01
        2   -1    0    0  501    0  0.00000000000E+00  0.00000000000E+00  0.13155164391E+04  0.13155164391E+04  0.25500000920E-02 0.  1.
       -2   -1    0    0    0  501  0.00000000000E+00  0.00000000000E+00 -0.13621808551E+04  0.13621808551E+04  0.25500000920E-02 0. -1.
    10030    2    1    2    0    0  0.00000000000E+00  0.00000000000E+00 -0.46664416005E+02  0.26776972942E+04  0.26772906513E+04 0.  0.
        1    1    3    3  502    0 -0.54680028174E+03  0.12120976240E+04  0.13096406536E+03  0.13361597153E+04  0.50400001928E-02 0. -1.
       -1    1    3    3    0  502  0.54680028174E+03 -0.12120976240E+04 -0.17762848137E+03  0.13415375789E+04  0.50400001928E-02 0.  1.
</event>
<event>
 5   0  0.1832502E-05  0.2770696E+04  0.7818609E-02  0.8312424E-01
       -2   -1    0    0    0  501  0.00000000000E+00  0.00000000000E+00  0.95063403477E+03  0.95063403478E+03  0.25500000920E-02 0. -1.
        2   -1    0    0  501    0  0.00000000000E+00  0.00000000000E+00 -0.20188510330E+04  0.20188510330E+04  0.25500000920E-02 0.  1.
    10030    2    1    2    0    0  0.00000000000E+00  0.00000000000E+00 -0.10682169982E+04  0.29694850678E+04  0.27706955828E+04 0.  0.
        2    1    3    3  502    0  0.22962180347E+03  0.76346508692E+03 -0.17483480586E+04  0.19215426214E+04  0.25500000920E-02 0.  1.
       -2    1    3    3    0  502 -0.22962180347E+03 -0.76346508692E+03  0.68013106043E+03  0.10479424464E+04  0.25500000920E-02 0. -1.
</event>
<event>
 5   0  0.1923559E-05  0.2794887E+04  0.7818609E-02  0.8304857E-01
       -2   -1    0    0    0  501  0.00000000000E+00  0.00000000000E+00  0.13472724146E+04  0.13472724146E+04  0.25500000920E-02 0.  1.
        2   -1    0    0  501    0  0.00000000000E+00  0.00000000000E+00 -0.14494831828E+04  0.14494831828E+04  0.25500000920E-02 0. -1.
    10030    2    1    2    0    0  0.00000000000E+00  0.00000000000E+00 -0.10221076824E+03  0.27967555974E+04  0.27948872662E+04 0.  0.
        4    1    3    3  502    0  0.37703026006E+03 -0.51581444369E+03 -0.12947679359E+04  0.14438289296E+04  0.12699999809E+01 0. -1.
       -4    1    3    3    0  502 -0.37703026006E+03  0.51581444369E+03  0.11925571677E+04  0.13529266678E+04  0.12699999809E+01 0.  1.
</event>
<event>
 5   0  0.1814230E-05  0.2826303E+04  0.7818609E-02  0.8295149E-01
        2   -1    0    0  501    0  0.00000000000E+00  0.00000000000E+00  0.13790144143E+04  0.13790144143E+04  0.25500000920E-02 0.  1.
       -2   -1    0    0    0  501  0.00000000000E+00  0.00000000000E+00 -0.14481332405E+04  0.14481332405E+04  0.25500000920E-02 0. -1.
    10030    2    1    2    0    0  0.00000000000E+00  0.00000000000E+00 -0.69118826167E+02  0.28271476548E+04  0.28263026112E+04 0.  0.
        5    1    3    3  502    0 -0.13015950671E+03  0.13012452934E+04  0.50113194944E+03  0.14004771085E+04  0.46999998093E+01 0. -1.
       -5    1    3    3    0  502  0.13015950671E+03 -0.13012452934E+04 -0.57025077560E+03  0.14266705463E+04  0.46999998093E+01 0.  1.
</event>
<event>
 5   0  0.1923559E-05  0.2750656E+04  0.7818609E-02  0.8318754E-01
        2   -1    0    0  501    0  0.00000000000E+00  0.00000000000E+00  0.12428911151E+04  0.12428911151E+04  0.25500000920E-02 0.  1.
       -2   -1    0    0    0  501  0.00000000000E+00  0.00000000000E+00 -0.15218766755E+04  0.15218766755E+04  0.25500000920E-02 0. -1.
    10030    2    1    2    0    0  0.00000000000E+00  0.00000000000E+00 -0.27898556043E+03  0.27647677907E+04  0.27506559206E+04 0.  0.
        4    1    3    3  502    0 -0.11097153883E+04  0.16270971546E+03  0.66056996026E+03  0.13016516354E+04  0.12699999809E+01 0. -1.
       -4    1    3    3    0  502  0.11097153883E+04 -0.16270971546E+03 -0.93955552069E+03  0.14631161553E+04  0.12699999809E+01 0.  1.
</event>
<event>
 5   0  0.1904553E-05  0.2851969E+04  0.7818609E-02  0.8287313E-01
       -2   -1    0    0    0  501  0.00000000000E+00  0.00000000000E+00  0.11890244687E+04  0.11890244687E+04  0.25500000920E-02 0.  1.
        2   -1    0    0  501    0  0.00000000000E+00  0.00000000000E+00 -0.17101682056E+04  0.17101682056E+04  0.25500000920E-02 0. -1.
    10030    2    1    2    0    0  0.00000000000E+00  0.00000000000E+00 -0.52114373694E+03  0.28991926743E+04  0.28519690335E+04 0.  0.
        1    1    3    3  502    0 -0.97084058854E+03 -0.96277140104E+03  0.15106723213E+03  0.13756022418E+04  0.50400001928E-02 0.  1.
       -1    1    3    3    0  502  0.97084058854E+03  0.96277140104E+03 -0.67221096906E+03  0.15235904325E+04  0.50400001928E-02 0. -1.
</event>
<event>
 5   0  0.7509685E-06  0.2782223E+04  0.7818609E-02  0.8308809E-01
        1   -1    0    0  501    0  0.00000000000E+00  0.00000000000E+00  0.11453828428E+04  0.11453828428E+04  0.50400001928E-02 0.  1.
       -1   -1    0    0    0  501  0.00000000000E+00  0.00000000000E+00 -0.16895587391E+04  0.16895587391E+04  0.50400001928E-02 0. -1.
    10030    2    1    2    0    0  0.00000000000E+00  0.00000000000E+00 -0.54417589630E+03  0.28349415820E+04  0.27822232777E+04 0.  0.
        4    1    3    3  502    0 -0.33168556962E+03  0.41808096025E+03 -0.15811025809E+04  0.16687402406E+04  0.12699999809E+01 0. -1.
       -4    1    3    3    0  502  0.33168556962E+03 -0.41808096025E+03  0.10369266846E+04  0.11662013414E+04  0.12699999809E+01 0.  1.
</event>
<event>
 5   0  0.1832502E-05  0.2808299E+04  0.7818609E-02  0.8300696E-01
        2   -1    0    0  501    0  0.00000000000E+00  0.00000000000E+00  0.26369316306E+04  0.26369316306E+04  0.25500000920E-02 0. -1.
       -2   -1    0    0    0  501  0.00000000000E+00  0.00000000000E+00 -0.74770078972E+03  0.74770078972E+03  0.25500000920E-02 0.  1.
    10030    2    1    2    0    0  0.00000000000E+00  0.00000000000E+00  0.18892308409E+04  0.33846324203E+04  0.28082990315E+04 0.  0.
        2    1    3    3  502    0 -0.17111417718E+03 -0.32961688694E+03 -0.68743401666E+03  0.78134043864E+03  0.25500000920E-02 0.  1.
       -2    1    3    3    0  502  0.17111417718E+03  0.32961688694E+03  0.25766648575E+04  0.26032919817E+04  0.25500000920E-02 0. -1.
</event>
<event>
 5   0  0.1874272E-05  0.2850843E+04  0.7818609E-02  0.8287655E-01
        2   -1    0    0  501    0  0.00000000000E+00  0.00000000000E+00  0.15198337616E+04  0.15198337616E+04  0.25500000920E-02 0.  1.
       -2   -1    0    0    0  501  0.00000000000E+00  0.00000000000E+00 -0.13368743922E+04  0.13368743922E+04  0.25500000920E-02 0. -1.
    10030    2    1    2    0    0  0.00000000000E+00  0.00000000000E+00  0.18295936938E+03  0.28567081538E+04  0.28508432692E+04 0.  0.
        3    1    3    3  502    0  0.10032067246E+04  0.57056719041E+03 -0.74681542393E+03  0.13746650278E+04  0.10100000352E+00 0. -1.
       -3    1    3    3    0  502 -0.10032067246E+04 -0.57056719041E+03  0.92977479331E+03  0.14820431260E+04  0.10100000352E+00 0.  1.
</event>
<event>
 5   0  0.1814230E-05  0.2892551E+04  0.7818609E-02  0.8275097E-01
       -2   -1    0    0    0  501  0.00000000000E+00  0.00000000000E+00  0.18820846798E+04  0.18820846798E+04  0.25500000920E-02 0.  1.
        2   -1    0    0  501    0  0.00000000000E+00  0.00000000000E+00 -0.11113809906E+04  0.11113809906E+04  0.25500000920E-02 0. -1.
    10030    2    1    2    0    0  0.00000000000E+00  0.00000000000E+00  0.77070368921E+03  0.29934656705E+04  0.28925512171E+04 0.  0.
        5    1    3    3  502    0 -0.75142627378E+03 -0.34336821872E+03  0.16138415126E+04  0.18130222548E+04  0.46999998093E+01 0.  1.
       -5    1    3    3    0  502  0.75142627378E+03  0.34336821872E+03 -0.84313782336E+03  0.11804434157E+04  0.46999998093E+01 0. -1.
</event>
<event>
 5   0  0.1904553E-05  0.2814849E+04  0.7818609E-02  0.8298673E-01
       -2   -1    0    0    0  501  0.00000000000E+00  0.00000000000E+00  0.91084001399E+03  0.91084001399E+03  0.25500000920E-02 0.  1.
        2   -1    0    0  501    0  0.00000000000E+00  0.00000000000E+00 -0.21747444825E+04  0.21747444825E+04  0.25500000920E-02 0. -1.
    10030    2    1    2    0    0  0.00000000000E+00  0.00000000000E+00 -0.12639044685E+04  0.30855844965E+04  0.28148494062E+04 0.  0.
        1    1    3    3  502    0  0.12093926393E+04  0.98252587847E+02  0.14977177264E+03  0.12225856661E+04  0.50400001928E-02 0.  1.
       -1    1    3    3    0  502 -0.12093926393E+04 -0.98252587847E+02 -0.14136762411E+04  0.18629988303E+04  0.50400001928E-02 0. -1.
</event>
<event>
 5   0  0.7388013E-06  0.2827191E+04  0.7818609E-02  0.8294876E-01
       -1   -1    0    0    0  501  0.00000000000E+00  0.00000000000E+00  0.10110371839E+04  0.10110371840E+04  0.50400001928E-02 0.  1.
        1   -1    0    0  501    0  0.00000000000E+00  0.00000000000E+00 -0.19764383762E+04  0.19764383762E+04  0.50400001928E-02 0. -1.
    10030    2    1    2    0    0  0.00000000000E+00  0.00000000000E+00 -0.96540119228E+03  0.29874755602E+04  0.28271913201E+04 0.  0.
        1    1    3    3  502    0  0.12893602063E+04  0.12504263043E+03 -0.10806131083E+04  0.16869529012E+04  0.50400001928E-02 0. -1.
       -1    1    3    3    0  502 -0.12893602063E+04 -0.12504263043E+03  0.11521191601E+03  0.13005226590E+04  0.50400001928E-02 0.  1.
</event>
<event>
 5   0  0.1832502E-05  0.2776473E+04  0.7818609E-02  0.8310610E-01
        2   -1    0    0  501    0  0.00000000000E+00  0.00000000000E+00  0.16598689053E+04  0.16598689053E+04  0.25500000920E-02 0.  1.
       -2   -1    0    0    0  501  0.00000000000E+00  0.00000000000E+00 -0.11610558348E+04  0.11610558348E+04  0.25500000920E-02 0. -1.
    10030    2    1    2    0    0  0.00000000000E+00  0.00000000000E+00  0.49881307049E+03  0.28209247402E+04  0.27764729263E+04 0.  0.
        2    1    3    3  502    0 -0.41159498738E+03  0.28717382064E+03 -0.10656581159E+04  0.11779246397E+04  0.25500000920E-02 0. -1.
       -2    1    3    3    0  502  0.41159498738E+03 -0.28717382064E+03  0.15644711864E+04  0.16430001004E+04  0.25500000920E-02 0.  1.
</event>
<event>
 5   0  0.7613444E-06  0.2804497E+04  0.7818609E-02  0.8301874E-01
       -1   -1    0    0    0  501  0.00000000000E+00  0.00000000000E+00  0.11652980550E+04  0.11652980550E+04  0.50400001928E-02 0.  1.
        1   -1    0    0  501    0  0.00000000000E+00  0.00000000000E+00 -0.16873799721E+04  0.16873799721E+04  0.50400001928E-02 0. -1.
    10030    2    1    2    0    0  0.00000000000E+00  0.00000000000E+00 -0.52208191713E+03  0.28526780271E+04  0.28044968172E+04 0.  0.
        5    1    3    3  502    0 -0.13472591187E+04 -0.36823483817E+03 -0.13409917634E+03  0.14031068056E+04  0.46999998093E+01 0.  1.
       -5    1    3    3    0  502  0.13472591187E+04  0.36823483817E+03 -0.38798274079E+03  0.14495712214E+04  0.46999998093E+01 0. -1.
</event>
<event>
 5   0  0.1814230E-05  0.2733184E+04  0.7818609E-02  0.8324317E-01
       -2   -1    0    0    0  501  0.00000000000E+00  0.00000000000E+00  0.94033424254E+03  0.94033424254E+03  0.25500000920E-02 0.  1.
        2   -1    0    0  501    0  0.00000000000E+00  0.00000000000E+00 -0.19860749183E+04  0.19860749183E+04  0.25500000920E-02 0. -1.
    10030    2    1    2    0    0  0.00000000000E+00  0.00000000000E+00 -0.10457406758E+04  0.29264091609E+04  0.27331844094E+04 0.  0.
        5    1    3    3  502    0  0.44978774566E+03 -0.16167853640E+03 -0.18936550802E+04  0.19530490567E+04  0.46999998093E+01 0. -1.
       -5    1    3    3    0  502 -0.44978774566E+03  0.16167853640E+03  0.84791440436E+03  0.97336010417E+03  0.46999998093E+01 0.  1.
</event>
<event>
 5   0  0.7509685E-06  0.2733437E+04  0.7818609E-02  0.8324237E-01
       -1   -1    0    0    0  501  0.00000000000E+00  0.00000000000E+00  0.21845934636E+04  0.21845934636E+04  0.50400001928E-02 0.  1.
        1   -1    0    0  501    0  0.00000000000E+00  0.00000000000E+00 -0.85504219878E+03  0.85504219880E+03  0.50400001928E-02 0. -1.
    10030    2    1    2    0    0  0.00000000000E+00  0.00000000000E+00  0.13295512648E+04  0.30396356624E+04  0.27334371027E+04 0.  0.
        4    1    3    3  502    0 -0.11605771462E+04 -0.16777379711E+03  0.14454344879E+04  0.18612817709E+04  0.12699999809E+01 0.  1.
       -4    1    3    3    0  502  0.11605771462E+04  0.16777379711E+03 -0.11588322303E+03  0.11783538915E+04  0.12699999809E+01 0. -1.
</event>
<event>
 5   0  0.1923559E-05  0.2789793E+04  0.7818609E-02  0.8306444E-01
        2   -1    0    0  501    0  0.00000000000E+00  0.00000000000E+00  0.18464268369E+04  0.18464268369E+04  0.25500000920E-02 0.  1.
       -2   -1    0    0    0  501  0.00000000000E+00  0.00000000000E+00 -0.10537844136E+04  0.10537844136E+04  0.25500000920E-02 0. -1.
    10030    2    1    2    0    0  0.00000000000E+00  0.00000000000E+00  0.79264242328E+03  0.29002112505E+04  0.27897926959E+04 0.  0.
        4    1    3    3  502    0  0.66280417736E+03 -0.12269787425E+04  0.36431302334E+03  0.14413576253E+04  0.12699999809E+01 0.  1.
       -4    1    3    3    0  502 -0.66280417736E+03  0.12269787425E+04  0.42832939994E+03  0.14588536252E+04  0.12699999809E+01 0. -1.
</event>
<event>
 5   0  0.7388013E-06  0.2365916E+04  0.7818609E-02  0.8452375E-01
        1   -1    0    0  501    0  0.00000000000E+00  0.00000000000E+00  0.18378481436E+04  0.18378481436E+04  0.50400001928E-02 0. -1.
       -1   -1    0    0    0  501  0.00000000000E+00  0.00000000000E+00 -0.76142825308E+03  0.76142825309E+03  0.50400001928E-02 0.  1.
    10030    2    1    2    0    0  0.00000000000E+00  0.00000000000E+00  0.10764198905E+04  0.25992763967E+04  0.23659158915E+04 0.  0.
        1    1    3    3  502    0 -0.18822660556E+03  0.92078224888E+03 -0.25106557068E+03  0.97278112939E+03  0.50400001928E-02 0.  1.
       -1    1    3    3    0  502  0.18822660556E+03 -0.92078224888E+03  0.13274854612E+04  0.16264952673E+04  0.50400001928E-02 0. -1.
</event>
<event>
 5   0  0.1904553E-05  0.2783858E+04  0.7818609E-02  0.8308297E-01
       -2   -1    0    0    0  501  0.00000000000E+00  0.00000000000E+00  0.11967733562E+04  0.11967733562E+04  0.25500000920E-02 0. -1.
        2   -1    0    0  501    0  0.00000000000E+00  0.00000000000E+00 -0.16189084522E+04  0.16189084522E+04  0.25500000920E-02 0.  1.
    10030    2    1    2    0    0  0.00000000000E+00  0.00000000000E+00 -0.42213509595E+03  0.28156818084E+04  0.27838581155E+04 0.  0.
        1    1    3    3  502    0 -0.64033659344E+03  0.11190628058E+04 -0.74159589970E+03  0.14873792370E+04  0.50400001928E-02 0.  1.
       -1    1    3    3    0  502  0.64033659344E+03 -0.11190628058E+04  0.31946080375E+03  0.13283025714E+04  0.50400001928E-02 0. -1.
</event>
<event>
 5   0  0.7509685E-06  0.2772060E+04  0.7818609E-02  0.8311995E-01
       -1   -1    0    0    0  501  0.00000000000E+00  0.00000000000E+00  0.65376770353E+03  0.65376770355E+03  0.50400001928E-02 0.  1.
        1   -1    0    0  501    0  0.00000000000E+00  0.00000000000E+00 -0.29384741359E+04  0.29384741359E+04  0.50400001928E-02 0. -1.
    10030    2    1    2    0    0  0.00000000000E+00  0.00000000000E+00 -0.22847064323E+04  0.35922418394E+04  0.27720602358E+04 0.  0.
        4    1    3    3  502    0  0.74758422788E+03 -0.10568825264E+04 -0.17840335490E+04  0.22042368678E+04  0.12699999809E+01 0. -1.
       -4    1    3    3    0  502 -0.74758422788E+03  0.10568825264E+04 -0.50067288333E+03  0.13880049716E+04  0.12699999809E+01 0.  1.
</event>
<event>
 5   0  0.1874272E-05  0.2822372E+04  0.7818609E-02  0.8296356E-01
       -2   -1    0    0    0  501  0.00000000000E+00  0.00000000000E+00  0.12529970412E+04  0.12529970412E+04  0.25500000920E-02 0. -1.
        2   -1    0    0  501    0  0.00000000000E+00  0.00000000000E+00 -0.15893464405E+04  0.15893464405E+04  0.25500000920E-02 0.  1.
    10030    2    1    2    0    0  0.00000000000E+00  0.00000000000E+00 -0.33634939928E+03  0.28423434817E+04  0.28223723265E+04 0.  0.
        3    1    3    3  502    0 -0.79766613136E+02  0.13356877988E+04 -0.61970177628E+03  0.14746033060E+04  0.10100000352E+00 0.  1.
       -3    1    3    3    0  502  0.79766613136E+02 -0.13356877988E+04  0.28335237701E+03  0.13677401757E+04  0.10100000352E+00 0. -1.
</event>
<event>
 5   0  0.7555871E-06  0.2648685E+04  0.7818609E-02  0.8351850E-01
       -1   -1    0    0    0  501  0.00000000000E+00  0.00000000000E+00  0.89272815971E+03  0.89272815972E+03  0.50400001928E-02 0. -1.
        1   -1    0    0  501    0  0.00000000000E+00  0.00000000000E+00 -0.19646324986E+04  0.19646324986E+04  0.50400001928E-02 0.  1.
    10030    2    1    2    0    0  0.00000000000E+00  0.00000000000E+00 -0.10719043389E+04  0.28573606583E+04  0.26486847717E+04 0.  0.
        3    1    3    3  502    0  0.57269603875E+03  0.18327091690E+03  0.73697437890E+03  0.95115730935E+03  0.10100000352E+00 0. -1.
       -3    1    3    3    0  502 -0.57269603875E+03 -0.18327091690E+03 -0.18088787178E+04  0.19062033490E+04  0.10100000352E+00 0.  1.
</event>
<event>
 5   0  0.1904553E-05  0.2805915E+04  0.7818609E-02  0.8301434E-01
        2   -1    0    0  501    0  0.00000000000E+00  0.00000000000E+00  0.17433902196E+04  0.17433902196E+04  0.25500000920E-02 0.  1.
       -2   -1    0    0    0  501  0.00000000000E+00  0.00000000000E+00 -0.11290011120E+04  0.11290011120E+04  0.25500000920E-02 0. -1.
    10030    2    1    2    0    0  0.00000000000E+00  0.00000000000E+00  0.61438910759E+03  0.28723913315E+04  0.28059148216E+04 0.  0.
        1    1    3    3  502    0 -0.12973538624E+04 -0.41859691532E+03 -0.32231490521E+02  0.13635942545E+04  0.50400001928E-02 0. -1.
       -1    1    3    3    0  502  0.12973538624E+04  0.41859691532E+03  0.64662059811E+03  0.15087970771E+04  0.50400001928E-02 0.  1.
</event>
<event>
 5   0  0.7509685E-06  0.2766939E+04  0.7818609E-02  0.8313607E-01
        1   -1    0    0  501    0  0.00000000000E+00  0.00000000000E+00  0.24209154749E+04  0.24209154749E+04  0.50400001928E-02 0. -1.
       -1   -1    0    0    0  501  0.00000000000E+00  0.00000000000E+00 -0.79060492997E+03  0.79060492999E+03  0.50400001928E-02 0.  1.
    10030    2    1    2    0    0  0.00000000000E+00  0.00000000000E+00  0.16303105449E+04  0.32115204049E+04  0.27669388931E+04 0.  0.
        4    1    3    3  502    0 -0.93929076027E+03  0.48077490864E+03 -0.22335783180E+03  0.10785647774E+04  0.12699999809E+01 0.  1.
       -4    1    3    3    0  502  0.93929076027E+03 -0.48077490864E+03  0.18536683767E+04  0.21329556275E+04  0.12699999809E+01 0. -1.
</event>
<event>
 5   0  0.1874272E-05  0.2800912E+04  0.7818609E-02  0.8302985E-01
        2   -1    0    0  501    0  0.00000000000E+00  0.00000000000E+00  0.21774142310E+04  0.21774142310E+04  0.25500000920E-02 0. -1.
       -2   -1    0    0    0  501  0.00000000000E+00  0.00000000000E+00 -0.90073695492E+03  0.90073695492E+03  0.25500000920E-02 0.  1.
    10030    2    1    2    0    0  0.00000000000E+00  0.00000000000E+00  0.12766772761E+04  0.30781511859E+04  0.28009123257E+04 0.  0.
        3    1    3    3  502    0 -0.39270777524E+03 -0.28157252761E+03 -0.80621615948E+03  0.93993988693E+03  0.10100000352E+00 0.  1.
       -3    1    3    3    0  502  0.39270777524E+03  0.28157252761E+03  0.20828934356E+04  0.21382112990E+04  0.10100000352E+00 0. -1.
</event>
<event>
 5   0  0.7509685E-06  0.2814642E+04  0.7818609E-02  0.8298737E-01
        1   -1    0    0  501    0  0.00000000000E+00  0.00000000000E+00  0.16203177981E+04  0.16203177981E+04  0.50400001928E-02 0.  1.
       -1   -1    0    0    0  501  0.00000000000E+00  0.00000000000E+00 -0.12223238060E+04  0.12223238060E+04  0.50400001928E-02 0. -1.
    10030    2    1    2    0    0  0.00000000000E+00  0.00000000000E+00  0.39799399209E+03  0.28426416041E+04  0.28146424412E+04 0.  0.
        4    1    3    3  502    0  0.95399000465E+03  0.98857722137E+03  0.50727027590E+03  0.14644816821E+04  0.12699999809E+01 0.  1.
       -4    1    3    3    0  502 -0.95399000465E+03 -0.98857722137E+03 -0.10927628381E+03  0.13781599220E+04  0.12699999809E+01 0. -1.
</event>
<event>
 5   0  0.6288000E-06  0.2832607E+04  0.7818609E-02  0.8293216E-01
       -3   -1    0    0    0  501  0.00000000000E+00  0.00000000000E+00  0.15746298273E+04  0.15746298305E+04  0.10100000352E+00 0.  1.
        3   -1    0    0  501    0  0.00000000000E+00  0.00000000000E+00 -0.12738965359E+04  0.12738965399E+04  0.10100000352E+00 0. -1.
    10030    2    1    2    0    0  0.00000000000E+00  0.00000000000E+00  0.30073329138E+03  0.28485263705E+04  0.28326069213E+04 0.  0.
        5    1    3    3  502    0 -0.13764433194E+04  0.26954914103E+03 -0.47309848141E+02  0.14033934811E+04  0.46999998093E+01 0. -1.
       -5    1    3    3    0  502  0.13764433194E+04 -0.26954914103E+03  0.34804313952E+03  0.14451328894E+04  0.46999998093E+01 0.  1.
</event>
<event>
 5   0  0.7509685E-06  0.2384697E+04  0.7818609E-02  0.8445255E-01
        1   -1    0    0  501    0  0.00000000000E+00  0.00000000000E+00  0.91988956980E+03  0.91988956981E+03  0.50400001928E-02 0. -1.
       -1   -1    0    0    0  501  0.00000000000E+00  0.00000000000E+00 -0.15455067073E+04  0.15455067073E+04  0.50400001928E-02 0.  1.
    10030    2    1    2    0    0  0.00000000000E+00  0.00000000000E+00 -0.62561713747E+03  0.24653962771E+04  0.23846974652E+04 0.  0.
        4    1    3    3  502    0 -0.62539663150E+03  0.47003720752E+03  0.61743971582E+03  0.99663902127E+03  0.12699999809E+01 0. -1.
       -4    1    3    3    0  502  0.62539663150E+03 -0.47003720752E+03 -0.12430568533E+04  0.14687572558E+04  0.12699999809E+01 0.  1.
</event>
<event>
 5   0  0.7613444E-06  0.2899259E+04  0.7818609E-02  0.8273098E-01
       -1   -1    0    0    0  501  0.00000000000E+00  0.00000000000E+00  0.10123141184E+04  0.10123141184E+04  0.50400001928E-02 0.  1.
        1   -1    0    0  501    0  0.00000000000E+00  0.00000000000E+00 -0.20758634922E+04  0.20758634922E+04  0.50400001928E-02 0. -1.
    10030    2    1    2    0    0  0.00000000000E+00  0.00000000000E+00 -0.10635493738E+04  0.30881776106E+04  0.28992591612E+04 0.  0.
        5    1    3    3  502    0 -0.73954828107E+03 -0.12374573603E+04 -0.69391531870E+03  0.15999290416E+04  0.46999998093E+01 0. -1.
       -5    1    3    3    0  502  0.73954828107E+03  0.12374573603E+04 -0.36963405509E+03  0.14882485690E+04  0.46999998093E+01 0.  1.
</event>
<event>
 5   0  0.1832502E-05  0.2761992E+04  0.7818609E-02  0.8315166E-01
        2   -1    0    0  501    0  0.00000000000E+00  0.00000000000E+00  0.21249262223E+04  0.21249262223E+04  0.25500000920E-02 0. -1.
       -2   -1    0    0    0  501  0.00000000000E+00  0.00000000000E+00 -0.89751355365E+03  0.89751355365E+03  0.25500000920E-02 0.  1.
    10030    2    1    2    0    0  0.00000000000E+00  0.00000000000E+00  0.12274126687E+04  0.30224397760E+04  0.27619920963E+04 0.  0.
        2    1    3    3  502    0 -0.10492585340E+04 -0.53152851527E+03 -0.17819285512E+03  0.11896296597E+04  0.25500000920E-02 0.  1.
       -2    1    3    3    0  502  0.10492585340E+04  0.53152851527E+03  0.14056055238E+04  0.18328101163E+04  0.25500000920E-02 0. -1.
</event>
<event>
 5   0  0.1923559E-05  0.2814320E+04  0.7818609E-02  0.8298836E-01
        2   -1    0    0  501    0  0.00000000000E+00  0.00000000000E+00  0.17486874782E+04  0.17486874782E+04  0.25500000920E-02 0. -1.
       -2   -1    0    0    0  501  0.00000000000E+00  0.00000000000E+00 -0.11323346530E+04  0.11323346530E+04  0.25500000920E-02 0.  1.
    10030    2    1    2    0    0  0.00000000000E+00  0.00000000000E+00  0.61635282513E+03  0.28810221312E+04  0.28143201160E+04 0.  0.
        4    1    3    3  502    0 -0.13049867346E+04  0.52384196515E+03  0.36134024752E+03  0.14518846956E+04  0.12699999809E+01 0. -1.
       -4    1    3    3    0  502  0.13049867346E+04 -0.52384196515E+03  0.25501257762E+03  0.14291374355E+04  0.12699999809E+01 0.  1.
</event>
<event>
 5   0  0.1814230E-05  0.2686605E+04  0.7818609E-02  0.8339364E-01
        2   -1    0    0  501    0  0.00000000000E+00  0.00000000000E+00  0.17885901217E+04  0.17885901217E+04  0.25500000920E-02 0.  1.
       -2   -1    0    0    0  501  0.00000000000E+00  0.00000000000E+00 -0.10088735790E+04  0.10088735790E+04  0.25500000920E-02 0. -1.
    10030    2    1    2    0    0  0.00000000000E+00  0.00000000000E+00  0.77971654270E+03  0.27974637007E+04  0.26866047848E+04 0.  0.
        5    1    3    3  502    0 -0.33267115905E+03 -0.12083372601E+04 -0.11350430047E+03  0.12584332920E+04  0.46999998093E+01 0. -1.
       -5    1    3    3    0  502  0.33267115905E+03  0.12083372601E+04  0.89322084317E+03  0.15390304087E+04  0.46999998093E+01 0.  1.
</event>
<event>
 5   0  0.1814230E-05  0.2766048E+04  0.7818609E-02  0.8313887E-01
        2   -1    0    0  501    0  0.00000000000E+00  0.00000000000E+00  0.27967623478E+04  0.27967623478E+04  0.25500000920E-02 0. -1.
       -2   -1    0    0    0  501  0.00000000000E+00  0.00000000000E+00 -0.68391797771E+03  0.68391797772E+03  0.25500000920E-02 0.  1.
    10030    2    1    2    0    0  0.00000000000E+00  0.00000000000E+00  0.21128443701E+04  0.34806803255E+04  0.27660484805E+04 0.  0.
        5    1    3    3  502    0  0.13370038516E+04 -0.35372814906E+03  0.10494095821E+04  0.17360833689E+04  0.46999998093E+01 0.  1.
       -5    1    3    3    0  502 -0.13370038516E+04  0.35372814906E+03  0.10634347880E+04  0.17445969566E+04  0.46999998093E+01 0. -1.
</event>
<event>
 5   0  0.7509685E-06  0.1776119E+04  0.7818609E-02  0.8719103E-01
        1   -1    0    0  501    0  0.00000000000E+00  0.00000000000E+00  0.11999785881E+04  0.11999785881E+04  0.50400001928E-02 0. -1.
       -1   -1    0    0    0  501  0.00000000000E+00  0.00000000000E+00 -0.65721944764E+03  0.65721944766E+03  0.50400001928E-02 0.  1.
    10030    2    1    2    0    0  0.00000000000E+00  0.00000000000E+00  0.54275914047E+03  0.18571980358E+04  0.17761185376E+04 0.  0.
        4    1    3    3  502    0  0.10840712583E+03  0.85865559314E+03  0.47947733476E+03  0.98941480685E+03  0.12699999809E+01 0. -1.
       -4    1    3    3    0  502 -0.10840712583E+03 -0.85865559314E+03  0.63281805707E+02  0.86778322892E+03  0.12699999809E+01 0.  1.
</event>
<event>
 5   0  0.7388013E-06  0.2760410E+04  0.7818609E-02  0.8315666E-01
        1   -1    0    0  501    0  0.00000000000E+00  0.00000000000E+00  0.91978498688E+03  0.91978498689E+03  0.50400001928E-02 0.  1.
       -1   -1    0    0    0  501  0.00000000000E+00  0.00000000000E+00 -0.20710985296E+04  0.20710985296E+04  0.50400001928E-02 0. -1.
    10030    2    1    2    0    0  0.00000000000E+00  0.00000000000E+00 -0.11513135427E+04  0.29908835165E+04  0.27604096318E+04 0.  0.
        1    1    3    3  502    0  0.12566691507E+04  0.17742809097E+02 -0.11937541119E+04  0.17333727358E+04  0.50400001928E-02 0.  1.
       -1    1    3    3    0  502 -0.12566691507E+04 -0.17742809097E+02  0.42440569245E+02  0.12575107806E+04  0.50400001928E-02 0. -1.
</event>
<event>
 5   0  0.1874272E-05  0.2805202E+04  0.7818609E-02  0.8301655E-01
       -2   -1    0    0    0  501  0.00000000000E+00  0.00000000000E+00  0.12745580337E+04  0.12745580337E+04  0.25500000920E-02 0.  1.
        2   -1    0    0  501    0  0.00000000000E+00  0.00000000000E+00 -0.15435072769E+04  0.15435072769E+04  0.25500000920E-02 0. -1.
    10030    2    1    2    0    0  0.00000000000E+00  0.00000000000E+00 -0.26894924315E+03  0.28180653106E+04  0.28052020247E+04 0.  0.
        3    1    3    3  502    0 -0.10454089440E+04  0.50084580158E+03  0.65880656223E+03  0.13333238443E+04  0.10100000352E+00 0.  1.
       -3    1    3    3    0  502  0.10454089440E+04 -0.50084580158E+03 -0.92775580538E+03  0.14847414663E+04  0.10100000352E+00 0. -1.
</event>
<event>
 5   0  0.1904553E-05  0.2786389E+04  0.7818609E-02  0.8307507E-01
        2   -1    0    0  501    0  0.00000000000E+00  0.00000000000E+00  0.14476967130E+04  0.14476967130E+04  0.25500000920E-02 0.  1.
       -2   -1    0    0    0  501  0.00000000000E+00  0.00000000000E+00 -0.13407440934E+04  0.13407440934E+04  0.25500000920E-02 0. -1.
    10030    2    1    2    0    0  0.00000000000E+00  0.00000000000E+00  0.10695261956E+03  0.27884408064E+04  0.27863889297E+04 0.  0.
        1    1    3    3  502    0 -0.20785589653E+03 -0.24932948292E+03  0.14093251304E+04  0.14462249438E+04  0.50400001928E-02 0.  1.
       -1    1    3    3    0  502  0.20785589653E+03  0.24932948292E+03 -0.13023725108E+04  0.13422158626E+04  0.50400001928E-02 0. -1.
</event>
<event>
 5   0  0.1814230E-05  0.2463506E+04  0.7818609E-02  0.8416103E-01
        2   -1    0    0  501    0  0.00000000000E+00  0.00000000000E+00  0.19987675838E+04  0.19987675838E+04  0.25500000920E-02 0.  1.
       -2   -1    0    0    0  501  0.00000000000E+00  0.00000000000E+00 -0.75907554563E+03  0.75907554564E+03  0.25500000920E-02 0. -1.
    10030    2    1    2    0    0  0.00000000000E+00  0.00000000000E+00  0.12396920382E+04  0.27578431294E+04  0.24635061147E+04 0.  0.
        5    1    3    3  502    0 -0.56881440516E+01  0.66034066524E+03 -0.54414901907E+03  0.85568825755E+03  0.46999998093E+01 0. -1.
       -5    1    3    3    0  502  0.56881440516E+01 -0.66034066524E+03  0.17838410572E+04  0.19021548719E+04  0.46999998093E+01 0.  1.
</event>
<event>
 5   0  0.7555871E-06  0.2815318E+04  0.7818609E-02  0.8298528E-01
        1   -1    0    0  501    0  0.00000000000E+00  0.00000000000E+00  0.13796363675E+04  0.13796363675E+04  0.50400001928E-02 0.  1.
       -1   -1    0    0    0  501  0.00000000000E+00  0.00000000000E+00 -0.14362512724E+04  0.14362512725E+04  0.50400001928E-02 0. -1.
    10030    2    1    2    0    0  0.00000000000E+00  0.00000000000E+00 -0.56614904936E+02  0.28158876400E+04  0.28153184462E+04 0.  0.
        3    1    3    3  502    0 -0.68729834377E+02 -0.43898266204E+03  0.13076552651E+04  0.13810835855E+04  0.10100000352E+00 0.  1.
       -3    1    3    3    0  502  0.68729834377E+02  0.43898266204E+03 -0.13642701700E+04  0.14348040545E+04  0.10100000352E+00 0. -1.
</event>
<event>
 5   0  0.1832502E-05  0.2867503E+04  0.7818609E-02  0.8282612E-01
       -2   -1    0    0    0  501  0.00000000000E+00  0.00000000000E+00  0.10495214235E+04  0.10495214235E+04  0.25500000920E-02 0.  1.
        2   -1    0    0  501    0  0.00000000000E+00  0.00000000000E+00 -0.19586483024E+04  0.19586483024E+04  0.25500000920E-02 0. -1.
    10030    2    1    2    0    0  0.00000000000E+00  0.00000000000E+00 -0.90912687889E+03  0.30081697260E+04  0.28675029936E+04 0.  0.
        2    1    3    3  502    0  0.21665269086E+03 -0.42053822390E+03  0.96529064509E+03  0.10749775885E+04  0.25500000920E-02 0.  1.
       -2    1    3    3    0  502 -0.21665269086E+03  0.42053822390E+03 -0.18744175240E+04  0.19331921375E+04  0.25500000920E-02 0. -1.
</event>
<event>
 5   0  0.7388013E-06  0.2630592E+04  0.7818609E-02  0.8357883E-01
        1   -1    0    0  501    0  0.00000000000E+00  0.00000000000E+00  0.27857171590E+04  0.27857171591E+04  0.50400001928E-02 0.  1.
       -1   -1    0    0    0  501  0.00000000000E+00  0.00000000000E+00 -0.62102647500E+03  0.62102647502E+03  0.50400001928E-02 0. -1.
    10030    2    1    2    0    0  0.00000000000E+00  0.00000000000E+00  0.21646906840E+04  0.34067436341E+04  0.26305924106E+04 0.  0.
        1    1    3    3  502    0 -0.70641840871E+02 -0.12903602722E+04  0.76516639935E+03  0.15018320547E+04  0.50400001928E-02 0. -1.
       -1    1    3    3    0  502  0.70641840871E+02  0.12903602722E+04  0.13995242847E+04  0.19049115794E+04  0.50400001928E-02 0.  1.
</event>
<event>
 5   0  0.1874272E-05  0.2768742E+04  0.7818609E-02  0.8313039E-01
       -2   -1    0    0    0  501  0.00000000000E+00  0.00000000000E+00  0.19015683016E+04  0.19015683016E+04  0.25500000920E-02 0. -1.
        2   -1    0    0  501    0  0.00000000000E+00  0.00000000000E+00 -0.10078431520E+04  0.10078431520E+04  0.25500000920E-02 0.  1.
    10030    2    1    2    0    0  0.00000000000E+00  0.00000000000E+00  0.89372514967E+03  0.29094114536E+04  0.27687416570E+04 0.  0.
        3    1    3    3  502    0  0.13747791836E+04 -0.14041762317E+03  0.36054493291E+03  0.14281903134E+04  0.10100000352E+00 0. -1.
       -3    1    3    3    0  502 -0.13747791836E+04  0.14041762317E+03  0.53318021677E+03  0.14812211402E+04  0.10100000352E+00 0.  1.
</event>
<event>
 5   0  0.1832502E-05  0.2779185E+04  0.7818609E-02  0.8309760E-01
       -2   -1    0    0    0  501  0.00000000000E+00  0.00000000000E+00  0.11078664652E+04  0.11078664652E+04  0.25500000920E-02 0. -1.
        2   -1    0    0  501    0  0.00000000000E+00  0.00000000000E+00 -0.17429599530E+04  0.17429599530E+04  0.25500000920E-02 0.  1.
    10030    2    1    2    0    0  0.00000000000E+00  0.00000000000E+00 -0.63509348780E+03  0.28508264182E+04  0.27791846878E+04 0.  0.
        2    1    3    3  502    0 -0.40809795317E+03 -0.93287909730E+03 -0.12875224829E+04  0.16414997696E+04  0.25500000920E-02 0.  1.
       -2    1    3    3    0  502  0.40809795317E+03  0.93287909730E+03  0.65242899507E+03  0.12093266487E+04  0.25500000920E-02 0. -1.
</event>
<event>
 5   0  0.7388013E-06  0.2728486E+04  0.7818609E-02  0.8325821E-01
        1   -1    0    0  501    0  0.00000000000E+00  0.00000000000E+00  0.21425029929E+04  0.21425029929E+04  0.50400001928E-02 0. -1.
       -1   -1    0    0    0  501  0.00000000000E+00  0.00000000000E+00 -0.86868443850E+03  0.86868443851E+03  0.50400001928E-02 0.  1.
    10030    2    1    2    0    0  0.00000000000E+00  0.00000000000E+00  0.12738185544E+04  0.30111874314E+04  0.27284860340E+04 0.  0.
        1    1    3    3  502    0  0.88494981683E+03  0.90559860466E+03  0.11973807480E+04  0.17426892054E+04  0.50400001928E-02 0. -1.
       -1    1    3    3    0  502 -0.88494981683E+03 -0.90559860466E+03  0.76437806437E+02  0.12684982260E+04  0.50400001928E-02 0.  1.
</event>
<event>
 5   0  0.1814230E-05  0.2792447E+04  0.7818609E-02  0.8305617E-01
       -2   -1    0    0    0  501  0.00000000000E+00  0.00000000000E+00  0.81277383586E+03  0.81277383587E+03  0.25500000920E-02 0. -1.
        2   -1    0    0  501    0  0.00000000000E+00  0.00000000000E+00 -0.23985020963E+04  0.23985020963E+04  0.25500000920E-02 0.  1.
    10030    2    1    2    0    0  0.00000000000E+00  0.00000000000E+00 -0.15857282604E+04  0.32112759322E+04  0.27924467760E+04 0.  0.
        5    1    3    3  502    0  0.13911760732E+04 -0.23607845484E+02 -0.92642832013E+03  0.16715919716E+04  0.46999998093E+01 0. -1.
       -5    1    3    3    0  502 -0.13911760732E+04  0.23607845484E+02 -0.65929994029E+03  0.15396839606E+04  0.46999998093E+01 0.  1.
</event>
<event>
 5   0  0.1832502E-05  0.2821127E+04  0.7818609E-02  0.8296739E-01
       -2   -1    0    0    0  501  0.00000000000E+00  0.00000000000E+00  0.86539984500E+03  0.86539984501E+03  0.25500000920E-02 0.  1.
        2   -1    0    0  501    0  0.00000000000E+00  0.00000000000E+00 -0.22991563430E+04  0.22991563430E+04  0.25500000920E-02 0. -1.
    10030    2    1    2    0    0  0.00000000000E+00  0.00000000000E+00 -0.14337564980E+04  0.31645561880E+04  0.28211271101E+04 0.  0.
        2    1    3    3  502    0  0.21509852257E+03 -0.16470936917E+01 -0.22806502389E+04  0.22907718349E+04  0.25500000920E-02 0. -1.
       -2    1    3    3    0  502 -0.21509852257E+03  0.16470936917E+01  0.84689374091E+03  0.87378435311E+03  0.25500000920E-02 0.  1.
</event>
<event>
 5   0  0.1814230E-05  0.2782135E+04  0.7818609E-02  0.8308836E-01
        2   -1    0    0  501    0  0.00000000000E+00  0.00000000000E+00  0.16421382197E+04  0.16421382197E+04  0.25500000920E-02 0.  1.
       -2   -1    0    0    0  501  0.00000000000E+00  0.00000000000E+00 -0.11783840204E+04  0.11783840204E+04  0.25500000920E-02 0. -1.
    10030    2    1    2    0    0  0.00000000000E+00  0.00000000000E+00  0.46375419931E+03  0.28205222402E+04  0.27821354658E+04 0.  0.
        5    1    3    3  502    0  0.66688779203E+03 -0.51908975874E+03  0.13520449225E+04  0.15944406753E+04  0.46999998093E+01 0.  1.
       -5    1    3    3    0  502 -0.66688779203E+03  0.51908975874E+03 -0.88829072315E+03  0.12260815648E+04  0.46999998093E+01 0. -1.
</event>
<event>
 5   0  0.7388013E-06  0.2862429E+04  0.7818609E-02  0.8284145E-01
       -1   -1    0    0    0  501  0.00000000000E+00  0.00000000000E+00  0.21775811536E+04  0.21775811536E+04  0.50400001928E-02 0.  1.
        1   -1    0    0  501    0  0.00000000000E+00  0.00000000000E+00 -0.94066511182E+03  0.94066511184E+03  0.50400001928E-02 0. -1.
    10030    2    1    2    0    0  0.00000000000E+00  0.00000000000E+00  0.12369160418E+04  0.31182462655E+04  0.28624287725E+04 0.  0.
        1    1    3    3  502    0 -0.56467358427E+03 -0.59021683785E+03  0.18987178035E+04  0.20669643127E+04  0.50400001928E-02 0.  1.
       -1    1    3    3    0  502  0.56467358427E+03  0.59021683785E+03 -0.66180176171E+03  0.10512819528E+04  0.50400001928E-02 0. -1.
</event>
<event>
 5   0  0.1923559E-05  0.2848560E+04  0.7818609E-02  0.8288349E-01
        2   -1    0    0  501    0  0.00000000000E+00  0.00000000000E+00  0.30250830574E+04  0.30250830574E+04  0.25500000920E-02 0. -1.
       -2   -1    0    0    0  501  0.00000000000E+00  0.00000000000E+00 -0.67058453453E+03  0.67058453454E+03  0.25500000920E-02 0.  1.
    10030    2    1    2    0    0  0.00000000000E+00  0.00000000000E+00  0.23544985228E+04  0.36956675919E+04  0.28485602777E+04 0.  0.
        4    1    3    3  502    0  0.91881666909E+03  0.93642893494E+03  0.18966221830E+04  0.23061440847E+04  0.12699999809E+01 0. -1.
       -4    1    3    3    0  502 -0.91881666909E+03 -0.93642893494E+03  0.45787633988E+03  0.13895235072E+04  0.12699999809E+01 0.  1.
</event>
<event>
 5   0  0.1874272E-05  0.2790395E+04  0.7818609E-02  0.8306256E-01
       -2   -1    0    0    0  501  0.00000000000E+00  0.00000000000E+00  0.12103997548E+04  0.12103997548E+04  0.25500000920E-02 0. -1.
        2   -1    0    0  501    0  0.00000000000E+00  0.00000000000E+00 -0.16082097908E+04  0.16082097908E+04  0.25500000920E-02 0.  1.
    10030    2    1    2    0    0  0.00000000000E+00  0.00000000000E+00 -0.39781003599E+03  0.28186095455E+04  0.27903954819E+04 0.  0.
        3    1    3    3  502    0  0.89329813179E+03  0.42480353187E+03  0.79498332583E+03  0.12690303745E+04  0.10100000352E+00 0. -1.
       -3    1    3    3    0  502 -0.89329813179E+03 -0.42480353187E+03 -0.11927933618E+04  0.15495791710E+04  0.10100000352E+00 0.  1.
</event>
<event>
 5   0  0.1814230E-05  0.2796163E+04  0.7818609E-02  0.8304461E-01
       -2   -1    0    0    0  501  0.00000000000E+00  0.00000000000E+00  0.13598250883E+04  0.13598250883E+04  0.25500000920E-02 0.  1.
        2   -1    0    0  501    0  0.00000000000E+00  0.00000000000E+00 -0.14374138239E+04  0.14374138239E+04  0.25500000920E-02 0. -1.
    10030    2    1    2    0    0  0.00000000000E+00  0.00000000000E+00 -0.77588735648E+02  0.27972389122E+04  0.27961626419E+04 0.  0.
        5    1    3    3  502    0 -0.10220467046E+03  0.13040277211E+04 -0.53261905338E+03  0.14123169750E+04  0.46999998093E+01 0. -1.
       -5    1    3    3    0  502  0.10220467046E+03 -0.13040277211E+04  0.45503031774E+03  0.13849219372E+04  0.46999998093E+01 0.  1.
</event>
<event>
 5   0  0.1874272E-05  0.2811044E+04  0.7818609E-02  0.8299848E-01
       -2   -1    0    0    0  501  0.00000000000E+00  0.00000000000E+00  0.12543695149E+04  0.12543695149E+04  0.25500000920E-02 0.  1.
        2   -1    0    0  501    0  0.00000000000E+00  0.00000000000E+00 -0.15748885635E+04  0.15748885635E+04  0.25500000920E-02 0. -1.
    10030    2    1    2    0    0  0.00000000000E+00  0.00000000000E+00 -0.32051904859E+03  0.28292580784E+04  0.28110440789E+04 0.  0.
        3    1    3    3  502    0  0.25138048788E+03 -0.31125708767E+03 -0.15163646435E+04  0.15682585458E+04  0.10100000352E+00 0. -1.
       -3    1    3    3    0  502 -0.25138048788E+03  0.31125708767E+03  0.11958455949E+04  0.12609995326E+04  0.10100000352E+00 0.  1.
</event>
<event>
 5   0  0.7555871E-06  0.2791100E+04  0.7818609E-02  0.8306037E-01
        1   -1    0    0  501    0  0.00000000000E+00  0.00000000000E+00  0.22717873823E+04  0.22717873823E+04  0.50400001928E-02 0. -1.
       -1   -1    0    0    0  501  0.00000000000E+00  0.00000000000E+00 -0.85728102184E+03  0.85728102186E+03  0.50400001928E-02 0.  1.
    10030    2    1    2    0    0  0.00000000000E+00  0.00000000000E+00  0.14145063604E+04  0.31290684041E+04  0.27911002909E+04 0.  0.
        3    1    3    3  502    0 -0.26280410278E+03 -0.12315239660E+04  0.13816253770E+04  0.18693865218E+04  0.10100000352E+00 0. -1.
       -3    1    3    3    0  502  0.26280410278E+03  0.12315239660E+04  0.32880983441E+02  0.12596818823E+04  0.10100000352E+00 0.  1.
</event>
<event>
 5   0  0.7555871E-06  0.2818194E+04  0.7818609E-02  0.8297642E-01
       -1   -1    0    0    0  501  0.00000000000E+00  0.00000000000E+00  0.13592457737E+04  0.13592457737E+04  0.50400001928E-02 0.  1.
        1   -1    0    0  501    0  0.00000000000E+00  0.00000000000E+00 -0.14607762481E+04  0.14607762481E+04  0.50400001928E-02 0. -1.
    10030    2    1    2    0    0  0.00000000000E+00  0.00000000000E+00 -0.10153047437E+03  0.28200220219E+04  0.28181937064E+04 0.  0.
        3    1    3    3  502    0 -0.82194273578E+03  0.11895863292E+03 -0.11898415244E+04  0.14510216679E+04  0.10100000352E+00 0. -1.
       -3    1    3    3    0  502  0.82194273578E+03 -0.11895863292E+03  0.10883110501E+04  0.13690003540E+04  0.10100000352E+00 0.  1.
</event>
<event>
 5   0  0.1923559E-05  0.2723523E+04  0.7818609E-02  0.8327413E-01
       -2   -1    0    0    0  501  0.00000000000E+00  0.00000000000E+00  0.93076991188E+03  0.93076991188E+03  0.25500000920E-02 0.  1.
        2   -1    0    0  501    0  0.00000000000E+00  0.00000000000E+00 -0.19923231116E+04  0.19923231116E+04  0.25500000920E-02 0. -1.
    10030    2    1    2    0    0  0.00000000000E+00  0.00000000000E+00 -0.10615531997E+04  0.29230930235E+04  0.27235230177E+04 0.  0.
        4    1    3    3  502    0  0.10714427822E+04 -0.58425181255E+03 -0.11792460699E+04  0.16970452918E+04  0.12699999809E+01 0. -1.
       -4    1    3    3    0  502 -0.10714427822E+04  0.58425181255E+03  0.11769287019E+03  0.12260477317E+04  0.12699999809E+01 0.  1.
</event>
<event>
 5   0  0.7613444E-06  0.2953939E+04  0.7818609E-02  0.8257008E-01
       -1   -1    0    0    0  501  0.00000000000E+00  0.00000000000E+00  0.12898386802E+04  0.12898386802E+04  0.50400001928E-02 0.  1.
        1   -1    0    0  501    0  0.00000000000E+00  0.00000000000E+00 -0.16912491895E+04  0.16912491895E+04  0.50400001928E-02 0. -1.
    10030    2    1    2    0    0  0.00000000000E+00  0.00000000000E+00 -0.40141050927E+03  0.29810878697E+04  0.29539388095E+04 0.  0.
        5    1    3    3  502    0  0.13012414778E+04 -0.58531656116E+03  0.18436639876E+03  0.14386931290E+04  0.46999998093E+01 0.  1.
       -5    1    3    3    0  502 -0.13012414778E+04  0.58531656116E+03 -0.58577690803E+03  0.15423947408E+04  0.46999998093E+01 0. -1.
</event>
<event>
 5   0  0.7613444E-06  0.2740929E+04  0.7818609E-02  0.8321846E-01
       -1   -1    0    0    0  501  0.00000000000E+00  0.00000000000E+00  0.18613089498E+04  0.18613089498E+04  0.50400001928E-02 0. -1.
        1   -1    0    0  501    0  0.00000000000E+00  0.00000000000E+00 -0.10090601792E+04  0.10090601792E+04  0.50400001928E-02 0.  1.
    10030    2    1    2    0    0  0.00000000000E+00  0.00000000000E+00  0.85224877060E+03  0.28703691290E+04  0.27409288516E+04 0.  0.
        5    1    3    3  502    0 -0.84186356188E+03 -0.13949954260E+03 -0.69687792964E+03  0.11017510236E+04  0.46999998093E+01 0.  1.
       -5    1    3    3    0  502  0.84186356188E+03  0.13949954260E+03  0.15491267002E+04  0.17686181054E+04  0.46999998093E+01 0. -1.
</event>
<event>
 5   0  0.7555871E-06  0.2727249E+04  0.7818609E-02  0.8326217E-01
        1   -1    0    0  501    0  0.00000000000E+00  0.00000000000E+00  0.13277530004E+04  0.13277530005E+04  0.50400001928E-02 0.  1.
       -1   -1    0    0    0  501  0.00000000000E+00  0.00000000000E+00 -0.14004649297E+04  0.14004649297E+04  0.50400001928E-02 0. -1.
    10030    2    1    2    0    0  0.00000000000E+00  0.00000000000E+00 -0.72711929240E+02  0.27282179302E+04  0.27272488060E+04 0.  0.
        3    1    3    3  502    0  0.80018563230E+03  0.10906064557E+04 -0.20890498157E+03  0.13687077076E+04  0.10100000352E+00 0.  1.
       -3    1    3    3    0  502 -0.80018563230E+03 -0.10906064557E+04  0.13619305233E+03  0.13595102225E+04  0.10100000352E+00 0. -1.
</event>
<event>
 5   0  0.1904553E-05  0.2745429E+04  0.7818609E-02  0.8320413E-01
        2   -1    0    0  501    0  0.00000000000E+00  0.00000000000E+00  0.22997933710E+04  0.22997933710E+04  0.25500000920E-02 0. -1.
       -2   -1    0    0    0  501  0.00000000000E+00  0.00000000000E+00 -0.81935426413E+03  0.81935426413E+03  0.25500000920E-02 0.  1.
    10030    2    1    2    0    0  0.00000000000E+00  0.00000000000E+00  0.14804391069E+04  0.31191476352E+04  0.27454292962E+04 0.  0.
        1    1    3    3  502    0 -0.71572818225E+03 -0.11244685941E+04  0.36745828671E+03  0.13826503688E+04  0.50400001928E-02 0.  1.
       -1    1    3    3    0  502  0.71572818225E+03  0.11244685941E+04  0.11129808202E+04  0.17364972664E+04  0.50400001928E-02 0. -1.
</event>
<event>
 5   0  0.7681342E-06  0.2768185E+04  0.7818609E-02  0.8313214E-01
        1   -1    0    0  501    0  0.00000000000E+00  0.00000000000E+00  0.15723269446E+04  0.15723269446E+04  0.50400001928E-02 0.  1.
       -1   -1    0    0    0  501  0.00000000000E+00  0.00000000000E+00 -0.12183931987E+04  0.12183931988E+04  0.50400001928E-02 0. -1.
    10030    2    1    2    0    0  0.00000000000E+00  0.00000000000E+00  0.35393374589E+03  0.27907201434E+04  0.27681852941E+04 0.  0.
        2    1    3    3  502    0 -0.40710716188E+03 -0.12939629679E+04  0.45422581122E+03  0.14305235025E+04  0.25500000920E-02 0.  1.
       -2    1    3    3    0  502  0.40710716188E+03  0.12939629679E+04 -0.10029206534E+03  0.13601966409E+04  0.25500000920E-02 0. -1.
</event>
<event>
 5   0  0.7555871E-06  0.2841591E+04  0.7818609E-02  0.8290471E-01
       -1   -1    0    0    0  501  0.00000000000E+00  0.00000000000E+00  0.86558292007E+03  0.86558292008E+03  0.50400001928E-02 0.  1.
        1   -1    0    0  501    0  0.00000000000E+00  0.00000000000E+00 -0.23321386233E+04  0.23321386233E+04  0.50400001928E-02 0. -1.
    10030    2    1    2    0    0  0.00000000000E+00  0.00000000000E+00 -0.14665557032E+04  0.31977215434E+04  0.28415906528E+04 0.  0.
        3    1    3    3  502    0  0.10019979479E+04  0.52086042183E+03  0.23696366823E+03  0.11538835543E+04  0.10100000352E+00 0.  1.
       -3    1    3    3    0  502 -0.10019979479E+04 -0.52086042183E+03 -0.17035193715E+04  0.20438379891E+04  0.10100000352E+00 0. -1.
</event>
<event>
 5   0  0.7681342E-06  0.2846320E+04  0.7818609E-02  0.8289030E-01
        1   -1    0    0  501    0  0.00000000000E+00  0.00000000000E+00  0.18660486014E+04  0.18660486014E+04  0.50400001928E-02 0.  1.
       -1   -1    0    0    0  501  0.00000000000E+00  0.00000000000E+00 -0.10853869649E+04  0.10853869649E+04  0.50400001928E-02 0. -1.
    10030    2    1    2    0    0  0.00000000000E+00  0.00000000000E+00  0.78066163649E+03  0.29514355664E+04  0.28463203108E+04 0.  0.
        2    1    3    3  502    0 -0.52808681141E+03 -0.41249240605E+03  0.16922293053E+04  0.18200729895E+04  0.25500000920E-02 0.  1.
       -2    1    3    3    0  502  0.52808681141E+03  0.41249240605E+03 -0.91156766882E+03  0.11313625768E+04  0.25500000920E-02 0. -1.
</event>
<event>
 5   0  0.7555871E-06  0.2760489E+04  0.7818609E-02  0.8315641E-01
        1   -1    0    0  501    0  0.00000000000E+00  0.00000000000E+00  0.14032728236E+04  0.14032728236E+04  0.50400001928E-02 0. -1.
       -1   -1    0    0    0  501  0.00000000000E+00  0.00000000000E+00 -0.13575936511E+04  0.13575936511E+04  0.50400001928E-02 0.  1.
    10030    2    1    2    0    0  0.00000000000E+00  0.00000000000E+00  0.45679172507E+02  0.27608664748E+04  0.27604885627E+04 0.  0.
        3    1    3    3  502    0 -0.10844463043E+04 -0.36977278507E+03  0.79256730110E+03  0.13931685599E+04  0.10100000352E+00 0. -1.
       -3    1    3    3    0  502  0.10844463043E+04  0.36977278507E+03 -0.74688812859E+03  0.13676979148E+04  0.10100000352E+00 0.  1.
</event>
<event>
 5   0  0.1814230E-05  0.2788052E+04  0.7818609E-02  0.8306987E-01
        2   -1    0    0  501    0  0.00000000000E+00  0.00000000000E+00  0.18788802699E+04  0.18788802699E+04  0.25500000920E-02 0. -1.
       -2   -1    0    0    0  501  0.00000000000E+00  0.00000000000E+00 -0.10342907400E+04  0.10342907400E+04  0.25500000920E-02 0.  1.
    10030    2    1    2    0    0  0.00000000000E+00  0.00000000000E+00  0.84458952995E+03  0.29131710099E+04  0.27880519828E+04 0.  0.
        5    1    3    3  502    0 -0.41292275234E+02 -0.11715898537E+04 -0.36584895945E+03  0.12280860672E+04  0.46999998093E+01 0.  1.
       -5    1    3    3    0  502  0.41292275234E+02  0.11715898537E+04  0.12104384894E+04  0.16850849427E+04  0.46999998093E+01 0. -1.
</event>
<event>
 5   0  0.1904553E-05  0.2808424E+04  0.7818609E-02  0.8300658E-01
       -2   -1    0    0    0  501  0.00000000000E+00  0.00000000000E+00  0.16027365876E+04  0.16027365876E+04  0.25500000920E-02 0. -1.
        2   -1    0    0  501    0  0.00000000000E+00  0.00000000000E+00 -0.12302775075E+04  0.12302775075E+04  0.25500000920E-02 0.  1.
    10030    2    1    2    0    0  0.00000000000E+00  0.00000000000E+00  0.37245908011E+03  0.28330140952E+04  0.28084235965E+04 0.  0.
        1    1    3    3  502    0 -0.64289528027E+03 -0.45708358360E+03 -0.98565276212E+03  0.12624385574E+04  0.50400001928E-02 0.  1.
       -1    1    3    3    0  502  0.64289528027E+03  0.45708358360E+03  0.13581118422E+04  0.15705755378E+04  0.50400001928E-02 0. -1.
</event>
<event>
 5   0  0.7388013E-06  0.2474219E+04  0.7818609E-02  0.8412228E-01
       -1   -1    0    0    0  501  0.00000000000E+00  0.00000000000E+00  0.14000972407E+04  0.14000972407E+04  0.50400001928E-02 0. -1.
        1   -1    0    0  501    0  0.00000000000E+00  0.00000000000E+00 -0.10930955573E+04  0.10930955573E+04  0.50400001928E-02 0.  1.
    10030    2    1    2    0    0  0.00000000000E+00  0.00000000000E+00  0.30700168339E+03  0.24931927980E+04  0.24742191283E+04 0.  0.
        1    1    3    3  502    0 -0.41602565615E+03  0.91451779320E+03 -0.57385155283E+03  0.11570331652E+04  0.50400001928E-02 0.  1.
       -1    1    3    3    0  502  0.41602565615E+03 -0.91451779320E+03  0.88085323622E+03  0.13361596328E+04  0.50400001928E-02 0. -1.
</event>
<event>
 5   0  0.1832502E-05  0.2673778E+04  0.7818609E-02  0.8343564E-01
        2   -1    0    0  501    0  0.00000000000E+00  0.00000000000E+00  0.11030798345E+04  0.11030798345E+04  0.25500000920E-02 0. -1.
       -2   -1    0    0    0  501  0.00000000000E+00  0.00000000000E+00 -0.16202564219E+04  0.16202564219E+04  0.25500000920E-02 0.  1.
    10030    2    1    2    0    0  0.00000000000E+00  0.00000000000E+00 -0.51717658734E+03  0.27233362564E+04  0.26737779906E+04 0.  0.
        2    1    3    3  502    0 -0.45594342534E+03  0.55678519814E+03  0.88896116178E+03  0.11437421524E+04  0.25500000920E-02 0. -1.
       -2    1    3    3    0  502  0.45594342534E+03 -0.55678519814E+03 -0.14061377491E+04  0.15795941040E+04  0.25500000920E-02 0.  1.
</event>
<event>
 5   0  0.1814230E-05  0.2769226E+04  0.7818609E-02  0.8312887E-01
       -2   -1    0    0    0  501  0.00000000000E+00  0.00000000000E+00  0.11854528509E+04  0.11854528509E+04  0.25500000920E-02 0.  1.
        2   -1    0    0  501    0  0.00000000000E+00  0.00000000000E+00 -0.16172328678E+04  0.16172328678E+04  0.25500000920E-02 0. -1.
    10030    2    1    2    0    0  0.00000000000E+00  0.00000000000E+00 -0.43178001688E+03  0.28026857188E+04  0.27692261112E+04 0.  0.
        5    1    3    3  502    0 -0.12190473546E+04 -0.43718251022E+03 -0.71163101228E+03  0.14777164098E+04  0.46999998093E+01 0. -1.
       -5    1    3    3    0  502  0.12190473546E+04  0.43718251022E+03  0.27985099541E+03  0.13249693090E+04  0.46999998093E+01 0.  1.
</event>
<event>
 5   0  0.7681342E-06  0.2565516E+04  0.7818609E-02  0.8380010E-01
       -1   -1    0    0    0  501  0.00000000000E+00  0.00000000000E+00  0.98186985419E+03  0.98186985420E+03  0.50400001928E-02 0. -1.
        1   -1    0    0  501    0  0.00000000000E+00  0.00000000000E+00 -0.16758510285E+04  0.16758510285E+04  0.50400001928E-02 0.  1.
    10030    2    1    2    0    0  0.00000000000E+00  0.00000000000E+00 -0.69398117433E+03  0.26577208827E+04  0.25655156246E+04 0.  0.
        2    1    3    3  502    0 -0.21974441495E+03 -0.90920519667E+03 -0.12563348428E+04  0.15663074203E+04  0.25500000920E-02 0.  1.
       -2    1    3    3    0  502  0.21974441495E+03  0.90920519667E+03  0.56235366848E+03  0.10914134624E+04  0.25500000920E-02 0. -1.
</event>
<event>
 5   0  0.1832502E-05  0.2711841E+04  0.7818609E-02  0.8331173E-01
       -2   -1    0    0    0  501  0.00000000000E+00  0.00000000000E+00  0.11086670078E+04  0.11086670078E+04  0.25500000920E-02 0.  1.
        2   -1    0    0  501    0  0.00000000000E+00  0.00000000000E+00 -0.16583158536E+04  0.16583158536E+04  0.25500000920E-02 0. -1.
    10030    2    1    2    0    0  0.00000000000E+00  0.00000000000E+00 -0.54964884577E+03  0.27669828614E+04  0.27118407589E+04 0.  0.
        2    1    3    3  502    0  0.77997391986E+03  0.76609664289E+03 -0.10931656713E+04  0.15460512821E+04  0.25500000920E-02 0. -1.
       -2    1    3    3    0  502 -0.77997391986E+03 -0.76609664289E+03  0.54351682549E+03  0.12209315794E+04  0.25500000920E-02 0.  1.
</event>
<event>
 5   0  0.1874272E-05  0.2790548E+04  0.7818609E-02  0.8306209E-01
        2   -1    0    0  501    0  0.00000000000E+00  0.00000000000E+00  0.65915722844E+03  0.65915722844E+03  0.25500000920E-02 0. -1.
       -2   -1    0    0    0  501  0.00000000000E+00  0.00000000000E+00 -0.29534523922E+04  0.29534523922E+04  0.25500000920E-02 0.  1.
    10030    2    1    2    0    0  0.00000000000E+00  0.00000000000E+00 -0.22942951638E+04  0.36126096206E+04  0.27905479700E+04 0.  0.
        3    1    3    3  502    0 -0.40708093936E+03  0.40638993941E+03  0.49851847969E+03  0.76117564257E+03  0.10100000352E+00 0. -1.
       -3    1    3    3    0  502  0.40708093936E+03 -0.40638993941E+03 -0.27928136434E+04  0.28514339781E+04  0.10100000352E+00 0.  1.
</event>
<event>
 5   0  0.6288000E-06  0.2795766E+04  0.7818609E-02  0.8304584E-01
        3   -1    0    0  501    0  0.00000000000E+00  0.00000000000E+00  0.11320717110E+04  0.11320717155E+04  0.10100000352E+00 0. -1.
       -3   -1    0    0    0  501  0.00000000000E+00  0.00000000000E+00 -0.17261072939E+04  0.17261072969E+04  0.10100000352E+00 0.  1.
    10030    2    1    2    0    0  0.00000000000E+00  0.00000000000E+00 -0.59403558290E+03  0.28581790124E+04  0.27957662623E+04 0.  0.
        5    1    3    3  502    0 -0.74366603040E+03  0.47272626568E+03 -0.14063905140E+04  0.16596582946E+04  0.46999998093E+01 0.  1.
       -5    1    3    3    0  502  0.74366603040E+03 -0.47272626568E+03  0.81235493106E+03  0.11985207178E+04  0.46999998093E+01 0. -1.
</event>
<event>
 5   0  0.7613444E-06  0.2791659E+04  0.7818609E-02  0.8305863E-01
       -1   -1    0    0    0  501  0.00000000000E+00  0.00000000000E+00  0.10389218236E+04  0.10389218236E+04  0.50400001928E-02 0.  1.
        1   -1    0    0  501    0  0.00000000000E+00  0.00000000000E+00 -0.18753483308E+04  0.18753483308E+04  0.50400001928E-02 0. -1.
    10030    2    1    2    0    0  0.00000000000E+00  0.00000000000E+00 -0.83642650722E+03  0.29142701544E+04  0.27916592254E+04 0.  0.
        5    1    3    3  502    0 -0.79636883071E+03  0.76429567904E+03 -0.13101191278E+04  0.17131215423E+04  0.46999998093E+01 0.  1.
       -5    1    3    3    0  502  0.79636883071E+03 -0.76429567904E+03  0.47369262059E+03  0.12011486121E+04  0.46999998093E+01 0. -1.
</event>
<event>
 5   0  0.1904553E-05  0.2123411E+04  0.7818609E-02  0.8551000E-01
       -2   -1    0    0    0  501  0.00000000000E+00  0.00000000000E+00  0.65143230804E+03  0.65143230804E+03  0.25500000920E-02 0.  1.
        2   -1    0    0  501    0  0.00000000000E+00  0.00000000000E+00 -0.17303695780E+04  0.17303695780E+04  0.25500000920E-02 0. -1.
    10030    2    1    2    0    0  0.00000000000E+00  0.00000000000E+00 -0.10789372699E+04  0.23818018860E+04  0.21234110746E+04 0.  0.
        1    1    3    3  502    0 -0.99997415721E+03  0.27260048546E+03 -0.79760114728E+03  0.13078329136E+04  0.50400001928E-02 0. -1.
       -1    1    3    3    0  502  0.99997415721E+03 -0.27260048546E+03 -0.28133612266E+03  0.10739689724E+04  0.50400001928E-02 0.  1.
</event>
<event>
 5   0  0.7509685E-06  0.2819562E+04  0.7818609E-02  0.8297221E-01
       -1   -1    0    0    0  501  0.00000000000E+00  0.00000000000E+00  0.75906469290E+03  0.75906469291E+03  0.50400001928E-02 0. -1.
        1   -1    0    0  501    0  0.00000000000E+00  0.00000000000E+00 -0.26183307920E+04  0.26183307920E+04  0.50400001928E-02 0.  1.
    10030    2    1    2    0    0  0.00000000000E+00  0.00000000000E+00 -0.18592660991E+04  0.33773954849E+04  0.28195619933E+04 0.  0.
        4    1    3    3  502    0 -0.99583118864E+03  0.91264723758E+02  0.26068393443E+03  0.10334247591E+04  0.12699999809E+01 0. -1.
       -4    1    3    3    0  502  0.99583118864E+03 -0.91264723758E+02 -0.21199500335E+04  0.23439707258E+04  0.12699999809E+01 0.  1.
</event>
<event>
 5   0  0.7681342E-06  0.2678975E+04  0.7818609E-02  0.8341859E-01
        1   -1    0    0  501    0  0.00000000000E+00  0.00000000000E+00  0.11495883397E+04  0.11495883397E+04  0.50400001928E-02 0.  1.
       -1   -1    0    0    0  501  0.00000000000E+00  0.00000000000E+00 -0.15607555081E+04  0.15607555081E+04  0.50400001928E-02 0. -1.
    10030    2    1    2    0    0  0.00000000000E+00  0.00000000000E+00 -0.41116716835E+03  0.27103438478E+04  0.26789746795E+04 0.  0.
        2    1    3    3  502    0 -0.75945142997E+03 -0.36590349788E+03  0.84755413604E+03  0.11954078207E+04  0.25500000920E-02 0.  1.
       -2    1    3    3    0  502  0.75945142997E+03  0.36590349788E+03 -0.12587213044E+04  0.15149360272E+04  0.25500000920E-02 0. -1.
</event>
<event>
 5   0  0.1923559E-05  0.2674168E+04  0.7818609E-02  0.8343436E-01
        2   -1    0    0  501    0  0.00000000000E+00  0.00000000000E+00  0.12049357119E+04  0.12049357119E+04  0.25500000920E-02 0. -1.
       -2   -1    0    0    0  501  0.00000000000E+00  0.00000000000E+00 -0.14837249134E+04  0.14837249134E+04  0.25500000920E-02 0.  1.
    10030    2    1    2    0    0  0.00000000000E+00  0.00000000000E+00 -0.27878920147E+03  0.26886606253E+04  0.26741676348E+04 0.  0.
        4    1    3    3  502    0  0.37624022774E+03  0.56956479990E+03  0.10165453785E+04  0.12244700444E+04  0.12699999809E+01 0. -1.
       -4    1    3    3    0  502 -0.37624022774E+03 -0.56956479990E+03 -0.12953345799E+04  0.14641905809E+04  0.12699999809E+01 0.  1.
</event>
<event>
 5   0  0.1832502E-05  0.2784832E+04  0.7818609E-02  0.8307993E-01
       -2   -1    0    0    0  501  0.00000000000E+00  0.00000000000E+00  0.14700210164E+04  0.14700210164E+04  0.25500000920E-02 0.  1.
        2   -1    0    0  501    0  0.00000000000E+00  0.00000000000E+00 -0.13189074418E+04  0.13189074418E+04  0.25500000920E-02 0. -1.
    10030    2    1    2    0    0  0.00000000000E+00  0.00000000000E+00  0.15111357457E+03  0.27889284582E+04  0.27848315268E+04 0.  0.
        2    1    3    3  502    0 -0.77351371867E+03 -0.34301673033E+03  0.11830035504E+04  0.14544694395E+04  0.25500000920E-02 0.  1.
       -2    1    3    3    0  502  0.77351371867E+03  0.34301673033E+03 -0.10318899758E+04  0.13344590187E+04  0.25500000920E-02 0. -1.
</event>
<event>
 5   0  0.1874272E-05  0.2805854E+04  0.7818609E-02  0.8301453E-01
       -2   -1    0    0    0  501  0.00000000000E+00  0.00000000000E+00  0.83218574244E+03  0.83218574244E+03  0.25500000920E-02 0.  1.
        2   -1    0    0  501    0  0.00000000000E+00  0.00000000000E+00 -0.23651024803E+04  0.23651024803E+04  0.25500000920E-02 0. -1.
    10030    2    1    2    0    0  0.00000000000E+00  0.00000000000E+00 -0.15329167378E+04  0.31972882227E+04  0.28058542824E+04 0.  0.
        3    1    3    3  502    0 -0.12331378834E+01 -0.51329121027E+03  0.72134362056E+03  0.88532819694E+03  0.10100000352E+00 0.  1.
       -3    1    3    3    0  502  0.12331378834E+01  0.51329121027E+03 -0.22542603584E+04  0.23119600258E+04  0.10100000352E+00 0. -1.
</event>
<event>
 5   0  0.7681342E-06  0.2834682E+04  0.7818609E-02  0.8292581E-01
       -1   -1    0    0    0  501  0.00000000000E+00  0.00000000000E+00  0.13320498640E+04  0.13320498640E+04  0.50400001928E-02 0.  1.
        1   -1    0    0  501    0  0.00000000000E+00  0.00000000000E+00 -0.15080932911E+04  0.15080932911E+04  0.50400001928E-02 0. -1.
    10030    2    1    2    0    0  0.00000000000E+00  0.00000000000E+00 -0.17604342716E+03  0.28401431551E+04  0.28346819669E+04 0.  0.
        2    1    3    3  502    0 -0.79439863501E+03 -0.11046084312E+04 -0.48580862252E+03  0.14447280005E+04  0.25500000920E-02 0. -1.
       -2    1    3    3    0  502  0.79439863501E+03  0.11046084312E+04  0.30976519536E+03  0.13954151547E+04  0.25500000920E-02 0.  1.
</event>
<event>
 5   0  0.1923559E-05  0.2763881E+04  0.7818609E-02  0.8314570E-01
        2   -1    0    0  501    0  0.00000000000E+00  0.00000000000E+00  0.24118134289E+04  0.24118134289E+04  0.25500000920E-02 0. -1.
       -2   -1    0    0    0  501  0.00000000000E+00  0.00000000000E+00 -0.79183573476E+03  0.79183573476E+03  0.25500000920E-02 0.  1.
    10030    2    1    2    0    0  0.00000000000E+00  0.00000000000E+00  0.16199776942E+04  0.32036491637E+04  0.27638813713E+04 0.  0.
        4    1    3    3  502    0  0.55400781178E+03 -0.11440782814E+04  0.14383931390E+04  0.19195875090E+04  0.12699999809E+01 0. -1.
       -4    1    3    3    0  502 -0.55400781178E+03  0.11440782814E+04  0.18158455521E+03  0.12840616547E+04  0.12699999809E+01 0.  1.
</event>
<event>
 5   0  0.1874272E-05  0.2905837E+04  0.7818609E-02  0.8271143E-01
       -2   -1    0    0    0  501  0.00000000000E+00  0.00000000000E+00  0.83547920281E+03  0.83547920282E+03  0.25500000920E-02 0.  1.
        2   -1    0    0  501    0  0.00000000000E+00  0.00000000000E+00 -0.25266603301E+04  0.25266603301E+04  0.25500000920E-02 0. -1.
    10030    2    1    2    0    0  0.00000000000E+00  0.00000000000E+00 -0.16911811272E+04  0.33621395329E+04  0.29058369936E+04 0.  0.
        3    1    3    3  502    0  0.52995509727E+02 -0.82909016767E+03  0.53354465959E+03  0.98735451797E+03  0.10100000352E+00 0.  1.
       -3    1    3    3    0  502 -0.52995509727E+02  0.82909016767E+03 -0.22247257868E+04  0.23747850149E+04  0.10100000352E+00 0. -1.
</event>
<event>
 5   0  0.7555871E-06  0.2806886E+04  0.7818609E-02  0.8301134E-01
       -1   -1    0    0    0  501  0.00000000000E+00  0.00000000000E+00  0.10607059985E+04  0.10607059985E+04  0.50400001928E-02 0. -1.
        1   -1    0    0  501    0  0.00000000000E+00  0.00000000000E+00 -0.18569255570E+04  0.18569255571E+04  0.50400001928E-02 0.  1.
    10030    2    1    2    0    0  0.00000000000E+00  0.00000000000E+00 -0.79621955852E+03  0.29176315556E+04  0.28068858739E+04 0.  0.
        3    1    3    3  502    0  0.10250002319E+04  0.72901269290E+03  0.24900174766E+03  0.12822195063E+04  0.10100000352E+00 0. -1.
       -3    1    3    3    0  502 -0.10250002319E+04 -0.72901269290E+03 -0.10452213062E+04  0.16354120493E+04  0.10100000352E+00 0.  1.
</event>
<event>
 5   0  0.1874272E-05  0.2933660E+04  0.7818609E-02  0.8262932E-01
       -2   -1    0    0    0  501  0.00000000000E+00  0.00000000000E+00  0.89652338575E+03  0.89652338575E+03  0.25500000920E-02 0.  1.
        2   -1    0    0  501    0  0.00000000000E+00  0.00000000000E+00 -0.23999269709E+04  0.23999269709E+04  0.25500000920E-02 0. -1.
    10030    2    1    2    0    0  0.00000000000E+00  0.00000000000E+00 -0.15034035851E+04  0.32964503566E+04  0.29336602758E+04 0.  0.
        3    1    3    3  502    0  0.53863924971E+03  0.17239851542E+03  0.76908487626E+03  0.95464393705E+03  0.10100000352E+00 0.  1.
       -3    1    3    3    0  502 -0.53863924971E+03 -0.17239851542E+03 -0.22724884614E+04  0.23418064196E+04  0.10100000352E+00 0. -1.
</event>
<event>
 5   0  0.7681342E-06  0.2812169E+04  0.7818609E-02  0.8299500E-01
       -1   -1    0    0    0  501  0.00000000000E+00  0.00000000000E+00  0.17673164035E+04  0.17673164035E+04  0.50400001928E-02 0.  1.
        1   -1    0    0  501    0  0.00000000000E+00  0.00000000000E+00 -0.11186864602E+04  0.11186864602E+04  0.50400001928E-02 0. -1.
    10030    2    1    2    0    0  0.00000000000E+00  0.00000000000E+00  0.64862994329E+03  0.28860028637E+04  0.28121685095E+04 0.  0.
        2    1    3    3  502    0  0.61577206682E+03 -0.11709373752E+03  0.16160058873E+04  0.17333093230E+04  0.25500000920E-02 0.  1.
       -2    1    3    3    0  502 -0.61577206682E+03  0.11709373752E+03 -0.96737594398E+03  0.11526935406E+04  0.25500000920E-02 0. -1.
</event>
<event>
 5   0  0.7388013E-06  0.2871478E+04  0.7818609E-02  0.8281414E-01
        1   -1    0    0  501    0  0.00000000000E+00  0.00000000000E+00  0.17614390383E+04  0.17614390383E+04  0.50400001928E-02 0. -1.
       -1   -1    0    0    0  501  0.00000000000E+00  0.00000000000E+00 -0.11702629366E+04  0.11702629367E+04  0.50400001928E-02 0.  1.
    10030    2    1    2    0    0  0.00000000000E+00  0.00000000000E+00  0.59117610166E+03  0.29317019750E+04  0.28714782407E+04 0.  0.
        1    1    3    3  502    0  0.32804457821E+03  0.54834944558E+03  0.16082618598E+04  0.17305509440E+04  0.50400001928E-02 0. -1.
       -1    1    3    3    0  502 -0.32804457821E+03 -0.54834944558E+03 -0.10170857582E+04  0.12011510310E+04  0.50400001928E-02 0.  1.
</event>
<event>
 5   0  0.1923559E-05  0.2839373E+04  0.7818609E-02  0.8291148E-01
       -2   -1    0    0    0  501  0.00000000000E+00  0.00000000000E+00  0.10789916956E+04  0.10789916956E+04  0.25500000920E-02 0.  1.
        2   -1    0    0  501    0  0.00000000000E+00  0.00000000000E+00 -0.18679567241E+04  0.18679567241E+04  0.25500000920E-02 0. -1.
    10030    2    1    2    0    0  0.00000000000E+00  0.00000000000E+00 -0.78896502848E+03  0.29469484197E+04  0.28393730245E+04 0.  0.
        4    1    3    3  502    0 -0.11578242157E+04 -0.81032838208E+03 -0.25400620610E+03  0.14358655114E+04  0.12699999809E+01 0. -1.
       -4    1    3    3    0  502  0.11578242157E+04  0.81032838208E+03 -0.53495882238E+03  0.15110829083E+04  0.12699999809E+01 0.  1.
</event>
<event>
 5   0  0.1923559E-05  0.2792255E+04  0.7818609E-02  0.8305677E-01
       -2   -1    0    0    0  501  0.00000000000E+00  0.00000000000E+00  0.10038850424E+04  0.10038850424E+04  0.25500000920E-02 0. -1.
        2   -1    0    0  501    0  0.00000000000E+00  0.00000000000E+00 -0.19416293281E+04  0.19416293281E+04  0.25500000920E-02 0.  1.
    10030    2    1    2    0    0  0.00000000000E+00  0.00000000000E+00 -0.93774428564E+03  0.29455143705E+04  0.27922554614E+04 0.  0.
        4    1    3    3  502    0  0.27005829542E+03 -0.83872634574E+03  0.67351640154E+03  0.11090623616E+04  0.12699999809E+01 0. -1.
       -4    1    3    3    0  502 -0.27005829542E+03  0.83872634574E+03 -0.16112606872E+04  0.18364520089E+04  0.12699999809E+01 0.  1.
</event>
<event>
 5   0  0.1923559E-05  0.3006243E+04  0.7818609E-02  0.8241950E-01
       -2   -1    0    0    0  501  0.00000000000E+00  0.00000000000E+00  0.12610242723E+04  0.12610242723E+04  0.25500000920E-02 0. -1.
        2   -1    0    0  501    0  0.00000000000E+00  0.00000000000E+00 -0.17916981951E+04  0.17916981951E+04  0.25500000920E-02 0.  1.
    10030    2    1    2    0    0  0.00000000000E+00  0.00000000000E+00 -0.53067392279E+03  0.30527224675E+04  0.30062434451E+04 0.  0.
        4    1    3    3  502    0 -0.36751541685E+03 -0.91806736397E+03  0.88417996426E+03  0.13265334856E+04  0.12699999809E+01 0. -1.
       -4    1    3    3    0  502  0.36751541685E+03  0.91806736397E+03 -0.14148538870E+04  0.17261889818E+04  0.12699999809E+01 0.  1.
</event>
<event>
 5   0  0.7388013E-06  0.2316020E+04  0.7818609E-02  0.8471631E-01
       -1   -1    0    0    0  501  0.00000000000E+00  0.00000000000E+00  0.91201317662E+03  0.91201317664E+03  0.50400001928E-02 0. -1.
        1   -1    0    0  501    0  0.00000000000E+00  0.00000000000E+00 -0.14703594767E+04  0.14703594767E+04  0.50400001928E-02 0.  1.
    10030    2    1    2    0    0  0.00000000000E+00  0.00000000000E+00 -0.55834630005E+03  0.23823726533E+04  0.23160200492E+04 0.  0.
        1    1    3    3  502    0 -0.70748787493E+03  0.32082672243E+03 -0.11625658219E+04  0.13982232187E+04  0.50400001928E-02 0.  1.
       -1    1    3    3    0  502  0.70748787493E+03 -0.32082672243E+03  0.60421952188E+03  0.98414943461E+03  0.50400001928E-02 0. -1.
</event>
<event>
 5   0  0.1874272E-05  0.2219776E+04  0.7818609E-02  0.8510242E-01
        2   -1    0    0  501    0  0.00000000000E+00  0.00000000000E+00  0.25596213337E+04  0.25596213337E+04  0.25500000920E-02 0.  1.
       -2   -1    0    0    0  501  0.00000000000E+00  0.00000000000E+00 -0.48126299074E+03  0.48126299075E+03  0.25500000920E-02 0. -1.
    10030    2    1    2    0    0  0.00000000000E+00  0.00000000000E+00  0.20783583430E+04  0.30408843245E+04  0.22197756808E+04 0.  0.
        3    1    3    3  502    0  0.11102400321E+03 -0.69057141857E+03  0.22197138520E+04  0.23273041933E+04  0.10100000352E+00 0.  1.
       -3    1    3    3    0  502 -0.11102400321E+03  0.69057141857E+03 -0.14135550900E+03  0.71358013115E+03  0.10100000352E+00 0. -1.
</event>
<event>
 5   0  0.1904553E-05  0.2812439E+04  0.7818609E-02  0.8299417E-01
       -2   -1    0    0    0  501  0.00000000000E+00  0.00000000000E+00  0.10327449070E+04  0.10327449070E+04  0.25500000920E-02 0. -1.
        2   -1    0    0  501    0  0.00000000000E+00  0.00000000000E+00 -0.19147548477E+04  0.19147548477E+04  0.25500000920E-02 0.  1.
    10030    2    1    2    0    0  0.00000000000E+00  0.00000000000E+00 -0.88200994069E+03  0.29474997546E+04  0.28124390248E+04 0.  0.
        1    1    3    3  502    0  0.50233563177E+03 -0.45420045748E+03 -0.17325899415E+04  0.18602438141E+04  0.50400001928E-02 0.  1.
       -1    1    3    3    0  502 -0.50233563177E+03  0.45420045748E+03  0.85058000078E+03  0.10872559406E+04  0.50400001928E-02 0. -1.
</event>
<event>
 5   0  0.7681342E-06  0.2789409E+04  0.7818609E-02  0.8306564E-01
        1   -1    0    0  501    0  0.00000000000E+00  0.00000000000E+00  0.12710004052E+04  0.12710004052E+04  0.50400001928E-02 0.  1.
       -1   -1    0    0    0  501  0.00000000000E+00  0.00000000000E+00 -0.15304482430E+04  0.15304482431E+04  0.50400001928E-02 0. -1.
    10030    2    1    2    0    0  0.00000000000E+00  0.00000000000E+00 -0.25944783784E+03  0.28014486483E+04  0.27894087812E+04 0.  0.
        2    1    3    3  502    0 -0.63113897284E+03  0.11495737362E+04 -0.60647716103E+03  0.14448774083E+04  0.25500000920E-02 0. -1.
       -2    1    3    3    0  502  0.63113897284E+03 -0.11495737362E+04  0.34702932319E+03  0.13565712400E+04  0.25500000920E-02 0.  1.
</event>
<event>
 5   0  0.7388013E-06  0.2021545E+04  0.7818609E-02  0.8596613E-01
       -1   -1    0    0    0  501  0.00000000000E+00  0.00000000000E+00  0.10046634467E+04  0.10046634467E+04  0.50400001928E-02 0.  1.
        1   -1    0    0  501    0  0.00000000000E+00  0.00000000000E+00 -0.10169188629E+04  0.10169188629E+04  0.50400001928E-02 0. -1.
    10030    2    1    2    0    0  0.00000000000E+00  0.00000000000E+00 -0.12255416206E+02  0.20215823095E+04  0.20215451613E+04 0.  0.
        1    1    3    3  502    0 -0.86476069952E+03  0.25430186331E+03  0.45124346781E+03  0.10080184385E+04  0.50400001928E-02 0.  1.
       -1    1    3    3    0  502  0.86476069952E+03 -0.25430186331E+03 -0.46349888401E+03  0.10135638710E+04  0.50400001928E-02 0. -1.
</event>
<event>
 5   0  0.7681342E-06  0.1997058E+04  0.7818609E-02  0.8607997E-01
        1   -1    0    0  501    0  0.00000000000E+00  0.00000000000E+00  0.22513220381E+04  0.22513220381E+04  0.50400001928E-02 0. -1.
       -1   -1    0    0    0  501  0.00000000000E+00  0.00000000000E+00 -0.44287759305E+03  0.44287759308E+03  0.50400001928E-02 0.  1.
    10030    2    1    2    0    0  0.00000000000E+00  0.00000000000E+00  0.18084444451E+04  0.26941996312E+04  0.19970579215E+04 0.  0.
        2    1    3    3  502    0  0.68174666265E+03  0.59299068100E+03  0.14776126416E+04  0.17319802477E+04  0.25500000920E-02 0. -1.
       -2    1    3    3    0  502 -0.68174666265E+03 -0.59299068100E+03  0.33083180344E+03  0.96221938349E+03  0.25500000920E-02 0.  1.
</event>
<event>
 5   0  0.1874272E-05  0.2812630E+04  0.7818609E-02  0.8299358E-01
       -2   -1    0    0    0  501  0.00000000000E+00  0.00000000000E+00  0.21862876115E+04  0.21862876115E+04  0.25500000920E-02 0.  1.
        2   -1    0    0  501    0  0.00000000000E+00  0.00000000000E+00 -0.90460303626E+03  0.90460303627E+03  0.25500000920E-02 0. -1.
    10030    2    1    2    0    0  0.00000000000E+00  0.00000000000E+00  0.12816845752E+04  0.30908906477E+04  0.28126303785E+04 0.  0.
        3    1    3    3  502    0 -0.10556343034E+04  0.79730928369E+03  0.11651799196E+04  0.17628698567E+04  0.10100000352E+00 0. -1.
       -3    1    3    3    0  502  0.10556343034E+04 -0.79730928369E+03  0.11650465565E+03  0.13280207911E+04  0.10100000352E+00 0.  1.
</event>
<event>
 5   0  0.7681342E-06  0.2816907E+04  0.7818609E-02  0.8298039E-01
        1   -1    0    0  501    0  0.00000000000E+00  0.00000000000E+00  0.18444172806E+04  0.18444172806E+04  0.50400001928E-02 0. -1.
       -1   -1    0    0    0  501  0.00000000000E+00  0.00000000000E+00 -0.10755383504E+04  0.10755383504E+04  0.50400001928E-02 0.  1.
    10030    2    1    2    0    0  0.00000000000E+00  0.00000000000E+00  0.76887893017E+03  0.29199556310E+04  0.28169071830E+04 0.  0.
        2    1    3    3  502    0 -0.10266779991E+04 -0.96032204782E+03  0.47394261467E+03  0.14835456688E+04  0.25500000920E-02 0.  1.
       -2    1    3    3    0  502  0.10266779991E+04  0.96032204782E+03  0.29493631550E+03  0.14364099622E+04  0.25500000920E-02 0. -1.
</event>
<event>
 5   0  0.1832502E-05  0.2095273E+04  0.7818609E-02  0.8563329E-01
        2   -1    0    0  501    0  0.00000000000E+00  0.00000000000E+00  0.58150093856E+03  0.58150093857E+03  0.25500000920E-02 0. -1.
       -2   -1    0    0    0  501  0.00000000000E+00  0.00000000000E+00 -0.18874296131E+04  0.18874296131E+04  0.25500000920E-02 0.  1.
    10030    2    1    2    0    0  0.00000000000E+00  0.00000000000E+00 -0.13059286746E+04  0.24689305517E+04  0.20952728620E+04 0.  0.
        2    1    3    3  502    0  0.17688889651E+02 -0.54843197314E+02  0.57963205307E+03  0.58248947636E+03  0.25500000920E-02 0. -1.
       -2    1    3    3    0  502 -0.17688889651E+02  0.54843197314E+02 -0.18855607276E+04  0.18864410753E+04  0.25500000920E-02 0.  1.
</event>
<event>
 5   0  0.7555871E-06  0.2721738E+04  0.7818609E-02  0.8327986E-01
        1   -1    0    0  501    0  0.00000000000E+00  0.00000000000E+00  0.17033821843E+04  0.17033821843E+04  0.50400001928E-02 0. -1.
       -1   -1    0    0    0  501  0.00000000000E+00  0.00000000000E+00 -0.10872273838E+04  0.10872273838E+04  0.50400001928E-02 0.  1.
    10030    2    1    2    0    0  0.00000000000E+00  0.00000000000E+00  0.61615480051E+03  0.27906095680E+04  0.27217375008E+04 0.  0.
        3    1    3    3  502    0  0.78766662889E+03 -0.57614333501E+03 -0.66439772832E+03  0.11805863850E+04  0.10100000352E+00 0.  1.
       -3    1    3    3    0  502 -0.78766662889E+03  0.57614333501E+03  0.12805525288E+04  0.16100231831E+04  0.10100000352E+00 0. -1.
</event>
<event>
 5   0  0.7388013E-06  0.2759402E+04  0.7818609E-02  0.8315984E-01
        1   -1    0    0  501    0  0.00000000000E+00  0.00000000000E+00  0.21834500958E+04  0.21834500958E+04  0.50400001928E-02 0.  1.
       -1   -1    0    0    0  501  0.00000000000E+00  0.00000000000E+00 -0.87181991493E+03  0.87181991495E+03  0.50400001928E-02 0. -1.
    10030    2    1    2    0    0  0.00000000000E+00  0.00000000000E+00  0.13116301809E+04  0.30552700108E+04  0.27594023098E+04 0.  0.
        1    1    3    3  502    0  0.97462266236E+03  0.17410555892E+02 -0.42529079973E+03  0.10635152682E+04  0.50400001928E-02 0. -1.
       -1    1    3    3    0  502 -0.97462266236E+03 -0.17410555892E+02  0.17369209806E+04  0.19917547425E+04  0.50400001928E-02 0.  1.
</event>
<event>
 5   0  0.1923559E-05  0.2822643E+04  0.7818609E-02  0.8296273E-01
       -2   -1    0    0    0  501  0.00000000000E+00  0.00000000000E+00  0.17259068506E+04  0.17259068506E+04  0.25500000920E-02 0. -1.
        2   -1    0    0  501    0  0.00000000000E+00  0.00000000000E+00 -0.11540762320E+04  0.11540762320E+04  0.25500000920E-02 0.  1.
    10030    2    1    2    0    0  0.00000000000E+00  0.00000000000E+00  0.57183061864E+03  0.28799830826E+04  0.28226427864E+04 0.  0.
        4    1    3    3  502    0  0.31730121487E+03 -0.12012502449E+04 -0.39711964708E+03  0.13043725843E+04  0.12699999809E+01 0.  1.
       -4    1    3    3    0  502 -0.31730121487E+03  0.12012502449E+04  0.96895026572E+03  0.15756104982E+04  0.12699999809E+01 0. -1.
</event>
<event>
 5   0  0.1814230E-05  0.2807791E+04  0.7818609E-02  0.8300854E-01
       -2   -1    0    0    0  501  0.00000000000E+00  0.00000000000E+00  0.12763906362E+04  0.12763906362E+04  0.25500000920E-02 0.  1.
        2   -1    0    0  501    0  0.00000000000E+00  0.00000000000E+00 -0.15441371045E+04  0.15441371045E+04  0.25500000920E-02 0. -1.
    10030    2    1    2    0    0  0.00000000000E+00  0.00000000000E+00 -0.26774646830E+03  0.28205277406E+04  0.28077906910E+04 0.  0.
        5    1    3    3  502    0 -0.69995157177E+03 -0.30564157203E+03 -0.13171603485E+04  0.15225907024E+04  0.46999998093E+01 0. -1.
       -5    1    3    3    0  502  0.69995157177E+03  0.30564157203E+03  0.10494138802E+04  0.12979370383E+04  0.46999998093E+01 0.  1.
</event>
<event>
 5   0  0.7681342E-06  0.2700860E+04  0.7818609E-02  0.8334726E-01
       -1   -1    0    0    0  501  0.00000000000E+00  0.00000000000E+00  0.10597083195E+04  0.10597083196E+04  0.50400001928E-02 0. -1.
        1   -1    0    0  501    0  0.00000000000E+00  0.00000000000E+00 -0.17209091477E+04  0.17209091477E+04  0.50400001928E-02 0.  1.
    10030    2    1    2    0    0  0.00000000000E+00  0.00000000000E+00 -0.66120082811E+03  0.27806174672E+04  0.27008604118E+04 0.  0.
        2    1    3    3  502    0  0.36960974538E+03 -0.14531356375E+03  0.99822537573E+03  0.10743283001E+04  0.25500000920E-02 0. -1.
       -2    1    3    3    0  502 -0.36960974538E+03  0.14531356375E+03 -0.16594262038E+04  0.17062891671E+04  0.25500000920E-02 0.  1.
</event>
<event>
 5   0  0.7509685E-06  0.2728499E+04  0.7818609E-02  0.8325817E-01
       -1   -1    0    0    0  501  0.00000000000E+00  0.00000000000E+00  0.97675949232E+03  0.97675949234E+03  0.50400001928E-02 0.  1.
        1   -1    0    0  501    0  0.00000000000E+00  0.00000000000E+00 -0.19054609580E+04  0.19054609580E+04  0.50400001928E-02 0. -1.
    10030    2    1    2    0    0  0.00000000000E+00  0.00000000000E+00 -0.92870146571E+03  0.28822204504E+04  0.27284992784E+04 0.  0.
        4    1    3    3  502    0  0.12138145412E+04  0.34773630345E+02 -0.11211698762E+04  0.16527487558E+04  0.12699999809E+01 0. -1.
       -4    1    3    3    0  502 -0.12138145412E+04 -0.34773630345E+02  0.19246841049E+03  0.12294716945E+04  0.12699999809E+01 0.  1.
</event>
<event>
 5   0  0.7388013E-06  0.2738928E+04  0.7818609E-02  0.8322484E-01
        1   -1    0    0  501    0  0.00000000000E+00  0.00000000000E+00  0.15757186469E+04  0.15757186469E+04  0.50400001928E-02 0. -1.
       -1   -1    0    0    0  501  0.00000000000E+00  0.00000000000E+00 -0.11902069181E+04  0.11902069181E+04  0.50400001928E-02 0.  1.
    10030    2    1    2    0    0  0.00000000000E+00  0.00000000000E+00  0.38551172877E+03  0.27659255651E+04  0.27389276986E+04 0.  0.
        1    1    3    3  502    0 -0.71749976041E+03  0.75196965320E+02 -0.98275021535E+03  0.12191220101E+04  0.50400001928E-02 0.  1.
       -1    1    3    3    0  502  0.71749976041E+03 -0.75196965320E+02  0.13682619441E+04  0.15468035549E+04  0.50400001928E-02 0. -1.
</event>
<event>
 5   0  0.7613444E-06  0.2802623E+04  0.7818609E-02  0.8302455E-01
       -1   -1    0    0    0  501  0.00000000000E+00  0.00000000000E+00  0.94089686858E+03  0.94089686860E+03  0.50400001928E-02 0. -1.
        1   -1    0    0  501    0  0.00000000000E+00  0.00000000000E+00 -0.20870229635E+04  0.20870229635E+04  0.50400001928E-02 0.  1.
    10030    2    1    2    0    0  0.00000000000E+00  0.00000000000E+00 -0.11461260949E+04  0.30279198321E+04  0.28026226082E+04 0.  0.
        5    1    3    3  502    0 -0.53426435061E+03  0.13451194252E+03 -0.19650956813E+04  0.20408711340E+04  0.46999998093E+01 0.  1.
       -5    1    3    3    0  502  0.53426435061E+03 -0.13451194252E+03  0.81896958637E+03  0.98704869810E+03  0.46999998093E+01 0. -1.
</event>
<event>
 5   0  0.7555871E-06  0.2601816E+04  0.7818609E-02  0.8367585E-01
        1   -1    0    0  501    0  0.00000000000E+00  0.00000000000E+00  0.21277755048E+04  0.21277755048E+04  0.50400001928E-02 0.  1.
       -1   -1    0    0    0  501  0.00000000000E+00  0.00000000000E+00 -0.79536641747E+03  0.79536641749E+03  0.50400001928E-02 0. -1.
    10030    2    1    2    0    0  0.00000000000E+00  0.00000000000E+00  0.13324090873E+04  0.29231419223E+04  0.26018156587E+04 0.  0.
        3    1    3    3  502    0  0.11336750356E+04  0.78473793571E+02  0.13776422381E+04  0.17858542407E+04  0.10100000352E+00 0. -1.
       -3    1    3    3    0  502 -0.11336750356E+04 -0.78473793571E+02 -0.45233150821E+02  0.11372876816E+04  0.10100000352E+00 0.  1.
</event>
<event>
 5   0  0.1904553E-05  0.2869630E+04  0.7818609E-02  0.8281971E-01
       -2   -1    0    0    0  501  0.00000000000E+00  0.00000000000E+00  0.88986896701E+03  0.88986896701E+03  0.25500000920E-02 0.  1.
        2   -1    0    0  501    0  0.00000000000E+00  0.00000000000E+00 -0.23134806983E+04  0.23134806983E+04  0.25500000920E-02 0. -1.
    10030    2    1    2    0    0  0.00000000000E+00  0.00000000000E+00 -0.14236117313E+04  0.32033496653E+04  0.28696304147E+04 0.  0.
        1    1    3    3  502    0 -0.15143631614E+03 -0.13791192715E+04 -0.11201187250E+04  0.17831345662E+04  0.50400001928E-02 0. -1.
       -1    1    3    3    0  502  0.15143631614E+03  0.13791192715E+04 -0.30349300625E+03  0.14202150991E+04  0.50400001928E-02 0.  1.
</event>
<event>
 5   0  0.7613444E-06  0.1728325E+04  0.7818609E-02  0.8745372E-01
        1   -1    0    0  501    0  0.00000000000E+00  0.00000000000E+00  0.10040186409E+04  0.10040186409E+04  0.50400001928E-02 0. -1.
       -1   -1    0    0    0  501  0.00000000000E+00  0.00000000000E+00 -0.74378808426E+03  0.74378808428E+03  0.50400001928E-02 0.  1.
    10030    2    1    2    0    0  0.00000000000E+00  0.00000000000E+00  0.26023055661E+03  0.17478067252E+04  0.17283253183E+04 0.  0.
        5    1    3    3  502    0 -0.77959618970E+03  0.17819869252E+03 -0.20103574735E+03  0.82459835964E+03  0.46999998093E+01 0.  1.
       -5    1    3    3    0  502  0.77959618970E+03 -0.17819869252E+03  0.46126630396E+03  0.92320836552E+03  0.46999998093E+01 0. -1.
</event>
<event>
 5   0  0.7388013E-06  0.2809235E+04  0.7818609E-02  0.8300407E-01
        1   -1    0    0  501    0  0.00000000000E+00  0.00000000000E+00  0.25363098216E+04  0.25363098216E+04  0.50400001928E-02 0.  1.
       -1   -1    0    0    0  501  0.00000000000E+00  0.00000000000E+00 -0.77788197078E+03  0.77788197079E+03  0.50400001928E-02 0. -1.
    10030    2    1    2    0    0  0.00000000000E+00  0.00000000000E+00  0.17584278508E+04  0.33141917924E+04  0.28092345453E+04 0.  0.
        1    1    3    3  502    0 -0.80739389016E+03 -0.92524053014E+03  0.16836909806E+04  0.20839314410E+04  0.50400001928E-02 0.  1.
       -1    1    3    3    0  502  0.80739389016E+03  0.92524053014E+03  0.74736870206E+02  0.12302603514E+04  0.50400001928E-02 0. -1.
</event>
<event>
 5   0  0.7555871E-06  0.2783866E+04  0.7818609E-02  0.8308295E-01
        1   -1    0    0  501    0  0.00000000000E+00  0.00000000000E+00  0.18330220272E+04  0.18330220272E+04  0.50400001928E-02 0.  1.
       -1   -1    0    0    0  501  0.00000000000E+00  0.00000000000E+00 -0.10569853860E+04  0.10569853861E+04  0.50400001928E-02 0. -1.
    10030    2    1    2    0    0  0.00000000000E+00  0.00000000000E+00  0.77603664116E+03  0.28900074133E+04  0.27838660133E+04 0.  0.
        3    1    3    3  502    0  0.10653913821E+03  0.85285148296E+03  0.15246474614E+04  0.17502160243E+04  0.10100000352E+00 0.  1.
       -3    1    3    3    0  502 -0.10653913821E+03 -0.85285148296E+03 -0.74861082024E+03  0.11397913890E+04  0.10100000352E+00 0. -1.
</event>
<event>
 5   0  0.7509685E-06  0.2264339E+04  0.7818609E-02  0.8492116E-01
        1   -1    0    0  501    0  0.00000000000E+00  0.00000000000E+00  0.25784983960E+04  0.25784983960E+04  0.50400001928E-02 0. -1.
       -1   -1    0    0    0  501  0.00000000000E+00  0.00000000000E+00 -0.49711393032E+03  0.49711393035E+03  0.50400001928E-02 0.  1.
    10030    2    1    2    0    0  0.00000000000E+00  0.00000000000E+00  0.20813844656E+04  0.30756123263E+04  0.22643387308E+04 0.  0.
        4    1    3    3  502    0  0.20717918112E+03 -0.99043589132E+01  0.25524704651E+04  0.25608842999E+04  0.12699999809E+01 0. -1.
       -4    1    3    3    0  502 -0.20717918112E+03  0.99043589132E+01 -0.47108599944E+03  0.51472802642E+03  0.12699999809E+01 0.  1.
</event>
<event>
 5   0  0.7555871E-06  0.1721722E+04  0.7818609E-02  0.8749072E-01
       -1   -1    0    0    0  501  0.00000000000E+00  0.00000000000E+00  0.59197828995E+03  0.59197828997E+03  0.50400001928E-02 0. -1.
        1   -1    0    0  501    0  0.00000000000E+00  0.00000000000E+00 -0.12518731844E+04  0.12518731844E+04  0.50400001928E-02 0.  1.
    10030    2    1    2    0    0  0.00000000000E+00  0.00000000000E+00 -0.65989489448E+03  0.18438514744E+04  0.17217220995E+04 0.  0.
        3    1    3    3  502    0 -0.23236593813E+03  0.21284571979E+02  0.55746553565E+03  0.60433003884E+03  0.10100000352E+00 0. -1.
       -3    1    3    3    0  502  0.23236593813E+03 -0.21284571979E+02 -0.12173604301E+04  0.12395214356E+04  0.10100000352E+00 0.  1.
</event>
<event>
 5   0  0.1904553E-05  0.2778800E+04  0.7818609E-02  0.8309880E-01
       -2   -1    0    0    0  501  0.00000000000E+00  0.00000000000E+00  0.10791117507E+04  0.10791117507E+04  0.25500000920E-02 0. -1.
        2   -1    0    0  501    0  0.00000000000E+00  0.00000000000E+00 -0.17889092687E+04  0.17889092687E+04  0.25500000920E-02 0.  1.
    10030    2    1    2    0    0  0.00000000000E+00  0.00000000000E+00 -0.70979751802E+03  0.28680210193E+04  0.27788004698E+04 0.  0.
        1    1    3    3  502    0 -0.21345079762E+03 -0.87384103053E+03 -0.14477996228E+04  0.17044891133E+04  0.50400001928E-02 0.  1.
       -1    1    3    3    0  502  0.21345079762E+03  0.87384103053E+03  0.73800210477E+03  0.11635319060E+04  0.50400001928E-02 0. -1.
</event>
<event>
 5   0  0.1874272E-05  0.2758496E+04  0.7818609E-02  0.8316271E-01
       -2   -1    0    0    0  501  0.00000000000E+00  0.00000000000E+00  0.64435315308E+03  0.64435315309E+03  0.25500000920E-02 0. -1.
        2   -1    0    0  501    0  0.00000000000E+00  0.00000000000E+00 -0.29523010269E+04  0.29523010269E+04  0.25500000920E-02 0.  1.
    10030    2    1    2    0    0  0.00000000000E+00  0.00000000000E+00 -0.23079478738E+04  0.35966541800E+04  0.27584955868E+04 0.  0.
        3    1    3    3  502    0  0.11898901733E+04  0.59580650534E+02 -0.24788427957E+03  0.12168956836E+04  0.10100000352E+00 0. -1.
       -3    1    3    3    0  502 -0.11898901733E+04 -0.59580650534E+02 -0.20600635942E+04  0.23797584964E+04  0.10100000352E+00 0.  1.
</event>
<event>
 5   0  0.7555871E-06  0.2722531E+04  0.7818609E-02  0.8327731E-01
        1   -1    0    0  501    0  0.00000000000E+00  0.00000000000E+00  0.17185728128E+04  0.17185728128E+04  0.50400001928E-02 0.  1.
       -1   -1    0    0    0  501  0.00000000000E+00  0.00000000000E+00 -0.10782460051E+04  0.10782460051E+04  0.50400001928E-02 0. -1.
    10030    2    1    2    0    0  0.00000000000E+00  0.00000000000E+00  0.64032680774E+03  0.27968188179E+04  0.27225313734E+04 0.  0.
        3    1    3    3  502    0  0.81687732317E+03 -0.64744773167E+03 -0.57926487353E+03  0.11924868680E+04  0.10100000352E+00 0. -1.
       -3    1    3    3    0  502 -0.81687732317E+03  0.64744773167E+03  0.12195916813E+04  0.16043319499E+04  0.10100000352E+00 0.  1.
</event>
<event>
 5   0  0.1814230E-05  0.2779210E+04  0.7818609E-02  0.8309752E-01
       -2   -1    0    0    0  501  0.00000000000E+00  0.00000000000E+00  0.88457321280E+03  0.88457321280E+03  0.25500000920E-02 0. -1.
        2   -1    0    0  501    0  0.00000000000E+00  0.00000000000E+00 -0.21829757870E+04  0.21829757870E+04  0.25500000920E-02 0.  1.
    10030    2    1    2    0    0  0.00000000000E+00  0.00000000000E+00 -0.12984025742E+04  0.30675489998E+04  0.27792098916E+04 0.  0.
        5    1    3    3  502    0 -0.24399853839E+03 -0.11922196702E+04 -0.13896650665E+04  0.18471908715E+04  0.46999998093E+01 0.  1.
       -5    1    3    3    0  502  0.24399853839E+03  0.11922196702E+04  0.91262492385E+02  0.12203581282E+04  0.46999998093E+01 0. -1.
</event>
<event>
 5   0  0.7509685E-06  0.2624158E+04  0.7818609E-02  0.8360041E-01
        1   -1    0    0  501    0  0.00000000000E+00  0.00000000000E+00  0.19292405762E+04  0.19292405762E+04  0.50400001928E-02 0. -1.
       -1   -1    0    0    0  501  0.00000000000E+00  0.00000000000E+00 -0.89234678175E+03  0.89234678177E+03  0.50400001928E-02 0.  1.
    10030    2    1    2    0    0  0.00000000000E+00  0.00000000000E+00  0.10368937944E+04  0.28215873580E+04  0.26241582417E+04 0.  0.
        4    1    3    3  502    0 -0.68960624688E+03 -0.10174202898E+04  0.10121768142E+04  0.15922325012E+04  0.12699999809E+01 0. -1.
       -4    1    3    3    0  502  0.68960624688E+03  0.10174202898E+04  0.24716980257E+02  0.12293548568E+04  0.12699999809E+01 0.  1.
</event>
<event>
 5   0  0.7681342E-06  0.2739674E+04  0.7818609E-02  0.8322246E-01
       -1   -1    0    0    0  501  0.00000000000E+00  0.00000000000E+00  0.20522714610E+04  0.20522714610E+04  0.50400001928E-02 0. -1.
        1   -1    0    0  501    0  0.00000000000E+00  0.00000000000E+00 -0.91432998640E+03  0.91432998641E+03  0.50400001928E-02 0.  1.
    10030    2    1    2    0    0  0.00000000000E+00  0.00000000000E+00  0.11379414746E+04  0.29666014474E+04  0.27396739493E+04 0.  0.
        2    1    3    3  502    0  0.85845892441E+02 -0.43001488890E+03 -0.83627869499E+03  0.94426922942E+03  0.25500000920E-02 0.  1.
       -2    1    3    3    0  502 -0.85845892441E+02  0.43001488890E+03  0.19742201696E+04  0.20223322180E+04  0.25500000920E-02 0. -1.
</event>
<event>
 5   0  0.7388013E-06  0.2853946E+04  0.7818609E-02  0.8286713E-01
        1   -1    0    0  501    0  0.00000000000E+00  0.00000000000E+00  0.16198552644E+04  0.16198552644E+04  0.50400001928E-02 0. -1.
       -1   -1    0    0    0  501  0.00000000000E+00  0.00000000000E+00 -0.12570577656E+04  0.12570577656E+04  0.50400001928E-02 0.  1.
    10030    2    1    2    0    0  0.00000000000E+00  0.00000000000E+00  0.36279749882E+03  0.28769130300E+04  0.28539457874E+04 0.  0.
        1    1    3    3  502    0  0.31889245144E+03 -0.96884948412E+03 -0.82457507994E+03  0.13115966533E+04  0.50400001928E-02 0.  1.
       -1    1    3    3    0  502 -0.31889245144E+03  0.96884948412E+03  0.11873725788E+04  0.15653163767E+04  0.50400001928E-02 0. -1.
</event>
<event>
 5   0  0.7613444E-06  0.2781031E+04  0.7818609E-02  0.8309182E-01
        1   -1    0    0  501    0  0.00000000000E+00  0.00000000000E+00  0.10879702391E+04  0.10879702391E+04  0.50400001928E-02 0. -1.
       -1   -1    0    0    0  501  0.00000000000E+00  0.00000000000E+00 -0.17771937344E+04  0.17771937344E+04  0.50400001928E-02 0.  1.
    10030    2    1    2    0    0  0.00000000000E+00  0.00000000000E+00 -0.68922349531E+03  0.28651639735E+04  0.27810313858E+04 0.  0.
        5    1    3    3  502    0  0.11916804536E+04  0.43351485839E+03 -0.93237439992E+03  0.15739699957E+04  0.46999998093E+01 0.  1.
       -5    1    3    3    0  502 -0.11916804536E+04 -0.43351485839E+03  0.24315090461E+03  0.12911939778E+04  0.46999998093E+01 0. -1.
</event>
<event>
 5   0  0.1814230E-05  0.2846095E+04  0.7818609E-02  0.8289099E-01
       -2   -1    0    0    0  501  0.00000000000E+00  0.00000000000E+00  0.10105336459E+04  0.10105336459E+04  0.25500000920E-02 0. -1.
        2   -1    0    0  501    0  0.00000000000E+00  0.00000000000E+00 -0.20039559070E+04  0.20039559070E+04  0.25500000920E-02 0.  1.
    10030    2    1    2    0    0  0.00000000000E+00  0.00000000000E+00 -0.99342226110E+03  0.30144895528E+04  0.28460954790E+04 0.  0.
        5    1    3    3  502    0 -0.11614570998E+04 -0.46795909696E+03  0.21936269394E+03  0.12712633058E+04  0.46999998093E+01 0. -1.
       -5    1    3    3    0  502  0.11614570998E+04  0.46795909696E+03 -0.12127849550E+04  0.17432262470E+04  0.46999998093E+01 0.  1.
</event>
<event>
 5   0  0.1923559E-05  0.2847203E+04  0.7818609E-02  0.8288762E-01
        2   -1    0    0  501    0  0.00000000000E+00  0.00000000000E+00  0.19406938635E+04  0.19406938635E+04  0.25500000920E-02 0.  1.
       -2   -1    0    0    0  501  0.00000000000E+00  0.00000000000E+00 -0.10442871208E+04  0.10442871208E+04  0.25500000920E-02 0. -1.
    10030    2    1    2    0    0  0.00000000000E+00  0.00000000000E+00  0.89640674269E+03  0.29849809844E+04  0.28472032644E+04 0.  0.
        4    1    3    3  502    0 -0.89010057956E+03 -0.17442862601E+02 -0.71643381514E+03  0.11427433306E+04  0.12699999809E+01 0. -1.
       -4    1    3    3    0  502  0.89010057956E+03  0.17442862601E+02  0.16128405578E+04  0.18422376538E+04  0.12699999809E+01 0.  1.
</event>
<event>
 5   0  0.7613444E-06  0.2778489E+04  0.7818609E-02  0.8309978E-01
        1   -1    0    0  501    0  0.00000000000E+00  0.00000000000E+00  0.12139353567E+04  0.12139353567E+04  0.50400001928E-02 0. -1.
       -1   -1    0    0    0  501  0.00000000000E+00  0.00000000000E+00 -0.15898704124E+04  0.15898704125E+04  0.50400001928E-02 0.  1.
    10030    2    1    2    0    0  0.00000000000E+00  0.00000000000E+00 -0.37593505578E+03  0.28038057691E+04  0.27784887304E+04 0.  0.
        5    1    3    3  502    0 -0.79830535115E+03  0.62270423812E+03  0.77197619712E+03  0.12731933635E+04  0.46999998093E+01 0. -1.
       -5    1    3    3    0  502  0.79830535115E+03 -0.62270423812E+03 -0.11479112529E+04  0.15306124057E+04  0.46999998093E+01 0.  1.
</event>
<event>
 5   0  0.1904553E-05  0.2787252E+04  0.7818609E-02  0.8307237E-01
        2   -1    0    0  501    0  0.00000000000E+00  0.00000000000E+00  0.11403315022E+04  0.11403315022E+04  0.25500000920E-02 0. -1.
       -2   -1    0    0    0  501  0.00000000000E+00  0.00000000000E+00 -0.17031836266E+04  0.17031836266E+04  0.25500000920E-02 0.  1.
    10030    2    1    2    0    0  0.00000000000E+00  0.00000000000E+00 -0.56285212437E+03  0.28435151288E+04  0.27872523699E+04 0.  0.
        1    1    3    3  502    0  0.60928332164E+03 -0.11402035353E+04  0.24956437338E+03  0.13166520590E+04  0.50400001928E-02 0.  1.
       -1    1    3    3    0  502 -0.60928332164E+03  0.11402035353E+04 -0.81241649776E+03  0.15268630698E+04  0.50400001928E-02 0. -1.
</event>
<event>
 5   0  0.1923559E-05  0.2657679E+04  0.7818609E-02  0.8348869E-01
       -2   -1    0    0    0  501  0.00000000000E+00  0.00000000000E+00  0.11099145724E+04  0.11099145724E+04  0.25500000920E-02 0. -1.
        2   -1    0    0  501    0  0.00000000000E+00  0.00000000000E+00 -0.15909461532E+04  0.15909461532E+04  0.25500000920E-02 0.  1.
    10030    2    1    2    0    0  0.00000000000E+00  0.00000000000E+00 -0.48103158076E+03  0.27008607256E+04  0.26576789267E+04 0.  0.
        4    1    3    3  502    0 -0.73799773850E+03 -0.87371388366E+02  0.87899018993E+03  0.11510429134E+04  0.12699999809E+01 0. -1.
       -4    1    3    3    0  502  0.73799773850E+03  0.87371388366E+02 -0.13600217707E+04  0.15498178123E+04  0.12699999809E+01 0.  1.
</event>
<event>
 5   0  0.1923559E-05  0.2836684E+04  0.7818609E-02  0.8291969E-01
        2   -1    0    0  501    0  0.00000000000E+00  0.00000000000E+00  0.20066749927E+04  0.20066749927E+04  0.25500000920E-02 0. -1.
       -2   -1    0    0    0  501  0.00000000000E+00  0.00000000000E+00 -0.10025012533E+04  0.10025012533E+04  0.25500000920E-02 0.  1.
    10030    2    1    2    0    0  0.00000000000E+00  0.00000000000E+00  0.10041737395E+04  0.30091762460E+04  0.28366841172E+04 0.  0.
        4    1    3    3  502    0 -0.12484096150E+04  0.25275959203E+03 -0.15977431896E+03  0.12837224872E+04  0.12699999809E+01 0.  1.
       -4    1    3    3    0  502  0.12484096150E+04 -0.25275959203E+03  0.11639480584E+04  0.17254537588E+04  0.12699999809E+01 0. -1.
</event>
<event>
 5   0  0.7388013E-06  0.2744639E+04  0.7818609E-02  0.8320665E-01
       -1   -1    0    0    0  501  0.00000000000E+00  0.00000000000E+00  0.13638362099E+04  0.13638362099E+04  0.50400001928E-02 0.  1.
        1   -1    0    0  501    0  0.00000000000E+00  0.00000000000E+00 -0.13808552745E+04  0.13808552745E+04  0.50400001928E-02 0. -1.
    10030    2    1    2    0    0  0.00000000000E+00  0.00000000000E+00 -0.17019064587E+02  0.27446914843E+04  0.27446387186E+04 0.  0.
        1    1    3    3  502    0  0.12989207160E+04  0.30866046341E+03  0.30897746178E+03  0.13703770941E+04  0.50400001928E-02 0.  1.
       -1    1    3    3    0  502 -0.12989207160E+04 -0.30866046341E+03 -0.32599652637E+03  0.13743143903E+04  0.50400001928E-02 0. -1.
</event>
<event>
 5   0  0.7613444E-06  0.2654057E+04  0.7818609E-02  0.8350068E-01
       -1   -1    0    0    0  501  0.00000000000E+00  0.00000000000E+00  0.99104478040E+03  0.99104478042E+03  0.50400001928E-02 0.  1.
        1   -1    0    0  501    0  0.00000000000E+00  0.00000000000E+00 -0.17769175544E+04  0.17769175544E+04  0.50400001928E-02 0. -1.
    10030    2    1    2    0    0  0.00000000000E+00  0.00000000000E+00 -0.78587277396E+03  0.27679623348E+04  0.26540571716E+04 0.  0.
        5    1    3    3  502    0 -0.10842148175E+03  0.12391728423E+04  0.89155738548E+02  0.12471068063E+04  0.46999998093E+01 0.  1.
       -5    1    3    3    0  502  0.10842148175E+03 -0.12391728423E+04 -0.87502851251E+03  0.15208555284E+04  0.46999998093E+01 0. -1.
</event>
<event>
 5   0  0.7555871E-06  0.2802789E+04  0.7818609E-02  0.8302403E-01
       -1   -1    0    0    0  501  0.00000000000E+00  0.00000000000E+00  0.90017718731E+03  0.90017718732E+03  0.50400001928E-02 0.  1.
        1   -1    0    0  501    0  0.00000000000E+00  0.00000000000E+00 -0.21816891415E+04  0.21816891415E+04  0.50400001928E-02 0. -1.
    10030    2    1    2    0    0  0.00000000000E+00  0.00000000000E+00 -0.12815119541E+04  0.30818663288E+04  0.28027891786E+04 0.  0.
        3    1    3    3  502    0 -0.49643591785E+03 -0.13084298813E+04 -0.72207527168E+03  0.15747476252E+04  0.10100000352E+00 0. -1.
       -3    1    3    3    0  502  0.49643591785E+03  0.13084298813E+04 -0.55943668246E+03  0.15071187036E+04  0.10100000352E+00 0.  1.
</event>
<event>
 5   0  0.1923559E-05  0.3027883E+04  0.7818609E-02  0.8235813E-01
       -2   -1    0    0    0  501  0.00000000000E+00  0.00000000000E+00  0.10004122738E+04  0.10004122738E+04  0.25500000920E-02 0. -1.
        2   -1    0    0  501    0  0.00000000000E+00  0.00000000000E+00 -0.22910748988E+04  0.22910748988E+04  0.25500000920E-02 0.  1.
    10030    2    1    2    0    0  0.00000000000E+00  0.00000000000E+00 -0.12906626250E+04  0.32914871726E+04  0.30278833855E+04 0.  0.
        4    1    3    3  502    0 -0.72547863523E+03 -0.12393034783E+04 -0.11664685480E+04  0.18500926593E+04  0.12699999809E+01 0. -1.
       -4    1    3    3    0  502  0.72547863523E+03  0.12393034783E+04 -0.12419407699E+03  0.14413945134E+04  0.12699999809E+01 0.  1.
</event>
<event>
 5   0  0.7509685E-06  0.2864245E+04  0.7818609E-02  0.8283596E-01
       -1   -1    0    0    0  501  0.00000000000E+00  0.00000000000E+00  0.13400544080E+04  0.13400544080E+04  0.50400001928E-02 0.  1.
        1   -1    0    0  501    0  0.00000000000E+00  0.00000000000E+00 -0.15305163105E+04  0.15305163105E+04  0.50400001928E-02 0. -1.
    10030    2    1    2    0    0  0.00000000000E+00  0.00000000000E+00 -0.19046190244E+03  0.28705707185E+04  0.28642451909E+04 0.  0.
        4    1    3    3  502    0 -0.72107724446E+03 -0.79643149079E+03  0.85381229415E+03  0.13723164936E+04  0.12699999809E+01 0.  1.
       -4    1    3    3    0  502  0.72107724446E+03  0.79643149079E+03 -0.10442741966E+04  0.14982542249E+04  0.12699999809E+01 0. -1.
</event>
<event>
 5   0  0.1904553E-05  0.2777199E+04  0.7818609E-02  0.8310382E-01
       -2   -1    0    0    0  501  0.00000000000E+00  0.00000000000E+00  0.10441838769E+04  0.10441838769E+04  0.25500000920E-02 0.  1.
        2   -1    0    0  501    0  0.00000000000E+00  0.00000000000E+00 -0.18466174572E+04  0.18466174572E+04  0.25500000920E-02 0. -1.
    10030    2    1    2    0    0  0.00000000000E+00  0.00000000000E+00 -0.80243358027E+03  0.28908013342E+04  0.27771987150E+04 0.  0.
        1    1    3    3  502    0  0.65423026294E+03  0.74764270518E+03 -0.14110674877E+04  0.17257167515E+04  0.50400001928E-02 0. -1.
       -1    1    3    3    0  502 -0.65423026294E+03 -0.74764270518E+03  0.60863390739E+03  0.11650845827E+04  0.50400001928E-02 0.  1.
</event>
<event>
 5   0  0.7613444E-06  0.2771046E+04  0.7818609E-02  0.8312314E-01
        1   -1    0    0  501    0  0.00000000000E+00  0.00000000000E+00  0.99527478781E+03  0.99527478783E+03  0.50400001928E-02 0. -1.
       -1   -1    0    0    0  501  0.00000000000E+00  0.00000000000E+00 -0.19287873354E+04  0.19287873354E+04  0.50400001928E-02 0.  1.
    10030    2    1    2    0    0  0.00000000000E+00  0.00000000000E+00 -0.93351254762E+03  0.29240621233E+04  0.27710455832E+04 0.  0.
        5    1    3    3  502    0  0.35027809983E+03  0.12951449071E+04 -0.83161862020E+03  0.15785140788E+04  0.46999998093E+01 0.  1.
       -5    1    3    3    0  502 -0.35027809983E+03 -0.12951449071E+04 -0.10189392742E+03  0.13455480445E+04  0.46999998093E+01 0. -1.
</event>
<event>
 5   0  0.1874272E-05  0.2812245E+04  0.7818609E-02  0.8299477E-01
       -2   -1    0    0    0  501  0.00000000000E+00  0.00000000000E+00  0.12769264201E+04  0.12769264201E+04  0.25500000920E-02 0. -1.
        2   -1    0    0  501    0  0.00000000000E+00  0.00000000000E+00 -0.15483898422E+04  0.15483898422E+04  0.25500000920E-02 0.  1.
    10030    2    1    2    0    0  0.00000000000E+00  0.00000000000E+00 -0.27146342209E+03  0.28253162622E+04  0.28122445826E+04 0.  0.
        3    1    3    3  502    0  0.73663684433E+03  0.11096891949E+04 -0.58853269566E+03  0.14561643773E+04  0.10100000352E+00 0.  1.
       -3    1    3    3    0  502 -0.73663684433E+03 -0.11096891949E+04  0.31706927357E+03  0.13691518849E+04  0.10100000352E+00 0. -1.
</event>
<event>
 5   0  0.1904553E-05  0.2799546E+04  0.7818609E-02  0.8303409E-01
        2   -1    0    0  501    0  0.00000000000E+00  0.00000000000E+00  0.15526857560E+04  0.15526857560E+04  0.25500000920E-02 0. -1.
       -2   -1    0    0    0  501  0.00000000000E+00  0.00000000000E+00 -0.12619191141E+04  0.12619191141E+04  0.25500000920E-02 0.  1.
    10030    2    1    2    0    0  0.00000000000E+00  0.00000000000E+00  0.29076664190E+03  0.28146048702E+04  0.27995455587E+04 0.  0.
        1    1    3    3  502    0 -0.22545840413E+03 -0.42140950915E+03 -0.11773481946E+04  0.12706558297E+04  0.50400001928E-02 0.  1.
       -1    1    3    3    0  502  0.22545840413E+03  0.42140950915E+03  0.14681148365E+04  0.15439490404E+04  0.50400001928E-02 0. -1.
</event>
<event>
 5   0  0.7613444E-06  0.2737989E+04  0.7818609E-02  0.8322783E-01
        1   -1    0    0  501    0  0.00000000000E+00  0.00000000000E+00  0.24442232916E+04  0.24442232916E+04  0.50400001928E-02 0.  1.
       -1   -1    0    0    0  501  0.00000000000E+00  0.00000000000E+00 -0.76676550411E+03  0.76676550412E+03  0.50400001928E-02 0. -1.
    10030    2    1    2    0    0  0.00000000000E+00  0.00000000000E+00  0.16774577875E+04  0.32109887958E+04  0.27379891193E+04 0.  0.
        5    1    3    3  502    0 -0.80095126735E+03 -0.73760009816E+03  0.18118657546E+04  0.21138723803E+04  0.46999998093E+01 0.  1.
       -5    1    3    3    0  502  0.80095126735E+03  0.73760009816E+03 -0.13440796707E+03  0.10971164155E+04  0.46999998093E+01 0. -1.
</event>
<event>
 5   0  0.7681342E-06  0.2949169E+04  0.7818609E-02  0.8258397E-01
        1   -1    0    0  501    0  0.00000000000E+00  0.00000000000E+00  0.95422300132E+03  0.95422300133E+03  0.50400001928E-02 0.  1.
       -1   -1    0    0    0  501  0.00000000000E+00  0.00000000000E+00 -0.22787116786E+04  0.22787116786E+04  0.50400001928E-02 0. -1.
    10030    2    1    2    0    0  0.00000000000E+00  0.00000000000E+00 -0.13244886773E+04  0.32329346800E+04  0.29491687623E+04 0.  0.
        2    1    3    3  502    0 -0.62902531985E+03 -0.11380101948E+04  0.10012770082E+03  0.13041340471E+04  0.25500000920E-02 0.  1.
       -2    1    3    3    0  502  0.62902531985E+03  0.11380101948E+04 -0.14246163781E+04  0.19288006328E+04  0.25500000920E-02 0. -1.
</event>
<event>
 5   0  0.1832502E-05  0.2712499E+04  0.7818609E-02  0.8330961E-01
       -2   -1    0    0    0  501  0.00000000000E+00  0.00000000000E+00  0.16120358034E+04  0.16120358034E+04  0.25500000920E-02 0.  1.
        2   -1    0    0  501    0  0.00000000000E+00  0.00000000000E+00 -0.11410498115E+04  0.11410498115E+04  0.25500000920E-02 0. -1.
    10030    2    1    2    0    0  0.00000000000E+00  0.00000000000E+00  0.47098599189E+03  0.27530856148E+04  0.27124993268E+04 0.  0.
        2    1    3    3  502    0 -0.79010985894E+03 -0.70433394663E+03 -0.62516499518E+03  0.12293051569E+04  0.25500000920E-02 0. -1.
       -2    1    3    3    0  502  0.79010985894E+03  0.70433394663E+03  0.10961509871E+04  0.15237804579E+04  0.25500000920E-02 0.  1.
</event>
<event>
 5   0  0.1832502E-05  0.2922456E+04  0.7818609E-02  0.8266227E-01
       -2   -1    0    0    0  501  0.00000000000E+00  0.00000000000E+00  0.11728586754E+04  0.11728586754E+04  0.25500000920E-02 0. -1.
        2   -1    0    0  501    0  0.00000000000E+00  0.00000000000E+00 -0.18204978040E+04  0.18204978040E+04  0.25500000920E-02 0.  1.
    10030    2    1    2    0    0  0.00000000000E+00  0.00000000000E+00 -0.64763912862E+03  0.29933564794E+04  0.29224555723E+04 0.  0.
        2    1    3    3  502    0 -0.13663266661E+04  0.51703009827E+03 -0.35649913290E+03  0.15037487532E+04  0.25500000920E-02 0. -1.
       -2    1    3    3    0  502  0.13663266661E+04 -0.51703009827E+03 -0.29113999572E+03  0.14896077262E+04  0.25500000920E-02 0.  1.
</event>
<event>
 5   0  0.7555871E-06  0.2570286E+04  0.7818609E-02  0.8378365E-01
        1   -1    0    0  501    0  0.00000000000E+00  0.00000000000E+00  0.93760826540E+03  0.93760826541E+03  0.50400001928E-02 0. -1.
       -1   -1    0    0    0  501  0.00000000000E+00  0.00000000000E+00 -0.17614952383E+04  0.17614952383E+04  0.50400001928E-02 0.  1.
    10030    2    1    2    0    0  0.00000000000E+00  0.00000000000E+00 -0.82388697289E+03  0.26991035037E+04  0.25702859723E+04 0.  0.
        3    1    3    3  502    0 -0.10110906697E+04 -0.39307312702E+03 -0.11355209966E+04  0.15704199341E+04  0.10100000352E+00 0.  1.
       -3    1    3    3    0  502  0.10110906697E+04  0.39307312702E+03  0.31163402366E+03  0.11286835696E+04  0.10100000352E+00 0. -1.
</event>
<event>
 5   0  0.7681342E-06  0.2835184E+04  0.7818609E-02  0.8292428E-01
        1   -1    0    0  501    0  0.00000000000E+00  0.00000000000E+00  0.14894765617E+04  0.14894765617E+04  0.50400001928E-02 0. -1.
       -1   -1    0    0    0  501  0.00000000000E+00  0.00000000000E+00 -0.13491764411E+04  0.13491764411E+04  0.50400001928E-02 0.  1.
    10030    2    1    2    0    0  0.00000000000E+00  0.00000000000E+00  0.14030012057E+03  0.28386530028E+04  0.28351837236E+04 0.  0.
        2    1    3    3  502    0 -0.95938404245E+03 -0.73893873099E+03 -0.66771746664E+03  0.13828574779E+04  0.25500000920E-02 0.  1.
       -2    1    3    3    0  502  0.95938404245E+03  0.73893873099E+03  0.80801758720E+03  0.14557955249E+04  0.25500000920E-02 0. -1.
</event>
<event>
 5   0  0.1904553E-05  0.2794176E+04  0.7818609E-02  0.8305079E-01
        2   -1    0    0  501    0  0.00000000000E+00  0.00000000000E+00  0.14357826419E+04  0.14357826419E+04  0.25500000920E-02 0.  1.
       -2   -1    0    0    0  501  0.00000000000E+00  0.00000000000E+00 -0.13594359512E+04  0.13594359512E+04  0.25500000920E-02 0. -1.
    10030    2    1    2    0    0  0.00000000000E+00  0.00000000000E+00  0.76346690661E+02  0.27952185931E+04  0.27941757579E+04 0.  0.
        1    1    3    3  502    0 -0.13394634750E+04  0.35984014586E+03  0.20618604963E+03  0.14021982807E+04  0.50400001928E-02 0.  1.
       -1    1    3    3    0  502  0.13394634750E+04 -0.35984014586E+03 -0.12983935897E+03  0.13930203123E+04  0.50400001928E-02 0. -1.
</event>
<event>
 5   0  0.7509685E-06  0.2874954E+04  0.7818609E-02  0.8280369E-01
        1   -1    0    0  501    0  0.00000000000E+00  0.00000000000E+00  0.12219869324E+04  0.12219869324E+04  0.50400001928E-02 0. -1.
       -1   -1    0    0    0  501  0.00000000000E+00  0.00000000000E+00 -0.16909672171E+04  0.16909672171E+04  0.50400001928E-02 0.  1.
    10030    2    1    2    0    0  0.00000000000E+00  0.00000000000E+00 -0.46898028466E+03  0.29129541496E+04  0.28749538031E+04 0.  0.
        4    1    3    3  502    0 -0.18760147735E+03 -0.76952847467E+03 -0.14499164276E+04  0.16521584813E+04  0.12699999809E+01 0.  1.
       -4    1    3    3    0  502  0.18760147735E+03  0.76952847467E+03  0.98093614291E+03  0.12607956682E+04  0.12699999809E+01 0. -1.
</event>
<event>
 5   0  0.1904553E-05  0.2681542E+04  0.7818609E-02  0.8341019E-01
        2   -1    0    0  501    0  0.00000000000E+00  0.00000000000E+00  0.14806670674E+04  0.14806670674E+04  0.25500000920E-02 0. -1.
       -2   -1    0    0    0  501  0.00000000000E+00  0.00000000000E+00 -0.12140922241E+04  0.12140922241E+04  0.25500000920E-02 0.  1.
    10030    2    1    2    0    0  0.00000000000E+00  0.00000000000E+00  0.26657484332E+03  0.26947592915E+04  0.26815416260E+04 0.  0.
        1    1    3    3  502    0  0.58332879467E+03 -0.69272048504E+03  0.11268631540E+04  0.14456675693E+04  0.50400001928E-02 0. -1.
       -1    1    3    3    0  502 -0.58332879467E+03  0.69272048504E+03 -0.86028831066E+03  0.12490917222E+04  0.50400001928E-02 0.  1.
</event>
<event>
 5   0  0.7388013E-06  0.2812037E+04  0.7818609E-02  0.8299541E-01
       -1   -1    0    0    0  501  0.00000000000E+00  0.00000000000E+00  0.92129437883E+03  0.92129437885E+03  0.50400001928E-02 0.  1.
        1   -1    0    0  501    0  0.00000000000E+00  0.00000000000E+00 -0.21457720748E+04  0.21457720748E+04  0.50400001928E-02 0. -1.
    10030    2    1    2    0    0  0.00000000000E+00  0.00000000000E+00 -0.12244776960E+04  0.30670664537E+04  0.28120368069E+04 0.  0.
        1    1    3    3  502    0 -0.13408569307E+04  0.39004969182E+03 -0.43351277311E+03  0.14621796726E+04  0.50400001928E-02 0.  1.
       -1    1    3    3    0  502  0.13408569307E+04 -0.39004969182E+03 -0.79096492286E+03  0.16048867810E+04  0.50400001928E-02 0. -1.
</event>
<event>
 5   0  0.1923559E-05  0.2801083E+04  0.7818609E-02  0.8302932E-01
       -2   -1    0    0    0  501  0.00000000000E+00  0.00000000000E+00  0.11374901612E+04  0.11374901612E+04  0.25500000920E-02 0.  1.
        2   -1    0    0  501    0  0.00000000000E+00  0.00000000000E+00 -0.17244249474E+04  0.17244249474E+04  0.25500000920E-02 0. -1.
    10030    2    1    2    0    0  0.00000000000E+00  0.00000000000E+00 -0.58693478623E+03  0.28619151086E+04  0.28010829416E+04 0.  0.
        4    1    3    3  502    0 -0.66167847180E+03 -0.60417187011E+02 -0.15531442987E+04  0.16892979199E+04  0.12699999809E+01 0. -1.
       -4    1    3    3    0  502  0.66167847180E+03  0.60417187011E+02  0.96620951248E+03  0.11726171888E+04  0.12699999809E+01 0.  1.
</event>
<event>
 5   0  0.1874272E-05  0.2788403E+04  0.7818609E-02  0.8306878E-01
        2   -1    0    0  501    0  0.00000000000E+00  0.00000000000E+00  0.24425682892E+04  0.24425682892E+04  0.25500000920E-02 0.  1.
       -2   -1    0    0    0  501  0.00000000000E+00  0.00000000000E+00 -0.79580065223E+03  0.79580065224E+03  0.25500000920E-02 0. -1.
    10030    2    1    2    0    0  0.00000000000E+00  0.00000000000E+00  0.16467676370E+04  0.32383689414E+04  0.27884027239E+04 0.  0.
        3    1    3    3  502    0  0.12062836061E+04 -0.41946473199E+03  0.17392254744E+03  0.12889219769E+04  0.10100000352E+00 0. -1.
       -3    1    3    3    0  502 -0.12062836061E+04  0.41946473199E+03  0.14728450895E+04  0.19494469646E+04  0.10100000352E+00 0.  1.
</event>
<event>
 5   0  0.1832502E-05  0.2814704E+04  0.7818609E-02  0.8298718E-01
       -2   -1    0    0    0  501  0.00000000000E+00  0.00000000000E+00  0.64930264668E+03  0.64930264669E+03  0.25500000920E-02 0.  1.
        2   -1    0    0  501    0  0.00000000000E+00  0.00000000000E+00 -0.30504103892E+04  0.30504103892E+04  0.25500000920E-02 0. -1.
    10030    2    1    2    0    0  0.00000000000E+00  0.00000000000E+00 -0.24011077425E+04  0.36997130359E+04  0.28147039199E+04 0.  0.
        2    1    3    3  502    0 -0.11054319469E+04 -0.12856089865E+02 -0.23453061891E+04  0.25927989102E+04  0.25500000920E-02 0.  1.
       -2    1    3    3    0  502  0.11054319469E+04  0.12856089865E+02 -0.55801553421E+02  0.11069141257E+04  0.25500000920E-02 0. -1.
</event>
<event>
 5   0  0.1904553E-05  0.1909808E+04  0.7818609E-02  0.8649990E-01
       -2   -1    0    0    0  501  0.00000000000E+00  0.00000000000E+00  0.38680550768E+03  0.38680550769E+03  0.25500000920E-02 0.  1.
        2   -1    0    0  501    0  0.00000000000E+00  0.00000000000E+00 -0.23573654610E+04  0.23573654610E+04  0.25500000920E-02 0. -1.
    10030    2    1    2    0    0  0.00000000000E+00  0.00000000000E+00 -0.19705599533E+04  0.27441709687E+04  0.19098083086E+04 0.  0.
        1    1    3    3  502    0 -0.43898166181E+03  0.84799074106E+03 -0.99531221848E+03  0.13792895304E+04  0.50400001928E-02 0.  1.
       -1    1    3    3    0  502  0.43898166181E+03 -0.84799074106E+03 -0.97524773483E+03  0.13648814383E+04  0.50400001928E-02 0. -1.
</event>
<event>
 5   0  0.7509685E-06  0.2764461E+04  0.7818609E-02  0.8314387E-01
       -1   -1    0    0    0  501  0.00000000000E+00  0.00000000000E+00  0.11873643260E+04  0.11873643260E+04  0.50400001928E-02 0.  1.
        1   -1    0    0  501    0  0.00000000000E+00  0.00000000000E+00 -0.16090777354E+04  0.16090777354E+04  0.50400001928E-02 0. -1.
    10030    2    1    2    0    0  0.00000000000E+00  0.00000000000E+00 -0.42171340947E+03  0.27964420614E+04  0.27644612500E+04 0.  0.
        4    1    3    3  502    0 -0.12004083195E+04  0.86016615766E+02  0.47684692115E+03  0.12945128778E+04  0.12699999809E+01 0.  1.
       -4    1    3    3    0  502  0.12004083195E+04 -0.86016615766E+02 -0.89856033062E+03  0.15019291836E+04  0.12699999809E+01 0. -1.
</event>
<event>
 5   0  0.1832502E-05  0.2842286E+04  0.7818609E-02  0.8290259E-01
        2   -1    0    0  501    0  0.00000000000E+00  0.00000000000E+00  0.17257684276E+04  0.17257684276E+04  0.25500000920E-02 0.  1.
       -2   -1    0    0    0  501  0.00000000000E+00  0.00000000000E+00 -0.11702886038E+04  0.11702886038E+04  0.25500000920E-02 0. -1.
    10030    2    1    2    0    0  0.00000000000E+00  0.00000000000E+00  0.55547982374E+03  0.28960570314E+04  0.28422857869E+04 0.  0.
        2    1    3    3  502    0  0.58197420512E+02  0.86103151063E+03 -0.87272892435E+03  0.12273622030E+04  0.25500000920E-02 0. -1.
       -2    1    3    3    0  502 -0.58197420512E+02 -0.86103151063E+03  0.14282087481E+04  0.16686948284E+04  0.25500000920E-02 0.  1.
</event>
<event>
 5   0  0.7613444E-06  0.2852380E+04  0.7818609E-02  0.8287188E-01
        1   -1    0    0  501    0  0.00000000000E+00  0.00000000000E+00  0.21986401977E+04  0.21986401977E+04  0.50400001928E-02 0. -1.
       -1   -1    0    0    0  501  0.00000000000E+00  0.00000000000E+00 -0.92512564743E+03  0.92512564745E+03  0.50400001928E-02 0.  1.
    10030    2    1    2    0    0  0.00000000000E+00  0.00000000000E+00  0.12735145502E+04  0.31237658451E+04  0.28523803648E+04 0.  0.
        5    1    3    3  502    0  0.11366873431E+03  0.26855988138E+03  0.21656307067E+04  0.21851827015E+04  0.46999998093E+01 0. -1.
       -5    1    3    3    0  502 -0.11366873431E+03 -0.26855988138E+03 -0.89211615643E+03  0.93858314368E+03  0.46999998093E+01 0.  1.
</event>
<event>
 5   0  0.7509685E-06  0.2931449E+04  0.7818609E-02  0.8263581E-01
       -1   -1    0    0    0  501  0.00000000000E+00  0.00000000000E+00  0.17480836701E+04  0.17480836701E+04  0.50400001928E-02 0. -1.
        1   -1    0    0  501    0  0.00000000000E+00  0.00000000000E+00 -0.12289736787E+04  0.12289736787E+04  0.50400001928E-02 0.  1.
    10030    2    1    2    0    0  0.00000000000E+00  0.00000000000E+00  0.51910999139E+03  0.29770573489E+04  0.29314493472E+04 0.  0.
        4    1    3    3  502    0  0.12974536501E+04  0.50982345791E+02  0.95010620225E+03  0.16089402046E+04  0.12699999809E+01 0.  1.
       -4    1    3    3    0  502 -0.12974536501E+04 -0.50982345791E+02 -0.43099621086E+03  0.13681171442E+04  0.12699999809E+01 0. -1.
</event>
<event>
 5   0  0.7681342E-06  0.2802639E+04  0.7818609E-02  0.8302450E-01
        1   -1    0    0  501    0  0.00000000000E+00  0.00000000000E+00  0.15208825708E+04  0.15208825708E+04  0.50400001928E-02 0.  1.
       -1   -1    0    0    0  501  0.00000000000E+00  0.00000000000E+00 -0.12911558047E+04  0.12911558047E+04  0.50400001928E-02 0. -1.
    10030    2    1    2    0    0  0.00000000000E+00  0.00000000000E+00  0.22972676611E+03  0.28120383754E+04  0.28026390131E+04 0.  0.
        2    1    3    3  502    0  0.10424848032E+04 -0.74822222663E+03  0.67985516436E+03  0.14521756470E+04  0.25500000920E-02 0.  1.
       -2    1    3    3    0  502 -0.10424848032E+04  0.74822222663E+03 -0.45012839824E+03  0.13598627284E+04  0.25500000920E-02 0. -1.
</event>
<event>
 5   0  0.7613444E-06  0.2814692E+04  0.7818609E-02  0.8298721E-01
        1   -1    0    0  501    0  0.00000000000E+00  0.00000000000E+00  0.17205445877E+04  0.17205445877E+04  0.50400001928E-02 0. -1.
       -1   -1    0    0    0  501  0.00000000000E+00  0.00000000000E+00 -0.11511605665E+04  0.11511605665E+04  0.50400001928E-02 0.  1.
    10030    2    1    2    0    0  0.00000000000E+00  0.00000000000E+00  0.56938402119E+03  0.28717051542E+04  0.28146922263E+04 0.  0.
        5    1    3    3  502    0 -0.80124304537E+03  0.92376755415E+03 -0.42602712198E+03  0.12949355623E+04  0.46999998093E+01 0.  1.
       -5    1    3    3    0  502  0.80124304537E+03 -0.92376755415E+03  0.99541114317E+03  0.15767695919E+04  0.46999998093E+01 0. -1.
</event>
<event>
 5   0  0.1874272E-05  0.2689448E+04  0.7818609E-02  0.8338437E-01
       -2   -1    0    0    0  501  0.00000000000E+00  0.00000000000E+00  0.22131020072E+04  0.22131020072E+04  0.25500000920E-02 0. -1.
        2   -1    0    0  501    0  0.00000000000E+00  0.00000000000E+00 -0.81708050435E+03  0.81708050436E+03  0.25500000920E-02 0.  1.
    10030    2    1    2    0    0  0.00000000000E+00  0.00000000000E+00  0.13960215028E+04  0.30301825115E+04  0.26894479019E+04 0.  0.
        3    1    3    3  502    0 -0.63872218526E+03 -0.50947333743E+03 -0.50536577063E+03  0.96068917129E+03  0.10100000352E+00 0.  1.
       -3    1    3    3    0  502  0.63872218526E+03  0.50947333743E+03  0.19013872735E+04  0.20694933403E+04  0.10100000352E+00 0. -1.
</event>
<event>
 5   0  0.1923559E-05  0.2576425E+04  0.7818609E-02  0.8376253E-01
        2   -1    0    0  501    0  0.00000000000E+00  0.00000000000E+00  0.20987557900E+04  0.20987557900E+04  0.25500000920E-02 0. -1.
       -2   -1    0    0    0  501  0.00000000000E+00  0.00000000000E+00 -0.79070268824E+03  0.79070268824E+03  0.25500000920E-02 0.  1.
    10030    2    1    2    0    0  0.00000000000E+00  0.00000000000E+00  0.13080531018E+04  0.28894584782E+04  0.25764253105E+04 0.  0.
        4    1    3    3  502    0 -0.62369901889E+03 -0.11242104829E+04  0.56263603441E+03  0.14033569026E+04  0.12699999809E+01 0. -1.
       -4    1    3    3    0  502  0.62369901889E+03  0.11242104829E+04  0.74541706736E+03  0.14861015757E+04  0.12699999809E+01 0.  1.
</event>
<event>
 5   0  0.1874272E-05  0.2765548E+04  0.7818609E-02  0.8314045E-01
        2   -1    0    0  501    0  0.00000000000E+00  0.00000000000E+00  0.29493643972E+04  0.29493643972E+04  0.25500000920E-02 0.  1.
       -2   -1    0    0    0  501  0.00000000000E+00  0.00000000000E+00 -0.64829689508E+03  0.64829689508E+03  0.25500000920E-02 0. -1.
    10030    2    1    2    0    0  0.00000000000E+00  0.00000000000E+00  0.23010675021E+04  0.35976612922E+04  0.27655478887E+04 0.  0.
        3    1    3    3  502    0 -0.33007128043E+03 -0.98503172762E+03 -0.36647601764E+02  0.10395083509E+04  0.10100000352E+00 0. -1.
       -3    1    3    3    0  502  0.33007128043E+03  0.98503172762E+03  0.23377151038E+04  0.25581529414E+04  0.10100000352E+00 0.  1.
</event>
<event>
 5   0  0.7681342E-06  0.2703618E+04  0.7818609E-02  0.8333832E-01
        1   -1    0    0  501    0  0.00000000000E+00  0.00000000000E+00  0.17733138205E+04  0.17733138205E+04  0.50400001928E-02 0.  1.
       -1   -1    0    0    0  501  0.00000000000E+00  0.00000000000E+00 -0.10304930815E+04  0.10304930816E+04  0.50400001928E-02 0. -1.
    10030    2    1    2    0    0  0.00000000000E+00  0.00000000000E+00  0.74282073893E+03  0.28038069020E+04  0.27036180377E+04 0.  0.
        2    1    3    3  502    0  0.75239455071E+03  0.71031010225E+03  0.12735606149E+04  0.16409127464E+04  0.25500000920E-02 0.  1.
       -2    1    3    3    0  502 -0.75239455071E+03 -0.71031010225E+03 -0.53073987601E+03  0.11628941557E+04  0.25500000920E-02 0. -1.
</event>
<event>
 5   0  0.7681342E-06  0.2814729E+04  0.7818609E-02  0.8298710E-01
        1   -1    0    0  501    0  0.00000000000E+00  0.00000000000E+00  0.14314371644E+04  0.14314371645E+04  0.50400001928E-02 0. -1.
       -1   -1    0    0    0  501  0.00000000000E+00  0.00000000000E+00 -0.13836965971E+04  0.13836965971E+04  0.50400001928E-02 0.  1.
    10030    2    1    2    0    0  0.00000000000E+00  0.00000000000E+00  0.47740567380E+02  0.28151337615E+04  0.28147289272E+04 0.  0.
        2    1    3    3  502    0 -0.28667625259E+03 -0.52203273879E+02 -0.13531960336E+04  0.13842138422E+04  0.25500000920E-02 0.  1.
       -2    1    3    3    0  502  0.28667625259E+03  0.52203273879E+02  0.14009366010E+04  0.14309199193E+04  0.25500000920E-02 0. -1.
</event>
<event>
 5   0  0.7509685E-06  0.2810441E+04  0.7818609E-02  0.8300034E-01
       -1   -1    0    0    0  501  0.00000000000E+00  0.00000000000E+00  0.15293531130E+04  0.15293531130E+04  0.50400001928E-02 0.  1.
        1   -1    0    0  501    0  0.00000000000E+00  0.00000000000E+00 -0.12911632546E+04  0.12911632547E+04  0.50400001928E-02 0. -1.
    10030    2    1    2    0    0  0.00000000000E+00  0.00000000000E+00  0.23818985833E+03  0.28205163676E+04  0.28104409212E+04 0.  0.
        4    1    3    3  502    0  0.26877469274E+03  0.66481411526E+02 -0.12635171898E+04  0.12934979379E+04  0.12699999809E+01 0. -1.
       -4    1    3    3    0  502 -0.26877469274E+03 -0.66481411526E+02  0.15017070481E+04  0.15270184298E+04  0.12699999809E+01 0.  1.
</event>
<event>
 5   0  0.7555871E-06  0.1812770E+04  0.7818609E-02  0.8699538E-01
        1   -1    0    0  501    0  0.00000000000E+00  0.00000000000E+00  0.11214855469E+04  0.11214855469E+04  0.50400001928E-02 0. -1.
       -1   -1    0    0    0  501  0.00000000000E+00  0.00000000000E+00 -0.73254051096E+03  0.73254051097E+03  0.50400001928E-02 0.  1.
    10030    2    1    2    0    0  0.00000000000E+00  0.00000000000E+00  0.38894503592E+03  0.18540260579E+04  0.18127698095E+04 0.  0.
        3    1    3    3  502    0  0.35379114887E+03  0.56471588435E+03 -0.43388878962E+03  0.79519286906E+03  0.10100000352E+00 0.  1.
       -3    1    3    3    0  502 -0.35379114887E+03 -0.56471588435E+03  0.82283382553E+03  0.10588331888E+04  0.10100000352E+00 0. -1.
</event>
<event>
 5   0  0.1923559E-05  0.2797508E+04  0.7818609E-02  0.8304043E-01
       -2   -1    0    0    0  501  0.00000000000E+00  0.00000000000E+00  0.15915600083E+04  0.15915600083E+04  0.25500000920E-02 0. -1.
        2   -1    0    0  501    0  0.00000000000E+00  0.00000000000E+00 -0.12293046794E+04  0.12293046794E+04  0.25500000920E-02 0.  1.
    10030    2    1    2    0    0  0.00000000000E+00  0.00000000000E+00  0.36225532883E+03  0.28208646877E+04  0.27975075805E+04 0.  0.
        4    1    3    3  502    0 -0.21383440838E+03  0.26228510377E+03 -0.11874039768E+04  0.12346855660E+04  0.12699999809E+01 0.  1.
       -4    1    3    3    0  502  0.21383440838E+03 -0.26228510377E+03  0.15496593056E+04  0.15861791217E+04  0.12699999809E+01 0. -1.
</event>
<event>
 5   0  0.1814230E-05  0.2586844E+04  0.7818609E-02  0.8372684E-01
       -2   -1    0    0    0  501  0.00000000000E+00  0.00000000000E+00  0.15670986573E+04  0.15670986573E+04  0.25500000920E-02 0. -1.
        2   -1    0    0  501    0  0.00000000000E+00  0.00000000000E+00 -0.10675401649E+04  0.10675401649E+04  0.25500000920E-02 0.  1.
    10030    2    1    2    0    0  0.00000000000E+00  0.00000000000E+00  0.49955849236E+03  0.26346388222E+04  0.25868442234E+04 0.  0.
        5    1    3    3  502    0 -0.40610302613E+03 -0.63008905781E+03 -0.82372868114E+03  0.11137696884E+04  0.46999998093E+01 0.  1.
       -5    1    3    3    0  502  0.40610302613E+03  0.63008905781E+03  0.13232871735E+04  0.15208691338E+04  0.46999998093E+01 0. -1.
</event>
<event>
 5   0  0.7613444E-06  0.2756364E+04  0.7818609E-02  0.8316945E-01
        1   -1    0    0  501    0  0.00000000000E+00  0.00000000000E+00  0.19322138709E+04  0.19322138710E+04  0.50400001928E-02 0.  1.
       -1   -1    0    0    0  501  0.00000000000E+00  0.00000000000E+00 -0.98301031343E+03  0.98301031344E+03  0.50400001928E-02 0. -1.
    10030    2    1    2    0    0  0.00000000000E+00  0.00000000000E+00  0.94920355751E+03  0.29152241844E+04  0.27563643902E+04 0.  0.
        5    1    3    3  502    0 -0.41526656741E+03  0.10453932693E+04  0.13167802934E+04  0.17318273126E+04  0.46999998093E+01 0.  1.
       -5    1    3    3    0  502  0.41526656741E+03 -0.10453932693E+04 -0.36757673592E+03  0.11833968718E+04  0.46999998093E+01 0. -1.
</event>
<event>
 5   0  0.1904553E-05  0.2877040E+04  0.7818609E-02  0.8279742E-01
        2   -1    0    0  501    0  0.00000000000E+00  0.00000000000E+00  0.20787290452E+04  0.20787290452E+04  0.25500000920E-02 0.  1.
       -2   -1    0    0    0  501  0.00000000000E+00  0.00000000000E+00 -0.99548300418E+03  0.99548300418E+03  0.25500000920E-02 0. -1.
    10030    2    1    2    0    0  0.00000000000E+00  0.00000000000E+00  0.10832460410E+04  0.30742120493E+04  0.28770397528E+04 0.  0.
        1    1    3    3  502    0  0.11128599576E+04 -0.17559160616E+03 -0.41413169903E+03  0.12003311050E+04  0.50400001928E-02 0. -1.
       -1    1    3    3    0  502 -0.11128599576E+04  0.17559160616E+03  0.14973777400E+04  0.18738809444E+04  0.50400001928E-02 0.  1.
</event>
<event>
 5   0  0.1832502E-05  0.3034419E+04  0.7818609E-02  0.8233970E-01
       -2   -1    0    0    0  501  0.00000000000E+00  0.00000000000E+00  0.11252815037E+04  0.11252815037E+04  0.25500000920E-02 0.  1.
        2   -1    0    0  501    0  0.00000000000E+00  0.00000000000E+00 -0.20456428779E+04  0.20456428779E+04  0.25500000920E-02 0. -1.
    10030    2    1    2    0    0  0.00000000000E+00  0.00000000000E+00 -0.92036137422E+03  0.31709243816E+04  0.30344186222E+04 0.  0.
        2    1    3    3  502    0 -0.79472130182E+03 -0.21251224352E+03  0.87199412320E+03  0.11987982116E+04  0.25500000920E-02 0.  1.
       -2    1    3    3    0  502  0.79472130182E+03  0.21251224352E+03 -0.17923554974E+04  0.19721261700E+04  0.25500000920E-02 0. -1.
</event>
<event>
 5   0  0.1832502E-05  0.2415235E+04  0.7818609E-02  0.8433822E-01
        2   -1    0    0  501    0  0.00000000000E+00  0.00000000000E+00  0.17286197457E+04  0.17286197457E+04  0.25500000920E-02 0.  1.
       -2   -1    0    0    0  501  0.00000000000E+00  0.00000000000E+00 -0.84364407692E+03  0.84364407693E+03  0.25500000920E-02 0. -1.
    10030    2    1    2    0    0  0.00000000000E+00  0.00000000000E+00  0.88497566876E+03  0.25722638226E+04  0.24152348206E+04 0.  0.
        2    1    3    3  502    0 -0.10289521429E+04  0.11333769977E+03 -0.21983900710E+03  0.10582613740E+04  0.25500000920E-02 0. -1.
       -2    1    3    3    0  502  0.10289521429E+04 -0.11333769977E+03  0.11048146759E+04  0.15140024487E+04  0.25500000920E-02 0.  1.
</event>
<event>
 5   0  0.7509685E-06  0.2812981E+04  0.7818609E-02  0.8299250E-01
        1   -1    0    0  501    0  0.00000000000E+00  0.00000000000E+00  0.19654673502E+04  0.19654673502E+04  0.50400001928E-02 0. -1.
       -1   -1    0    0    0  501  0.00000000000E+00  0.00000000000E+00 -0.10064859267E+04  0.10064859267E+04  0.50400001928E-02 0.  1.
    10030    2    1    2    0    0  0.00000000000E+00  0.00000000000E+00  0.95898142349E+03  0.29719532769E+04  0.28129807873E+04 0.  0.
        4    1    3    3  502    0  0.15186464356E+03 -0.63634335210E+03  0.17949323442E+04  0.19104395999E+04  0.12699999809E+01 0. -1.
       -4    1    3    3    0  502 -0.15186464356E+03  0.63634335210E+03 -0.83595092072E+03  0.10615136770E+04  0.12699999809E+01 0.  1.
</event>
<event>
 5   0  0.7388013E-06  0.2748422E+04  0.7818609E-02  0.8319463E-01
       -1   -1    0    0    0  501  0.00000000000E+00  0.00000000000E+00  0.88293722482E+03  0.88293722484E+03  0.50400001928E-02 0.  1.
        1   -1    0    0  501    0  0.00000000000E+00  0.00000000000E+00 -0.21388330536E+04  0.21388330536E+04  0.50400001928E-02 0. -1.
    10030    2    1    2    0    0  0.00000000000E+00  0.00000000000E+00 -0.12558958287E+04  0.30217702784E+04  0.27484215985E+04 0.  0.
        1    1    3    3  502    0 -0.21480499901E+03  0.44290499684E+03  0.78268074444E+03  0.92460541399E+03  0.50400001928E-02 0.  1.
       -1    1    3    3    0  502  0.21480499901E+03 -0.44290499684E+03 -0.20385765732E+04  0.20971648644E+04  0.50400001928E-02 0. -1.
</event>
<event>
 5   0  0.1814230E-05  0.2791637E+04  0.7818609E-02  0.8305869E-01
        2   -1    0    0  501    0  0.00000000000E+00  0.00000000000E+00  0.13593625887E+04  0.13593625887E+04  0.25500000920E-02 0. -1.
       -2   -1    0    0    0  501  0.00000000000E+00  0.00000000000E+00 -0.14332520926E+04  0.14332520926E+04  0.25500000920E-02 0.  1.
    10030    2    1    2    0    0  0.00000000000E+00  0.00000000000E+00 -0.73889503901E+02  0.27926146813E+04  0.27916369928E+04 0.  0.
        5    1    3    3  502    0 -0.11905105927E+04 -0.70586795321E+03 -0.21790074132E+03  0.14010952365E+04  0.46999998093E+01 0.  1.
       -5    1    3    3    0  502  0.11905105927E+04  0.70586795321E+03  0.14401123742E+03  0.13915194448E+04  0.46999998093E+01 0. -1.
</event>
<event>
 5   0  0.7613444E-06  0.2003727E+04  0.7818609E-02  0.8604880E-01
       -1   -1    0    0    0  501  0.00000000000E+00  0.00000000000E+00  0.48278101596E+03  0.48278101599E+03  0.50400001928E-02 0. -1.
        1   -1    0    0  501    0  0.00000000000E+00  0.00000000000E+00 -0.20790603580E+04  0.20790603580E+04  0.50400001928E-02 0.  1.
    10030    2    1    2    0    0  0.00000000000E+00  0.00000000000E+00 -0.15962793420E+04  0.25618413740E+04  0.20037273985E+04 0.  0.
        5    1    3    3  502    0  0.12943612929E+03  0.32485035073E+03  0.40220744208E+03  0.53298628350E+03  0.46999998093E+01 0. -1.
       -5    1    3    3    0  502 -0.12943612929E+03 -0.32485035073E+03 -0.19984867841E+04  0.20288550905E+04  0.46999998093E+01 0.  1.
</event>
<event>
 5   0  0.1832502E-05  0.2708631E+04  0.7818609E-02  0.8332210E-01
        2   -1    0    0  501    0  0.00000000000E+00  0.00000000000E+00  0.12511246380E+04  0.12511246380E+04  0.25500000920E-02 0. -1.
       -2   -1    0    0    0  501  0.00000000000E+00  0.00000000000E+00 -0.14660175066E+04  0.14660175066E+04  0.25500000920E-02 0.  1.
    10030    2    1    2    0    0  0.00000000000E+00  0.00000000000E+00 -0.21489286858E+03  0.27171421447E+04  0.27086311099E+04 0.  0.
        2    1    3    3  502    0  0.52136831209E+03 -0.62126056473E+03 -0.11954654862E+04  0.14446201352E+04  0.25500000920E-02 0.  1.
       -2    1    3    3    0  502 -0.52136831209E+03  0.62126056473E+03  0.98057261766E+03  0.12725220095E+04  0.25500000920E-02 0. -1.
</event>
<event>
 5   0  0.1923559E-05  0.2243224E+04  0.7818609E-02  0.8500650E-01
       -2   -1    0    0    0  501  0.00000000000E+00  0.00000000000E+00  0.10456012364E+04  0.10456012364E+04  0.25500000920E-02 0.  1.
        2   -1    0    0  501    0  0.00000000000E+00  0.00000000000E+00 -0.12031484027E+04  0.12031484027E+04  0.25500000920E-02 0. -1.
    10030    2    1    2    0    0  0.00000000000E+00  0.00000000000E+00 -0.15754716625E+03  0.22487496391E+04  0.22432239812E+04 0.  0.
        4    1    3    3  502    0 -0.61069064859E+03  0.94011367648E+03 -0.43259610923E+02  0.11218867143E+04  0.12699999809E+01 0.  1.
       -4    1    3    3    0  502  0.61069064859E+03 -0.94011367648E+03 -0.11428755533E+03  0.11268629248E+04  0.12699999809E+01 0. -1.
</event>
<event>
 5   0  0.7509685E-06  0.2799533E+04  0.7818609E-02  0.8303413E-01
       -1   -1    0    0    0  501  0.00000000000E+00  0.00000000000E+00  0.11300660826E+04  0.11300660826E+04  0.50400001928E-02 0. -1.
        1   -1    0    0  501    0  0.00000000000E+00  0.00000000000E+00 -0.17338335849E+04  0.17338335849E+04  0.50400001928E-02 0.  1.
    10030    2    1    2    0    0  0.00000000000E+00  0.00000000000E+00 -0.60376750232E+03  0.28638996675E+04  0.27995331948E+04 0.  0.
        4    1    3    3  502    0  0.13171765586E+04  0.68372242630E+02  0.17763222699E+03  0.13308582460E+04  0.12699999809E+01 0.  1.
       -4    1    3    3    0  502 -0.13171765586E+04 -0.68372242630E+02 -0.78139972932E+03  0.15330414215E+04  0.12699999809E+01 0. -1.
</event>
<event>
 5   0  0.1814230E-05  0.2786953E+04  0.7818609E-02  0.8307330E-01
       -2   -1    0    0    0  501  0.00000000000E+00  0.00000000000E+00  0.11079191677E+04  0.11079191677E+04  0.25500000920E-02 0. -1.
        2   -1    0    0  501    0  0.00000000000E+00  0.00000000000E+00 -0.17526340999E+04  0.17526340999E+04  0.25500000920E-02 0.  1.
    10030    2    1    2    0    0  0.00000000000E+00  0.00000000000E+00 -0.64471493228E+03  0.28605532676E+04  0.27869531128E+04 0.  0.
        5    1    3    3  502    0 -0.51193513806E+03  0.89610039158E+03  0.63868207114E+03  0.12136763882E+04  0.46999998093E+01 0. -1.
       -5    1    3    3    0  502  0.51193513806E+03 -0.89610039158E+03 -0.12833970034E+04  0.16468768794E+04  0.46999998093E+01 0.  1.
</event>
<event>
 5   0  0.1874272E-05  0.2811466E+04  0.7818609E-02  0.8299717E-01
        2   -1    0    0  501    0  0.00000000000E+00  0.00000000000E+00  0.17513560737E+04  0.17513560737E+04  0.25500000920E-02 0. -1.
       -2   -1    0    0    0  501  0.00000000000E+00  0.00000000000E+00 -0.11283175954E+04  0.11283175954E+04  0.25500000920E-02 0.  1.
    10030    2    1    2    0    0  0.00000000000E+00  0.00000000000E+00  0.62303847826E+03  0.28796736691E+04  0.28114664314E+04 0.  0.
        3    1    3    3  502    0 -0.67928088056E+03  0.12233898617E+04  0.44886409646E+03  0.14695523998E+04  0.10100000352E+00 0.  1.
       -3    1    3    3    0  502  0.67928088056E+03 -0.12233898617E+04  0.17417438181E+03  0.14101212692E+04  0.10100000352E+00 0. -1.
</event>
<event>
 5   0  0.1923559E-05  0.2815741E+04  0.7818609E-02  0.8298398E-01
       -2   -1    0    0    0  501  0.00000000000E+00  0.00000000000E+00  0.18571923932E+04  0.18571923932E+04  0.25500000920E-02 0. -1.
        2   -1    0    0  501    0  0.00000000000E+00  0.00000000000E+00 -0.10672559990E+04  0.10672559990E+04  0.25500000920E-02 0.  1.
    10030    2    1    2    0    0  0.00000000000E+00  0.00000000000E+00  0.78993639416E+03  0.29244483922E+04  0.28157412686E+04 0.  0.
        4    1    3    3  502    0 -0.41880842444E+03  0.31653593529E+03 -0.96179699997E+03  0.10957420211E+04  0.12699999809E+01 0.  1.
       -4    1    3    3    0  502  0.41880842444E+03 -0.31653593529E+03  0.17517333941E+04  0.18287063711E+04  0.12699999809E+01 0. -1.
</event>
<event>
 5   0  0.7681342E-06  0.2821828E+04  0.7818609E-02  0.8296523E-01
       -1   -1    0    0    0  501  0.00000000000E+00  0.00000000000E+00  0.14756161046E+04  0.14756161046E+04  0.50400001928E-02 0.  1.
        1   -1    0    0  501    0  0.00000000000E+00  0.00000000000E+00 -0.13490492318E+04  0.13490492318E+04  0.50400001928E-02 0. -1.
    10030    2    1    2    0    0  0.00000000000E+00  0.00000000000E+00  0.12656687277E+03  0.28246653365E+04  0.28218283239E+04 0.  0.
        2    1    3    3  502    0 -0.49702347952E+00  0.78574843990E+02 -0.13468572982E+04  0.13491474474E+04  0.25500000920E-02 0. -1.
       -2    1    3    3    0  502  0.49702347952E+00 -0.78574843990E+02  0.14734241710E+04  0.14755178890E+04  0.25500000920E-02 0.  1.
</event>
<event>
 5   0  0.1814230E-05  0.2738563E+04  0.7818609E-02  0.8322600E-01
        2   -1    0    0  501    0  0.00000000000E+00  0.00000000000E+00  0.32581285471E+04  0.32581285471E+04  0.25500000920E-02 0. -1.
       -2   -1    0    0    0  501  0.00000000000E+00  0.00000000000E+00 -0.57546273866E+03  0.57546273866E+03  0.25500000920E-02 0.  1.
    10030    2    1    2    0    0  0.00000000000E+00  0.00000000000E+00  0.26826658084E+04  0.38335912857E+04  0.27385628177E+04 0.  0.
        5    1    3    3  502    0  0.10686767723E+04 -0.85465901017E+03  0.14098746389E+04  0.19647596939E+04  0.46999998093E+01 0.  1.
       -5    1    3    3    0  502 -0.10686767723E+04  0.85465901017E+03  0.12727911695E+04  0.18688315918E+04  0.46999998093E+01 0. -1.
</event>
<event>
 5   0  0.7613444E-06  0.2542428E+04  0.7818609E-02  0.8388024E-01
       -1   -1    0    0    0  501  0.00000000000E+00  0.00000000000E+00  0.15810923841E+04  0.15810923841E+04  0.50400001928E-02 0. -1.
        1   -1    0    0  501    0  0.00000000000E+00  0.00000000000E+00 -0.10220688175E+04  0.10220688175E+04  0.50400001928E-02 0.  1.
    10030    2    1    2    0    0  0.00000000000E+00  0.00000000000E+00  0.55902356666E+03  0.26031612016E+04  0.25424281491E+04 0.  0.
        5    1    3    3  502    0  0.78278528387E+03 -0.98852084098E+03  0.44472578192E+03  0.13370599705E+04  0.46999998093E+01 0. -1.
       -5    1    3    3    0  502 -0.78278528387E+03  0.98852084098E+03  0.11429778474E+03  0.12661012311E+04  0.46999998093E+01 0.  1.
</event>
<event>
 5   0  0.1923559E-05  0.2779589E+04  0.7818609E-02  0.8309633E-01
       -2   -1    0    0    0  501  0.00000000000E+00  0.00000000000E+00  0.13696582194E+04  0.13696582194E+04  0.25500000920E-02 0.  1.
        2   -1    0    0  501    0  0.00000000000E+00  0.00000000000E+00 -0.14102266720E+04  0.14102266720E+04  0.25500000920E-02 0. -1.
    10030    2    1    2    0    0  0.00000000000E+00  0.00000000000E+00 -0.40568452562E+02  0.27798848914E+04  0.27795888563E+04 0.  0.
        4    1    3    3  502    0  0.46606739523E+03  0.53790054939E+03 -0.12141329042E+04  0.14073649633E+04  0.12699999809E+01 0. -1.
       -4    1    3    3    0  502 -0.46606739523E+03 -0.53790054939E+03  0.11735644516E+04  0.13725199281E+04  0.12699999809E+01 0.  1.
</event>
<event>
 5   0  0.7388013E-06  0.2711757E+04  0.7818609E-02  0.8331200E-01
        1   -1    0    0  501    0  0.00000000000E+00  0.00000000000E+00  0.17416092569E+04  0.17416092569E+04  0.50400001928E-02 0. -1.
       -1   -1    0    0    0  501  0.00000000000E+00  0.00000000000E+00 -0.10555792951E+04  0.10555792952E+04  0.50400001928E-02 0.  1.
    10030    2    1    2    0    0  0.00000000000E+00  0.00000000000E+00  0.68602996172E+03  0.27971885520E+04  0.27117571217E+04 0.  0.
        1    1    3    3  502    0  0.11556994350E+03 -0.53083670228E+03 -0.93840318461E+03  0.10843175518E+04  0.50400001928E-02 0.  1.
       -1    1    3    3    0  502 -0.11556994350E+03  0.53083670228E+03  0.16244331463E+04  0.17128710002E+04  0.50400001928E-02 0. -1.
</event>
<event>
 5   0  0.1814230E-05  0.3224364E+04  0.7818609E-02  0.8182412E-01
       -2   -1    0    0    0  501  0.00000000000E+00  0.00000000000E+00  0.14138289800E+04  0.14138289800E+04  0.25500000920E-02 0. -1.
        2   -1    0    0  501    0  0.00000000000E+00  0.00000000000E+00 -0.18383626358E+04  0.18383626358E+04  0.25500000920E-02 0.  1.
    10030    2    1    2    0    0  0.00000000000E+00  0.00000000000E+00 -0.42453365576E+03  0.32521916158E+04  0.32243637327E+04 0.  0.
        5    1    3    3  502    0  0.14517267009E+03  0.14449433091E+04 -0.91843209383E+03  0.17182770067E+04  0.46999998093E+01 0.  1.
       -5    1    3    3    0  502 -0.14517267009E+03 -0.14449433091E+04  0.49389843808E+03  0.15339146091E+04  0.46999998093E+01 0. -1.
</event>
<event>
 5   0  0.7613444E-06  0.2932665E+04  0.7818609E-02  0.8263225E-01
        1   -1    0    0  501    0  0.00000000000E+00  0.00000000000E+00  0.21810116642E+04  0.21810116642E+04  0.50400001928E-02 0. -1.
       -1   -1    0    0    0  501  0.00000000000E+00  0.00000000000E+00 -0.98584086740E+03  0.98584086742E+03  0.50400001928E-02 0.  1.
    10030    2    1    2    0    0  0.00000000000E+00  0.00000000000E+00  0.11951707968E+04  0.31668525316E+04  0.29326646115E+04 0.  0.
        5    1    3    3  502    0  0.11464312705E+04  0.40364435670E+03  0.14833791473E+04  0.19177250088E+04  0.46999998093E+01 0. -1.
       -5    1    3    3    0  502 -0.11464312705E+04 -0.40364435670E+03 -0.28820835056E+03  0.12491275228E+04  0.46999998093E+01 0.  1.
</event>
<event>
 5   0  0.7613444E-06  0.2894928E+04  0.7818609E-02  0.8274388E-01
       -1   -1    0    0    0  501  0.00000000000E+00  0.00000000000E+00  0.19890421741E+04  0.19890421741E+04  0.50400001928E-02 0.  1.
        1   -1    0    0  501    0  0.00000000000E+00  0.00000000000E+00 -0.10533470093E+04  0.10533470093E+04  0.50400001928E-02 0. -1.
    10030    2    1    2    0    0  0.00000000000E+00  0.00000000000E+00  0.93569516483E+03  0.30423891834E+04  0.28949277196E+04 0.  0.
        5    1    3    3  502    0  0.31494690858E+03 -0.13298551996E+04 -0.33333140488E+02  0.13670550813E+04  0.46999998093E+01 0.  1.
       -5    1    3    3    0  502 -0.31494690858E+03  0.13298551996E+04  0.96902830532E+03  0.16753341021E+04  0.46999998093E+01 0. -1.
</event>
<event>
 5   0  0.1814230E-05  0.2782196E+04  0.7818609E-02  0.8308817E-01
        2   -1    0    0  501    0  0.00000000000E+00  0.00000000000E+00  0.13335380652E+04  0.13335380652E+04  0.25500000920E-02 0.  1.
       -2   -1    0    0    0  501  0.00000000000E+00  0.00000000000E+00 -0.14511424787E+04  0.14511424787E+04  0.25500000920E-02 0. -1.
    10030    2    1    2    0    0  0.00000000000E+00  0.00000000000E+00 -0.11760441353E+03  0.27846805439E+04  0.27821960631E+04 0.  0.
        5    1    3    3  502    0 -0.71338675757E+03  0.10529767848E+04 -0.62273312801E+03  0.14161565640E+04  0.46999998093E+01 0. -1.
       -5    1    3    3    0  502  0.71338675757E+03 -0.10529767848E+04  0.50512871448E+03  0.13685239798E+04  0.46999998093E+01 0.  1.
</event>
<event>
 5   0  0.7388013E-06  0.2782566E+04  0.7818609E-02  0.8308701E-01
        1   -1    0    0  501    0  0.00000000000E+00  0.00000000000E+00  0.22293614582E+04  0.22293614582E+04  0.50400001928E-02 0.  1.
       -1   -1    0    0    0  501  0.00000000000E+00  0.00000000000E+00 -0.86826149341E+03  0.86826149342E+03  0.50400001928E-02 0. -1.
    10030    2    1    2    0    0  0.00000000000E+00  0.00000000000E+00  0.13610999648E+04  0.30976229516E+04  0.27825662322E+04 0.  0.
        1    1    3    3  502    0  0.10922647533E+04 -0.85370303176E+03  0.54969249182E+03  0.14913125069E+04  0.50400001928E-02 0. -1.
       -1    1    3    3    0  502 -0.10922647533E+04  0.85370303176E+03  0.81140747297E+03  0.16063104447E+04  0.50400001928E-02 0.  1.
</event>
<event>
 5   0  0.7509685E-06  0.2419365E+04  0.7818609E-02  0.8432289E-01
        1   -1    0    0  501    0  0.00000000000E+00  0.00000000000E+00  0.19476228345E+04  0.19476228345E+04  0.50400001928E-02 0.  1.
       -1   -1    0    0    0  501  0.00000000000E+00  0.00000000000E+00 -0.75134225961E+03  0.75134225963E+03  0.50400001928E-02 0. -1.
    10030    2    1    2    0    0  0.00000000000E+00  0.00000000000E+00  0.11962805749E+04  0.26989650941E+04  0.24193646615E+04 0.  0.
        4    1    3    3  502    0 -0.11427075676E+03 -0.11420871821E+04  0.17201563048E+03  0.11606084298E+04  0.12699999809E+01 0. -1.
       -4    1    3    3    0  502  0.11427075676E+03  0.11420871821E+04  0.10242649444E+04  0.15383566643E+04  0.12699999809E+01 0.  1.
</event>
<event>
 5   0  0.7613444E-06  0.2244613E+04  0.7818609E-02  0.8500085E-01
       -1   -1    0    0    0  501  0.00000000000E+00  0.00000000000E+00  0.35178433037E+03  0.35178433040E+03  0.50400001928E-02 0. -1.
        1   -1    0    0  501    0  0.00000000000E+00  0.00000000000E+00 -0.35805240884E+04  0.35805240884E+04  0.50400001928E-02 0.  1.
    10030    2    1    2    0    0  0.00000000000E+00  0.00000000000E+00 -0.32287397581E+04  0.39323084188E+04  0.22446133466E+04 0.  0.
        5    1    3    3  502    0 -0.74700016708E+02 -0.18262238966E+02  0.34714614188E+03  0.35559265416E+03  0.46999998093E+01 0. -1.
       -5    1    3    3    0  502  0.74700016708E+02  0.18262238966E+02 -0.35758858999E+04  0.35767157647E+04  0.46999998093E+01 0.  1.
</event>
<event>
 5   0  0.7509685E-06  0.2782590E+04  0.7818609E-02  0.8308694E-01
       -1   -1    0    0    0  501  0.00000000000E+00  0.00000000000E+00  0.12293513274E+04  0.12293513274E+04  0.50400001928E-02 0.  1.
        1   -1    0    0  501    0  0.00000000000E+00  0.00000000000E+00 -0.15745720051E+04  0.15745720052E+04  0.50400001928E-02 0. -1.
    10030    2    1    2    0    0  0.00000000000E+00  0.00000000000E+00 -0.34522067776E+03  0.28039233326E+04  0.27825902930E+04 0.  0.
        4    1    3    3  502    0  0.44738405226E+03 -0.94114095092E+03 -0.11015247277E+04  0.15163301482E+04  0.12699999809E+01 0.  1.
       -4    1    3    3    0  502 -0.44738405226E+03  0.94114095092E+03  0.75630404989E+03  0.12875931844E+04  0.12699999809E+01 0. -1.
</event>
<event>
 5   0  0.7509685E-06  0.2792095E+04  0.7818609E-02  0.8305727E-01
       -1   -1    0    0    0  501  0.00000000000E+00  0.00000000000E+00  0.88732341614E+03  0.88732341615E+03  0.50400001928E-02 0. -1.
        1   -1    0    0  501    0  0.00000000000E+00  0.00000000000E+00 -0.21964350664E+04  0.21964350664E+04  0.50400001928E-02 0.  1.
    10030    2    1    2    0    0  0.00000000000E+00  0.00000000000E+00 -0.13091116503E+04  0.30837584826E+04  0.27920947452E+04 0.  0.
        4    1    3    3  502    0  0.55954509343E+03  0.48986977108E+03 -0.19594485217E+04  0.20958299612E+04  0.12699999809E+01 0.  1.
       -4    1    3    3    0  502 -0.55954509343E+03 -0.48986977108E+03  0.65033687139E+03  0.98792852139E+03  0.12699999809E+01 0. -1.
</event>
<event>
 5   0  0.7509685E-06  0.2818483E+04  0.7818609E-02  0.8297553E-01
       -1   -1    0    0    0  501  0.00000000000E+00  0.00000000000E+00  0.21055795474E+04  0.21055795474E+04  0.50400001928E-02 0.  1.
        1   -1    0    0  501    0  0.00000000000E+00  0.00000000000E+00 -0.94318969621E+03  0.94318969622E+03  0.50400001928E-02 0. -1.
    10030    2    1    2    0    0  0.00000000000E+00  0.00000000000E+00  0.11623898512E+04  0.30487692437E+04  0.28184825234E+04 0.  0.
        4    1    3    3  502    0  0.12014403982E+04  0.69944182680E+03  0.83088260282E+03  0.16195818633E+04  0.12699999809E+01 0.  1.
       -4    1    3    3    0  502 -0.12014403982E+04 -0.69944182680E+03  0.33150724841E+03  0.14291873803E+04  0.12699999809E+01 0. -1.
</event>
<event>
 5   0  0.7555871E-06  0.2900124E+04  0.7818609E-02  0.8272840E-01
        1   -1    0    0  501    0  0.00000000000E+00  0.00000000000E+00  0.20253416748E+04  0.20253416748E+04  0.50400001928E-02 0.  1.
       -1   -1    0    0    0  501  0.00000000000E+00  0.00000000000E+00 -0.10381854884E+04  0.10381854884E+04  0.50400001928E-02 0. -1.
    10030    2    1    2    0    0  0.00000000000E+00  0.00000000000E+00  0.98715618640E+03  0.30635271631E+04  0.29001243668E+04 0.  0.
        3    1    3    3  502    0  0.85157125354E+03 -0.51849020600E+03 -0.61868408187E+03  0.11733608554E+04  0.10100000352E+00 0. -1.
       -3    1    3    3    0  502 -0.85157125354E+03  0.51849020600E+03  0.16058402683E+04  0.18901663077E+04  0.10100000352E+00 0.  1.
</event>
<event>
 5   0  0.1832502E-05  0.2318623E+04  0.7818609E-02  0.8470614E-01
        2   -1    0    0  501    0  0.00000000000E+00  0.00000000000E+00  0.22861856434E+04  0.22861856434E+04  0.25500000920E-02 0. -1.
       -2   -1    0    0    0  501  0.00000000000E+00  0.00000000000E+00 -0.58787994946E+03  0.58787994946E+03  0.25500000920E-02 0.  1.
    10030    2    1    2    0    0  0.00000000000E+00  0.00000000000E+00  0.16983056940E+04  0.28740655929E+04  0.23186226088E+04 0.  0.
        2    1    3    3  502    0 -0.10239725035E+04  0.13630492424E+03  0.19687713382E+03  0.10515984624E+04  0.25500000920E-02 0.  1.
       -2    1    3    3    0  502  0.10239725035E+04 -0.13630492424E+03  0.15014285602E+04  0.18224671305E+04  0.25500000920E-02 0. -1.
</event>
<event>
 5   0  0.7388013E-06  0.2782803E+04  0.7818609E-02  0.8308627E-01
       -1   -1    0    0    0  501  0.00000000000E+00  0.00000000000E+00  0.11891246172E+04  0.11891246172E+04  0.50400001928E-02 0. -1.
        1   -1    0    0  501    0  0.00000000000E+00  0.00000000000E+00 -0.16280870515E+04  0.16280870515E+04  0.50400001928E-02 0.  1.
    10030    2    1    2    0    0  0.00000000000E+00  0.00000000000E+00 -0.43896243429E+03  0.28172116688E+04  0.27828031853E+04 0.  0.
        1    1    3    3  502    0  0.12604466032E+04 -0.34959057024E+03  0.26078867100E+03  0.13337728208E+04  0.50400001928E-02 0.  1.
       -1    1    3    3    0  502 -0.12604466032E+04  0.34959057024E+03 -0.69975110528E+03  0.14834388480E+04  0.50400001928E-02 0. -1.
</event>
<event>
 5   0  0.7388013E-06  0.2783996E+04  0.7818609E-02  0.8308254E-01
        1   -1    0    0  501    0  0.00000000000E+00  0.00000000000E+00  0.18473911093E+04  0.18473911093E+04  0.50400001928E-02 0.  1.
       -1   -1    0    0    0  501  0.00000000000E+00  0.00000000000E+00 -0.10488620044E+04  0.10488620044E+04  0.50400001928E-02 0. -1.
    10030    2    1    2    0    0  0.00000000000E+00  0.00000000000E+00  0.79852910490E+03  0.28962531137E+04  0.27839959352E+04 0.  0.
        1    1    3    3  502    0  0.30032597495E+02 -0.36507543268E+03 -0.99782143963E+03  0.10629344542E+04  0.50400001928E-02 0. -1.
       -1    1    3    3    0  502 -0.30032597495E+02  0.36507543268E+03  0.17963505445E+04  0.18333186595E+04  0.50400001928E-02 0.  1.
</event>
<event>
 5   0  0.1814230E-05  0.2808179E+04  0.7818609E-02  0.8300734E-01
        2   -1    0    0  501    0  0.00000000000E+00  0.00000000000E+00  0.22056900325E+04  0.22056900325E+04  0.25500000920E-02 0.  1.
       -2   -1    0    0    0  501  0.00000000000E+00  0.00000000000E+00 -0.89380985461E+03  0.89380985461E+03  0.25500000920E-02 0. -1.
    10030    2    1    2    0    0  0.00000000000E+00  0.00000000000E+00  0.13118801778E+04  0.30994998871E+04  0.28081791162E+04 0.  0.
        5    1    3    3  502    0  0.69343533396E+03  0.64770728463E+03  0.17982274292E+04  0.20332292704E+04  0.46999998093E+01 0.  1.
       -5    1    3    3    0  502 -0.69343533396E+03 -0.64770728463E+03 -0.48634725139E+03  0.10662706166E+04  0.46999998093E+01 0. -1.
</event>
<event>
 5   0  0.6288000E-06  0.2715376E+04  0.7818609E-02  0.8330033E-01
       -4   -1    0    0    0  501  0.00000000000E+00  0.00000000000E+00  0.19847963653E+04  0.19847967716E+04  0.12699999809E+01 0.  1.
        4   -1    0    0  501    0  0.00000000000E+00  0.00000000000E+00 -0.92871729699E+03  0.92871816534E+03  0.12699999809E+01 0. -1.
    10030    2    1    2    0    0  0.00000000000E+00  0.00000000000E+00  0.10560790683E+04  0.29135149369E+04  0.27153759020E+04 0.  0.
        4    1    3    3  502    0  0.12200521811E+04  0.39922266002E+03  0.10023464556E+04  0.16286823161E+04  0.12699999809E+01 0. -1.
       -4    1    3    3    0  502 -0.12200521811E+04 -0.39922266002E+03  0.53732612693E+02  0.12848326208E+04  0.12699999809E+01 0.  1.
</event>
<event>
 5   0  0.7613444E-06  0.2724756E+04  0.7818609E-02  0.8327017E-01
       -1   -1    0    0    0  501  0.00000000000E+00  0.00000000000E+00  0.12642604243E+04  0.12642604243E+04  0.50400001928E-02 0.  1.
        1   -1    0    0  501    0  0.00000000000E+00  0.00000000000E+00 -0.14681099796E+04  0.14681099796E+04  0.50400001928E-02 0. -1.
    10030    2    1    2    0    0  0.00000000000E+00  0.00000000000E+00 -0.20384955529E+03  0.27323704040E+04  0.27247556557E+04 0.  0.
        5    1    3    3  502    0 -0.11746038087E+04 -0.65436296151E+03  0.11815669665E+03  0.13497659381E+04  0.46999998093E+01 0.  1.
       -5    1    3    3    0  502  0.11746038087E+04  0.65436296151E+03 -0.32200625195E+03  0.13826044659E+04  0.46999998093E+01 0. -1.
</event>
<event>
 5   0  0.7509685E-06  0.2760823E+04  0.7818609E-02  0.8315535E-01
        1   -1    0    0  501    0  0.00000000000E+00  0.00000000000E+00  0.20285830928E+04  0.20285830928E+04  0.50400001928E-02 0.  1.
       -1   -1    0    0    0  501  0.00000000000E+00  0.00000000000E+00 -0.93934336842E+03  0.93934336843E+03  0.50400001928E-02 0. -1.
    10030    2    1    2    0    0  0.00000000000E+00  0.00000000000E+00  0.10892397244E+04  0.29679264612E+04  0.27608231204E+04 0.  0.
        4    1    3    3  502    0 -0.20447756803E+03  0.45448710586E+02 -0.92215845019E+03  0.94565029545E+03  0.12699999809E+01 0. -1.
       -4    1    3    3    0  502  0.20447756803E+03 -0.45448710586E+02  0.20113981746E+04  0.20222761658E+04  0.12699999809E+01 0.  1.
</event>
<event>
 5   0  0.7509685E-06  0.2703462E+04  0.7818609E-02  0.8333882E-01
       -1   -1    0    0    0  501  0.00000000000E+00  0.00000000000E+00  0.13765862375E+04  0.13765862375E+04  0.50400001928E-02 0.  1.
        1   -1    0    0  501    0  0.00000000000E+00  0.00000000000E+00 -0.13273248056E+04  0.13273248056E+04  0.50400001928E-02 0. -1.
    10030    2    1    2    0    0  0.00000000000E+00  0.00000000000E+00  0.49261431943E+02  0.27039110431E+04  0.27034622691E+04 0.  0.
        4    1    3    3  502    0  0.29628794593E+03 -0.24905580602E+03 -0.12707136532E+04  0.13283561807E+04  0.12699999809E+01 0. -1.
       -4    1    3    3    0  502 -0.29628794593E+03  0.24905580602E+03  0.13199750851E+04  0.13755548625E+04  0.12699999809E+01 0.  1.
</event>
<event>
 5   0  0.1923559E-05  0.1712918E+04  0.7818609E-02  0.8754031E-01
        2   -1    0    0  501    0  0.00000000000E+00  0.00000000000E+00  0.10820629845E+04  0.10820629845E+04  0.25500000920E-02 0.  1.
       -2   -1    0    0    0  501  0.00000000000E+00  0.00000000000E+00 -0.67789231797E+03  0.67789231798E+03  0.25500000920E-02 0. -1.
    10030    2    1    2    0    0  0.00000000000E+00  0.00000000000E+00  0.40417066651E+03  0.17599553025E+04  0.17129181939E+04 0.  0.
        4    1    3    3  502    0 -0.30753587547E+03 -0.18155976041E+03  0.10019077203E+04  0.10636554678E+04  0.12699999809E+01 0.  1.
       -4    1    3    3    0  502  0.30753587547E+03  0.18155976041E+03 -0.59773705381E+03  0.69629983463E+03  0.12699999809E+01 0. -1.
</event>
<event>
 5   0  0.7555871E-06  0.2595751E+04  0.7818609E-02  0.8369646E-01
       -1   -1    0    0    0  501  0.00000000000E+00  0.00000000000E+00  0.86279379403E+03  0.86279379405E+03  0.50400001928E-02 0.  1.
        1   -1    0    0  501    0  0.00000000000E+00  0.00000000000E+00 -0.19523563280E+04  0.19523563280E+04  0.50400001928E-02 0. -1.
    10030    2    1    2    0    0  0.00000000000E+00  0.00000000000E+00 -0.10895625340E+04  0.28151501221E+04  0.25957510848E+04 0.  0.
        3    1    3    3  502    0  0.10924030802E+04 -0.49550506602E+03 -0.73009591612E+01  0.11995511970E+04  0.10100000352E+00 0.  1.
       -3    1    3    3    0  502 -0.10924030802E+04  0.49550506602E+03 -0.10822615748E+04  0.16155989250E+04  0.10100000352E+00 0. -1.
</event>
<event>
 5   0  0.1832502E-05  0.2810320E+04  0.7818609E-02  0.8300071E-01
       -2   -1    0    0    0  501  0.00000000000E+00  0.00000000000E+00  0.19139226018E+04  0.19139226018E+04  0.25500000920E-02 0.  1.
        2   -1    0    0  501    0  0.00000000000E+00  0.00000000000E+00 -0.10316379762E+04  0.10316379762E+04  0.25500000920E-02 0. -1.
    10030    2    1    2    0    0  0.00000000000E+00  0.00000000000E+00  0.88228462556E+03  0.29455605780E+04  0.28103204369E+04 0.  0.
        2    1    3    3  502    0  0.95304731378E+03  0.47269949312E+02 -0.63997049920E+03  0.11489542507E+04  0.25500000920E-02 0. -1.
       -2    1    3    3    0  502 -0.95304731378E+03 -0.47269949312E+02  0.15222551248E+04  0.17966063273E+04  0.25500000920E-02 0.  1.
</event>
<event>
 5   0  0.1814230E-05  0.2822371E+04  0.7818609E-02  0.8296357E-01
       -2   -1    0    0    0  501  0.00000000000E+00  0.00000000000E+00  0.12026909622E+04  0.12026909622E+04  0.25500000920E-02 0. -1.
        2   -1    0    0  501    0  0.00000000000E+00  0.00000000000E+00 -0.16558239055E+04  0.16558239055E+04  0.25500000920E-02 0.  1.
    10030    2    1    2    0    0  0.00000000000E+00  0.00000000000E+00 -0.45313294324E+03  0.28585148677E+04  0.28223709509E+04 0.  0.
        5    1    3    3  502    0  0.20084658375E+03 -0.52105775239E+03  0.10860170418E+04  0.12211861597E+04  0.46999998093E+01 0. -1.
       -5    1    3    3    0  502 -0.20084658375E+03  0.52105775239E+03 -0.15391499850E+04  0.16373287080E+04  0.46999998093E+01 0.  1.
</event>
<event>
 5   0  0.1874272E-05  0.2777235E+04  0.7818609E-02  0.8310371E-01
        2   -1    0    0  501    0  0.00000000000E+00  0.00000000000E+00  0.20059879784E+04  0.20059879784E+04  0.25500000920E-02 0.  1.
       -2   -1    0    0    0  501  0.00000000000E+00  0.00000000000E+00 -0.96125116610E+03  0.96125116611E+03  0.25500000920E-02 0. -1.
    10030    2    1    2    0    0  0.00000000000E+00  0.00000000000E+00  0.10447368123E+04  0.29672391445E+04  0.27772347999E+04 0.  0.
        3    1    3    3  502    0  0.62828126447E+03  0.88026683190E+03 -0.40822727889E+03  0.11559656414E+04  0.10100000352E+00 0. -1.
       -3    1    3    3    0  502 -0.62828126447E+03 -0.88026683190E+03  0.14529640912E+04  0.18112735031E+04  0.10100000352E+00 0.  1.
</event>
<event>
 5   0  0.7681342E-06  0.2795284E+04  0.7818609E-02  0.8304734E-01
        1   -1    0    0  501    0  0.00000000000E+00  0.00000000000E+00  0.15305664393E+04  0.15305664393E+04  0.50400001928E-02 0.  1.
       -1   -1    0    0    0  501  0.00000000000E+00  0.00000000000E+00 -0.12762612179E+04  0.12762612179E+04  0.50400001928E-02 0. -1.
    10030    2    1    2    0    0  0.00000000000E+00  0.00000000000E+00  0.25430522138E+03  0.28068276573E+04  0.27952835906E+04 0.  0.
        2    1    3    3  502    0  0.15088616878E+03  0.61744560915E+03  0.13770409304E+04  0.15166566653E+04  0.25500000920E-02 0.  1.
       -2    1    3    3    0  502 -0.15088616878E+03 -0.61744560915E+03 -0.11227357091E+04  0.12901709920E+04  0.25500000920E-02 0. -1.
</event>
<event>
 5   0  0.1874272E-05  0.1710808E+04  0.7818609E-02  0.8755224E-01
       -2   -1    0    0    0  501  0.00000000000E+00  0.00000000000E+00  0.51702108180E+03  0.51702108180E+03  0.25500000920E-02 0. -1.
        2   -1    0    0  501    0  0.00000000000E+00  0.00000000000E+00 -0.14152541914E+04  0.14152541914E+04  0.25500000920E-02 0.  1.
    10030    2    1    2    0    0  0.00000000000E+00  0.00000000000E+00 -0.89823310957E+03  0.19322752732E+04  0.17108082921E+04 0.  0.
        3    1    3    3  502    0  0.41185658885E+03  0.57440595096E+02  0.39517479536E+03  0.57366227071E+03  0.10100000352E+00 0. -1.
       -3    1    3    3    0  502 -0.41185658885E+03 -0.57440595096E+02 -0.12934079049E+04  0.13586130025E+04  0.10100000352E+00 0.  1.
</event>
<event>
 5   0  0.7613444E-06  0.2426484E+04  0.7818609E-02  0.8429654E-01
        1   -1    0    0  501    0  0.00000000000E+00  0.00000000000E+00  0.10171240887E+04  0.10171240887E+04  0.50400001928E-02 0. -1.
       -1   -1    0    0    0  501  0.00000000000E+00  0.00000000000E+00 -0.14471745472E+04  0.14471745472E+04  0.50400001928E-02 0.  1.
    10030    2    1    2    0    0  0.00000000000E+00  0.00000000000E+00 -0.43005045855E+03  0.24642986359E+04  0.24264839521E+04 0.  0.
        5    1    3    3  502    0 -0.50354546142E+03 -0.10732355865E+04  0.46950890765E+02  0.11864312589E+04  0.46999998093E+01 0. -1.
       -5    1    3    3    0  502  0.50354546142E+03  0.10732355865E+04 -0.47700134932E+03  0.12778673770E+04  0.46999998093E+01 0.  1.
</event>
<event>
 5   0  0.7555871E-06  0.2800391E+04  0.7818609E-02  0.8303147E-01
        1   -1    0    0  501    0  0.00000000000E+00  0.00000000000E+00  0.15096205466E+04  0.15096205466E+04  0.50400001928E-02 0.  1.
       -1   -1    0    0    0  501  0.00000000000E+00  0.00000000000E+00 -0.12987023190E+04  0.12987023190E+04  0.50400001928E-02 0. -1.
    10030    2    1    2    0    0  0.00000000000E+00  0.00000000000E+00  0.21091822757E+03  0.28083228656E+04  0.28003911903E+04 0.  0.
        3    1    3    3  502    0  0.13626077468E+04 -0.67670365998E+02  0.42142060913E+03  0.14278916240E+04  0.10100000352E+00 0. -1.
       -3    1    3    3    0  502 -0.13626077468E+04  0.67670365998E+02 -0.21050238156E+03  0.13804312416E+04  0.10100000352E+00 0.  1.
</event>
<event>
 5   0  0.7388013E-06  0.2861004E+04  0.7818609E-02  0.8284575E-01
       -1   -1    0    0    0  501  0.00000000000E+00  0.00000000000E+00  0.71311156560E+03  0.71311156562E+03  0.50400001928E-02 0. -1.
        1   -1    0    0  501    0  0.00000000000E+00  0.00000000000E+00 -0.28695877552E+04  0.28695877552E+04  0.50400001928E-02 0.  1.
    10030    2    1    2    0    0  0.00000000000E+00  0.00000000000E+00 -0.21564761896E+04  0.35826993208E+04  0.28610041711E+04 0.  0.
        1    1    3    3  502    0 -0.11495165705E+04 -0.72235514966E+03 -0.51381957558E+03  0.14516183604E+04  0.50400001928E-02 0. -1.
       -1    1    3    3    0  502  0.11495165705E+04  0.72235514966E+03 -0.16426566140E+04  0.21310809604E+04  0.50400001928E-02 0.  1.
</event>
<event>
 5   0  0.1923559E-05  0.2811021E+04  0.7818609E-02  0.8299855E-01
        2   -1    0    0  501    0  0.00000000000E+00  0.00000000000E+00  0.23264131924E+04  0.23264131924E+04  0.25500000920E-02 0. -1.
       -2   -1    0    0    0  501  0.00000000000E+00  0.00000000000E+00 -0.84914401304E+03  0.84914401304E+03  0.25500000920E-02 0.  1.
    10030    2    1    2    0    0  0.00000000000E+00  0.00000000000E+00  0.14772691793E+04  0.31755572054E+04  0.28110210488E+04 0.  0.
        4    1    3    3  502    0  0.71159485966E+03  0.10662880174E+04  0.13896689456E+04  0.18906397784E+04  0.12699999809E+01 0. -1.
       -4    1    3    3    0  502 -0.71159485966E+03 -0.10662880174E+04  0.87600233678E+02  0.12849174270E+04  0.12699999809E+01 0.  1.
</event>
<event>
 5   0  0.7509685E-06  0.2851795E+04  0.7818609E-02  0.8287366E-01
       -1   -1    0    0    0  501  0.00000000000E+00  0.00000000000E+00  0.93951194692E+03  0.93951194693E+03  0.50400001928E-02 0.  1.
        1   -1    0    0  501    0  0.00000000000E+00  0.00000000000E+00 -0.21640846206E+04  0.21640846206E+04  0.50400001928E-02 0. -1.
    10030    2    1    2    0    0  0.00000000000E+00  0.00000000000E+00 -0.12245726737E+04  0.31035965675E+04  0.28517947719E+04 0.  0.
        4    1    3    3  502    0  0.13668768041E+04 -0.16161335532E+03 -0.10176099692E+04  0.17117250762E+04  0.12699999809E+01 0. -1.
       -4    1    3    3    0  502 -0.13668768041E+04  0.16161335532E+03 -0.20696270450E+03  0.13918714913E+04  0.12699999809E+01 0.  1.
</event>
<event>
 5   0  0.1814230E-05  0.2786792E+04  0.7818609E-02  0.8307381E-01
        2   -1    0    0  501    0  0.00000000000E+00  0.00000000000E+00  0.18018019277E+04  0.18018019277E+04  0.25500000920E-02 0. -1.
       -2   -1    0    0    0  501  0.00000000000E+00  0.00000000000E+00 -0.10775617042E+04  0.10775617042E+04  0.25500000920E-02 0.  1.
    10030    2    1    2    0    0  0.00000000000E+00  0.00000000000E+00  0.72424022353E+03  0.28793636319E+04  0.27867922462E+04 0.  0.
        5    1    3    3  502    0  0.26718929829E+03  0.85827794375E+03 -0.73790497837E+03  0.11629948396E+04  0.46999998093E+01 0.  1.
       -5    1    3    3    0  502 -0.26718929829E+03 -0.85827794375E+03  0.14621452019E+04  0.17163687923E+04  0.46999998093E+01 0. -1.
</event>
<event>
 5   0  0.7613444E-06  0.2837944E+04  0.7818609E-02  0.8291584E-01
        1   -1    0    0  501    0  0.00000000000E+00  0.00000000000E+00  0.24168948371E+04  0.24168948371E+04  0.50400001928E-02 0.  1.
       -1   -1    0    0    0  501  0.00000000000E+00  0.00000000000E+00 -0.83308627238E+03  0.83308627239E+03  0.50400001928E-02 0. -1.
    10030    2    1    2    0    0  0.00000000000E+00  0.00000000000E+00  0.15838085647E+04  0.32499811095E+04  0.28379442634E+04 0.  0.
        5    1    3    3  502    0  0.57843512500E+03  0.87068356622E+03  0.18907976778E+04  0.21605126740E+04  0.46999998093E+01 0.  1.
       -5    1    3    3    0  502 -0.57843512500E+03 -0.87068356622E+03 -0.30698911307E+03  0.10894684355E+04  0.46999998093E+01 0. -1.
</event>
<event>
 5   0  0.1832502E-05  0.2707645E+04  0.7818609E-02  0.8332529E-01
       -2   -1    0    0    0  501  0.00000000000E+00  0.00000000000E+00  0.63556684105E+03  0.63556684105E+03  0.25500000920E-02 0. -1.
        2   -1    0    0  501    0  0.00000000000E+00  0.00000000000E+00 -0.28837797413E+04  0.28837797413E+04  0.25500000920E-02 0.  1.
    10030    2    1    2    0    0  0.00000000000E+00  0.00000000000E+00 -0.22482129003E+04  0.35193465824E+04  0.27076445708E+04 0.  0.
        2    1    3    3  502    0  0.81982188887E+02 -0.96268967821E+03 -0.23567368946E+04  0.25470966386E+04  0.25500000920E-02 0.  1.
       -2    1    3    3    0  502 -0.81982188887E+02  0.96268967821E+03  0.10852399435E+03  0.97224994378E+03  0.25500000920E-02 0. -1.
</event>
<event>
 5   0  0.1923559E-05  0.2828388E+04  0.7818609E-02  0.8294509E-01
       -2   -1    0    0    0  501  0.00000000000E+00  0.00000000000E+00  0.18356532465E+04  0.18356532465E+04  0.25500000920E-02 0.  1.
        2   -1    0    0  501    0  0.00000000000E+00  0.00000000000E+00 -0.10895006252E+04  0.10895006252E+04  0.25500000920E-02 0. -1.
    10030    2    1    2    0    0  0.00000000000E+00  0.00000000000E+00  0.74615262133E+03  0.29251538717E+04  0.28283884879E+04 0.  0.
        4    1    3    3  502    0 -0.65730144170E+03  0.16629041258E+03  0.16566024232E+04  0.17899806949E+04  0.12699999809E+01 0.  1.
       -4    1    3    3    0  502  0.65730144170E+03 -0.16629041258E+03 -0.91044980190E+03  0.11351731768E+04  0.12699999809E+01 0. -1.
</event>
<event>
 5   0  0.1832502E-05  0.2866943E+04  0.7818609E-02  0.8282781E-01
       -2   -1    0    0    0  501  0.00000000000E+00  0.00000000000E+00  0.11084173307E+04  0.11084173308E+04  0.25500000920E-02 0.  1.
        2   -1    0    0  501    0  0.00000000000E+00  0.00000000000E+00 -0.18538505457E+04  0.18538505457E+04  0.25500000920E-02 0. -1.
    10030    2    1    2    0    0  0.00000000000E+00  0.00000000000E+00 -0.74543321497E+03  0.29622678765E+04  0.28669426736E+04 0.  0.
        2    1    3    3  502    0  0.13927950979E+04 -0.25859461663E+02 -0.23403025412E+02  0.13932317102E+04  0.25500000920E-02 0.  1.
       -2    1    3    3    0  502 -0.13927950979E+04  0.25859461663E+02 -0.72203018956E+03  0.15690361663E+04  0.25500000920E-02 0. -1.
</event>
<event>
 5   0  0.7509685E-06  0.2770840E+04  0.7818609E-02  0.8312379E-01
       -1   -1    0    0    0  501  0.00000000000E+00  0.00000000000E+00  0.14030467048E+04  0.14030467048E+04  0.50400001928E-02 0.  1.
        1   -1    0    0  501    0  0.00000000000E+00  0.00000000000E+00 -0.13680152035E+04  0.13680152035E+04  0.50400001928E-02 0. -1.
    10030    2    1    2    0    0  0.00000000000E+00  0.00000000000E+00  0.35031501299E+02  0.27710619083E+04  0.27708404670E+04 0.  0.
        4    1    3    3  502    0  0.14393904398E+03 -0.86827557874E+02 -0.13577778260E+04  0.13681446235E+04  0.12699999809E+01 0. -1.
       -4    1    3    3    0  502 -0.14393904398E+03  0.86827557874E+02  0.13928093273E+04  0.14029172849E+04  0.12699999809E+01 0.  1.
</event>
<event>
 5   0  0.1814230E-05  0.2816314E+04  0.7818609E-02  0.8298221E-01
        2   -1    0    0  501    0  0.00000000000E+00  0.00000000000E+00  0.18292721036E+04  0.18292721036E+04  0.25500000920E-02 0. -1.
       -2   -1    0    0    0  501  0.00000000000E+00  0.00000000000E+00 -0.10839867027E+04  0.10839867027E+04  0.25500000920E-02 0.  1.
    10030    2    1    2    0    0  0.00000000000E+00  0.00000000000E+00  0.74528540089E+03  0.29132588063E+04  0.28163143546E+04 0.  0.
        5    1    3    3  502    0 -0.43720035098E+03 -0.21088387187E+03  0.17399865751E+04  0.18064306037E+04  0.46999998093E+01 0. -1.
       -5    1    3    3    0  502  0.43720035098E+03  0.21088387187E+03 -0.99470117420E+03  0.11068282027E+04  0.46999998093E+01 0.  1.
</event>
<event>
 5   0  0.7681342E-06  0.2774306E+04  0.7818609E-02  0.8311290E-01
        1   -1    0    0  501    0  0.00000000000E+00  0.00000000000E+00  0.19189114688E+04  0.19189114688E+04  0.50400001928E-02 0.  1.
       -1   -1    0    0    0  501  0.00000000000E+00  0.00000000000E+00 -0.10027524382E+04  0.10027524382E+04  0.50400001928E-02 0. -1.
    10030    2    1    2    0    0  0.00000000000E+00  0.00000000000E+00  0.91615903065E+03  0.29216639070E+04  0.27743057900E+04 0.  0.
        2    1    3    3  502    0 -0.79400967340E+03 -0.71217564917E+01  0.16558985713E+04  0.18364373551E+04  0.25500000920E-02 0.  1.
       -2    1    3    3    0  502  0.79400967340E+03  0.71217564917E+01 -0.73973954067E+03  0.10852265519E+04  0.25500000920E-02 0. -1.
</event>
<event>
 5   0  0.7388013E-06  0.2839894E+04  0.7818609E-02  0.8290989E-01
        1   -1    0    0  501    0  0.00000000000E+00  0.00000000000E+00  0.15634116413E+04  0.15634116413E+04  0.50400001928E-02 0. -1.
       -1   -1    0    0    0  501  0.00000000000E+00  0.00000000000E+00 -0.12896473529E+04  0.12896473529E+04  0.50400001928E-02 0.  1.
    10030    2    1    2    0    0  0.00000000000E+00  0.00000000000E+00  0.27376428844E+03  0.28530589942E+04  0.28398941422E+04 0.  0.
        1    1    3    3  502    0 -0.13698768174E+04 -0.29639905914E+03  0.36561010677E+03  0.14484770096E+04  0.50400001928E-02 0. -1.
       -1    1    3    3    0  502  0.13698768174E+04  0.29639905914E+03 -0.91845818329E+02  0.14045819846E+04  0.50400001928E-02 0.  1.
</event>
<event>
 5   0  0.7613444E-06  0.2773796E+04  0.7818609E-02  0.8311450E-01
       -1   -1    0    0    0  501  0.00000000000E+00  0.00000000000E+00  0.68101950310E+03  0.68101950312E+03  0.50400001928E-02 0.  1.
        1   -1    0    0  501    0  0.00000000000E+00  0.00000000000E+00 -0.28244215502E+04  0.28244215502E+04  0.50400001928E-02 0. -1.
    10030    2    1    2    0    0  0.00000000000E+00  0.00000000000E+00 -0.21434020471E+04  0.35054410534E+04  0.27737960709E+04 0.  0.
        5    1    3    3  502    0 -0.12475315070E+04 -0.32626862487E+03 -0.17169396014E+04  0.21472516763E+04  0.46999998093E+01 0. -1.
       -5    1    3    3    0  502  0.12475315070E+04  0.32626862487E+03 -0.42646244576E+03  0.13581893771E+04  0.46999998093E+01 0.  1.
</event>
<event>
 5   0  0.7509685E-06  0.2735928E+04  0.7818609E-02  0.8323441E-01
        1   -1    0    0  501    0  0.00000000000E+00  0.00000000000E+00  0.17752457210E+04  0.17752457210E+04  0.50400001928E-02 0.  1.
       -1   -1    0    0    0  501  0.00000000000E+00  0.00000000000E+00 -0.10541218057E+04  0.10541218057E+04  0.50400001928E-02 0. -1.
    10030    2    1    2    0    0  0.00000000000E+00  0.00000000000E+00  0.72112391527E+03  0.28293675267E+04  0.27359277951E+04 0.  0.
        4    1    3    3  502    0 -0.25579419827E+03 -0.51954342907E+03  0.16422305904E+04  0.17413440130E+04  0.12699999809E+01 0.  1.
       -4    1    3    3    0  502  0.25579419827E+03  0.51954342907E+03 -0.92110667513E+03  0.10880235137E+04  0.12699999809E+01 0. -1.
</event>
<event>
 5   0  0.1904553E-05  0.2742241E+04  0.7818609E-02  0.8321428E-01
        2   -1    0    0  501    0  0.00000000000E+00  0.00000000000E+00  0.16381737148E+04  0.16381737148E+04  0.25500000920E-02 0.  1.
       -2   -1    0    0    0  501  0.00000000000E+00  0.00000000000E+00 -0.11476021451E+04  0.11476021451E+04  0.25500000920E-02 0. -1.
    10030    2    1    2    0    0  0.00000000000E+00  0.00000000000E+00  0.49057156968E+03  0.27857758598E+04  0.27422411776E+04 0.  0.
        1    1    3    3  502    0 -0.10174692587E+04  0.63524872651E+03  0.92004976614E+03  0.15117130049E+04  0.50400001928E-02 0.  1.
       -1    1    3    3    0  502  0.10174692587E+04 -0.63524872651E+03 -0.42947819646E+03  0.12740628549E+04  0.50400001928E-02 0. -1.
</event>
<event>
 5   0  0.7388013E-06  0.2792731E+04  0.7818609E-02  0.8305529E-01
        1   -1    0    0  501    0  0.00000000000E+00  0.00000000000E+00  0.23136628315E+04  0.23136628315E+04  0.50400001928E-02 0. -1.
       -1   -1    0    0    0  501  0.00000000000E+00  0.00000000000E+00 -0.84274851478E+03  0.84274851479E+03  0.50400001928E-02 0.  1.
    10030    2    1    2    0    0  0.00000000000E+00  0.00000000000E+00  0.14709143167E+04  0.31564113463E+04  0.27927305025E+04 0.  0.
        1    1    3    3  502    0  0.38264918997E+02  0.71789167841E+02  0.23109822811E+04  0.23124136724E+04  0.50400001928E-02 0. -1.
       -1    1    3    3    0  502 -0.38264918997E+02 -0.71789167841E+02 -0.84006796441E+03  0.84399767387E+03  0.50400001928E-02 0.  1.
</event>
<event>
 5   0  0.1874272E-05  0.2794583E+04  0.7818609E-02  0.8304952E-01
        2   -1    0    0  501    0  0.00000000000E+00  0.00000000000E+00  0.24372433145E+04  0.24372433145E+04  0.25500000920E-02 0.  1.
       -2   -1    0    0    0  501  0.00000000000E+00  0.00000000000E+00 -0.80107854040E+03  0.80107854040E+03  0.25500000920E-02 0. -1.
    10030    2    1    2    0    0  0.00000000000E+00  0.00000000000E+00  0.16361647741E+04  0.32383218549E+04  0.27945828433E+04 0.  0.
        3    1    3    3  502    0  0.69290822714E+03 -0.11746820088E+04  0.46579699435E+03  0.14411684438E+04  0.10100000352E+00 0. -1.
       -3    1    3    3    0  502 -0.69290822714E+03  0.11746820088E+04  0.11703677798E+04  0.17971534112E+04  0.10100000352E+00 0.  1.
</event>
<event>
 5   0  0.1904553E-05  0.2774932E+04  0.7818609E-02  0.8311093E-01
        2   -1    0    0  501    0  0.00000000000E+00  0.00000000000E+00  0.16465194036E+04  0.16465194036E+04  0.25500000920E-02 0.  1.
       -2   -1    0    0    0  501  0.00000000000E+00  0.00000000000E+00 -0.11691705327E+04  0.11691705327E+04  0.25500000920E-02 0. -1.
    10030    2    1    2    0    0  0.00000000000E+00  0.00000000000E+00  0.47734887087E+03  0.28156899363E+04  0.27749320483E+04 0.  0.
        1    1    3    3  502    0 -0.68045536836E+03 -0.12080273826E+04  0.18582972089E+03  0.13988861107E+04  0.50400001928E-02 0.  1.
       -1    1    3    3    0  502  0.68045536836E+03  0.12080273826E+04  0.29151914999E+03  0.14168038256E+04  0.50400001928E-02 0. -1.
</event>
<event>
 5   0  0.1904553E-05  0.2780922E+04  0.7818609E-02  0.8309216E-01
       -2   -1    0    0    0  501  0.00000000000E+00  0.00000000000E+00  0.81272267628E+03  0.81272267629E+03  0.25500000920E-02 0. -1.
        2   -1    0    0  501    0  0.00000000000E+00  0.00000000000E+00 -0.23788941949E+04  0.23788941949E+04  0.25500000920E-02 0.  1.
    10030    2    1    2    0    0  0.00000000000E+00  0.00000000000E+00 -0.15661715186E+04  0.31916168712E+04  0.27809216146E+04 0.  0.
        1    1    3    3  502    0 -0.12384467112E+04 -0.62868554350E+03 -0.85908879680E+03  0.16331042006E+04  0.50400001928E-02 0.  1.
       -1    1    3    3    0  502  0.12384467112E+04  0.62868554350E+03 -0.70708272184E+03  0.15585126707E+04  0.50400001928E-02 0. -1.
</event>
<event>
 5   0  0.1814230E-05  0.2828766E+04  0.7818609E-02  0.8294393E-01
        2   -1    0    0  501    0  0.00000000000E+00  0.00000000000E+00  0.22576847497E+04  0.22576847497E+04  0.25500000920E-02 0.  1.
       -2   -1    0    0    0  501  0.00000000000E+00  0.00000000000E+00 -0.88607532951E+03  0.88607532952E+03  0.25500000920E-02 0. -1.
    10030    2    1    2    0    0  0.00000000000E+00  0.00000000000E+00  0.13716094202E+04  0.31437600792E+04  0.28287656379E+04 0.  0.
        5    1    3    3  502    0  0.38152196298E+03 -0.13175085638E+04  0.10692924609E+04  0.17391941470E+04  0.46999998093E+01 0. -1.
       -5    1    3    3    0  502 -0.38152196298E+03  0.13175085638E+04  0.30231695929E+03  0.14045659322E+04  0.46999998093E+01 0.  1.
</event>
<event>
 5   0  0.7613444E-06  0.2755559E+04  0.7818609E-02  0.8317200E-01
       -1   -1    0    0    0  501  0.00000000000E+00  0.00000000000E+00  0.13818530676E+04  0.13818530677E+04  0.50400001928E-02 0.  1.
        1   -1    0    0  501    0  0.00000000000E+00  0.00000000000E+00 -0.13737179710E+04  0.13737179710E+04  0.50400001928E-02 0. -1.
    10030    2    1    2    0    0  0.00000000000E+00  0.00000000000E+00  0.81350966383E+01  0.27555710387E+04  0.27555590303E+04 0.  0.
        5    1    3    3  502    0 -0.13063655009E+04 -0.42414665017E+03 -0.10439074804E+03  0.13774653248E+04  0.46999998093E+01 0. -1.
       -5    1    3    3    0  502  0.13063655009E+04  0.42414665017E+03  0.11252584468E+03  0.13781057138E+04  0.46999998093E+01 0.  1.
</event>
<event>
 5   0  0.1874272E-05  0.2806111E+04  0.7818609E-02  0.8301374E-01
       -2   -1    0    0    0  501  0.00000000000E+00  0.00000000000E+00  0.85418730968E+03  0.85418730968E+03  0.25500000920E-02 0.  1.
        2   -1    0    0  501    0  0.00000000000E+00  0.00000000000E+00 -0.23046055176E+04  0.23046055176E+04  0.25500000920E-02 0. -1.
    10030    2    1    2    0    0  0.00000000000E+00  0.00000000000E+00 -0.14504182080E+04  0.31587928273E+04  0.28061110363E+04 0.  0.
        3    1    3    3  502    0  0.10716993322E+04  0.58930096363E+03 -0.14991929898E+04  0.19347854442E+04  0.10100000352E+00 0.  1.
       -3    1    3    3    0  502 -0.10716993322E+04 -0.58930096363E+03  0.48774781829E+02  0.12240073831E+04  0.10100000352E+00 0. -1.
</event>
<event>
 5   0  0.7681342E-06  0.2610122E+04  0.7818609E-02  0.8364771E-01
       -1   -1    0    0    0  501  0.00000000000E+00  0.00000000000E+00  0.18452030279E+04  0.18452030279E+04  0.50400001928E-02 0.  1.
        1   -1    0    0  501    0  0.00000000000E+00  0.00000000000E+00 -0.92303356607E+03  0.92303356608E+03  0.50400001928E-02 0. -1.
    10030    2    1    2    0    0  0.00000000000E+00  0.00000000000E+00  0.92216946187E+03  0.27682365940E+04  0.26101220899E+04 0.  0.
        2    1    3    3  502    0 -0.79722885167E+02 -0.40104850803E+03  0.17755114895E+04  0.18219870179E+04  0.25500000920E-02 0.  1.
       -2    1    3    3    0  502  0.79722885167E+02  0.40104850803E+03 -0.85334202760E+03  0.94624957611E+03  0.25500000920E-02 0. -1.
</event>
<event>
 5   0  0.7388013E-06  0.2740499E+04  0.7818609E-02  0.8321983E-01
       -1   -1    0    0    0  501  0.00000000000E+00  0.00000000000E+00  0.18207034773E+04  0.18207034773E+04  0.50400001928E-02 0. -1.
        1   -1    0    0  501    0  0.00000000000E+00  0.00000000000E+00 -0.10312406803E+04  0.10312406803E+04  0.50400001928E-02 0.  1.
    10030    2    1    2    0    0  0.00000000000E+00  0.00000000000E+00  0.78946279706E+03  0.28519441576E+04  0.27404988542E+04 0.  0.
        1    1    3    3  502    0 -0.38157535460E+03 -0.98312904529E+03 -0.51574199561E+03  0.11739387876E+04  0.50400001928E-02 0.  1.
       -1    1    3    3    0  502  0.38157535460E+03  0.98312904529E+03  0.13052047927E+04  0.16780053700E+04  0.50400001928E-02 0. -1.
</event>
<event>
 5   0  0.7555871E-06  0.2821508E+04  0.7818609E-02  0.8296622E-01
        1   -1    0    0  501    0  0.00000000000E+00  0.00000000000E+00  0.14850866467E+04  0.14850866467E+04  0.50400001928E-02 0. -1.
       -1   -1    0    0    0  501  0.00000000000E+00  0.00000000000E+00 -0.13401419824E+04  0.13401419824E+04  0.50400001928E-02 0.  1.
    10030    2    1    2    0    0  0.00000000000E+00  0.00000000000E+00  0.14494466433E+03  0.28252286291E+04  0.28215080810E+04 0.  0.
        3    1    3    3  502    0 -0.52121474209E+02  0.12651103016E+04  0.69539090200E+03  0.14445723381E+04  0.10100000352E+00 0. -1.
       -3    1    3    3    0  502  0.52121474209E+02 -0.12651103016E+04 -0.55044623767E+03  0.13806562910E+04  0.10100000352E+00 0.  1.
</event>
<event>
 5   0  0.7555871E-06  0.2716048E+04  0.7818609E-02  0.8329817E-01
       -1   -1    0    0    0  501  0.00000000000E+00  0.00000000000E+00  0.15391048609E+04  0.15391048609E+04  0.50400001928E-02 0. -1.
        1   -1    0    0  501    0  0.00000000000E+00  0.00000000000E+00 -0.11982476376E+04  0.11982476376E+04  0.50400001928E-02 0.  1.
    10030    2    1    2    0    0  0.00000000000E+00  0.00000000000E+00  0.34085722325E+03  0.27373524985E+04  0.27160476901E+04 0.  0.
        3    1    3    3  502    0  0.42709008947E+03  0.12243859399E+04 -0.23609859855E+03  0.13180551707E+04  0.10100000352E+00 0.  1.
       -3    1    3    3    0  502 -0.42709008947E+03 -0.12243859399E+04  0.57695582181E+03  0.14192973279E+04  0.10100000352E+00 0. -1.
</event>
<event>
 5   0  0.1832502E-05  0.2752644E+04  0.7818609E-02  0.8318123E-01
       -2   -1    0    0    0  501  0.00000000000E+00  0.00000000000E+00  0.85274392917E+03  0.85274392917E+03  0.25500000920E-02 0. -1.
        2   -1    0    0  501    0  0.00000000000E+00  0.00000000000E+00 -0.22213733777E+04  0.22213733777E+04  0.25500000920E-02 0.  1.
    10030    2    1    2    0    0  0.00000000000E+00  0.00000000000E+00 -0.13686294486E+04  0.30741173069E+04  0.27526443012E+04 0.  0.
        2    1    3    3  502    0 -0.40491649866E+02  0.91050571961E+03  0.46743999341E+03  0.10242853053E+04  0.25500000920E-02 0. -1.
       -2    1    3    3    0  502  0.40491649866E+02 -0.91050571961E+03 -0.18360694420E+04  0.20498320016E+04  0.25500000920E-02 0.  1.
</event>
<event>
 5   0  0.7613444E-06  0.2764557E+04  0.7818609E-02  0.8314357E-01
        1   -1    0    0  501    0  0.00000000000E+00  0.00000000000E+00  0.14854182571E+04  0.14854182571E+04  0.50400001928E-02 0. -1.
       -1   -1    0    0    0  501  0.00000000000E+00  0.00000000000E+00 -0.12863006584E+04  0.12863006584E+04  0.50400001928E-02 0.  1.
    10030    2    1    2    0    0  0.00000000000E+00  0.00000000000E+00  0.19911759874E+03  0.27717189155E+04  0.27645574562E+04 0.  0.
        5    1    3    3  502    0  0.49996414093E+03  0.20298510078E+03  0.13754532601E+04  0.14775184784E+04  0.46999998093E+01 0. -1.
       -5    1    3    3    0  502 -0.49996414093E+03 -0.20298510078E+03 -0.11763356613E+04  0.12942004371E+04  0.46999998093E+01 0.  1.
</event>
<event>
 5   0  0.1814230E-05  0.2845354E+04  0.7818609E-02  0.8289324E-01
        2   -1    0    0  501    0  0.00000000000E+00  0.00000000000E+00  0.18032177247E+04  0.18032177247E+04  0.25500000920E-02 0.  1.
       -2   -1    0    0    0  501  0.00000000000E+00  0.00000000000E+00 -0.11224437077E+04  0.11224437078E+04  0.25500000920E-02 0. -1.
    10030    2    1    2    0    0  0.00000000000E+00  0.00000000000E+00  0.68077401691E+03  0.29256614324E+04  0.28453543813E+04 0.  0.
        5    1    3    3  502    0 -0.73558397847E+03 -0.67191121816E+03 -0.70387541369E+03  0.12198406299E+04  0.46999998093E+01 0. -1.
       -5    1    3    3    0  502  0.73558397847E+03  0.67191121816E+03  0.13846494306E+04  0.17058208025E+04  0.46999998093E+01 0.  1.
</event>
<event>
 5   0  0.7681342E-06  0.2760557E+04  0.7818609E-02  0.8315619E-01
        1   -1    0    0  501    0  0.00000000000E+00  0.00000000000E+00  0.17439573305E+04  0.17439573305E+04  0.50400001928E-02 0. -1.
       -1   -1    0    0    0  501  0.00000000000E+00  0.00000000000E+00 -0.10924399882E+04  0.10924399882E+04  0.50400001928E-02 0.  1.
    10030    2    1    2    0    0  0.00000000000E+00  0.00000000000E+00  0.65151734227E+03  0.28363973187E+04  0.27605569913E+04 0.  0.
        2    1    3    3  502    0 -0.19319607307E+03 -0.55249411645E+03 -0.95862110979E+03  0.11231780373E+04  0.25500000920E-02 0.  1.
       -2    1    3    3    0  502  0.19319607307E+03  0.55249411645E+03  0.16101384521E+04  0.17132192814E+04  0.25500000920E-02 0. -1.
</event>
<event>
 5   0  0.6288000E-06  0.2750023E+04  0.7818609E-02  0.8318954E-01
        4   -1    0    0  501    0  0.00000000000E+00  0.00000000000E+00  0.18857824506E+04  0.18857828783E+04  0.12699999809E+01 0. -1.
       -4   -1    0    0    0  501  0.00000000000E+00  0.00000000000E+00 -0.10025838423E+04  0.10025846467E+04  0.12699999809E+01 0.  1.
    10030    2    1    2    0    0  0.00000000000E+00  0.00000000000E+00  0.88319860834E+03  0.28883675250E+04  0.27500231231E+04 0.  0.
        3    1    3    3  502    0  0.66998834518E+03  0.11890873330E+04  0.26634055567E+03  0.13905935315E+04  0.10100000352E+00 0.  1.
       -3    1    3    3    0  502 -0.66998834518E+03 -0.11890873330E+04  0.61685805266E+03  0.14977739934E+04  0.10100000352E+00 0. -1.
</event>
<event>
 5   0  0.7388013E-06  0.2805760E+04  0.7818609E-02  0.8301482E-01
       -1   -1    0    0    0  501  0.00000000000E+00  0.00000000000E+00  0.10039436032E+04  0.10039436032E+04  0.50400001928E-02 0. -1.
        1   -1    0    0  501    0  0.00000000000E+00  0.00000000000E+00 -0.19603412729E+04  0.19603412729E+04  0.50400001928E-02 0.  1.
    10030    2    1    2    0    0  0.00000000000E+00  0.00000000000E+00 -0.95639766963E+03  0.29642848761E+04  0.28057598479E+04 0.  0.
        1    1    3    3  502    0  0.12774466018E+04 -0.48384297530E+03 -0.81578027479E+03  0.15910598046E+04  0.50400001928E-02 0.  1.
       -1    1    3    3    0  502 -0.12774466018E+04  0.48384297530E+03 -0.14061739485E+03  0.13732250715E+04  0.50400001928E-02 0. -1.
</event>
<event>
 5   0  0.7681342E-06  0.2817133E+04  0.7818609E-02  0.8297969E-01
       -1   -1    0    0    0  501  0.00000000000E+00  0.00000000000E+00  0.81016338486E+03  0.81016338488E+03  0.50400001928E-02 0. -1.
        1   -1    0    0  501    0  0.00000000000E+00  0.00000000000E+00 -0.24489616491E+04  0.24489616491E+04  0.50400001928E-02 0.  1.
    10030    2    1    2    0    0  0.00000000000E+00  0.00000000000E+00 -0.16387982643E+04  0.32591250340E+04  0.28171326267E+04 0.  0.
        2    1    3    3  502    0 -0.13317070816E+03  0.93331352564E+02  0.79926687565E+03  0.81564251814E+03  0.25500000920E-02 0. -1.
       -2    1    3    3    0  502  0.13317070816E+03 -0.93331352564E+02 -0.24380651399E+04  0.24434825159E+04  0.25500000920E-02 0.  1.
</event>
<event>
 5   0  0.1904553E-05  0.2787534E+04  0.7818609E-02  0.8307149E-01
       -2   -1    0    0    0  501  0.00000000000E+00  0.00000000000E+00  0.78286303353E+03  0.78286303353E+03  0.25500000920E-02 0.  1.
        2   -1    0    0  501    0  0.00000000000E+00  0.00000000000E+00 -0.24813875049E+04  0.24813875049E+04  0.25500000920E-02 0. -1.
    10030    2    1    2    0    0  0.00000000000E+00  0.00000000000E+00 -0.16985244714E+04  0.32642505385E+04  0.27875340712E+04 0.  0.
        1    1    3    3  502    0  0.32977138809E+03 -0.13446193195E+04 -0.10374876140E+04  0.17300667132E+04  0.50400001928E-02 0. -1.
       -1    1    3    3    0  502 -0.32977138809E+03  0.13446193195E+04 -0.66103685736E+03  0.15341838253E+04  0.50400001928E-02 0.  1.
</event>
<event>
 5   0  0.1904553E-05  0.2510768E+04  0.7818609E-02  0.8399159E-01
        2   -1    0    0  501    0  0.00000000000E+00  0.00000000000E+00  0.92375564543E+03  0.92375564544E+03  0.25500000920E-02 0.  1.
       -2   -1    0    0    0  501  0.00000000000E+00  0.00000000000E+00 -0.17060670224E+04  0.17060670224E+04  0.25500000920E-02 0. -1.
    10030    2    1    2    0    0  0.00000000000E+00  0.00000000000E+00 -0.78231137695E+03  0.26298226678E+04  0.25107680446E+04 0.  0.
        1    1    3    3  502    0  0.11120430745E+04 -0.85955829949E+02  0.21232489106E+03  0.11353898289E+04  0.50400001928E-02 0.  1.
       -1    1    3    3    0  502 -0.11120430745E+04  0.85955829949E+02 -0.99463626801E+03  0.14944328389E+04  0.50400001928E-02 0. -1.
</event>
<event>
 5   0  0.7509685E-06  0.2747502E+04  0.7818609E-02  0.8319755E-01
       -1   -1    0    0    0  501  0.00000000000E+00  0.00000000000E+00  0.10746228143E+04  0.10746228143E+04  0.50400001928E-02 0.  1.
        1   -1    0    0  501    0  0.00000000000E+00  0.00000000000E+00 -0.17561428933E+04  0.17561428933E+04  0.50400001928E-02 0. -1.
    10030    2    1    2    0    0  0.00000000000E+00  0.00000000000E+00 -0.68152007895E+03  0.28307657076E+04  0.27475015693E+04 0.  0.
        4    1    3    3  502    0 -0.35156961645E+03 -0.10470983444E+03 -0.17047475267E+04  0.17437692185E+04  0.12699999809E+01 0. -1.
       -4    1    3    3    0  502  0.35156961645E+03  0.10470983444E+03  0.10232274478E+04  0.10869964891E+04  0.12699999809E+01 0.  1.
</event>
<event>
 5   0  0.1814230E-05  0.1743111E+04  0.7818609E-02  0.8737151E-01
        2   -1    0    0  501    0  0.00000000000E+00  0.00000000000E+00  0.11923803927E+04  0.11923803927E+04  0.25500000920E-02 0. -1.
       -2   -1    0    0    0  501  0.00000000000E+00  0.00000000000E+00 -0.63705275248E+03  0.63705275248E+03  0.25500000920E-02 0.  1.
    10030    2    1    2    0    0  0.00000000000E+00  0.00000000000E+00  0.55532764024E+03  0.18294331452E+04  0.17431112543E+04 0.  0.
        5    1    3    3  502    0 -0.42557182864E+03 -0.75546545801E+03  0.37004368421E+03  0.94275864239E+03  0.46999998093E+01 0. -1.
       -5    1    3    3    0  502  0.42557182864E+03  0.75546545801E+03  0.18528395603E+03  0.88667450281E+03  0.46999998093E+01 0.  1.
</event>
<event>
 5   0  0.7613444E-06  0.2728889E+04  0.7818609E-02  0.8325692E-01
        1   -1    0    0  501    0  0.00000000000E+00  0.00000000000E+00  0.20157485384E+04  0.20157485385E+04  0.50400001928E-02 0. -1.
       -1   -1    0    0    0  501  0.00000000000E+00  0.00000000000E+00 -0.92358202871E+03  0.92358202872E+03  0.50400001928E-02 0.  1.
    10030    2    1    2    0    0  0.00000000000E+00  0.00000000000E+00  0.10921665097E+04  0.29393305672E+04  0.27288892426E+04 0.  0.
        5    1    3    3  502    0  0.63910547697E+03  0.11484077122E+04  0.15121926059E+03  0.13229457430E+04  0.46999998093E+01 0.  1.
       -5    1    3    3    0  502 -0.63910547697E+03 -0.11484077122E+04  0.94094724915E+03  0.16163848242E+04  0.46999998093E+01 0. -1.
</event>
<event>
 5   0  0.7681342E-06  0.2265288E+04  0.7818609E-02  0.8491735E-01
        1   -1    0    0  501    0  0.00000000000E+00  0.00000000000E+00  0.17732175220E+04  0.17732175220E+04  0.50400001928E-02 0.  1.
       -1   -1    0    0    0  501  0.00000000000E+00  0.00000000000E+00 -0.72347734185E+03  0.72347734187E+03  0.50400001928E-02 0. -1.
    10030    2    1    2    0    0  0.00000000000E+00  0.00000000000E+00  0.10497401802E+04  0.24966948639E+04  0.22652882372E+04 0.  0.
        2    1    3    3  502    0  0.36626162305E+03  0.97897477516E+03  0.10057216592E+04  0.14505224034E+04  0.25500000920E-02 0.  1.
       -2    1    3    3    0  502 -0.36626162305E+03 -0.97897477516E+03  0.44018520935E+02  0.10461724605E+04  0.25500000920E-02 0. -1.
</event>
<event>
 5   0  0.1814230E-05  0.2757735E+04  0.7818609E-02  0.8316511E-01
       -2   -1    0    0    0  501  0.00000000000E+00  0.00000000000E+00  0.11541795889E+04  0.11541795889E+04  0.25500000920E-02 0.  1.
        2   -1    0    0  501    0  0.00000000000E+00  0.00000000000E+00 -0.16472964000E+04  0.16472964000E+04  0.25500000920E-02 0. -1.
    10030    2    1    2    0    0  0.00000000000E+00  0.00000000000E+00 -0.49311681103E+03  0.28014759889E+04  0.27577352170E+04 0.  0.
        5    1    3    3  502    0  0.89995569084E+03  0.42696380737E+03  0.72199762635E+03  0.12302524134E+04  0.46999998093E+01 0.  1.
       -5    1    3    3    0  502 -0.89995569084E+03 -0.42696380737E+03 -0.12151144374E+04  0.15712235755E+04  0.46999998093E+01 0. -1.
</event>
<event>
 5   0  0.1904553E-05  0.2763059E+04  0.7818609E-02  0.8314830E-01
       -2   -1    0    0    0  501  0.00000000000E+00  0.00000000000E+00  0.83567979020E+03  0.83567979020E+03  0.25500000920E-02 0. -1.
        2   -1    0    0  501    0  0.00000000000E+00  0.00000000000E+00 -0.22839177312E+04  0.22839177312E+04  0.25500000920E-02 0.  1.
    10030    2    1    2    0    0  0.00000000000E+00  0.00000000000E+00 -0.14482379410E+04  0.31195975214E+04  0.27630590949E+04 0.  0.
        1    1    3    3  502    0 -0.98659779240E+03  0.92745887444E+03 -0.41477767055E+03  0.14161905535E+04  0.50400001928E-02 0. -1.
       -1    1    3    3    0  502  0.98659779240E+03 -0.92745887444E+03 -0.10334602704E+04  0.17034069679E+04  0.50400001928E-02 0.  1.
</event>
<event>
 5   0  0.7681342E-06  0.2683042E+04  0.7818609E-02  0.8340528E-01
       -1   -1    0    0    0  501  0.00000000000E+00  0.00000000000E+00  0.12073234491E+04  0.12073234491E+04  0.50400001928E-02 0.  1.
        1   -1    0    0  501    0  0.00000000000E+00  0.00000000000E+00 -0.14906354358E+04  0.14906354358E+04  0.50400001928E-02 0. -1.
    10030    2    1    2    0    0  0.00000000000E+00  0.00000000000E+00 -0.28331198677E+03  0.26979588849E+04  0.26830423893E+04 0.  0.
        2    1    3    3  502    0 -0.34340859869E+03 -0.12084578735E+04  0.33146935587E+03  0.12992966680E+04  0.25500000920E-02 0.  1.
       -2    1    3    3    0  502  0.34340859869E+03  0.12084578735E+04 -0.61478134264E+03  0.13986622169E+04  0.25500000920E-02 0. -1.
</event>
<event>
 5   0  0.6288000E-06  0.2240065E+04  0.7818609E-02  0.8501935E-01
        3   -1    0    0  501    0  0.00000000000E+00  0.00000000000E+00  0.23063534293E+04  0.23063534315E+04  0.10100000352E+00 0. -1.
       -3   -1    0    0    0  501  0.00000000000E+00  0.00000000000E+00 -0.54392022426E+03  0.54392023363E+03  0.10100000352E+00 0.  1.
    10030    2    1    2    0    0  0.00000000000E+00  0.00000000000E+00  0.17624332050E+04  0.28502736651E+04  0.22400645446E+04 0.  0.
        1    1    3    3  502    0  0.10795729519E+04 -0.29023756454E+03  0.79346028447E+03  0.13708737452E+04  0.50400001928E-02 0.  1.
       -1    1    3    3    0  502 -0.10795729519E+04  0.29023756454E+03  0.96897292053E+03  0.14793999199E+04  0.50400001928E-02 0. -1.
</event>
<event>
 5   0  0.7555871E-06  0.2671297E+04  0.7818609E-02  0.8344378E-01
       -1   -1    0    0    0  501  0.00000000000E+00  0.00000000000E+00  0.90893101970E+03  0.90893101971E+03  0.50400001928E-02 0.  1.
        1   -1    0    0  501    0  0.00000000000E+00  0.00000000000E+00 -0.19626982838E+04  0.19626982838E+04  0.50400001928E-02 0. -1.
    10030    2    1    2    0    0  0.00000000000E+00  0.00000000000E+00 -0.10537672641E+04  0.28716293035E+04  0.26712973271E+04 0.  0.
        3    1    3    3  502    0 -0.30398282594E+03 -0.31655568367E+03  0.82920545470E+03  0.93818695132E+03  0.10100000352E+00 0.  1.
       -3    1    3    3    0  502  0.30398282594E+03  0.31655568367E+03 -0.18829727188E+04  0.19334423522E+04  0.10100000352E+00 0. -1.
</event>
<event>
 5   0  0.7555871E-06  0.2811072E+04  0.7818609E-02  0.8299839E-01
       -1   -1    0    0    0  501  0.00000000000E+00  0.00000000000E+00  0.13501583946E+04  0.13501583946E+04  0.50400001928E-02 0. -1.
        1   -1    0    0  501    0  0.00000000000E+00  0.00000000000E+00 -0.14631850162E+04  0.14631850162E+04  0.50400001928E-02 0.  1.
    10030    2    1    2    0    0  0.00000000000E+00  0.00000000000E+00 -0.11302662166E+03  0.28133434108E+04  0.28110720606E+04 0.  0.
        3    1    3    3  502    0  0.10288793407E+04 -0.83798181983E+03  0.40724571175E+03  0.13880400960E+04  0.10100000352E+00 0. -1.
       -3    1    3    3    0  502 -0.10288793407E+04  0.83798181983E+03 -0.52027233340E+03  0.14253033148E+04  0.10100000352E+00 0.  1.
</event>
<event>
 5   0  0.7613444E-06  0.2948690E+04  0.7818609E-02  0.8258536E-01
        1   -1    0    0  501    0  0.00000000000E+00  0.00000000000E+00  0.27325963926E+04  0.27325963926E+04  0.50400001928E-02 0. -1.
       -1   -1    0    0    0  501  0.00000000000E+00  0.00000000000E+00 -0.79546813609E+03  0.79546813610E+03  0.50400001928E-02 0.  1.
    10030    2    1    2    0    0  0.00000000000E+00  0.00000000000E+00  0.19371282565E+04  0.35280645287E+04  0.29486901222E+04 0.  0.
        5    1    3    3  502    0  0.60676634130E+02  0.14649659258E+04  0.11533986603E+04  0.18655179917E+04  0.46999998093E+01 0.  1.
       -5    1    3    3    0  502 -0.60676634130E+02 -0.14649659258E+04  0.78372959628E+03  0.16625465371E+04  0.46999998093E+01 0. -1.
</event>
<event>
 5   0  0.7509685E-06  0.2725348E+04  0.7818609E-02  0.8326827E-01
       -1   -1    0    0    0  501  0.00000000000E+00  0.00000000000E+00  0.95906040849E+03  0.95906040850E+03  0.50400001928E-02 0. -1.
        1   -1    0    0  501    0  0.00000000000E+00  0.00000000000E+00 -0.19361447857E+04  0.19361447857E+04  0.50400001928E-02 0.  1.
    10030    2    1    2    0    0  0.00000000000E+00  0.00000000000E+00 -0.97708437723E+03  0.28952051942E+04  0.27253475442E+04 0.  0.
        4    1    3    3  502    0 -0.34802752845E+03  0.10808485353E+04 -0.12888344332E+04  0.17176881340E+04  0.12699999809E+01 0.  1.
       -4    1    3    3    0  502  0.34802752845E+03 -0.10808485353E+04  0.31175005596E+03  0.11775170602E+04  0.12699999809E+01 0. -1.
</event>
<event>
 5   0  0.7613444E-06  0.2696494E+04  0.7818609E-02  0.8336144E-01
        1   -1    0    0  501    0  0.00000000000E+00  0.00000000000E+00  0.95784723618E+03  0.95784723620E+03  0.50400001928E-02 0.  1.
       -1   -1    0    0    0  501  0.00000000000E+00  0.00000000000E+00 -0.18977653794E+04  0.18977653794E+04  0.50400001928E-02 0. -1.
    10030    2    1    2    0    0  0.00000000000E+00  0.00000000000E+00 -0.93991814319E+03  0.28556126156E+04  0.26964935183E+04 0.  0.
        5    1    3    3  502    0 -0.11573705882E+04 -0.13280749982E+03  0.24876660744E+03  0.11912394492E+04  0.46999998093E+01 0.  1.
       -5    1    3    3    0  502  0.11573705882E+04  0.13280749982E+03 -0.11886847506E+04  0.16643731663E+04  0.46999998093E+01 0. -1.
</event>
<event>
 5   0  0.1923559E-05  0.2770761E+04  0.7818609E-02  0.8312404E-01
       -2   -1    0    0    0  501  0.00000000000E+00  0.00000000000E+00  0.92718895846E+03  0.92718895847E+03  0.25500000920E-02 0. -1.
        2   -1    0    0  501    0  0.00000000000E+00  0.00000000000E+00 -0.20699972360E+04  0.20699972360E+04  0.25500000920E-02 0.  1.
    10030    2    1    2    0    0  0.00000000000E+00  0.00000000000E+00 -0.11428082776E+04  0.29971861945E+04  0.27707606041E+04 0.  0.
        4    1    3    3  502    0  0.90416159658E+03 -0.10312126356E+04 -0.35951606104E+03  0.14178015036E+04  0.12699999809E+01 0.  1.
       -4    1    3    3    0  502 -0.90416159658E+03  0.10312126356E+04 -0.78329221653E+03  0.15793846909E+04  0.12699999809E+01 0. -1.
</event>
<event>
 5   0  0.7613444E-06  0.2795215E+04  0.7818609E-02  0.8304756E-01
        1   -1    0    0  501    0  0.00000000000E+00  0.00000000000E+00  0.18645897113E+04  0.18645897113E+04  0.50400001928E-02 0. -1.
       -1   -1    0    0    0  501  0.00000000000E+00  0.00000000000E+00 -0.10475796161E+04  0.10475796161E+04  0.50400001928E-02 0.  1.
    10030    2    1    2    0    0  0.00000000000E+00  0.00000000000E+00  0.81701009518E+03  0.29121693274E+04  0.27952146064E+04 0.  0.
        5    1    3    3  502    0 -0.11365349834E+04 -0.67563709110E+03 -0.63308448264E+02  0.13237172270E+04  0.46999998093E+01 0.  1.
       -5    1    3    3    0  502  0.11365349834E+04  0.67563709110E+03  0.88031854345E+03  0.15884521004E+04  0.46999998093E+01 0. -1.
</event>
<event>
 5   0  0.1874272E-05  0.2784199E+04  0.7818609E-02  0.8308191E-01
        2   -1    0    0  501    0  0.00000000000E+00  0.00000000000E+00  0.23892242685E+04  0.23892242685E+04  0.25500000920E-02 0. -1.
       -2   -1    0    0    0  501  0.00000000000E+00  0.00000000000E+00 -0.81111706228E+03  0.81111706228E+03  0.25500000920E-02 0.  1.
    10030    2    1    2    0    0  0.00000000000E+00  0.00000000000E+00  0.15781072062E+04  0.32003413308E+04  0.27841986781E+04 0.  0.
        3    1    3    3  502    0 -0.11180961763E+04  0.18412977000E+03  0.17185570219E+04  0.20585142893E+04  0.10100000352E+00 0. -1.
       -3    1    3    3    0  502  0.11180961763E+04 -0.18412977000E+03 -0.14044981573E+03  0.11418270414E+04  0.10100000352E+00 0.  1.
</event>
<event>
 5   0  0.1874272E-05  0.2814923E+04  0.7818609E-02  0.8298650E-01
       -2   -1    0    0    0  501  0.00000000000E+00  0.00000000000E+00  0.13817506030E+04  0.13817506030E+04  0.25500000920E-02 0.  1.
        2   -1    0    0  501    0  0.00000000000E+00  0.00000000000E+00 -0.14336506595E+04  0.14336506595E+04  0.25500000920E-02 0. -1.
    10030    2    1    2    0    0  0.00000000000E+00  0.00000000000E+00 -0.51900056483E+02  0.28154012626E+04  0.28149228504E+04 0.  0.
        3    1    3    3  502    0 -0.70704008462E+03 -0.51758024038E+03  0.10756692645E+04  0.13873930097E+04  0.10100000352E+00 0.  1.
       -3    1    3    3    0  502  0.70704008462E+03  0.51758024038E+03 -0.11275693210E+04  0.14280082529E+04  0.10100000352E+00 0. -1.
</event>
<event>
 5   0  0.7681342E-06  0.2847729E+04  0.7818609E-02  0.8288602E-01
        1   -1    0    0  501    0  0.00000000000E+00  0.00000000000E+00  0.16822607741E+04  0.16822607741E+04  0.50400001928E-02 0.  1.
       -1   -1    0    0    0  501  0.00000000000E+00  0.00000000000E+00 -0.12051578737E+04  0.12051578737E+04  0.50400001928E-02 0. -1.
    10030    2    1    2    0    0  0.00000000000E+00  0.00000000000E+00  0.47710290046E+03  0.28874186478E+04  0.28477287915E+04 0.  0.
        2    1    3    3  502    0 -0.45895051112E+03  0.11969914086E+04 -0.38973458970E+03  0.13398944191E+04  0.25500000920E-02 0. -1.
       -2    1    3    3    0  502  0.45895051112E+03 -0.11969914086E+04  0.86683749016E+03  0.15475242287E+04  0.25500000920E-02 0.  1.
</event>
<event>
 5   0  0.1814230E-05  0.2654521E+04  0.7818609E-02  0.8349914E-01
        2   -1    0    0  501    0  0.00000000000E+00  0.00000000000E+00  0.11341793849E+04  0.11341793850E+04  0.25500000920E-02 0. -1.
       -2   -1    0    0    0  501  0.00000000000E+00  0.00000000000E+00 -0.15532111512E+04  0.15532111512E+04  0.25500000920E-02 0.  1.
    10030    2    1    2    0    0  0.00000000000E+00  0.00000000000E+00 -0.41903176625E+03  0.26873905362E+04  0.26545207237E+04 0.  0.
        5    1    3    3  502    0 -0.13094075226E+04  0.18155343293E+03 -0.89352131372E+02  0.13249587173E+04  0.46999998093E+01 0. -1.
       -5    1    3    3    0  502  0.13094075226E+04 -0.18155343293E+03 -0.32967963488E+03  0.13624318188E+04  0.46999998093E+01 0.  1.
</event>
<event>
 5   0  0.7613444E-06  0.2780352E+04  0.7818609E-02  0.8309394E-01
       -1   -1    0    0    0  501  0.00000000000E+00  0.00000000000E+00  0.14894259815E+04  0.14894259815E+04  0.50400001928E-02 0. -1.
        1   -1    0    0  501    0  0.00000000000E+00  0.00000000000E+00 -0.12975396595E+04  0.12975396595E+04  0.50400001928E-02 0.  1.
    10030    2    1    2    0    0  0.00000000000E+00  0.00000000000E+00  0.19188632200E+03  0.27869656410E+04  0.27803519783E+04 0.  0.
        5    1    3    3  502    0  0.48344919713E+03  0.41107463517E+03  0.13357611205E+04  0.14788459497E+04  0.46999998093E+01 0. -1.
       -5    1    3    3    0  502 -0.48344919713E+03 -0.41107463517E+03 -0.11438747985E+04  0.13081196912E+04  0.46999998093E+01 0.  1.
</event>
<event>
 5   0  0.7681342E-06  0.2800079E+04  0.7818609E-02  0.8303244E-01
       -1   -1    0    0    0  501  0.00000000000E+00  0.00000000000E+00  0.12493981657E+04  0.12493981657E+04  0.50400001928E-02 0.  1.
        1   -1    0    0  501    0  0.00000000000E+00  0.00000000000E+00 -0.15688442438E+04  0.15688442438E+04  0.50400001928E-02 0. -1.
    10030    2    1    2    0    0  0.00000000000E+00  0.00000000000E+00 -0.31944607813E+03  0.28182424095E+04  0.28000793707E+04 0.  0.
        2    1    3    3  502    0 -0.13048451990E+04 -0.45114992657E+03  0.74063395666E+02  0.13826216533E+04  0.25500000920E-02 0. -1.
       -2    1    3    3    0  502  0.13048451990E+04  0.45114992657E+03 -0.39350947380E+03  0.14356207562E+04  0.25500000920E-02 0.  1.
</event>
<event>
 5   0  0.1814230E-05  0.2863901E+04  0.7818609E-02  0.8283700E-01
       -2   -1    0    0    0  501  0.00000000000E+00  0.00000000000E+00  0.79275179927E+03  0.79275179927E+03  0.25500000920E-02 0. -1.
        2   -1    0    0  501    0  0.00000000000E+00  0.00000000000E+00 -0.25865369748E+04  0.25865369748E+04  0.25500000920E-02 0.  1.
    10030    2    1    2    0    0  0.00000000000E+00  0.00000000000E+00 -0.17937851755E+04  0.33792887741E+04  0.28639007250E+04 0.  0.
        5    1    3    3  502    0  0.13330725086E+04  0.27754742460E+03 -0.37404257916E+03  0.14121065212E+04  0.46999998093E+01 0.  1.
       -5    1    3    3    0  502 -0.13330725086E+04 -0.27754742460E+03 -0.14197425964E+04  0.19671822529E+04  0.46999998093E+01 0. -1.
</event>
<event>
 5   0  0.1904553E-05  0.2796676E+04  0.7818609E-02  0.8304301E-01
       -2   -1    0    0    0  501  0.00000000000E+00  0.00000000000E+00  0.15087780923E+04  0.15087780923E+04  0.25500000920E-02 0. -1.
        2   -1    0    0  501    0  0.00000000000E+00  0.00000000000E+00 -0.12959816322E+04  0.12959816322E+04  0.25500000920E-02 0.  1.
    10030    2    1    2    0    0  0.00000000000E+00  0.00000000000E+00  0.21279646014E+03  0.28047597245E+04  0.27966756656E+04 0.  0.
        1    1    3    3  502    0  0.43646762206E+03  0.78455308904E+03 -0.96876464549E+03  0.13208075079E+04  0.50400001928E-02 0.  1.
       -1    1    3    3    0  502 -0.43646762206E+03 -0.78455308904E+03  0.11815611056E+04  0.14839522165E+04  0.50400001928E-02 0. -1.
</event>
<event>
 5   0  0.7681342E-06  0.2736734E+04  0.7818609E-02  0.8323184E-01
        1   -1    0    0  501    0  0.00000000000E+00  0.00000000000E+00  0.16605088011E+04  0.16605088011E+04  0.50400001928E-02 0. -1.
       -1   -1    0    0    0  501  0.00000000000E+00  0.00000000000E+00 -0.11276231896E+04  0.11276231896E+04  0.50400001928E-02 0.  1.
    10030    2    1    2    0    0  0.00000000000E+00  0.00000000000E+00  0.53288561149E+03  0.27881319907E+04  0.27367339883E+04 0.  0.
        2    1    3    3  502    0  0.53861160551E+03  0.28659579540E+03 -0.98138217833E+03  0.11555737066E+04  0.25500000920E-02 0.  1.
       -2    1    3    3    0  502 -0.53861160551E+03 -0.28659579540E+03  0.15142677898E+04  0.16325582841E+04  0.25500000920E-02 0. -1.
</event>
<event>
 5   0  0.1904553E-05  0.2530284E+04  0.7818609E-02  0.8392275E-01
       -2   -1    0    0    0  501  0.00000000000E+00  0.00000000000E+00  0.11231182279E+04  0.11231182279E+04  0.25500000920E-02 0. -1.
        2   -1    0    0  501    0  0.00000000000E+00  0.00000000000E+00 -0.14251259189E+04  0.14251259189E+04  0.25500000920E-02 0.  1.
    10030    2    1    2    0    0  0.00000000000E+00  0.00000000000E+00 -0.30200769101E+03  0.25482441468E+04  0.25302844872E+04 0.  0.
        1    1    3    3  502    0  0.54481462953E+02  0.65143056759E+03 -0.12418609577E+04  0.14034060896E+04  0.50400001928E-02 0.  1.
       -1    1    3    3    0  502 -0.54481462953E+02 -0.65143056759E+03  0.93985326665E+03  0.11448380571E+04  0.50400001928E-02 0. -1.
</event>
<event>
 5   0  0.7509685E-06  0.2790422E+04  0.7818609E-02  0.8306248E-01
       -1   -1    0    0    0  501  0.00000000000E+00  0.00000000000E+00  0.76479756065E+03  0.76479756067E+03  0.50400001928E-02 0. -1.
        1   -1    0    0  501    0  0.00000000000E+00  0.00000000000E+00 -0.25452663378E+04  0.25452663378E+04  0.50400001928E-02 0.  1.
    10030    2    1    2    0    0  0.00000000000E+00  0.00000000000E+00 -0.17804687772E+04  0.33100638985E+04  0.27904218222E+04 0.  0.
        4    1    3    3  502    0 -0.53945628193E+03  0.23492525515E+02  0.63582582498E+03  0.83417088865E+03  0.12699999809E+01 0. -1.
       -4    1    3    3    0  502  0.53945628193E+03 -0.23492525515E+02 -0.24162946021E+04  0.24758930098E+04  0.12699999809E+01 0.  1.
</event>
<event>
 5   0  0.1874272E-05  0.2786321E+04  0.7818609E-02  0.8307528E-01
        2   -1    0    0  501    0  0.00000000000E+00  0.00000000000E+00  0.97983681770E+03  0.97983681770E+03  0.25500000920E-02 0. -1.
       -2   -1    0    0    0  501  0.00000000000E+00  0.00000000000E+00 -0.19808362480E+04  0.19808362480E+04  0.25500000920E-02 0.  1.
    10030    2    1    2    0    0  0.00000000000E+00  0.00000000000E+00 -0.10009994303E+04  0.29606730657E+04  0.27863210767E+04 0.  0.
        3    1    3    3  502    0  0.67978745588E+03 -0.53541793093E+03 -0.16606599931E+04  0.18725851032E+04  0.10100000352E+00 0.  1.
       -3    1    3    3    0  502 -0.67978745588E+03  0.53541793093E+03  0.65966056275E+03  0.10880879625E+04  0.10100000352E+00 0. -1.
</event>
<event>
 5   0  0.7509685E-06  0.2773194E+04  0.7818609E-02  0.8311639E-01
       -1   -1    0    0    0  501  0.00000000000E+00  0.00000000000E+00  0.21088814777E+04  0.21088814777E+04  0.50400001928E-02 0.  1.
        1   -1    0    0  501    0  0.00000000000E+00  0.00000000000E+00 -0.91169239603E+03  0.91169239605E+03  0.50400001928E-02 0. -1.
    10030    2    1    2    0    0  0.00000000000E+00  0.00000000000E+00  0.11971890817E+04  0.30205738738E+04  0.27731939762E+04 0.  0.
        4    1    3    3  502    0 -0.60456302011E+03 -0.12225229018E+04  0.32609559588E+03  0.14022833669E+04  0.12699999809E+01 0. -1.
       -4    1    3    3    0  502  0.60456302011E+03  0.12225229018E+04  0.87109348583E+03  0.16182905069E+04  0.12699999809E+01 0.  1.
</event>
<event>
 5   0  0.1874272E-05  0.1794817E+04  0.7818609E-02  0.8709060E-01
        2   -1    0    0  501    0  0.00000000000E+00  0.00000000000E+00  0.11249477347E+04  0.11249477347E+04  0.25500000920E-02 0. -1.
       -2   -1    0    0    0  501  0.00000000000E+00  0.00000000000E+00 -0.71589296997E+03  0.71589296997E+03  0.25500000920E-02 0.  1.
    10030    2    1    2    0    0  0.00000000000E+00  0.00000000000E+00  0.40905476472E+03  0.18408407047E+04  0.17948171771E+04 0.  0.
        3    1    3    3  502    0  0.11753594576E+03 -0.88151615407E+03  0.81208062762E+02  0.89301746237E+03  0.10100000352E+00 0. -1.
       -3    1    3    3    0  502 -0.11753594576E+03  0.88151615407E+03  0.32784670196E+03  0.94782324229E+03  0.10100000352E+00 0.  1.
</event>
<event>
 5   0  0.1923559E-05  0.2756316E+04  0.7818609E-02  0.8316960E-01
        2   -1    0    0  501    0  0.00000000000E+00  0.00000000000E+00  0.15404838793E+04  0.15404838793E+04  0.25500000920E-02 0. -1.
       -2   -1    0    0    0  501  0.00000000000E+00  0.00000000000E+00 -0.12329373282E+04  0.12329373282E+04  0.25500000920E-02 0.  1.
    10030    2    1    2    0    0  0.00000000000E+00  0.00000000000E+00  0.30754655117E+03  0.27734212075E+04  0.27563164392E+04 0.  0.
        4    1    3    3  502    0  0.10969591834E+04 -0.45191038645E+03  0.85939254104E+03  0.14649572007E+04  0.12699999809E+01 0. -1.
       -4    1    3    3    0  502 -0.10969591834E+04  0.45191038645E+03 -0.55184598987E+03  0.13084640068E+04  0.12699999809E+01 0.  1.
</event>
<event>
 5   0  0.1832502E-05  0.2769308E+04  0.7818609E-02  0.8312861E-01
        2   -1    0    0  501    0  0.00000000000E+00  0.00000000000E+00  0.10575900551E+04  0.10575900551E+04  0.25500000920E-02 0. -1.
       -2   -1    0    0    0  501  0.00000000000E+00  0.00000000000E+00 -0.18128641561E+04  0.18128641561E+04  0.25500000920E-02 0.  1.
    10030    2    1    2    0    0  0.00000000000E+00  0.00000000000E+00 -0.75527410109E+03  0.28704542112E+04  0.27693082910E+04 0.  0.
        2    1    3    3  502    0  0.23578634168E+03 -0.12032874752E+04  0.28910742169E+03  0.12597932562E+04  0.25500000920E-02 0. -1.
       -2    1    3    3    0  502 -0.23578634168E+03  0.12032874752E+04 -0.10443815228E+04  0.16106609550E+04  0.25500000920E-02 0.  1.
</event>
<event>
 5   0  0.1832502E-05  0.2426290E+04  0.7818609E-02  0.8429726E-01
        2   -1    0    0  501    0  0.00000000000E+00  0.00000000000E+00  0.11167292303E+04  0.11167292303E+04  0.25500000920E-02 0.  1.
       -2   -1    0    0    0  501  0.00000000000E+00  0.00000000000E+00 -0.13178855782E+04  0.13178855782E+04  0.25500000920E-02 0. -1.
    10030    2    1    2    0    0  0.00000000000E+00  0.00000000000E+00 -0.20115634788E+03  0.24346148085E+04  0.24262904586E+04 0.  0.
        2    1    3    3  502    0  0.50419592507E+03 -0.10812641743E+04  0.12012097578E+03  0.11990724725E+04  0.25500000920E-02 0.  1.
       -2    1    3    3    0  502 -0.50419592507E+03  0.10812641743E+04 -0.32127732366E+03  0.12355423360E+04  0.25500000920E-02 0. -1.
</event>
<event>
 5   0  0.7509685E-06  0.2772342E+04  0.7818609E-02  0.8311907E-01
       -1   -1    0    0    0  501  0.00000000000E+00  0.00000000000E+00  0.15146619982E+04  0.15146619982E+04  0.50400001928E-02 0.  1.
        1   -1    0    0  501    0  0.00000000000E+00  0.00000000000E+00 -0.12685799061E+04  0.12685799061E+04  0.50400001928E-02 0. -1.
    10030    2    1    2    0    0  0.00000000000E+00  0.00000000000E+00  0.24608209208E+03  0.27832419043E+04  0.27723418083E+04 0.  0.
        4    1    3    3  502    0 -0.10262936568E+02  0.36618912044E+03  0.14651848908E+04  0.15102874485E+04  0.12699999809E+01 0.  1.
       -4    1    3    3    0  502  0.10262936568E+02 -0.36618912044E+03 -0.12191027987E+04  0.12729544558E+04  0.12699999809E+01 0. -1.
</event>
<event>
 5   0  0.1832502E-05  0.2838394E+04  0.7818609E-02  0.8291447E-01
        2   -1    0    0  501    0  0.00000000000E+00  0.00000000000E+00  0.22584651325E+04  0.22584651325E+04  0.25500000920E-02 0. -1.
       -2   -1    0    0    0  501  0.00000000000E+00  0.00000000000E+00 -0.89180910249E+03  0.89180910249E+03  0.25500000920E-02 0.  1.
    10030    2    1    2    0    0  0.00000000000E+00  0.00000000000E+00  0.13666560301E+04  0.31502742350E+04  0.28383937450E+04 0.  0.
        2    1    3    3  502    0 -0.63906959545E+03 -0.10887397910E+04 -0.36260259825E+02  0.12629644044E+04  0.25500000920E-02 0. -1.
       -2    1    3    3    0  502  0.63906959545E+03  0.10887397910E+04  0.14029162899E+04  0.18873098306E+04  0.25500000920E-02 0.  1.
</event>
<event>
 5   0  0.1814230E-05  0.2597118E+04  0.7818609E-02  0.8369181E-01
       -2   -1    0    0    0  501  0.00000000000E+00  0.00000000000E+00  0.10483374236E+04  0.10483374236E+04  0.25500000920E-02 0. -1.
        2   -1    0    0  501    0  0.00000000000E+00  0.00000000000E+00 -0.16085040966E+04  0.16085040966E+04  0.25500000920E-02 0.  1.
    10030    2    1    2    0    0  0.00000000000E+00  0.00000000000E+00 -0.56016667293E+03  0.26568415202E+04  0.25971176642E+04 0.  0.
        5    1    3    3  502    0 -0.13236693092E+03  0.27885998883E+03  0.10102507193E+04  0.10563675987E+04  0.46999998093E+01 0. -1.
       -5    1    3    3    0  502  0.13236693092E+03 -0.27885998883E+03 -0.15704173922E+04  0.16004739215E+04  0.46999998093E+01 0.  1.
</event>
<event>
 5   0  0.1814230E-05  0.2748423E+04  0.7818609E-02  0.8319462E-01
        2   -1    0    0  501    0  0.00000000000E+00  0.00000000000E+00  0.16803360645E+04  0.16803360645E+04  0.25500000920E-02 0.  1.
       -2   -1    0    0    0  501  0.00000000000E+00  0.00000000000E+00 -0.11238572852E+04  0.11238572852E+04  0.25500000920E-02 0. -1.
    10030    2    1    2    0    0  0.00000000000E+00  0.00000000000E+00  0.55647877937E+03  0.28041933497E+04  0.27484234955E+04 0.  0.
        5    1    3    3  502    0  0.46372899196E+03 -0.71403206062E+03 -0.82232822713E+03  0.11836942868E+04  0.46999998093E+01 0. -1.
       -5    1    3    3    0  502 -0.46372899196E+03  0.71403206062E+03  0.13788070065E+04  0.16204990629E+04  0.46999998093E+01 0.  1.
</event>
<event>
 5   0  0.1874272E-05  0.2774186E+04  0.7818609E-02  0.8311328E-01
        2   -1    0    0  501    0  0.00000000000E+00  0.00000000000E+00  0.21893959732E+04  0.21893959732E+04  0.25500000920E-02 0.  1.
       -2   -1    0    0    0  501  0.00000000000E+00  0.00000000000E+00 -0.87879359145E+03  0.87879359145E+03  0.25500000920E-02 0. -1.
    10030    2    1    2    0    0  0.00000000000E+00  0.00000000000E+00  0.13106023817E+04  0.30681895646E+04  0.27741861152E+04 0.  0.
        3    1    3    3  502    0 -0.22016447679E+03  0.10134020906E+03 -0.85519342866E+03  0.88887459489E+03  0.10100000352E+00 0. -1.
       -3    1    3    3    0  502  0.22016447679E+03 -0.10134020906E+03  0.21657958104E+04  0.21793149698E+04  0.10100000352E+00 0.  1.
</event>
<event>
 5   0  0.7613444E-06  0.2800298E+04  0.7818609E-02  0.8303176E-01
       -1   -1    0    0    0  501  0.00000000000E+00  0.00000000000E+00  0.79455869245E+03  0.79455869247E+03  0.50400001928E-02 0.  1.
        1   -1    0    0  501    0  0.00000000000E+00  0.00000000000E+00 -0.24673024519E+04  0.24673024519E+04  0.50400001928E-02 0. -1.
    10030    2    1    2    0    0  0.00000000000E+00  0.00000000000E+00 -0.16727437595E+04  0.32618611444E+04  0.28002975628E+04 0.  0.
        5    1    3    3  502    0 -0.49921625050E+01 -0.19014037296E+03  0.77943042962E+03  0.80231675025E+03  0.46999998093E+01 0.  1.
       -5    1    3    3    0  502  0.49921625050E+01  0.19014037296E+03 -0.24521741891E+04  0.24595443941E+04  0.46999998093E+01 0. -1.
</event>
<event>
 5   0  0.7388013E-06  0.2706688E+04  0.7818609E-02  0.8332838E-01
        1   -1    0    0  501    0  0.00000000000E+00  0.00000000000E+00  0.14894075091E+04  0.14894075091E+04  0.50400001928E-02 0. -1.
       -1   -1    0    0    0  501  0.00000000000E+00  0.00000000000E+00 -0.12297101536E+04  0.12297101536E+04  0.50400001928E-02 0.  1.
    10030    2    1    2    0    0  0.00000000000E+00  0.00000000000E+00  0.25969735548E+03  0.27191176627E+04  0.27066876708E+04 0.  0.
        1    1    3    3  502    0  0.69092747411E+03 -0.23530254877E+03 -0.10150302727E+04  0.12502137891E+04  0.50400001928E-02 0.  1.
       -1    1    3    3    0  502 -0.69092747411E+03  0.23530254877E+03  0.12747276282E+04  0.14689038736E+04  0.50400001928E-02 0. -1.
</event>
<event>
 5   0  0.1874272E-05  0.2805431E+04  0.7818609E-02  0.8301584E-01
        2   -1    0    0  501    0  0.00000000000E+00  0.00000000000E+00  0.19595614244E+04  0.19595614244E+04  0.25500000920E-02 0.  1.
       -2   -1    0    0    0  501  0.00000000000E+00  0.00000000000E+00 -0.10041076701E+04  0.10041076701E+04  0.25500000920E-02 0. -1.
    10030    2    1    2    0    0  0.00000000000E+00  0.00000000000E+00  0.95545375433E+03  0.29636690945E+04  0.28054309162E+04 0.  0.
        3    1    3    3  502    0  0.39766902069E+03 -0.57420108158E+03  0.17627952388E+04  0.18961262079E+04  0.10100000352E+00 0.  1.
       -3    1    3    3    0  502 -0.39766902069E+03  0.57420108158E+03 -0.80734148447E+03  0.10675428867E+04  0.10100000352E+00 0. -1.
</event>
<event>
 5   0  0.7681342E-06  0.2745955E+04  0.7818609E-02  0.8320246E-01
        1   -1    0    0  501    0  0.00000000000E+00  0.00000000000E+00  0.76964815751E+03  0.76964815753E+03  0.50400001928E-02 0. -1.
       -1   -1    0    0    0  501  0.00000000000E+00  0.00000000000E+00 -0.24492589054E+04  0.24492589054E+04  0.50400001928E-02 0.  1.
    10030    2    1    2    0    0  0.00000000000E+00  0.00000000000E+00 -0.16796107479E+04  0.32189070630E+04  0.27459552829E+04 0.  0.
        2    1    3    3  502    0  0.12844064298E+04 -0.43400134180E+03 -0.58564215596E+03  0.14768323454E+04  0.25500000920E-02 0. -1.
       -2    1    3    3    0  502 -0.12844064298E+04  0.43400134180E+03 -0.10939685919E+04  0.17420747176E+04  0.25500000920E-02 0.  1.
</event>
<event>
 5   0  0.1923559E-05  0.2774533E+04  0.7818609E-02  0.8311219E-01
       -2   -1    0    0    0  501  0.00000000000E+00  0.00000000000E+00  0.92590808774E+03  0.92590808775E+03  0.25500000920E-02 0. -1.
        2   -1    0    0  501    0  0.00000000000E+00  0.00000000000E+00 -0.20785091686E+04  0.20785091686E+04  0.25500000920E-02 0.  1.
    10030    2    1    2    0    0  0.00000000000E+00  0.00000000000E+00 -0.11526010808E+04  0.30044172563E+04  0.27745330776E+04 0.  0.
        4    1    3    3  502    0  0.91153945099E+03 -0.46770142835E+03 -0.15891365526E+04  0.18907684661E+04  0.12699999809E+01 0.  1.
       -4    1    3    3    0  502 -0.91153945099E+03  0.46770142835E+03  0.43653547181E+03  0.11136487902E+04  0.12699999809E+01 0. -1.
</event>
<event>
 5   0  0.7509685E-06  0.2759703E+04  0.7818609E-02  0.8315889E-01
       -1   -1    0    0    0  501  0.00000000000E+00  0.00000000000E+00  0.12908533810E+04  0.12908533810E+04  0.50400001928E-02 0. -1.
        1   -1    0    0  501    0  0.00000000000E+00  0.00000000000E+00 -0.14749857844E+04  0.14749857845E+04  0.50400001928E-02 0.  1.
    10030    2    1    2    0    0  0.00000000000E+00  0.00000000000E+00 -0.18413240346E+03  0.27658391654E+04  0.27597031629E+04 0.  0.
        4    1    3    3  502    0  0.11673797675E+04  0.61826804410E+03  0.30751548803E+03  0.13563179141E+04  0.12699999809E+01 0. -1.
       -4    1    3    3    0  502 -0.11673797675E+04 -0.61826804410E+03 -0.49164789149E+03  0.14095212513E+04  0.12699999809E+01 0.  1.
</event>
<event>
 5   0  0.1923559E-05  0.2323974E+04  0.7818609E-02  0.8468528E-01
       -2   -1    0    0    0  501  0.00000000000E+00  0.00000000000E+00  0.87306716993E+03  0.87306716993E+03  0.25500000920E-02 0. -1.
        2   -1    0    0  501    0  0.00000000000E+00  0.00000000000E+00 -0.15465178155E+04  0.15465178155E+04  0.25500000920E-02 0.  1.
    10030    2    1    2    0    0  0.00000000000E+00  0.00000000000E+00 -0.67345064555E+03  0.24195849854E+04  0.23239741241E+04 0.  0.
        4    1    3    3  502    0 -0.14652771246E+03  0.87101514448E+02 -0.15334287210E+04  0.15428746869E+04  0.12699999809E+01 0.  1.
       -4    1    3    3    0  502  0.14652771246E+03 -0.87101514448E+02  0.85997807543E+03  0.87671029848E+03  0.12699999809E+01 0. -1.
</event>
<event>
 5   0  0.1904553E-05  0.2677425E+04  0.7818609E-02  0.8342367E-01
        2   -1    0    0  501    0  0.00000000000E+00  0.00000000000E+00  0.10475813014E+04  0.10475813014E+04  0.25500000920E-02 0. -1.
       -2   -1    0    0    0  501  0.00000000000E+00  0.00000000000E+00 -0.17107507422E+04  0.17107507422E+04  0.25500000920E-02 0.  1.
    10030    2    1    2    0    0  0.00000000000E+00  0.00000000000E+00 -0.66316944078E+03  0.27583320436E+04  0.26774245004E+04 0.  0.
        1    1    3    3  502    0  0.12759186017E+04  0.39256364892E+03 -0.22817217567E+03  0.13543031560E+04  0.50400001928E-02 0.  1.
       -1    1    3    3    0  502 -0.12759186017E+04 -0.39256364892E+03 -0.43499726512E+03  0.14040288876E+04  0.50400001928E-02 0. -1.
</event>
<event>
 5   0  0.1832502E-05  0.2787730E+04  0.7818609E-02  0.8307088E-01
        2   -1    0    0  501    0  0.00000000000E+00  0.00000000000E+00  0.17798628785E+04  0.17798628785E+04  0.25500000920E-02 0. -1.
       -2   -1    0    0    0  501  0.00000000000E+00  0.00000000000E+00 -0.10915782601E+04  0.10915782601E+04  0.25500000920E-02 0.  1.
    10030    2    1    2    0    0  0.00000000000E+00  0.00000000000E+00  0.68828461834E+03  0.28714411386E+04  0.27877299899E+04 0.  0.
        2    1    3    3  502    0 -0.12579296700E+03 -0.58442117183E+03  0.16411144348E+04  0.17466048679E+04  0.25500000920E-02 0. -1.
       -2    1    3    3    0  502  0.12579296700E+03  0.58442117183E+03 -0.95282981645E+03  0.11248362706E+04  0.25500000920E-02 0.  1.
</event>
<event>
 5   0  0.7555871E-06  0.2554165E+04  0.7818609E-02  0.8383939E-01
        1   -1    0    0  501    0  0.00000000000E+00  0.00000000000E+00  0.13501421012E+04  0.13501421012E+04  0.50400001928E-02 0. -1.
       -1   -1    0    0    0  501  0.00000000000E+00  0.00000000000E+00 -0.12079763168E+04  0.12079763168E+04  0.50400001928E-02 0.  1.
    10030    2    1    2    0    0  0.00000000000E+00  0.00000000000E+00  0.14216578444E+03  0.25581184180E+04  0.25541649771E+04 0.  0.
        3    1    3    3  502    0 -0.30324551178E+03 -0.12246964067E+04 -0.12696174905E+03  0.12680530056E+04  0.10100000352E+00 0.  1.
       -3    1    3    3    0  502  0.30324551178E+03  0.12246964067E+04  0.26912753349E+03  0.12900654125E+04  0.10100000352E+00 0. -1.
</event>
<event>
 5   0  0.7388013E-06  0.2798821E+04  0.7818609E-02  0.8303635E-01
       -1   -1    0    0    0  501  0.00000000000E+00  0.00000000000E+00  0.87339751803E+03  0.87339751804E+03  0.50400001928E-02 0. -1.
        1   -1    0    0  501    0  0.00000000000E+00  0.00000000000E+00 -0.22422199671E+04  0.22422199671E+04  0.50400001928E-02 0.  1.
    10030    2    1    2    0    0  0.00000000000E+00  0.00000000000E+00 -0.13688224491E+04  0.31156174852E+04  0.27988207189E+04 0.  0.
        1    1    3    3  502    0 -0.41158439355E+03 -0.13154242507E+04 -0.95390120239E+03  0.16762070804E+04  0.50400001928E-02 0.  1.
       -1    1    3    3    0  502  0.41158439355E+03  0.13154242507E+04 -0.41492124671E+03  0.14394104048E+04  0.50400001928E-02 0. -1.
</event>
<event>
 5   0  0.7681342E-06  0.2780738E+04  0.7818609E-02  0.8309273E-01
       -1   -1    0    0    0  501  0.00000000000E+00  0.00000000000E+00  0.87445656609E+03  0.87445656611E+03  0.50400001928E-02 0.  1.
        1   -1    0    0  501    0  0.00000000000E+00  0.00000000000E+00 -0.22106598426E+04  0.22106598426E+04  0.50400001928E-02 0. -1.
    10030    2    1    2    0    0  0.00000000000E+00  0.00000000000E+00 -0.13362032765E+04  0.30851164087E+04  0.27807380422E+04 0.  0.
        2    1    3    3  502    0 -0.46632227124E+02  0.10454912950E+04 -0.16836659192E+04  0.19824120510E+04  0.25500000920E-02 0. -1.
       -2    1    3    3    0  502  0.46632227124E+02 -0.10454912950E+04  0.34746264266E+03  0.11027043577E+04  0.25500000920E-02 0.  1.
</event>
<event>
 5   0  0.1832502E-05  0.2791901E+04  0.7818609E-02  0.8305787E-01
       -2   -1    0    0    0  501  0.00000000000E+00  0.00000000000E+00  0.95910710721E+03  0.95910710721E+03  0.25500000920E-02 0.  1.
        2   -1    0    0  501    0  0.00000000000E+00  0.00000000000E+00 -0.20317629224E+04  0.20317629224E+04  0.25500000920E-02 0. -1.
    10030    2    1    2    0    0  0.00000000000E+00  0.00000000000E+00 -0.10726558152E+04  0.29908700296E+04  0.27919013300E+04 0.  0.
        2    1    3    3  502    0  0.46045516587E+01 -0.10830510461E+04 -0.14798074118E+04  0.18338077180E+04  0.25500000920E-02 0. -1.
       -2    1    3    3    0  502 -0.46045516587E+01  0.10830510461E+04  0.40715159662E+03  0.11570623116E+04  0.25500000920E-02 0.  1.
</event>
<event>
 5   0  0.1814230E-05  0.2980286E+04  0.7818609E-02  0.8249383E-01
        2   -1    0    0  501    0  0.00000000000E+00  0.00000000000E+00  0.10977388413E+04  0.10977388413E+04  0.25500000920E-02 0.  1.
       -2   -1    0    0    0  501  0.00000000000E+00  0.00000000000E+00 -0.20228181936E+04  0.20228181936E+04  0.25500000920E-02 0. -1.
    10030    2    1    2    0    0  0.00000000000E+00  0.00000000000E+00 -0.92507935221E+03  0.31205570349E+04  0.29802859595E+04 0.  0.
        5    1    3    3  502    0 -0.10691535675E+04 -0.61956862548E+01 -0.15493603502E+04  0.18824630999E+04  0.46999998093E+01 0. -1.
       -5    1    3    3    0  502  0.10691535675E+04  0.61956862548E+01  0.62428099803E+03  0.12380939350E+04  0.46999998093E+01 0.  1.
</event>
<event>
 5   0  0.7388013E-06  0.2500237E+04  0.7818609E-02  0.8402901E-01
        1   -1    0    0  501    0  0.00000000000E+00  0.00000000000E+00  0.11375383718E+04  0.11375383718E+04  0.50400001928E-02 0.  1.
       -1   -1    0    0    0  501  0.00000000000E+00  0.00000000000E+00 -0.13738402515E+04  0.13738402515E+04  0.50400001928E-02 0. -1.
    10030    2    1    2    0    0  0.00000000000E+00  0.00000000000E+00 -0.23630187966E+03  0.25113786233E+04  0.25002367911E+04 0.  0.
        1    1    3    3  502    0 -0.92146602089E+03  0.64651873397E+03  0.42806451646E+03  0.12042945368E+04  0.50400001928E-02 0.  1.
       -1    1    3    3    0  502  0.92146602089E+03 -0.64651873397E+03 -0.66436639612E+03  0.13070840866E+04  0.50400001928E-02 0. -1.
</event>
<event>
 5   0  0.1904553E-05  0.2804549E+04  0.7818609E-02  0.8301858E-01
        2   -1    0    0  501    0  0.00000000000E+00  0.00000000000E+00  0.14972195742E+04  0.14972195742E+04  0.25500000920E-02 0. -1.
       -2   -1    0    0    0  501  0.00000000000E+00  0.00000000000E+00 -0.13133500615E+04  0.13133500615E+04  0.25500000920E-02 0.  1.
    10030    2    1    2    0    0  0.00000000000E+00  0.00000000000E+00  0.18386951263E+03  0.28105696357E+04  0.28045487479E+04 0.  0.
        1    1    3    3  502    0 -0.13950559893E+04 -0.13882840438E+03  0.61556635335E+02  0.14032974590E+04  0.50400001928E-02 0.  1.
       -1    1    3    3    0  502  0.13950559893E+04  0.13882840438E+03  0.12231287729E+03  0.14072721766E+04  0.50400001928E-02 0. -1.
</event>
<event>
 5   0  0.7388013E-06  0.2689106E+04  0.7818609E-02  0.8338548E-01
        1   -1    0    0  501    0  0.00000000000E+00  0.00000000000E+00  0.10506951449E+04  0.10506951449E+04  0.50400001928E-02 0.  1.
       -1   -1    0    0    0  501  0.00000000000E+00  0.00000000000E+00 -0.17205973002E+04  0.17205973002E+04  0.50400001928E-02 0. -1.
    10030    2    1    2    0    0  0.00000000000E+00  0.00000000000E+00 -0.66990215529E+03  0.27712924452E+04  0.26891063421E+04 0.  0.
        1    1    3    3  502    0  0.86447652959E+03 -0.10264779706E+04 -0.24967841818E+03  0.13650333355E+04  0.50400001928E-02 0.  1.
       -1    1    3    3    0  502 -0.86447652959E+03  0.10264779706E+04 -0.42022373711E+03  0.14062591097E+04  0.50400001928E-02 0. -1.
</event>
<event>
 5   0  0.1814230E-05  0.2392875E+04  0.7818609E-02  0.8442176E-01
        2   -1    0    0  501    0  0.00000000000E+00  0.00000000000E+00  0.15440334548E+04  0.15440334548E+04  0.25500000920E-02 0.  1.
       -2   -1    0    0    0  501  0.00000000000E+00  0.00000000000E+00 -0.92709342848E+03  0.92709342849E+03  0.25500000920E-02 0. -1.
    10030    2    1    2    0    0  0.00000000000E+00  0.00000000000E+00  0.61694002636E+03  0.24711268833E+04  0.23928754831E+04 0.  0.
        5    1    3    3  502    0  0.19582950618E+03 -0.62322176130E+03 -0.72664892576E+03  0.97713628045E+03  0.46999998093E+01 0. -1.
       -5    1    3    3    0  502 -0.19582950618E+03  0.62322176130E+03  0.13435889521E+04  0.14939906029E+04  0.46999998093E+01 0.  1.
</event>
<event>
 5   0  0.1923559E-05  0.2699187E+04  0.7818609E-02  0.8335269E-01
        2   -1    0    0  501    0  0.00000000000E+00  0.00000000000E+00  0.16265856671E+04  0.16265856671E+04  0.25500000920E-02 0. -1.
       -2   -1    0    0    0  501  0.00000000000E+00  0.00000000000E+00 -0.11197703276E+04  0.11197703276E+04  0.25500000920E-02 0.  1.
    10030    2    1    2    0    0  0.00000000000E+00  0.00000000000E+00  0.50681533951E+03  0.27463559947E+04  0.26991868148E+04 0.  0.
        4    1    3    3  502    0 -0.80152550701E+03  0.42985730766E+03 -0.76110264397E+03  0.11859592282E+04  0.12699999809E+01 0.  1.
       -4    1    3    3    0  502  0.80152550701E+03 -0.42985730766E+03  0.12679179835E+04  0.15603967665E+04  0.12699999809E+01 0. -1.
</event>
<event>
 5   0  0.1814230E-05  0.3002230E+04  0.7818609E-02  0.8243094E-01
       -2   -1    0    0    0  501  0.00000000000E+00  0.00000000000E+00  0.12838042391E+04  0.12838042391E+04  0.25500000920E-02 0.  1.
        2   -1    0    0  501    0  0.00000000000E+00  0.00000000000E+00 -0.17552100829E+04  0.17552100830E+04  0.25500000920E-02 0. -1.
    10030    2    1    2    0    0  0.00000000000E+00  0.00000000000E+00 -0.47140584383E+03  0.30390143221E+04  0.30022299346E+04 0.  0.
        5    1    3    3  502    0 -0.29378879115E+03 -0.26330393973E+02  0.12541726223E+04  0.12884006365E+04  0.46999998093E+01 0.  1.
       -5    1    3    3    0  502  0.29378879115E+03  0.26330393973E+02 -0.17255784661E+04  0.17506136856E+04  0.46999998093E+01 0. -1.
</event>
<event>
 5   0  0.1814230E-05  0.2463513E+04  0.7818609E-02  0.8416101E-01
       -2   -1    0    0    0  501  0.00000000000E+00  0.00000000000E+00  0.13305721636E+04  0.13305721636E+04  0.25500000920E-02 0. -1.
        2   -1    0    0  501    0  0.00000000000E+00  0.00000000000E+00 -0.11402792445E+04  0.11402792445E+04  0.25500000920E-02 0.  1.
    10030    2    1    2    0    0  0.00000000000E+00  0.00000000000E+00  0.19029291913E+03  0.24708514081E+04  0.24635127939E+04 0.  0.
        5    1    3    3  502    0 -0.76288344379E+03 -0.64532607559E+02  0.10629281582E+04  0.13099595283E+04  0.46999998093E+01 0. -1.
       -5    1    3    3    0  502  0.76288344379E+03  0.64532607559E+02 -0.87263523904E+03  0.11608918798E+04  0.46999998093E+01 0.  1.
</event>
<event>
 5   0  0.6288000E-06  0.2687434E+04  0.7818609E-02  0.8339094E-01
        4   -1    0    0  501    0  0.00000000000E+00  0.00000000000E+00  0.15080720608E+04  0.15080725955E+04  0.12699999809E+01 0.  1.
       -4   -1    0    0    0  501  0.00000000000E+00  0.00000000000E+00 -0.11972725317E+04  0.11972732052E+04  0.12699999809E+01 0. -1.
    10030    2    1    2    0    0  0.00000000000E+00  0.00000000000E+00  0.31079952910E+03  0.27053458008E+04  0.26874336372E+04 0.  0.
        5    1    3    3  502    0  0.71092512779E+03  0.87120368012E+03  0.89592663489E+03  0.14377472012E+04  0.46999998093E+01 0.  1.
       -5    1    3    3    0  502 -0.71092512779E+03 -0.87120368012E+03 -0.58512710579E+03  0.12675985995E+04  0.46999998093E+01 0. -1.
</event>
<event>
 5   0  0.1904553E-05  0.2780584E+04  0.7818609E-02  0.8309322E-01
        2   -1    0    0  501    0  0.00000000000E+00  0.00000000000E+00  0.19354744627E+04  0.19354744627E+04  0.25500000920E-02 0.  1.
       -2   -1    0    0    0  501  0.00000000000E+00  0.00000000000E+00 -0.99867617455E+03  0.99867617456E+03  0.25500000920E-02 0. -1.
    10030    2    1    2    0    0  0.00000000000E+00  0.00000000000E+00  0.93679828813E+03  0.29341506372E+04  0.27805842784E+04 0.  0.
        1    1    3    3  502    0 -0.12015513755E+03  0.82348184960E+03 -0.70682018963E+03  0.10918582299E+04  0.50400001928E-02 0. -1.
       -1    1    3    3    0  502  0.12015513755E+03 -0.82348184960E+03  0.16436184778E+04  0.18422924073E+04  0.50400001928E-02 0.  1.
</event>
<event>
 5   0  0.7681342E-06  0.2725686E+04  0.7818609E-02  0.8326719E-01
       -1   -1    0    0    0  501  0.00000000000E+00  0.00000000000E+00  0.14467707953E+04  0.14467707953E+04  0.50400001928E-02 0.  1.
        1   -1    0    0  501    0  0.00000000000E+00  0.00000000000E+00 -0.12837835209E+04  0.12837835209E+04  0.50400001928E-02 0. -1.
    10030    2    1    2    0    0  0.00000000000E+00  0.00000000000E+00  0.16298727440E+03  0.27305543162E+04  0.27256856059E+04 0.  0.
        2    1    3    3  502    0  0.10849362826E+03  0.41672976311E+03 -0.12138380212E+04  0.12879585803E+04  0.25500000920E-02 0. -1.
       -2    1    3    3    0  502 -0.10849362826E+03 -0.41672976311E+03  0.13768252956E+04  0.14425957359E+04  0.25500000920E-02 0.  1.
</event>
<event>
 5   0  0.1923559E-05  0.2542666E+04  0.7818609E-02  0.8387941E-01
       -2   -1    0    0    0  501  0.00000000000E+00  0.00000000000E+00  0.18095354255E+04  0.18095354255E+04  0.25500000920E-02 0.  1.
        2   -1    0    0  501    0  0.00000000000E+00  0.00000000000E+00 -0.89320568834E+03  0.89320568834E+03  0.25500000920E-02 0. -1.
    10030    2    1    2    0    0  0.00000000000E+00  0.00000000000E+00  0.91632973718E+03  0.27027411139E+04  0.25426657943E+04 0.  0.
        4    1    3    3  502    0 -0.10429127798E+04  0.58039850877E+03 -0.73032130211E+01  0.11935595692E+04  0.12699999809E+01 0. -1.
       -4    1    3    3    0  502  0.10429127798E+04 -0.58039850877E+03  0.92363295021E+03  0.15091815447E+04  0.12699999809E+01 0.  1.
</event>
<event>
 5   0  0.7555871E-06  0.2769115E+04  0.7818609E-02  0.8312922E-01
       -1   -1    0    0    0  501  0.00000000000E+00  0.00000000000E+00  0.14691337113E+04  0.14691337113E+04  0.50400001928E-02 0.  1.
        1   -1    0    0  501    0  0.00000000000E+00  0.00000000000E+00 -0.13048501727E+04  0.13048501727E+04  0.50400001928E-02 0. -1.
    10030    2    1    2    0    0  0.00000000000E+00  0.00000000000E+00  0.16428353862E+03  0.27739838840E+04  0.27691149322E+04 0.  0.
        3    1    3    3  502    0 -0.68312004126E+03 -0.12024314791E+04  0.14905098010E+02  0.13830099873E+04  0.10100000352E+00 0.  1.
       -3    1    3    3    0  502  0.68312004126E+03  0.12024314791E+04  0.14937844061E+03  0.13909738967E+04  0.10100000352E+00 0. -1.
</event>
<event>
 5   0  0.1874272E-05  0.2750187E+04  0.7818609E-02  0.8318902E-01
        2   -1    0    0  501    0  0.00000000000E+00  0.00000000000E+00  0.16641999944E+04  0.16641999944E+04  0.25500000920E-02 0.  1.
       -2   -1    0    0    0  501  0.00000000000E+00  0.00000000000E+00 -0.11362108863E+04  0.11362108863E+04  0.25500000920E-02 0. -1.
    10030    2    1    2    0    0  0.00000000000E+00  0.00000000000E+00  0.52798910813E+03  0.28004108807E+04  0.27501870123E+04 0.  0.
        3    1    3    3  502    0  0.39680392468E+03 -0.13129788830E+04  0.36332202379E+03  0.14189326288E+04  0.10100000352E+00 0.  1.
       -3    1    3    3    0  502 -0.39680392468E+03  0.13129788830E+04  0.16466708434E+03  0.13814782520E+04  0.10100000352E+00 0. -1.
</event>
<event>
 5   0  0.7509685E-06  0.1956411E+04  0.7818609E-02  0.8627276E-01
        1   -1    0    0  501    0  0.00000000000E+00  0.00000000000E+00  0.13623260489E+04  0.13623260489E+04  0.50400001928E-02 0. -1.
       -1   -1    0    0    0  501  0.00000000000E+00  0.00000000000E+00 -0.70239120035E+03  0.70239120036E+03  0.50400001928E-02 0.  1.
    10030    2    1    2    0    0  0.00000000000E+00  0.00000000000E+00  0.65993484853E+03  0.20647172493E+04  0.19564108247E+04 0.  0.
        4    1    3    3  502    0 -0.66570078535E+02  0.93472412578E+03  0.33820145720E+02  0.93770260842E+03  0.12699999809E+01 0.  1.
       -4    1    3    3    0  502  0.66570078535E+02 -0.93472412578E+03  0.62611470281E+03  0.11270146408E+04  0.12699999809E+01 0. -1.
</event>
<event>
 5   0  0.1904553E-05  0.2811316E+04  0.7818609E-02  0.8299764E-01
       -2   -1    0    0    0  501  0.00000000000E+00  0.00000000000E+00  0.13521613203E+04  0.13521613203E+04  0.25500000920E-02 0.  1.
        2   -1    0    0  501    0  0.00000000000E+00  0.00000000000E+00 -0.14612711108E+04  0.14612711109E+04  0.25500000920E-02 0. -1.
    10030    2    1    2    0    0  0.00000000000E+00  0.00000000000E+00 -0.10910979059E+03  0.28134324311E+04  0.28113159015E+04 0.  0.
        1    1    3    3  502    0  0.17114698512E+03  0.90024104735E+03  0.10121505040E+04  0.13653475296E+04  0.50400001928E-02 0.  1.
       -1    1    3    3    0  502 -0.17114698512E+03 -0.90024104735E+03 -0.11212602946E+04  0.14480849015E+04  0.50400001928E-02 0. -1.
</event>
<event>
 5   0  0.7613444E-06  0.2654939E+04  0.7818609E-02  0.8349775E-01
       -1   -1    0    0    0  501  0.00000000000E+00  0.00000000000E+00  0.16506306299E+04  0.16506306299E+04  0.50400001928E-02 0.  1.
        1   -1    0    0  501    0  0.00000000000E+00  0.00000000000E+00 -0.10675772106E+04  0.10675772107E+04  0.50400001928E-02 0. -1.
    10030    2    1    2    0    0  0.00000000000E+00  0.00000000000E+00  0.58305341922E+03  0.27182078405E+04  0.26549392789E+04 0.  0.
        5    1    3    3  502    0  0.44232651297E+03  0.10601715807E+04 -0.38956073742E+03  0.12130112047E+04  0.46999998093E+01 0. -1.
       -5    1    3    3    0  502 -0.44232651297E+03 -0.10601715807E+04  0.97261415665E+03  0.15051966358E+04  0.46999998093E+01 0.  1.
</event>
<event>
 5   0  0.7509685E-06  0.2713455E+04  0.7818609E-02  0.8330652E-01
        1   -1    0    0  501    0  0.00000000000E+00  0.00000000000E+00  0.90827733803E+03  0.90827733804E+03  0.50400001928E-02 0. -1.
       -1   -1    0    0    0  501  0.00000000000E+00  0.00000000000E+00 -0.20265942815E+04  0.20265942815E+04  0.50400001928E-02 0.  1.
    10030    2    1    2    0    0  0.00000000000E+00  0.00000000000E+00 -0.11183169434E+04  0.29348716195E+04  0.27134551106E+04 0.  0.
        4    1    3    3  502    0  0.98399662988E+03 -0.90924753618E+03 -0.79044783240E+03  0.15555673686E+04  0.12699999809E+01 0. -1.
       -4    1    3    3    0  502 -0.98399662988E+03  0.90924753618E+03 -0.32786911102E+03  0.13793042509E+04  0.12699999809E+01 0.  1.
</event>
<event>
 5   0  0.1874272E-05  0.2729267E+04  0.7818609E-02  0.8325571E-01
        2   -1    0    0  501    0  0.00000000000E+00  0.00000000000E+00  0.12969071055E+04  0.12969071055E+04  0.25500000920E-02 0. -1.
       -2   -1    0    0    0  501  0.00000000000E+00  0.00000000000E+00 -0.14358965009E+04  0.14358965009E+04  0.25500000920E-02 0.  1.
    10030    2    1    2    0    0  0.00000000000E+00  0.00000000000E+00 -0.13898939539E+03  0.27328036064E+04  0.27292668428E+04 0.  0.
        3    1    3    3  502    0 -0.79059446359E+03 -0.11107650293E+04 -0.11231595134E+02  0.13634385630E+04  0.10100000352E+00 0.  1.
       -3    1    3    3    0  502  0.79059446359E+03  0.11107650293E+04 -0.12775780026E+03  0.13693650434E+04  0.10100000352E+00 0. -1.
</event>
<event>
 5   0  0.6288000E-06  0.2465943E+04  0.7818609E-02  0.8415220E-01
        3   -1    0    0  501    0  0.00000000000E+00  0.00000000000E+00  0.16698658678E+04  0.16698658709E+04  0.10100000352E+00 0. -1.
       -3   -1    0    0    0  501  0.00000000000E+00  0.00000000000E+00 -0.91038353916E+03  0.91038354476E+03  0.10100000352E+00 0.  1.
    10030    2    1    2    0    0  0.00000000000E+00  0.00000000000E+00  0.75948232868E+03  0.25802494157E+04  0.24659427486E+04 0.  0.
        2    1    3    3  502    0  0.41479552948E+03 -0.67814305311E+03 -0.60643586457E+03  0.99984888338E+03  0.25500000920E-02 0.  1.
       -2    1    3    3    0  502 -0.41479552948E+03  0.67814305311E+03  0.13659181933E+04  0.15804005323E+04  0.25500000920E-02 0. -1.
</event>
<event>
 5   0  0.7555871E-06  0.2792447E+04  0.7818609E-02  0.8305617E-01
        1   -1    0    0  501    0  0.00000000000E+00  0.00000000000E+00  0.21257872471E+04  0.21257872471E+04  0.50400001928E-02 0.  1.
       -1   -1    0    0    0  501  0.00000000000E+00  0.00000000000E+00 -0.91704382276E+03  0.91704382277E+03  0.50400001928E-02 0. -1.
    10030    2    1    2    0    0  0.00000000000E+00  0.00000000000E+00  0.12087434244E+04  0.30428310699E+04  0.27924470011E+04 0.  0.
        3    1    3    3  502    0 -0.13065327214E+04  0.33246066559E+03  0.10000898952E+04  0.16786118237E+04  0.10100000352E+00 0.  1.
       -3    1    3    3    0  502  0.13065327214E+04 -0.33246066559E+03  0.20865352919E+03  0.13642192462E+04  0.10100000352E+00 0. -1.
</event>
<event>
 5   0  0.7681342E-06  0.2777267E+04  0.7818609E-02  0.8310361E-01
        1   -1    0    0  501    0  0.00000000000E+00  0.00000000000E+00  0.22770155128E+04  0.22770155128E+04  0.50400001928E-02 0.  1.
       -1   -1    0    0    0  501  0.00000000000E+00  0.00000000000E+00 -0.84685551225E+03  0.84685551226E+03  0.50400001928E-02 0. -1.
    10030    2    1    2    0    0  0.00000000000E+00  0.00000000000E+00  0.14301600005E+04  0.31238710250E+04  0.27772671017E+04 0.  0.
        2    1    3    3  502    0  0.58990879067E+03 -0.10066604739E+04 -0.13184720045E+03  0.11741981840E+04  0.25500000920E-02 0. -1.
       -2    1    3    3    0  502 -0.58990879067E+03  0.10066604739E+04  0.15620072010E+04  0.19496728410E+04  0.25500000920E-02 0.  1.
</event>
<event>
 5   0  0.1832502E-05  0.2774057E+04  0.7818609E-02  0.8311368E-01
        2   -1    0    0  501    0  0.00000000000E+00  0.00000000000E+00  0.13189149853E+04  0.13189149853E+04  0.25500000920E-02 0. -1.
       -2   -1    0    0    0  501  0.00000000000E+00  0.00000000000E+00 -0.14586601433E+04  0.14586601433E+04  0.25500000920E-02 0.  1.
    10030    2    1    2    0    0  0.00000000000E+00  0.00000000000E+00 -0.13974515799E+03  0.27775751286E+04  0.27740574771E+04 0.  0.
        2    1    3    3  502    0  0.84196706756E+03  0.97275697260E+03  0.44913213592E+03  0.13626754368E+04  0.25500000920E-02 0. -1.
       -2    1    3    3    0  502 -0.84196706756E+03 -0.97275697260E+03 -0.58887729391E+03  0.14148996918E+04  0.25500000920E-02 0.  1.
</event>
<event>
 5   0  0.7509685E-06  0.2749510E+04  0.7818609E-02  0.8319117E-01
        1   -1    0    0  501    0  0.00000000000E+00  0.00000000000E+00  0.31598097288E+04  0.31598097288E+04  0.50400001928E-02 0. -1.
       -1   -1    0    0    0  501  0.00000000000E+00  0.00000000000E+00 -0.59812207881E+03  0.59812207884E+03  0.50400001928E-02 0.  1.
    10030    2    1    2    0    0  0.00000000000E+00  0.00000000000E+00  0.25616876500E+04  0.37579318077E+04  0.27495104755E+04 0.  0.
        4    1    3    3  502    0 -0.53360097486E+03  0.69822695508E+03 -0.16411688653E+03  0.89397250881E+03  0.12699999809E+01 0.  1.
       -4    1    3    3    0  502  0.53360097486E+03 -0.69822695508E+03  0.27258045365E+04  0.28639592989E+04  0.12699999809E+01 0. -1.
</event>
<event>
 5   0  0.7681342E-06  0.2037240E+04  0.7818609E-02  0.8589405E-01
       -1   -1    0    0    0  501  0.00000000000E+00  0.00000000000E+00  0.59882755850E+03  0.59882755852E+03  0.50400001928E-02 0.  1.
        1   -1    0    0  501    0  0.00000000000E+00  0.00000000000E+00 -0.17326975040E+04  0.17326975040E+04  0.50400001928E-02 0. -1.
    10030    2    1    2    0    0  0.00000000000E+00  0.00000000000E+00 -0.11338699455E+04  0.23315250625E+04  0.20372403059E+04 0.  0.
        2    1    3    3  502    0  0.97016028226E+03  0.17045860126E+02 -0.92168849270E+03  0.13382866704E+04  0.25500000920E-02 0. -1.
       -2    1    3    3    0  502 -0.97016028226E+03 -0.17045860126E+02 -0.21218145278E+03  0.99323839210E+03  0.25500000920E-02 0.  1.
</event>
<event>
 5   0  0.7555871E-06  0.2796778E+04  0.7818609E-02  0.8304269E-01
       -1   -1    0    0    0  501  0.00000000000E+00  0.00000000000E+00  0.14944633778E+04  0.14944633778E+04  0.50400001928E-02 0.  1.
        1   -1    0    0  501    0  0.00000000000E+00  0.00000000000E+00 -0.13084908632E+04  0.13084908632E+04  0.50400001928E-02 0. -1.
    10030    2    1    2    0    0  0.00000000000E+00  0.00000000000E+00  0.18597251460E+03  0.28029542411E+04  0.27967779142E+04 0.  0.
        3    1    3    3  502    0 -0.68348071852E+03  0.29565911001E+03  0.12792096140E+04  0.14801815593E+04  0.10100000352E+00 0.  1.
       -3    1    3    3    0  502  0.68348071852E+03 -0.29565911001E+03 -0.10932370994E+04  0.13227726817E+04  0.10100000352E+00 0. -1.
</event>
<event>
 5   0  0.1904553E-05  0.2785545E+04  0.7818609E-02  0.8307770E-01
       -2   -1    0    0    0  501  0.00000000000E+00  0.00000000000E+00  0.95369438459E+03  0.95369438459E+03  0.25500000920E-02 0.  1.
        2   -1    0    0  501    0  0.00000000000E+00  0.00000000000E+00 -0.20340013308E+04  0.20340013308E+04  0.25500000920E-02 0. -1.
    10030    2    1    2    0    0  0.00000000000E+00  0.00000000000E+00 -0.10803069462E+04  0.29876957154E+04  0.27855452948E+04 0.  0.
        1    1    3    3  502    0 -0.52503276698E+03 -0.12894081723E+04 -0.49748176678E+03  0.14784183946E+04  0.50400001928E-02 0.  1.
       -1    1    3    3    0  502  0.52503276698E+03  0.12894081723E+04 -0.58282517939E+03  0.15092773208E+04  0.50400001928E-02 0. -1.
</event>
<event>
 5   0  0.1923559E-05  0.2695591E+04  0.7818609E-02  0.8336437E-01
        2   -1    0    0  501    0  0.00000000000E+00  0.00000000000E+00  0.16924175958E+04  0.16924175958E+04  0.25500000920E-02 0. -1.
       -2   -1    0    0    0  501  0.00000000000E+00  0.00000000000E+00 -0.10733476642E+04  0.10733476642E+04  0.25500000920E-02 0.  1.
    10030    2    1    2    0    0  0.00000000000E+00  0.00000000000E+00  0.61906993155E+03  0.27657652600E+04  0.26955908245E+04 0.  0.
        4    1    3    3  502    0 -0.14718669271E+03  0.13159100669E+04  0.56761365452E+03  0.14406491941E+04  0.12699999809E+01 0. -1.
       -4    1    3    3    0  502  0.14718669271E+03 -0.13159100669E+04  0.51456277036E+02  0.13251160659E+04  0.12699999809E+01 0.  1.
</event>
<event>
 5   0  0.7388013E-06  0.2639517E+04  0.7818609E-02  0.8354901E-01
       -1   -1    0    0    0  501  0.00000000000E+00  0.00000000000E+00  0.11825225184E+04  0.11825225185E+04  0.50400001928E-02 0.  1.
        1   -1    0    0  501    0  0.00000000000E+00  0.00000000000E+00 -0.14729214397E+04  0.14729214397E+04  0.50400001928E-02 0. -1.
    10030    2    1    2    0    0  0.00000000000E+00  0.00000000000E+00 -0.29039892129E+03  0.26554439582E+04  0.26395172062E+04 0.  0.
        1    1    3    3  502    0 -0.39045133820E+03 -0.11015399262E+04  0.47162351228E+03  0.12602663187E+04  0.50400001928E-02 0.  1.
       -1    1    3    3    0  502  0.39045133820E+03  0.11015399262E+04 -0.76202243357E+03  0.13951776395E+04  0.50400001928E-02 0. -1.
</event>
<event>
 5   0  0.1904553E-05  0.2781893E+04  0.7818609E-02  0.8308912E-01
       -2   -1    0    0    0  501  0.00000000000E+00  0.00000000000E+00  0.17448193027E+04  0.17448193027E+04  0.25500000920E-02 0.  1.
        2   -1    0    0  501    0  0.00000000000E+00  0.00000000000E+00 -0.11088435149E+04  0.11088435149E+04  0.25500000920E-02 0. -1.
    10030    2    1    2    0    0  0.00000000000E+00  0.00000000000E+00  0.63597578786E+03  0.28536628176E+04  0.27818925705E+04 0.  0.
        1    1    3    3  502    0  0.58670165231E+03 -0.94107226933E+02  0.16080731048E+04  0.17143436381E+04  0.50400001928E-02 0.  1.
       -1    1    3    3    0  502 -0.58670165231E+03  0.94107226933E+02 -0.97209731699E+03  0.11393191795E+04  0.50400001928E-02 0. -1.
</event>
<event>
 5   0  0.1923559E-05  0.2788531E+04  0.7818609E-02  0.8306838E-01
       -2   -1    0    0    0  501  0.00000000000E+00  0.00000000000E+00  0.17412252887E+04  0.17412252887E+04  0.25500000920E-02 0.  1.
        2   -1    0    0  501    0  0.00000000000E+00  0.00000000000E+00 -0.11164412534E+04  0.11164412534E+04  0.25500000920E-02 0. -1.
    10030    2    1    2    0    0  0.00000000000E+00  0.00000000000E+00  0.62478403534E+03  0.28576665420E+04  0.27885306121E+04 0.  0.
        4    1    3    3  502    0 -0.77592988266E+03 -0.10876511374E+04 -0.96141861621E+02  0.13395137364E+04  0.12699999809E+01 0. -1.
       -4    1    3    3    0  502  0.77592988266E+03  0.10876511374E+04  0.72092589696E+03  0.15181528057E+04  0.12699999809E+01 0.  1.
</event>
<event>
 5   0  0.1814230E-05  0.2794133E+04  0.7818609E-02  0.8305092E-01
        2   -1    0    0  501    0  0.00000000000E+00  0.00000000000E+00  0.12498744505E+04  0.12498744505E+04  0.25500000920E-02 0.  1.
       -2   -1    0    0    0  501  0.00000000000E+00  0.00000000000E+00 -0.15615928956E+04  0.15615928956E+04  0.25500000920E-02 0. -1.
    10030    2    1    2    0    0  0.00000000000E+00  0.00000000000E+00 -0.31171844509E+03  0.28114673462E+04  0.27941331839E+04 0.  0.
        5    1    3    3  502    0 -0.70695153934E+03 -0.37759960891E+03  0.99553471350E+03  0.12780740978E+04  0.46999998093E+01 0.  1.
       -5    1    3    3    0  502  0.70695153934E+03  0.37759960891E+03 -0.13072531586E+04  0.15333932484E+04  0.46999998093E+01 0. -1.
</event>
<event>
 5   0  0.1904553E-05  0.2776318E+04  0.7818609E-02  0.8310659E-01
       -2   -1    0    0    0  501  0.00000000000E+00  0.00000000000E+00  0.12435093901E+04  0.12435093901E+04  0.25500000920E-02 0. -1.
        2   -1    0    0  501    0  0.00000000000E+00  0.00000000000E+00 -0.15496343552E+04  0.15496343552E+04  0.25500000920E-02 0.  1.
    10030    2    1    2    0    0  0.00000000000E+00  0.00000000000E+00 -0.30612496503E+03  0.27931437453E+04  0.27763176129E+04 0.  0.
        1    1    3    3  502    0 -0.10613530091E+04 -0.88447062383E+03 -0.28888579584E+03  0.14114579332E+04  0.50400001928E-02 0.  1.
       -1    1    3    3    0  502  0.10613530091E+04  0.88447062383E+03 -0.17239169190E+02  0.13816858121E+04  0.50400001928E-02 0. -1.
</event>
<event>
 5   0  0.1814230E-05  0.2740513E+04  0.7818609E-02  0.8321978E-01
        2   -1    0    0  501    0  0.00000000000E+00  0.00000000000E+00  0.14674679357E+04  0.14674679357E+04  0.25500000920E-02 0. -1.
       -2   -1    0    0    0  501  0.00000000000E+00  0.00000000000E+00 -0.12794849968E+04  0.12794849968E+04  0.25500000920E-02 0.  1.
    10030    2    1    2    0    0  0.00000000000E+00  0.00000000000E+00  0.18798293895E+03  0.27469529326E+04  0.27405132418E+04 0.  0.
        5    1    3    3  502    0 -0.30693805921E+03  0.12370755125E+04  0.59817872678E+03  0.14079796430E+04  0.46999998093E+01 0. -1.
       -5    1    3    3    0  502  0.30693805921E+03 -0.12370755125E+04 -0.41019578783E+03  0.13389732896E+04  0.46999998093E+01 0.  1.
</event>
<event>
 5   0  0.1904553E-05  0.2836337E+04  0.7818609E-02  0.8292075E-01
       -2   -1    0    0    0  501  0.00000000000E+00  0.00000000000E+00  0.15873969828E+04  0.15873969828E+04  0.25500000920E-02 0.  1.
        2   -1    0    0  501    0  0.00000000000E+00  0.00000000000E+00 -0.12669814041E+04  0.12669814041E+04  0.25500000920E-02 0. -1.
    10030    2    1    2    0    0  0.00000000000E+00  0.00000000000E+00  0.32041557870E+03  0.28543783869E+04  0.28363373975E+04 0.  0.
        1    1    3    3  502    0  0.10789242180E+04  0.45064827519E+03  0.96783408722E+03  0.15178485289E+04  0.50400001928E-02 0.  1.
       -1    1    3    3    0  502 -0.10789242180E+04 -0.45064827519E+03 -0.64741850851E+03  0.13365298580E+04  0.50400001928E-02 0. -1.
</event>
<event>
 5   0  0.7509685E-06  0.2256939E+04  0.7818609E-02  0.8495096E-01
        1   -1    0    0  501    0  0.00000000000E+00  0.00000000000E+00  0.82092727770E+03  0.82092727772E+03  0.50400001928E-02 0. -1.
       -1   -1    0    0    0  501  0.00000000000E+00  0.00000000000E+00 -0.15512251392E+04  0.15512251392E+04  0.50400001928E-02 0.  1.
    10030    2    1    2    0    0  0.00000000000E+00  0.00000000000E+00 -0.73029786150E+03  0.23721524169E+04  0.22569386617E+04 0.  0.
        4    1    3    3  502    0 -0.10818606196E+04 -0.31070758140E+03 -0.28054234197E+03  0.11600289737E+04  0.12699999809E+01 0. -1.
       -4    1    3    3    0  502  0.10818606196E+04  0.31070758140E+03 -0.44975551953E+03  0.12121234432E+04  0.12699999809E+01 0.  1.
</event>
<event>
 5   0  0.7555871E-06  0.2767836E+04  0.7818609E-02  0.8313324E-01
       -1   -1    0    0    0  501  0.00000000000E+00  0.00000000000E+00  0.76781828257E+03  0.76781828259E+03  0.50400001928E-02 0. -1.
        1   -1    0    0  501    0  0.00000000000E+00  0.00000000000E+00 -0.24943775210E+04  0.24943775210E+04  0.50400001928E-02 0.  1.
    10030    2    1    2    0    0  0.00000000000E+00  0.00000000000E+00 -0.17265592384E+04  0.32621958036E+04  0.27678357352E+04 0.  0.
        3    1    3    3  502    0 -0.11253074621E+03 -0.11625422028E+04 -0.17382021383E+04  0.20941619388E+04  0.10100000352E+00 0.  1.
       -3    1    3    3    0  502  0.11253074621E+03  0.11625422028E+04  0.11642899861E+02  0.11680338648E+04  0.10100000352E+00 0. -1.
</event>
<event>
 5   0  0.1904553E-05  0.2812791E+04  0.7818609E-02  0.8299308E-01
        2   -1    0    0  501    0  0.00000000000E+00  0.00000000000E+00  0.16147571812E+04  0.16147571812E+04  0.25500000920E-02 0. -1.
       -2   -1    0    0    0  501  0.00000000000E+00  0.00000000000E+00 -0.12249202810E+04  0.12249202810E+04  0.25500000920E-02 0.  1.
    10030    2    1    2    0    0  0.00000000000E+00  0.00000000000E+00  0.38983690020E+03  0.28396774622E+04  0.28127913681E+04 0.  0.
        1    1    3    3  502    0  0.80892788905E+03 -0.60609136416E+03  0.11821395658E+04  0.15553665242E+04  0.50400001928E-02 0. -1.
       -1    1    3    3    0  502 -0.80892788905E+03  0.60609136416E+03 -0.79230266564E+03  0.12843109380E+04  0.50400001928E-02 0.  1.
</event>
<event>
 5   0  0.7681342E-06  0.2776634E+04  0.7818609E-02  0.8310560E-01
        1   -1    0    0  501    0  0.00000000000E+00  0.00000000000E+00  0.17393110596E+04  0.17393110596E+04  0.50400001928E-02 0. -1.
       -1   -1    0    0    0  501  0.00000000000E+00  0.00000000000E+00 -0.11081535809E+04  0.11081535809E+04  0.50400001928E-02 0.  1.
    10030    2    1    2    0    0  0.00000000000E+00  0.00000000000E+00  0.63115747876E+03  0.28474646405E+04  0.27766337742E+04 0.  0.
        2    1    3    3  502    0  0.66856081695E+03  0.94418194759E+03 -0.47144271080E+03  0.12492843334E+04  0.25500000920E-02 0.  1.
       -2    1    3    3    0  502 -0.66856081695E+03 -0.94418194759E+03  0.11026001896E+04  0.15981803071E+04  0.25500000920E-02 0. -1.
</event>
<event>
 5   0  0.1832502E-05  0.2486634E+04  0.7818609E-02  0.8407763E-01
        2   -1    0    0  501    0  0.00000000000E+00  0.00000000000E+00  0.53437188642E+03  0.53437188642E+03  0.25500000920E-02 0.  1.
       -2   -1    0    0    0  501  0.00000000000E+00  0.00000000000E+00 -0.28928110879E+04  0.28928110879E+04  0.25500000920E-02 0. -1.
    10030    2    1    2    0    0  0.00000000000E+00  0.00000000000E+00 -0.23584392015E+04  0.34271829743E+04  0.24866338034E+04 0.  0.
        2    1    3    3  502    0 -0.94315076881E+03 -0.62566918259E+03 -0.18885010083E+04  0.22016882970E+04  0.25500000920E-02 0. -1.
       -2    1    3    3    0  502  0.94315076881E+03  0.62566918259E+03 -0.46993819320E+03  0.12254946773E+04  0.25500000920E-02 0.  1.
</event>
<event>
 5   0  0.7509685E-06  0.1864025E+04  0.7818609E-02  0.8672974E-01
       -1   -1    0    0    0  501  0.00000000000E+00  0.00000000000E+00  0.66777579692E+03  0.66777579694E+03  0.50400001928E-02 0.  1.
        1   -1    0    0  501    0  0.00000000000E+00  0.00000000000E+00 -0.13008063764E+04  0.13008063764E+04  0.50400001928E-02 0. -1.
    10030    2    1    2    0    0  0.00000000000E+00  0.00000000000E+00 -0.63303057943E+03  0.19685821733E+04  0.18640246937E+04 0.  0.
        4    1    3    3  502    0  0.35862632741E+02  0.14151377534E+01 -0.13000753803E+04  0.13005713123E+04  0.12699999809E+01 0. -1.
       -4    1    3    3    0  502 -0.35862632741E+02 -0.14151377534E+01  0.66704480090E+03  0.66801086096E+03  0.12699999809E+01 0.  1.
</event>
<event>
 5   0  0.1814230E-05  0.2773390E+04  0.7818609E-02  0.8311578E-01
       -2   -1    0    0    0  501  0.00000000000E+00  0.00000000000E+00  0.12829394672E+04  0.12829394673E+04  0.25500000920E-02 0.  1.
        2   -1    0    0  501    0  0.00000000000E+00  0.00000000000E+00 -0.14988414058E+04  0.14988414058E+04  0.25500000920E-02 0. -1.
    10030    2    1    2    0    0  0.00000000000E+00  0.00000000000E+00 -0.21590193859E+03  0.27817808731E+04  0.27733898353E+04 0.  0.
        5    1    3    3  502    0  0.41638767749E+03 -0.13172019836E+04 -0.22873515961E+03  0.14002648417E+04  0.46999998093E+01 0. -1.
       -5    1    3    3    0  502 -0.41638767749E+03  0.13172019836E+04  0.12833221022E+02  0.13815160314E+04  0.46999998093E+01 0.  1.
</event>
<event>
 5   0  0.7388013E-06  0.2491570E+04  0.7818609E-02  0.8405995E-01
        1   -1    0    0  501    0  0.00000000000E+00  0.00000000000E+00  0.10028884203E+04  0.10028884203E+04  0.50400001928E-02 0. -1.
       -1   -1    0    0    0  501  0.00000000000E+00  0.00000000000E+00 -0.15475101032E+04  0.15475101032E+04  0.50400001928E-02 0.  1.
    10030    2    1    2    0    0  0.00000000000E+00  0.00000000000E+00 -0.54462168294E+03  0.25503985235E+04  0.24915697564E+04 0.  0.
        1    1    3    3  502    0  0.10871711352E+04  0.39829593852E+03  0.19832684344E+03  0.11746975223E+04  0.50400001928E-02 0. -1.
       -1    1    3    3    0  502 -0.10871711352E+04 -0.39829593852E+03 -0.74294852638E+03  0.13757010012E+04  0.50400001928E-02 0.  1.
</event>
<event>
 5   0  0.1904553E-05  0.2748712E+04  0.7818609E-02  0.8319371E-01
        2   -1    0    0  501    0  0.00000000000E+00  0.00000000000E+00  0.10882728548E+04  0.10882728548E+04  0.25500000920E-02 0. -1.
       -2   -1    0    0    0  501  0.00000000000E+00  0.00000000000E+00 -0.17356436294E+04  0.17356436294E+04  0.25500000920E-02 0.  1.
    10030    2    1    2    0    0  0.00000000000E+00  0.00000000000E+00 -0.64737077459E+03  0.28239164842E+04  0.27487115873E+04 0.  0.
        1    1    3    3  502    0 -0.48272300544E+03 -0.14947246137E-01 -0.16456835651E+04  0.17150206695E+04  0.50400001928E-02 0.  1.
       -1    1    3    3    0  502  0.48272300544E+03  0.14947246137E-01  0.99831279051E+03  0.11088958147E+04  0.50400001928E-02 0. -1.
</event>
<event>
 5   0  0.7681342E-06  0.1999302E+04  0.7818609E-02  0.8606947E-01
       -1   -1    0    0    0  501  0.00000000000E+00  0.00000000000E+00  0.93339405723E+03  0.93339405725E+03  0.50400001928E-02 0.  1.
        1   -1    0    0  501    0  0.00000000000E+00  0.00000000000E+00 -0.10706116306E+04  0.10706116306E+04  0.50400001928E-02 0. -1.
    10030    2    1    2    0    0  0.00000000000E+00  0.00000000000E+00 -0.13721757337E+03  0.20040056879E+04  0.19993024120E+04 0.  0.
        2    1    3    3  502    0 -0.17330123184E+03 -0.86603931301E+03 -0.53794647791E+03  0.10341391694E+04  0.25500000920E-02 0. -1.
       -2    1    3    3    0  502  0.17330123184E+03  0.86603931301E+03  0.40072890454E+03  0.96986651843E+03  0.25500000920E-02 0.  1.
</event>
<event>
 5   0  0.7681342E-06  0.2802630E+04  0.7818609E-02  0.8302452E-01
       -1   -1    0    0    0  501  0.00000000000E+00  0.00000000000E+00  0.13066487854E+04  0.13066487855E+04  0.50400001928E-02 0.  1.
        1   -1    0    0  501    0  0.00000000000E+00  0.00000000000E+00 -0.15028392363E+04  0.15028392363E+04  0.50400001928E-02 0. -1.
    10030    2    1    2    0    0  0.00000000000E+00  0.00000000000E+00 -0.19619045084E+03  0.28094880217E+04  0.28026295245E+04 0.  0.
        2    1    3    3  502    0 -0.27714544545E+03  0.13625084506E+04 -0.27300484007E+03  0.14169581922E+04  0.25500000920E-02 0.  1.
       -2    1    3    3    0  502  0.27714544545E+03 -0.13625084506E+04  0.76814389232E+02  0.13925298295E+04  0.25500000920E-02 0. -1.
</event>
<event>
 5   0  0.7613444E-06  0.2825538E+04  0.7818609E-02  0.8295383E-01
        1   -1    0    0  501    0  0.00000000000E+00  0.00000000000E+00  0.96681714004E+03  0.96681714006E+03  0.50400001928E-02 0. -1.
       -1   -1    0    0    0  501  0.00000000000E+00  0.00000000000E+00 -0.20644200630E+04  0.20644200630E+04  0.50400001928E-02 0.  1.
    10030    2    1    2    0    0  0.00000000000E+00  0.00000000000E+00 -0.10976029230E+04  0.30312372031E+04  0.28255383212E+04 0.  0.
        5    1    3    3  502    0  0.75836784345E+03 -0.17009630708E+03 -0.18144507771E+04  0.19739068499E+04  0.46999998093E+01 0.  1.
       -5    1    3    3    0  502 -0.75836784345E+03  0.17009630708E+03  0.71684785415E+03  0.10573303531E+04  0.46999998093E+01 0. -1.
</event>
<event>
 5   0  0.7613444E-06  0.2868055E+04  0.7818609E-02  0.8282446E-01
        1   -1    0    0  501    0  0.00000000000E+00  0.00000000000E+00  0.13334431169E+04  0.13334431169E+04  0.50400001928E-02 0.  1.
       -1   -1    0    0    0  501  0.00000000000E+00  0.00000000000E+00 -0.15421996791E+04  0.15421996791E+04  0.50400001928E-02 0. -1.
    10030    2    1    2    0    0  0.00000000000E+00  0.00000000000E+00 -0.20875656221E+03  0.28756427959E+04  0.28680554715E+04 0.  0.
        5    1    3    3  502    0 -0.37605946914E+03 -0.13561562747E+04  0.17172794383E+03  0.14177775363E+04  0.46999998093E+01 0.  1.
       -5    1    3    3    0  502  0.37605946914E+03  0.13561562747E+04 -0.38048450604E+03  0.14578652596E+04  0.46999998093E+01 0. -1.
</event>
<event>
 5   0  0.7509685E-06  0.2836990E+04  0.7818609E-02  0.8291876E-01
       -1   -1    0    0    0  501  0.00000000000E+00  0.00000000000E+00  0.19626475075E+04  0.19626475075E+04  0.50400001928E-02 0. -1.
        1   -1    0    0  501    0  0.00000000000E+00  0.00000000000E+00 -0.10252111647E+04  0.10252111647E+04  0.50400001928E-02 0.  1.
    10030    2    1    2    0    0  0.00000000000E+00  0.00000000000E+00  0.93743634280E+03  0.29878586722E+04  0.28369900507E+04 0.  0.
        4    1    3    3  502    0  0.27683585854E+03  0.12659285000E+04  0.10763883426E+04  0.16845849746E+04  0.12699999809E+01 0. -1.
       -4    1    3    3    0  502 -0.27683585854E+03 -0.12659285000E+04 -0.13895199976E+03  0.13032736976E+04  0.12699999809E+01 0.  1.
</event>
<event>
 5   0  0.1923559E-05  0.2820867E+04  0.7818609E-02  0.8296819E-01
        2   -1    0    0  501    0  0.00000000000E+00  0.00000000000E+00  0.27926662786E+04  0.27926662786E+04  0.25500000920E-02 0. -1.
       -2   -1    0    0    0  501  0.00000000000E+00  0.00000000000E+00 -0.71233818399E+03  0.71233818400E+03  0.25500000920E-02 0.  1.
    10030    2    1    2    0    0  0.00000000000E+00  0.00000000000E+00  0.20803280946E+04  0.35050044626E+04  0.28208671187E+04 0.  0.
        4    1    3    3  502    0 -0.48490756301E+03  0.11195698579E+04  0.19194215428E+04  0.22743686340E+04  0.12699999809E+01 0. -1.
       -4    1    3    3    0  502  0.48490756301E+03 -0.11195698579E+04  0.16090655178E+03  0.12306358286E+04  0.12699999809E+01 0.  1.
</event>
<event>
 5   0  0.1904553E-05  0.2781680E+04  0.7818609E-02  0.8308979E-01
       -2   -1    0    0    0  501  0.00000000000E+00  0.00000000000E+00  0.83245494110E+03  0.83245494110E+03  0.25500000920E-02 0. -1.
        2   -1    0    0  501    0  0.00000000000E+00  0.00000000000E+00 -0.23237724518E+04  0.23237724518E+04  0.25500000920E-02 0.  1.
    10030    2    1    2    0    0  0.00000000000E+00  0.00000000000E+00 -0.14913175107E+04  0.31562273929E+04  0.27816799668E+04 0.  0.
        1    1    3    3  502    0  0.35686356900E+03 -0.63440178675E+03 -0.20904049792E+04  0.22135063160E+04  0.50400001928E-02 0.  1.
       -1    1    3    3    0  502 -0.35686356900E+03  0.63440178675E+03  0.59908746849E+03  0.94272107690E+03  0.50400001928E-02 0. -1.
</event>
<event>
 5   0  0.1814230E-05  0.2872000E+04  0.7818609E-02  0.8281257E-01
       -2   -1    0    0    0  501  0.00000000000E+00  0.00000000000E+00  0.21508441063E+04  0.21508441063E+04  0.25500000920E-02 0.  1.
        2   -1    0    0  501    0  0.00000000000E+00  0.00000000000E+00 -0.95873781423E+03  0.95873781424E+03  0.25500000920E-02 0. -1.
    10030    2    1    2    0    0  0.00000000000E+00  0.00000000000E+00  0.11921062920E+04  0.31095819205E+04  0.28719997056E+04 0.  0.
        5    1    3    3  502    0  0.96775025683E+03  0.66341880303E+02  0.17424788752E+04  0.19942909831E+04  0.46999998093E+01 0.  1.
       -5    1    3    3    0  502 -0.96775025683E+03 -0.66341880303E+02 -0.55037258321E+03  0.11152909374E+04  0.46999998093E+01 0. -1.
</event>
<event>
 5   0  0.1832502E-05  0.2798050E+04  0.7818609E-02  0.8303874E-01
       -2   -1    0    0    0  501  0.00000000000E+00  0.00000000000E+00  0.84643151350E+03  0.84643151351E+03  0.25500000920E-02 0. -1.
        2   -1    0    0  501    0  0.00000000000E+00  0.00000000000E+00 -0.23123797759E+04  0.23123797759E+04  0.25500000920E-02 0.  1.
    10030    2    1    2    0    0  0.00000000000E+00  0.00000000000E+00 -0.14659482624E+04  0.31588112894E+04  0.27980501164E+04 0.  0.
        2    1    3    3  502    0 -0.91112353019E+03  0.84230824206E+03 -0.14625495595E+04  0.19179886538E+04  0.25500000920E-02 0.  1.
       -2    1    3    3    0  502  0.91112353019E+03 -0.84230824206E+03 -0.33987028504E+01  0.12408226356E+04  0.25500000920E-02 0. -1.
</event>
<event>
 5   0  0.7681342E-06  0.2862691E+04  0.7818609E-02  0.8284065E-01
       -1   -1    0    0    0  501  0.00000000000E+00  0.00000000000E+00  0.15732484338E+04  0.15732484338E+04  0.50400001928E-02 0. -1.
        1   -1    0    0  501    0  0.00000000000E+00  0.00000000000E+00 -0.13022420300E+04  0.13022420300E+04  0.50400001928E-02 0.  1.
    10030    2    1    2    0    0  0.00000000000E+00  0.00000000000E+00  0.27100640380E+03  0.28754904638E+04  0.28626912053E+04 0.  0.
        2    1    3    3  502    0 -0.68926066789E+03 -0.59679637930E+03 -0.97283584749E+03  0.13332875807E+04  0.25500000920E-02 0.  1.
       -2    1    3    3    0  502  0.68926066789E+03  0.59679637930E+03  0.12438422513E+04  0.15422028831E+04  0.25500000920E-02 0. -1.
</event>
<event>
 5   0  0.7388013E-06  0.2598296E+04  0.7818609E-02  0.8368780E-01
       -1   -1    0    0    0  501  0.00000000000E+00  0.00000000000E+00  0.12210303846E+04  0.12210303846E+04  0.50400001928E-02 0.  1.
        1   -1    0    0  501    0  0.00000000000E+00  0.00000000000E+00 -0.13822632041E+04  0.13822632041E+04  0.50400001928E-02 0. -1.
    10030    2    1    2    0    0  0.00000000000E+00  0.00000000000E+00 -0.16123281944E+03  0.26032935887E+04  0.25982958813E+04 0.  0.
        1    1    3    3  502    0 -0.70993959648E+03  0.23688444369E+03 -0.11445708589E+04  0.13675419267E+04  0.50400001928E-02 0. -1.
       -1    1    3    3    0  502  0.70993959648E+03 -0.23688444369E+03  0.98333803942E+03  0.12357516620E+04  0.50400001928E-02 0.  1.
</event>
<event>
 5   0  0.1814230E-05  0.2842005E+04  0.7818609E-02  0.8290345E-01
       -2   -1    0    0    0  501  0.00000000000E+00  0.00000000000E+00  0.77586913534E+03  0.77586913534E+03  0.25500000920E-02 0. -1.
        2   -1    0    0  501    0  0.00000000000E+00  0.00000000000E+00 -0.26025630680E+04  0.26025630680E+04  0.25500000920E-02 0.  1.
    10030    2    1    2    0    0  0.00000000000E+00  0.00000000000E+00 -0.18266939326E+04  0.33784322033E+04  0.28420051775E+04 0.  0.
        5    1    3    3  502    0  0.97021894381E+03 -0.89234491789E+03 -0.15441933891E+04  0.20303102138E+04  0.46999998093E+01 0.  1.
       -5    1    3    3    0  502 -0.97021894381E+03  0.89234491789E+03 -0.28250054352E+03  0.13481219895E+04  0.46999998093E+01 0. -1.
</event>
<event>
 5   0  0.1904553E-05  0.2793118E+04  0.7818609E-02  0.8305408E-01
        2   -1    0    0  501    0  0.00000000000E+00  0.00000000000E+00  0.14292865344E+04  0.14292865344E+04  0.25500000920E-02 0.  1.
       -2   -1    0    0    0  501  0.00000000000E+00  0.00000000000E+00 -0.13645804907E+04  0.13645804907E+04  0.25500000920E-02 0. -1.
    10030    2    1    2    0    0  0.00000000000E+00  0.00000000000E+00  0.64706043709E+02  0.27938670251E+04  0.27931176276E+04 0.  0.
        1    1    3    3  502    0 -0.80127667984E+03  0.10965707653E+04  0.35780897016E+03  0.14044710820E+04  0.50400001928E-02 0.  1.
       -1    1    3    3    0  502  0.80127667984E+03 -0.10965707653E+04 -0.29310292645E+03  0.13893959431E+04  0.50400001928E-02 0. -1.
</event>
<event>
 5   0  0.6288000E-06  0.2772568E+04  0.7818609E-02  0.8311836E-01
        3   -1    0    0  501    0  0.00000000000E+00  0.00000000000E+00  0.11820855406E+04  0.11820855449E+04  0.10100000352E+00 0. -1.
       -3   -1    0    0    0  501  0.00000000000E+00  0.00000000000E+00 -0.16257562791E+04  0.16257562822E+04  0.10100000352E+00 0.  1.
    10030    2    1    2    0    0  0.00000000000E+00  0.00000000000E+00 -0.44367073850E+03  0.28078418272E+04  0.27725677633E+04 0.  0.
        4    1    3    3  502    0  0.82388954219E+03 -0.10321570432E+03  0.90239334262E+03  0.12262800728E+04  0.12699999809E+01 0. -1.
       -4    1    3    3    0  502 -0.82388954219E+03  0.10321570432E+03 -0.13460640811E+04  0.15815617543E+04  0.12699999809E+01 0.  1.
</event>
<event>
 5   0  0.7555871E-06  0.2662747E+04  0.7818609E-02  0.8347194E-01
       -1   -1    0    0    0  501  0.00000000000E+00  0.00000000000E+00  0.23664945870E+04  0.23664945870E+04  0.50400001928E-02 0. -1.
        1   -1    0    0  501    0  0.00000000000E+00  0.00000000000E+00 -0.74902146220E+03  0.74902146222E+03  0.50400001928E-02 0.  1.
    10030    2    1    2    0    0  0.00000000000E+00  0.00000000000E+00  0.16174731248E+04  0.31155160492E+04  0.26627468794E+04 0.  0.
        3    1    3    3  502    0 -0.79868756866E+03  0.10614278434E+04  0.91354696964E+03  0.16121721294E+04  0.10100000352E+00 0. -1.
       -3    1    3    3    0  502  0.79868756866E+03 -0.10614278434E+04  0.70392615519E+03  0.15033439198E+04  0.10100000352E+00 0.  1.
</event>
<event>
 5   0  0.1814230E-05  0.2704185E+04  0.7818609E-02  0.8333648E-01
        2   -1    0    0  501    0  0.00000000000E+00  0.00000000000E+00  0.13670359979E+04  0.13670359979E+04  0.25500000920E-02 0. -1.
       -2   -1    0    0    0  501  0.00000000000E+00  0.00000000000E+00 -0.13373126346E+04  0.13373126346E+04  0.25500000920E-02 0.  1.
    10030    2    1    2    0    0  0.00000000000E+00  0.00000000000E+00  0.29723363384E+02  0.27043486325E+04  0.27041852835E+04 0.  0.
        5    1    3    3  502    0 -0.10679202872E+04  0.12080985934E+03  0.83532799975E+03  0.13611920214E+04  0.46999998093E+01 0. -1.
       -5    1    3    3    0  502  0.10679202872E+04 -0.12080985934E+03 -0.80560463636E+03  0.13431566111E+04  0.46999998093E+01 0.  1.
</event>
<event>
 5   0  0.7555871E-06  0.2757611E+04  0.7818609E-02  0.8316550E-01
       -1   -1    0    0    0  501  0.00000000000E+00  0.00000000000E+00  0.12273202015E+04  0.12273202015E+04  0.50400001928E-02 0. -1.
        1   -1    0    0  501    0  0.00000000000E+00  0.00000000000E+00 -0.15489888151E+04  0.15489888151E+04  0.50400001928E-02 0.  1.
    10030    2    1    2    0    0  0.00000000000E+00  0.00000000000E+00 -0.32166861357E+03  0.27763090167E+04  0.27576114772E+04 0.  0.
        3    1    3    3  502    0 -0.41494184752E+03 -0.54260149887E+03 -0.13666663995E+04  0.15278645821E+04  0.10100000352E+00 0.  1.
       -3    1    3    3    0  502  0.41494184752E+03  0.54260149887E+03  0.10449977860E+04  0.12484444346E+04  0.10100000352E+00 0. -1.
</event>
<event>
 5   0  0.1814230E-05  0.2699740E+04  0.7818609E-02  0.8335089E-01
        2   -1    0    0  501    0  0.00000000000E+00  0.00000000000E+00  0.17554479830E+04  0.17554479830E+04  0.25500000920E-02 0. -1.
       -2   -1    0    0    0  501  0.00000000000E+00  0.00000000000E+00 -0.10379965143E+04  0.10379965143E+04  0.25500000920E-02 0.  1.
    10030    2    1    2    0    0  0.00000000000E+00  0.00000000000E+00  0.71745146862E+03  0.27934444973E+04  0.26997399041E+04 0.  0.
        5    1    3    3  502    0  0.58348416647E+03 -0.48411160488E+03 -0.79686791216E+03  0.10999265330E+04  0.46999998093E+01 0.  1.
       -5    1    3    3    0  502 -0.58348416647E+03  0.48411160488E+03  0.15143193808E+04  0.16935179643E+04  0.46999998093E+01 0. -1.
</event>
<event>
 5   0  0.7681342E-06  0.2802916E+04  0.7818609E-02  0.8302364E-01
        1   -1    0    0  501    0  0.00000000000E+00  0.00000000000E+00  0.12381933126E+04  0.12381933126E+04  0.50400001928E-02 0. -1.
       -1   -1    0    0    0  501  0.00000000000E+00  0.00000000000E+00 -0.15862501651E+04  0.15862501652E+04  0.50400001928E-02 0.  1.
    10030    2    1    2    0    0  0.00000000000E+00  0.00000000000E+00 -0.34805685252E+03  0.28244434778E+04  0.28029158722E+04 0.  0.
        2    1    3    3  502    0 -0.35479270789E+03 -0.25036781716E+03  0.11686929645E+04  0.12467578573E+04  0.25500000920E-02 0. -1.
       -2    1    3    3    0  502  0.35479270789E+03  0.25036781716E+03 -0.15167498171E+04  0.15776856205E+04  0.25500000920E-02 0.  1.
</event>
<event>
 5   0  0.1904553E-05  0.2609301E+04  0.7818609E-02  0.8365049E-01
        2   -1    0    0  501    0  0.00000000000E+00  0.00000000000E+00  0.21801662841E+04  0.21801662841E+04  0.25500000920E-02 0.  1.
       -2   -1    0    0    0  501  0.00000000000E+00  0.00000000000E+00 -0.78072593325E+03  0.78072593326E+03  0.25500000920E-02 0. -1.
    10030    2    1    2    0    0  0.00000000000E+00  0.00000000000E+00  0.13994403509E+04  0.29608922174E+04  0.26093005628E+04 0.  0.
        1    1    3    3  502    0  0.57356366883E+03 -0.10292871008E+04  0.13352842006E+04  0.17808400025E+04  0.50400001928E-02 0.  1.
       -1    1    3    3    0  502 -0.57356366883E+03  0.10292871008E+04  0.64156150247E+02  0.11800522149E+04  0.50400001928E-02 0. -1.
</event>
<event>
 5   0  0.7681342E-06  0.2657928E+04  0.7818609E-02  0.8348786E-01
        1   -1    0    0  501    0  0.00000000000E+00  0.00000000000E+00  0.85835440247E+03  0.85835440248E+03  0.50400001928E-02 0. -1.
       -1   -1    0    0    0  501  0.00000000000E+00  0.00000000000E+00 -0.20575941564E+04  0.20575941564E+04  0.50400001928E-02 0.  1.
    10030    2    1    2    0    0  0.00000000000E+00  0.00000000000E+00 -0.11992397539E+04  0.29159485589E+04  0.26579277663E+04 0.  0.
        2    1    3    3  502    0  0.98327686063E+03 -0.38410907708E+03  0.28607570593E+03  0.10937149890E+04  0.25500000920E-02 0. -1.
       -2    1    3    3    0  502 -0.98327686063E+03  0.38410907708E+03 -0.14853154598E+04  0.18222335698E+04  0.25500000920E-02 0.  1.
</event>
<event>
 5   0  0.1923559E-05  0.2806234E+04  0.7818609E-02  0.8301335E-01
        2   -1    0    0  501    0  0.00000000000E+00  0.00000000000E+00  0.12548855194E+04  0.12548855194E+04  0.25500000920E-02 0. -1.
       -2   -1    0    0    0  501  0.00000000000E+00  0.00000000000E+00 -0.15688584431E+04  0.15688584431E+04  0.25500000920E-02 0.  1.
    10030    2    1    2    0    0  0.00000000000E+00  0.00000000000E+00 -0.31397292370E+03  0.28237439625E+04  0.28062343040E+04 0.  0.
        4    1    3    3  502    0 -0.46347515136E+03  0.48537310373E+03 -0.13968842445E+04  0.15497365813E+04  0.12699999809E+01 0.  1.
       -4    1    3    3    0  502  0.46347515136E+03 -0.48537310373E+03  0.10829113208E+04  0.12740073812E+04  0.12699999809E+01 0. -1.
</event>
<event>
 5   0  0.7509685E-06  0.2797549E+04  0.7818609E-02  0.8304030E-01
       -1   -1    0    0    0  501  0.00000000000E+00  0.00000000000E+00  0.96071079304E+03  0.96071079306E+03  0.50400001928E-02 0. -1.
        1   -1    0    0  501    0  0.00000000000E+00  0.00000000000E+00 -0.20365857701E+04  0.20365857701E+04  0.50400001928E-02 0.  1.
    10030    2    1    2    0    0  0.00000000000E+00  0.00000000000E+00 -0.10758749771E+04  0.29972965632E+04  0.27975488774E+04 0.  0.
        4    1    3    3  502    0  0.11106733383E+04 -0.19042018183E+03 -0.14257877619E+04  0.18173407674E+04  0.12699999809E+01 0.  1.
       -4    1    3    3    0  502 -0.11106733383E+04  0.19042018183E+03  0.34991278479E+03  0.11799557958E+04  0.12699999809E+01 0. -1.
</event>
<event>
 5   0  0.7681342E-06  0.2842398E+04  0.7818609E-02  0.8290225E-01
        1   -1    0    0  501    0  0.00000000000E+00  0.00000000000E+00  0.17145463076E+04  0.17145463076E+04  0.50400001928E-02 0.  1.
       -1   -1    0    0    0  501  0.00000000000E+00  0.00000000000E+00 -0.11780416354E+04  0.11780416354E+04  0.50400001928E-02 0. -1.
    10030    2    1    2    0    0  0.00000000000E+00  0.00000000000E+00  0.53650467224E+03  0.28925879430E+04  0.28423982382E+04 0.  0.
        2    1    3    3  502    0 -0.64344888303E+03 -0.11277217997E+04  0.85640557288E+03  0.15553820842E+04  0.25500000920E-02 0.  1.
       -2    1    3    3    0  502  0.64344888303E+03  0.11277217997E+04 -0.31990090064E+03  0.13372058588E+04  0.25500000920E-02 0. -1.
</event>
<event>
 5   0  0.7613444E-06  0.2810119E+04  0.7818609E-02  0.8300134E-01
        1   -1    0    0  501    0  0.00000000000E+00  0.00000000000E+00  0.21857396327E+04  0.21857396327E+04  0.50400001928E-02 0. -1.
       -1   -1    0    0    0  501  0.00000000000E+00  0.00000000000E+00 -0.90321461001E+03  0.90321461002E+03  0.50400001928E-02 0.  1.
    10030    2    1    2    0    0  0.00000000000E+00  0.00000000000E+00  0.12825250227E+04  0.30889542427E+04  0.28101188373E+04 0.  0.
        5    1    3    3  502    0  0.71531930160E+03 -0.78315542688E+03 -0.37166989897E+03  0.11239104634E+04  0.46999998093E+01 0.  1.
       -5    1    3    3    0  502 -0.71531930160E+03  0.78315542688E+03  0.16541949216E+04  0.19650437793E+04  0.46999998093E+01 0. -1.
</event>
<event>
 5   0  0.7681342E-06  0.2727611E+04  0.7818609E-02  0.8326101E-01
        1   -1    0    0  501    0  0.00000000000E+00  0.00000000000E+00  0.15263563151E+04  0.15263563151E+04  0.50400001928E-02 0. -1.
       -1   -1    0    0    0  501  0.00000000000E+00  0.00000000000E+00 -0.12185660864E+04  0.12185660864E+04  0.50400001928E-02 0.  1.
    10030    2    1    2    0    0  0.00000000000E+00  0.00000000000E+00  0.30779022874E+03  0.27449224016E+04  0.27276114396E+04 0.  0.
        2    1    3    3  502    0  0.44802938443E+03  0.63510945495E+01  0.14501676888E+04  0.15178132267E+04  0.25500000920E-02 0. -1.
       -2    1    3    3    0  502 -0.44802938443E+03 -0.63510945495E+01 -0.11423774600E+04  0.12271091748E+04  0.25500000920E-02 0.  1.
</event>
<event>
 5   0  0.7555871E-06  0.2726240E+04  0.7818609E-02  0.8326541E-01
       -1   -1    0    0    0  501  0.00000000000E+00  0.00000000000E+00  0.79964910178E+03  0.79964910180E+03  0.50400001928E-02 0.  1.
        1   -1    0    0  501    0  0.00000000000E+00  0.00000000000E+00 -0.23236388386E+04  0.23236388386E+04  0.50400001928E-02 0. -1.
    10030    2    1    2    0    0  0.00000000000E+00  0.00000000000E+00 -0.15239897368E+04  0.31232879404E+04  0.27262396888E+04 0.  0.
        3    1    3    3  502    0 -0.78428093769E+02 -0.13489433715E+04 -0.55610934235E+03  0.14611833548E+04  0.10100000352E+00 0. -1.
       -3    1    3    3    0  502  0.78428093769E+02  0.13489433715E+04 -0.96788039448E+03  0.16621045856E+04  0.10100000352E+00 0.  1.
</event>
<event>
 5   0  0.7613444E-06  0.1729602E+04  0.7818609E-02  0.8744659E-01
        1   -1    0    0  501    0  0.00000000000E+00  0.00000000000E+00  0.58399948736E+03  0.58399948738E+03  0.50400001928E-02 0.  1.
       -1   -1    0    0    0  501  0.00000000000E+00  0.00000000000E+00 -0.12806186822E+04  0.12806186822E+04  0.50400001928E-02 0. -1.
    10030    2    1    2    0    0  0.00000000000E+00  0.00000000000E+00 -0.69661919485E+03  0.18646181696E+04  0.17296018663E+04 0.  0.
        5    1    3    3  502    0  0.43982915419E+03  0.67256010758E+03 -0.69273614022E+03  0.10609864434E+04  0.46999998093E+01 0. -1.
       -5    1    3    3    0  502 -0.43982915419E+03 -0.67256010758E+03 -0.38830546230E+01  0.80363172616E+03  0.46999998093E+01 0.  1.
</event>
<event>
 5   0  0.7613444E-06  0.2623953E+04  0.7818609E-02  0.8360110E-01
        1   -1    0    0  501    0  0.00000000000E+00  0.00000000000E+00  0.91346185607E+03  0.91346185608E+03  0.50400001928E-02 0. -1.
       -1   -1    0    0    0  501  0.00000000000E+00  0.00000000000E+00 -0.18843512486E+04  0.18843512486E+04  0.50400001928E-02 0.  1.
    10030    2    1    2    0    0  0.00000000000E+00  0.00000000000E+00 -0.97088939252E+03  0.27978131047E+04  0.26239534973E+04 0.  0.
        5    1    3    3  502    0  0.88839733615E+03 -0.91252674750E+03 -0.82145324463E+03  0.15155073127E+04  0.46999998093E+01 0. -1.
       -5    1    3    3    0  502 -0.88839733615E+03  0.91252674750E+03 -0.14943614789E+03  0.12823057920E+04  0.46999998093E+01 0.  1.
</event>
<event>
 5   0  0.7613444E-06  0.2795493E+04  0.7818609E-02  0.8304669E-01
       -1   -1    0    0    0  501  0.00000000000E+00  0.00000000000E+00  0.13074226490E+04  0.13074226490E+04  0.50400001928E-02 0. -1.
        1   -1    0    0  501    0  0.00000000000E+00  0.00000000000E+00 -0.14943109356E+04  0.14943109356E+04  0.50400001928E-02 0.  1.
    10030    2    1    2    0    0  0.00000000000E+00  0.00000000000E+00 -0.18688828658E+03  0.28017335846E+04  0.27954934891E+04 0.  0.
        5    1    3    3  502    0  0.86019157261E+03  0.87327328684E+03 -0.76661158452E+03  0.14457701016E+04  0.46999998093E+01 0.  1.
       -5    1    3    3    0  502 -0.86019157261E+03 -0.87327328684E+03  0.57972329794E+03  0.13559634830E+04  0.46999998093E+01 0. -1.
</event>
<event>
 5   0  0.1923559E-05  0.2802226E+04  0.7818609E-02  0.8302578E-01
       -2   -1    0    0    0  501  0.00000000000E+00  0.00000000000E+00  0.31378363033E+04  0.31378363033E+04  0.25500000920E-02 0.  1.
        2   -1    0    0  501    0  0.00000000000E+00  0.00000000000E+00 -0.62562781076E+03  0.62562781077E+03  0.25500000920E-02 0. -1.
    10030    2    1    2    0    0  0.00000000000E+00  0.00000000000E+00  0.25122084925E+04  0.37634641141E+04  0.28022260130E+04 0.  0.
        4    1    3    3  502    0 -0.10955699437E+04  0.78735534735E+03  0.74838671732E+03  0.15428176289E+04  0.12699999809E+01 0.  1.
       -4    1    3    3    0  502  0.10955699437E+04 -0.78735534735E+03  0.17638217752E+04  0.22206464852E+04  0.12699999809E+01 0. -1.
</event>
<event>
 5   0  0.7509685E-06  0.2492261E+04  0.7818609E-02  0.8405748E-01
       -1   -1    0    0    0  501  0.00000000000E+00  0.00000000000E+00  0.11840952798E+04  0.11840952798E+04  0.50400001928E-02 0.  1.
        1   -1    0    0  501    0  0.00000000000E+00  0.00000000000E+00 -0.13114153426E+04  0.13114153427E+04  0.50400001928E-02 0. -1.
    10030    2    1    2    0    0  0.00000000000E+00  0.00000000000E+00 -0.12732006287E+03  0.24955106225E+04  0.24922605940E+04 0.  0.
        4    1    3    3  502    0 -0.61728801180E+03 -0.10813622837E+04 -0.14095724154E+02  0.12452265579E+04  0.12699999809E+01 0.  1.
       -4    1    3    3    0  502  0.61728801180E+03  0.10813622837E+04 -0.11322433871E+03  0.12502840645E+04  0.12699999809E+01 0. -1.
</event>
<event>
 5   0  0.1874272E-05  0.2817935E+04  0.7818609E-02  0.8297722E-01
        2   -1    0    0  501    0  0.00000000000E+00  0.00000000000E+00  0.15298026073E+04  0.15298026073E+04  0.25500000920E-02 0. -1.
       -2   -1    0    0    0  501  0.00000000000E+00  0.00000000000E+00 -0.12976769033E+04  0.12976769033E+04  0.25500000920E-02 0.  1.
    10030    2    1    2    0    0  0.00000000000E+00  0.00000000000E+00  0.23212570405E+03  0.28274795106E+04  0.28179350668E+04 0.  0.
        3    1    3    3  502    0 -0.87786098676E+03  0.11016694144E+04  0.14572798829E+03  0.14161751543E+04  0.10100000352E+00 0. -1.
       -3    1    3    3    0  502  0.87786098676E+03 -0.11016694144E+04  0.86397715759E+02  0.14113043564E+04  0.10100000352E+00 0.  1.
</event>
<event>
 5   0  0.1904553E-05  0.2789186E+04  0.7818609E-02  0.8306634E-01
       -2   -1    0    0    0  501  0.00000000000E+00  0.00000000000E+00  0.30567929975E+04  0.30567929975E+04  0.25500000920E-02 0. -1.
        2   -1    0    0  501    0  0.00000000000E+00  0.00000000000E+00 -0.63625144464E+03  0.63625144465E+03  0.25500000920E-02 0.  1.
    10030    2    1    2    0    0  0.00000000000E+00  0.00000000000E+00  0.24205415529E+04  0.36930444422E+04  0.27891855160E+04 0.  0.
        1    1    3    3  502    0 -0.33005595550E+03  0.12970408140E+04  0.69128523476E+03  0.15063622017E+04  0.50400001928E-02 0. -1.
       -1    1    3    3    0  502  0.33005595550E+03 -0.12970408140E+04  0.17292563181E+04  0.21866822404E+04  0.50400001928E-02 0.  1.
</event>
<event>
 5   0  0.7509685E-06  0.2817149E+04  0.7818609E-02  0.8297964E-01
        1   -1    0    0  501    0  0.00000000000E+00  0.00000000000E+00  0.15733753559E+04  0.15733753559E+04  0.50400001928E-02 0.  1.
       -1   -1    0    0    0  501  0.00000000000E+00  0.00000000000E+00 -0.12610355426E+04  0.12610355426E+04  0.50400001928E-02 0. -1.
    10030    2    1    2    0    0  0.00000000000E+00  0.00000000000E+00  0.31233981325E+03  0.28344108985E+04  0.28171490878E+04 0.  0.
        4    1    3    3  502    0 -0.29265056044E+03 -0.11177342141E+04  0.96677804579E+03  0.15065309578E+04  0.12699999809E+01 0. -1.
       -4    1    3    3    0  502  0.29265056044E+03  0.11177342141E+04 -0.65443823254E+03  0.13278799408E+04  0.12699999809E+01 0.  1.
</event>
<event>
 5   0  0.1904553E-05  0.3129805E+04  0.7818609E-02  0.8207606E-01
        2   -1    0    0  501    0  0.00000000000E+00  0.00000000000E+00  0.16147310840E+04  0.16147310840E+04  0.25500000920E-02 0.  1.
       -2   -1    0    0    0  501  0.00000000000E+00  0.00000000000E+00 -0.15166114713E+04  0.15166114713E+04  0.25500000920E-02 0. -1.
    10030    2    1    2    0    0  0.00000000000E+00  0.00000000000E+00  0.98119612661E+02  0.31313425552E+04  0.31298049044E+04 0.  0.
        1    1    3    3  502    0 -0.11501526742E+02  0.12707023411E+04 -0.86468126152E+03  0.15370394949E+04  0.50400001928E-02 0. -1.
       -1    1    3    3    0  502  0.11501526742E+02 -0.12707023411E+04  0.96280087418E+03  0.15943030603E+04  0.50400001928E-02 0.  1.
</event>
<event>
 5   0  0.1874272E-05  0.2806294E+04  0.7818609E-02  0.8301317E-01
       -2   -1    0    0    0  501  0.00000000000E+00  0.00000000000E+00  0.11735756767E+04  0.11735756767E+04  0.25500000920E-02 0. -1.
        2   -1    0    0  501    0  0.00000000000E+00  0.00000000000E+00 -0.16776268105E+04  0.16776268105E+04  0.25500000920E-02 0.  1.
    10030    2    1    2    0    0  0.00000000000E+00  0.00000000000E+00 -0.50405113378E+03  0.28512024872E+04  0.28062943676E+04 0.  0.
        3    1    3    3  502    0  0.12716238653E+04  0.47534850224E+03  0.10838847179E+03  0.13618852832E+04  0.10100000352E+00 0. -1.
       -3    1    3    3    0  502 -0.12716238653E+04 -0.47534850224E+03 -0.61243960557E+03  0.14893172040E+04  0.10100000352E+00 0.  1.
</event>
<event>
 5   0  0.7681342E-06  0.2852012E+04  0.7818609E-02  0.8287300E-01
        1   -1    0    0  501    0  0.00000000000E+00  0.00000000000E+00  0.17318530303E+04  0.17318530304E+04  0.50400001928E-02 0.  1.
       -1   -1    0    0    0  501  0.00000000000E+00  0.00000000000E+00 -0.11741716147E+04  0.11741716147E+04  0.50400001928E-02 0. -1.
    10030    2    1    2    0    0  0.00000000000E+00  0.00000000000E+00  0.55768141564E+03  0.29060246451E+04  0.28520116894E+04 0.  0.
        2    1    3    3  502    0 -0.12734662436E+04 -0.17553311319E+03  0.90775325361E+03  0.15737039483E+04  0.25500000920E-02 0. -1.
       -2    1    3    3    0  502  0.12734662436E+04  0.17553311319E+03 -0.35007183797E+03  0.13323206968E+04  0.25500000920E-02 0.  1.
</event>
<event>
 5   0  0.1874272E-05  0.2813419E+04  0.7818609E-02  0.8299114E-01
       -2   -1    0    0    0  501  0.00000000000E+00  0.00000000000E+00  0.12200694985E+04  0.12200694985E+04  0.25500000920E-02 0.  1.
        2   -1    0    0  501    0  0.00000000000E+00  0.00000000000E+00 -0.16219009628E+04  0.16219009628E+04  0.25500000920E-02 0. -1.
    10030    2    1    2    0    0  0.00000000000E+00  0.00000000000E+00 -0.40183146433E+03  0.28419704613E+04  0.28134191968E+04 0.  0.
        3    1    3    3  502    0 -0.60525314583E+03  0.25924919079E+03  0.10547966086E+04  0.12434377383E+04  0.10100000352E+00 0.  1.
       -3    1    3    3    0  502  0.60525314583E+03 -0.25924919079E+03 -0.14566280729E+04  0.15985327230E+04  0.10100000352E+00 0. -1.
</event>
<event>
 5   0  0.7388013E-06  0.2752183E+04  0.7818609E-02  0.8318269E-01
       -1   -1    0    0    0  501  0.00000000000E+00  0.00000000000E+00  0.14583858756E+04  0.14583858756E+04  0.50400001928E-02 0. -1.
        1   -1    0    0  501    0  0.00000000000E+00  0.00000000000E+00 -0.12984405462E+04  0.12984405462E+04  0.50400001928E-02 0.  1.
    10030    2    1    2    0    0  0.00000000000E+00  0.00000000000E+00  0.15994532943E+03  0.27568264218E+04  0.27521826632E+04 0.  0.
        1    1    3    3  502    0  0.36333344073E+03 -0.57132175325E+03 -0.11200502336E+04  0.13087903807E+04  0.50400001928E-02 0.  1.
       -1    1    3    3    0  502 -0.36333344073E+03  0.57132175325E+03  0.12799955630E+04  0.14480360411E+04  0.50400001928E-02 0. -1.
</event>
<event>
 5   0  0.7681342E-06  0.2535029E+04  0.7818609E-02  0.8390611E-01
       -1   -1    0    0    0  501  0.00000000000E+00  0.00000000000E+00  0.15480137071E+04  0.15480137071E+04  0.50400001928E-02 0. -1.
        1   -1    0    0  501    0  0.00000000000E+00  0.00000000000E+00 -0.10378418393E+04  0.10378418393E+04  0.50400001928E-02 0.  1.
    10030    2    1    2    0    0  0.00000000000E+00  0.00000000000E+00  0.51017186783E+03  0.25858555464E+04  0.25350293040E+04 0.  0.
        2    1    3    3  502    0 -0.92645758911E+03 -0.38709061353E+02 -0.62639941113E+03  0.11190166568E+04  0.25500000920E-02 0.  1.
       -2    1    3    3    0  502  0.92645758911E+03  0.38709061353E+02  0.11365712790E+04  0.14668388896E+04  0.25500000920E-02 0. -1.
</event>
<event>
 5   0  0.7388013E-06  0.2823802E+04  0.7818609E-02  0.8295917E-01
       -1   -1    0    0    0  501  0.00000000000E+00  0.00000000000E+00  0.15726363426E+04  0.15726363427E+04  0.50400001928E-02 0.  1.
        1   -1    0    0  501    0  0.00000000000E+00  0.00000000000E+00 -0.12675936292E+04  0.12675936292E+04  0.50400001928E-02 0. -1.
    10030    2    1    2    0    0  0.00000000000E+00  0.00000000000E+00  0.30504271343E+03  0.28402299719E+04  0.28238015575E+04 0.  0.
        1    1    3    3  502    0 -0.41460542418E+02  0.77733524075E+03 -0.10322512597E+04  0.12928695666E+04  0.50400001928E-02 0. -1.
       -1    1    3    3    0  502  0.41460542418E+02 -0.77733524075E+03  0.13372939731E+04  0.15473604052E+04  0.50400001928E-02 0.  1.
</event>
<event>
 5   0  0.1904553E-05  0.2801244E+04  0.7818609E-02  0.8302882E-01
        2   -1    0    0  501    0  0.00000000000E+00  0.00000000000E+00  0.23623946348E+04  0.23623946348E+04  0.25500000920E-02 0. -1.
       -2   -1    0    0    0  501  0.00000000000E+00  0.00000000000E+00 -0.83040423476E+03  0.83040423477E+03  0.25500000920E-02 0.  1.
    10030    2    1    2    0    0  0.00000000000E+00  0.00000000000E+00  0.15319904000E+04  0.31927988695E+04  0.28012443727E+04 0.  0.
        1    1    3    3  502    0  0.53311980338E+03  0.39763940797E+03 -0.63894508709E+03  0.92227146105E+03  0.50400001928E-02 0.  1.
       -1    1    3    3    0  502 -0.53311980338E+03 -0.39763940797E+03  0.21709354871E+04  0.22705274085E+04  0.50400001928E-02 0. -1.
</event>
<event>
 5   0  0.7388013E-06  0.2805146E+04  0.7818609E-02  0.8301673E-01
        1   -1    0    0  501    0  0.00000000000E+00  0.00000000000E+00  0.11108277791E+04  0.11108277791E+04  0.50400001928E-02 0.  1.
       -1   -1    0    0    0  501  0.00000000000E+00  0.00000000000E+00 -0.17709410114E+04  0.17709410114E+04  0.50400001928E-02 0. -1.
    10030    2    1    2    0    0  0.00000000000E+00  0.00000000000E+00 -0.66011323227E+03  0.28817687905E+04  0.28051456081E+04 0.  0.
        1    1    3    3  502    0  0.12613658099E+04 -0.14813378414E+02  0.29983702725E+03  0.12965976189E+04  0.50400001928E-02 0.  1.
       -1    1    3    3    0  502 -0.12613658099E+04  0.14813378414E+02 -0.95995025951E+03  0.15851711716E+04  0.50400001928E-02 0. -1.
</event>
<event>
 5   0  0.7509685E-06  0.2764171E+04  0.7818609E-02  0.8314479E-01
       -1   -1    0    0    0  501  0.00000000000E+00  0.00000000000E+00  0.12174693581E+04  0.12174693581E+04  0.50400001928E-02 0. -1.
        1   -1    0    0  501    0  0.00000000000E+00  0.00000000000E+00 -0.15689595658E+04  0.15689595658E+04  0.50400001928E-02 0.  1.
    10030    2    1    2    0    0  0.00000000000E+00  0.00000000000E+00 -0.35149020767E+03  0.27864289239E+04  0.27641709031E+04 0.  0.
        4    1    3    3  502    0  0.30296682260E+03  0.57281807711E+03  0.10548424492E+04  0.12379837037E+04  0.12699999809E+01 0. -1.
       -4    1    3    3    0  502 -0.30296682260E+03 -0.57281807711E+03 -0.14063326569E+04  0.15484452202E+04  0.12699999809E+01 0.  1.
</event>
<event>
 5   0  0.1832502E-05  0.2885086E+04  0.7818609E-02  0.8277329E-01
        2   -1    0    0  501    0  0.00000000000E+00  0.00000000000E+00  0.16109527434E+04  0.16109527434E+04  0.25500000920E-02 0.  1.
       -2   -1    0    0    0  501  0.00000000000E+00  0.00000000000E+00 -0.12917387462E+04  0.12917387462E+04  0.25500000920E-02 0. -1.
    10030    2    1    2    0    0  0.00000000000E+00  0.00000000000E+00  0.31921399723E+03  0.29026914896E+04  0.28850858406E+04 0.  0.
        2    1    3    3  502    0 -0.14970187679E+03 -0.92801208115E+03 -0.94128823052E+03  0.13302783948E+04  0.25500000920E-02 0. -1.
       -2    1    3    3    0  502  0.14970187679E+03  0.92801208115E+03  0.12605022278E+04  0.15724130948E+04  0.25500000920E-02 0.  1.
</event>
<event>
 5   0  0.1832502E-05  0.2757533E+04  0.7818609E-02  0.8316575E-01
        2   -1    0    0  501    0  0.00000000000E+00  0.00000000000E+00  0.11482998771E+04  0.11482998771E+04  0.25500000920E-02 0.  1.
       -2   -1    0    0    0  501  0.00000000000E+00  0.00000000000E+00 -0.16554877727E+04  0.16554877727E+04  0.25500000920E-02 0. -1.
    10030    2    1    2    0    0  0.00000000000E+00  0.00000000000E+00 -0.50718789558E+03  0.28037876498E+04  0.27575325245E+04 0.  0.
        2    1    3    3  502    0 -0.99990467263E+03 -0.62963767281E+02  0.70951314418E+03  0.12276736912E+04  0.25500000920E-02 0. -1.
       -2    1    3    3    0  502  0.99990467263E+03  0.62963767281E+02 -0.12167010398E+04  0.15761139586E+04  0.25500000920E-02 0.  1.
</event>
<event>
 5   0  0.1814230E-05  0.2834294E+04  0.7818609E-02  0.8292700E-01
       -2   -1    0    0    0  501  0.00000000000E+00  0.00000000000E+00  0.14777325150E+04  0.14777325150E+04  0.25500000920E-02 0. -1.
        2   -1    0    0  501    0  0.00000000000E+00  0.00000000000E+00 -0.13590455068E+04  0.13590455068E+04  0.25500000920E-02 0.  1.
    10030    2    1    2    0    0  0.00000000000E+00  0.00000000000E+00  0.11868700826E+03  0.28367780218E+04  0.28342940813E+04 0.  0.
        5    1    3    3  502    0 -0.21860713898E+03  0.93217709310E+03  0.11050272490E+04  0.14621390239E+04  0.46999998093E+01 0. -1.
       -5    1    3    3    0  502  0.21860713898E+03 -0.93217709310E+03 -0.98634024076E+03  0.13746389979E+04  0.46999998093E+01 0.  1.
</event>
<event>
 5   0  0.1904553E-05  0.2808651E+04  0.7818609E-02  0.8300587E-01
       -2   -1    0    0    0  501  0.00000000000E+00  0.00000000000E+00  0.13094347011E+04  0.13094347011E+04  0.25500000920E-02 0. -1.
        2   -1    0    0  501    0  0.00000000000E+00  0.00000000000E+00 -0.15060931952E+04  0.15060931952E+04  0.25500000920E-02 0.  1.
    10030    2    1    2    0    0  0.00000000000E+00  0.00000000000E+00 -0.19665849406E+03  0.28155278963E+04  0.28086514151E+04 0.  0.
        1    1    3    3  502    0  0.82136762433E+03  0.92933561619E+03 -0.75859290572E+03  0.14538819273E+04  0.50400001928E-02 0.  1.
       -1    1    3    3    0  502 -0.82136762433E+03 -0.92933561619E+03  0.56193441167E+03  0.13616459690E+04  0.50400001928E-02 0. -1.
</event>
<event>
 5   0  0.7555871E-06  0.2817573E+04  0.7818609E-02  0.8297833E-01
       -1   -1    0    0    0  501  0.00000000000E+00  0.00000000000E+00  0.80583930258E+03  0.80583930260E+03  0.50400001928E-02 0.  1.
        1   -1    0    0  501    0  0.00000000000E+00  0.00000000000E+00 -0.24628728810E+04  0.24628728810E+04  0.50400001928E-02 0. -1.
    10030    2    1    2    0    0  0.00000000000E+00  0.00000000000E+00 -0.16570335784E+04  0.32687121836E+04  0.28175732571E+04 0.  0.
        3    1    3    3  502    0 -0.10297402275E+04 -0.94377178070E+03 -0.10412001059E+04  0.17421732925E+04  0.10100000352E+00 0.  1.
       -3    1    3    3    0  502  0.10297402275E+04  0.94377178070E+03 -0.61583347251E+03  0.15265388912E+04  0.10100000352E+00 0. -1.
</event>
<event>
 5   0  0.1923559E-05  0.2848299E+04  0.7818609E-02  0.8288428E-01
       -2   -1    0    0    0  501  0.00000000000E+00  0.00000000000E+00  0.76655386640E+03  0.76655386640E+03  0.25500000920E-02 0.  1.
        2   -1    0    0  501    0  0.00000000000E+00  0.00000000000E+00 -0.26458696859E+04  0.26458696859E+04  0.25500000920E-02 0. -1.
    10030    2    1    2    0    0  0.00000000000E+00  0.00000000000E+00 -0.18793158195E+04  0.34124235523E+04  0.28482988872E+04 0.  0.
        4    1    3    3  502    0 -0.20748402422E+03 -0.99202563514E+03 -0.21383347647E+04  0.23663561989E+04  0.12699999809E+01 0. -1.
       -4    1    3    3    0  502  0.20748402422E+03  0.99202563514E+03  0.25901894520E+03  0.10460673534E+04  0.12699999809E+01 0.  1.
</event>
<event>
 5   0  0.1814230E-05  0.2244375E+04  0.7818609E-02  0.8500182E-01
        2   -1    0    0  501    0  0.00000000000E+00  0.00000000000E+00  0.20953735889E+04  0.20953735889E+04  0.25500000920E-02 0.  1.
       -2   -1    0    0    0  501  0.00000000000E+00  0.00000000000E+00 -0.60099314637E+03  0.60099314638E+03  0.25500000920E-02 0. -1.
    10030    2    1    2    0    0  0.00000000000E+00  0.00000000000E+00  0.14943804425E+04  0.26963667352E+04  0.22443753394E+04 0.  0.
        5    1    3    3  502    0 -0.85987217475E+02 -0.81562844169E+03  0.16673624686E+04  0.18581612546E+04  0.46999998093E+01 0.  1.
       -5    1    3    3    0  502  0.85987217475E+02  0.81562844169E+03 -0.17298202607E+03  0.83820548066E+03  0.46999998093E+01 0. -1.
</event>
<event>
 5   0  0.1874272E-05  0.2822751E+04  0.7818609E-02  0.8296240E-01
        2   -1    0    0  501    0  0.00000000000E+00  0.00000000000E+00  0.13302970796E+04  0.13302970796E+04  0.25500000920E-02 0.  1.
       -2   -1    0    0    0  501  0.00000000000E+00  0.00000000000E+00 -0.14973953460E+04  0.14973953460E+04  0.25500000920E-02 0. -1.
    10030    2    1    2    0    0  0.00000000000E+00  0.00000000000E+00 -0.16709826634E+03  0.28276924256E+04  0.28227508964E+04 0.  0.
        3    1    3    3  502    0 -0.70409188869E+03 -0.11017597308E+04  0.44875738062E+03  0.13823903533E+04  0.10100000352E+00 0.  1.
       -3    1    3    3    0  502  0.70409188869E+03  0.11017597308E+04 -0.61585564696E+03  0.14453020723E+04  0.10100000352E+00 0. -1.
</event>
<event>
 5   0  0.7388013E-06  0.2671982E+04  0.7818609E-02  0.8344154E-01
       -1   -1    0    0    0  501  0.00000000000E+00  0.00000000000E+00  0.14751142785E+04  0.14751142785E+04  0.50400001928E-02 0.  1.
        1   -1    0    0  501    0  0.00000000000E+00  0.00000000000E+00 -0.12099887766E+04  0.12099887766E+04  0.50400001928E-02 0. -1.
    10030    2    1    2    0    0  0.00000000000E+00  0.00000000000E+00  0.26512550188E+03  0.26851030551E+04  0.26719818271E+04 0.  0.
        1    1    3    3  502    0 -0.10746035181E+04  0.16668697168E+03  0.91246307555E+03  0.14195584285E+04  0.50400001928E-02 0.  1.
       -1    1    3    3    0  502  0.10746035181E+04 -0.16668697168E+03 -0.64733757368E+03  0.12655446266E+04  0.50400001928E-02 0. -1.
</event>
<event>
 5   0  0.7681342E-06  0.2735910E+04  0.7818609E-02  0.8323447E-01
       -1   -1    0    0    0  501  0.00000000000E+00  0.00000000000E+00  0.15374725905E+04  0.15374725905E+04  0.50400001928E-02 0.  1.
        1   -1    0    0  501    0  0.00000000000E+00  0.00000000000E+00 -0.12171280606E+04  0.12171280607E+04  0.50400001928E-02 0. -1.
    10030    2    1    2    0    0  0.00000000000E+00  0.00000000000E+00  0.32034452989E+03  0.27546006512E+04  0.27359101099E+04 0.  0.
        2    1    3    3  502    0 -0.11596486065E+04 -0.34659351611E+03  0.80201382455E+03  0.14519428813E+04  0.25500000920E-02 0.  1.
       -2    1    3    3    0  502  0.11596486065E+04  0.34659351611E+03 -0.48166929466E+03  0.13026577698E+04  0.25500000920E-02 0. -1.
</event>
<event>
 5   0  0.7681342E-06  0.2837987E+04  0.7818609E-02  0.8291571E-01
        1   -1    0    0  501    0  0.00000000000E+00  0.00000000000E+00  0.27388466261E+04  0.27388466261E+04  0.50400001928E-02 0. -1.
       -1   -1    0    0    0  501  0.00000000000E+00  0.00000000000E+00 -0.73517879885E+03  0.73517879887E+03  0.50400001928E-02 0.  1.
    10030    2    1    2    0    0  0.00000000000E+00  0.00000000000E+00  0.20036678273E+04  0.34740254250E+04  0.28379865911E+04 0.  0.
        2    1    3    3  502    0 -0.43765864324E+03 -0.60169433231E+03 -0.47725149667E+03  0.88394012728E+03  0.25500000920E-02 0.  1.
       -2    1    3    3    0  502  0.43765864324E+03  0.60169433231E+03  0.24809193240E+04  0.25900852977E+04  0.25500000920E-02 0. -1.
</event>
<event>
 5   0  0.1832502E-05  0.2826313E+04  0.7818609E-02  0.8295146E-01
        2   -1    0    0  501    0  0.00000000000E+00  0.00000000000E+00  0.11789033861E+04  0.11789033861E+04  0.25500000920E-02 0.  1.
       -2   -1    0    0    0  501  0.00000000000E+00  0.00000000000E+00 -0.16939563956E+04  0.16939563956E+04  0.25500000920E-02 0. -1.
    10030    2    1    2    0    0  0.00000000000E+00  0.00000000000E+00 -0.51505300954E+03  0.28728597817E+04  0.28263127433E+04 0.  0.
        2    1    3    3  502    0 -0.63568892861E+03  0.11095007944E+04  0.35397792419E+03  0.13267979490E+04  0.25500000920E-02 0.  1.
       -2    1    3    3    0  502  0.63568892861E+03 -0.11095007944E+04 -0.86903093373E+03  0.15460618327E+04  0.25500000920E-02 0. -1.
</event>
<event>
 5   0  0.1923559E-05  0.2796937E+04  0.7818609E-02  0.8304220E-01
        2   -1    0    0  501    0  0.00000000000E+00  0.00000000000E+00  0.14798640684E+04  0.14798640684E+04  0.25500000920E-02 0.  1.
       -2   -1    0    0    0  501  0.00000000000E+00  0.00000000000E+00 -0.13215496389E+04  0.13215496389E+04  0.25500000920E-02 0. -1.
    10030    2    1    2    0    0  0.00000000000E+00  0.00000000000E+00  0.15831442950E+03  0.28014137073E+04  0.27969367710E+04 0.  0.
        4    1    3    3  502    0  0.50706959788E+03  0.89658256309E+03  0.10265742055E+04  0.14542475999E+04  0.12699999809E+01 0.  1.
       -4    1    3    3    0  502 -0.50706959788E+03 -0.89658256309E+03 -0.86825977596E+03  0.13471661074E+04  0.12699999809E+01 0. -1.
</event>
<event>
 5   0  0.1814230E-05  0.2572144E+04  0.7818609E-02  0.8377725E-01
        2   -1    0    0  501    0  0.00000000000E+00  0.00000000000E+00  0.13781197756E+04  0.13781197756E+04  0.25500000920E-02 0.  1.
       -2   -1    0    0    0  501  0.00000000000E+00  0.00000000000E+00 -0.12001720038E+04  0.12001720038E+04  0.25500000920E-02 0. -1.
    10030    2    1    2    0    0  0.00000000000E+00  0.00000000000E+00  0.17794777178E+03  0.25782917795E+04  0.25721436761E+04 0.  0.
        5    1    3    3  502    0 -0.26212105588E+03  0.62217704116E+03  0.11861892638E+04  0.13648731729E+04  0.46999998093E+01 0.  1.
       -5    1    3    3    0  502  0.26212105588E+03 -0.62217704116E+03 -0.10082414920E+04  0.12134186066E+04  0.46999998093E+01 0. -1.
</event>
<event>
 5   0  0.7388013E-06  0.2773619E+04  0.7818609E-02  0.8311506E-01
       -1   -1    0    0    0  501  0.00000000000E+00  0.00000000000E+00  0.11155668877E+04  0.11155668877E+04  0.50400001928E-02 0. -1.
        1   -1    0    0  501    0  0.00000000000E+00  0.00000000000E+00 -0.17240034446E+04  0.17240034446E+04  0.50400001928E-02 0.  1.
    10030    2    1    2    0    0  0.00000000000E+00  0.00000000000E+00 -0.60843655691E+03  0.28395703324E+04  0.27736194095E+04 0.  0.
        1    1    3    3  502    0  0.13252231134E+04  0.32192445337E+03 -0.56197763350E+03  0.14750154286E+04  0.50400001928E-02 0. -1.
       -1    1    3    3    0  502 -0.13252231134E+04 -0.32192445337E+03 -0.46458923408E+02  0.13645549038E+04  0.50400001928E-02 0.  1.
</event>
<event>
 5   0  0.7509685E-06  0.2808180E+04  0.7818609E-02  0.8300733E-01
        1   -1    0    0  501    0  0.00000000000E+00  0.00000000000E+00  0.11833645232E+04  0.11833645232E+04  0.50400001928E-02 0. -1.
       -1   -1    0    0    0  501  0.00000000000E+00  0.00000000000E+00 -0.16659858513E+04  0.16659858513E+04  0.50400001928E-02 0.  1.
    10030    2    1    2    0    0  0.00000000000E+00  0.00000000000E+00 -0.48262132809E+03  0.28493503745E+04  0.28081798750E+04 0.  0.
        4    1    3    3  502    0  0.80147895507E+03 -0.10825974549E+03  0.92328770697E+03  0.12274161848E+04  0.12699999809E+01 0. -1.
       -4    1    3    3    0  502 -0.80147895507E+03  0.10825974549E+03 -0.14059090351E+04  0.16219341897E+04  0.12699999809E+01 0.  1.
</event>
<event>
 5   0  0.1832502E-05  0.2861106E+04  0.7818609E-02  0.8284544E-01
        2   -1    0    0  501    0  0.00000000000E+00  0.00000000000E+00  0.15846210328E+04  0.15846210328E+04  0.25500000920E-02 0. -1.
       -2   -1    0    0    0  501  0.00000000000E+00  0.00000000000E+00 -0.12914648948E+04  0.12914648948E+04  0.25500000920E-02 0.  1.
    10030    2    1    2    0    0  0.00000000000E+00  0.00000000000E+00  0.29315613797E+03  0.28760859276E+04  0.28611063842E+04 0.  0.
        2    1    3    3  502    0 -0.38288348265E+03 -0.13529475653E+04  0.41142580522E+03  0.14650385896E+04  0.25500000920E-02 0. -1.
       -2    1    3    3    0  502  0.38288348265E+03  0.13529475653E+04 -0.11826966725E+03  0.14110473380E+04  0.25500000920E-02 0.  1.
</event>
<event>
 5   0  0.1904553E-05  0.1979671E+04  0.7818609E-02  0.8616184E-01
       -2   -1    0    0    0  501  0.00000000000E+00  0.00000000000E+00  0.11635328747E+04  0.11635328747E+04  0.25500000920E-02 0.  1.
        2   -1    0    0  501    0  0.00000000000E+00  0.00000000000E+00 -0.84206880366E+03  0.84206880366E+03  0.25500000920E-02 0. -1.
    10030    2    1    2    0    0  0.00000000000E+00  0.00000000000E+00  0.32146407103E+03  0.20056016783E+04  0.19796714230E+04 0.  0.
        1    1    3    3  502    0  0.76375824393E+03 -0.46870832075E+03 -0.26520390992E+03  0.93453050190E+03  0.50400001928E-02 0. -1.
       -1    1    3    3    0  502 -0.76375824393E+03  0.46870832075E+03  0.58666798095E+03  0.10710711764E+04  0.50400001928E-02 0.  1.
</event>
<event>
 5   0  0.1904553E-05  0.2797134E+04  0.7818609E-02  0.8304159E-01
       -2   -1    0    0    0  501  0.00000000000E+00  0.00000000000E+00  0.12541392712E+04  0.12541392712E+04  0.25500000920E-02 0. -1.
        2   -1    0    0  501    0  0.00000000000E+00  0.00000000000E+00 -0.15596266471E+04  0.15596266471E+04  0.25500000920E-02 0.  1.
    10030    2    1    2    0    0  0.00000000000E+00  0.00000000000E+00 -0.30548737593E+03  0.28137659182E+04  0.27971335517E+04 0.  0.
        1    1    3    3  502    0 -0.67726260194E+03  0.13923412592E+03  0.10701817215E+04  0.12741113338E+04  0.50400001928E-02 0. -1.
       -1    1    3    3    0  502  0.67726260194E+03 -0.13923412592E+03 -0.13756690974E+04  0.15396545845E+04  0.50400001928E-02 0.  1.
</event>
<event>
 5   0  0.7681342E-06  0.2596225E+04  0.7818609E-02  0.8369485E-01
       -1   -1    0    0    0  501  0.00000000000E+00  0.00000000000E+00  0.13993147330E+04  0.13993147330E+04  0.50400001928E-02 0. -1.
        1   -1    0    0  501    0  0.00000000000E+00  0.00000000000E+00 -0.12042293251E+04  0.12042293251E+04  0.50400001928E-02 0.  1.
    10030    2    1    2    0    0  0.00000000000E+00  0.00000000000E+00  0.19508540792E+03  0.26035440580E+04  0.25962248257E+04 0.  0.
        2    1    3    3  502    0 -0.14916083364E+03  0.11574396980E+04  0.66763480572E+03  0.13444894357E+04  0.25500000920E-02 0. -1.
       -2    1    3    3    0  502  0.14916083364E+03 -0.11574396980E+04 -0.47254939781E+03  0.12590546224E+04  0.25500000920E-02 0.  1.
</event>
<event>
 5   0  0.1814230E-05  0.2841371E+04  0.7818609E-02  0.8290538E-01
       -2   -1    0    0    0  501  0.00000000000E+00  0.00000000000E+00  0.13783613182E+04  0.13783613182E+04  0.25500000920E-02 0.  1.
        2   -1    0    0  501    0  0.00000000000E+00  0.00000000000E+00 -0.14643090423E+04  0.14643090423E+04  0.25500000920E-02 0. -1.
    10030    2    1    2    0    0  0.00000000000E+00  0.00000000000E+00 -0.85947724128E+02  0.28426703605E+04  0.28413707549E+04 0.  0.
        5    1    3    3  502    0 -0.37585230758E+03 -0.13279611428E+04  0.29419526583E+03  0.14111409208E+04  0.46999998093E+01 0.  1.
       -5    1    3    3    0  502  0.37585230758E+03  0.13279611428E+04 -0.38014298996E+03  0.14315294397E+04  0.46999998093E+01 0. -1.
</event>
<event>
 5   0  0.7509685E-06  0.2777631E+04  0.7818609E-02  0.8310247E-01
        1   -1    0    0  501    0  0.00000000000E+00  0.00000000000E+00  0.23036862246E+04  0.23036862246E+04  0.50400001928E-02 0.  1.
       -1   -1    0    0    0  501  0.00000000000E+00  0.00000000000E+00 -0.83727031444E+03  0.83727031446E+03  0.50400001928E-02 0. -1.
    10030    2    1    2    0    0  0.00000000000E+00  0.00000000000E+00  0.14664159102E+04  0.31409565391E+04  0.27776307096E+04 0.  0.
        4    1    3    3  502    0  0.32819719239E+03  0.91048754180E+03  0.18595397768E+04  0.20963279217E+04  0.12699999809E+01 0.  1.
       -4    1    3    3    0  502 -0.32819719239E+03 -0.91048754180E+03 -0.39312386662E+03  0.10446286174E+04  0.12699999809E+01 0. -1.
</event>
<event>
 5   0  0.7388013E-06  0.2828812E+04  0.7818609E-02  0.8294379E-01
       -1   -1    0    0    0  501  0.00000000000E+00  0.00000000000E+00  0.19035999667E+04  0.19035999667E+04  0.50400001928E-02 0. -1.
        1   -1    0    0  501    0  0.00000000000E+00  0.00000000000E+00 -0.10509271212E+04  0.10509271212E+04  0.50400001928E-02 0.  1.
    10030    2    1    2    0    0  0.00000000000E+00  0.00000000000E+00  0.85267284555E+03  0.29545270879E+04  0.28288123536E+04 0.  0.
        1    1    3    3  502    0  0.91663842228E+03  0.84024838314E+03 -0.27763643828E+03  0.12740978512E+04  0.50400001928E-02 0.  1.
       -1    1    3    3    0  502 -0.91663842228E+03 -0.84024838314E+03  0.11303092838E+04  0.16804292367E+04  0.50400001928E-02 0. -1.
</event>
<event>
 5   0  0.7388013E-06  0.2784870E+04  0.7818609E-02  0.8307981E-01
        1   -1    0    0  501    0  0.00000000000E+00  0.00000000000E+00  0.14006185978E+04  0.14006185978E+04  0.50400001928E-02 0.  1.
       -1   -1    0    0    0  501  0.00000000000E+00  0.00000000000E+00 -0.13842993688E+04  0.13842993688E+04  0.50400001928E-02 0. -1.
    10030    2    1    2    0    0  0.00000000000E+00  0.00000000000E+00  0.16319228974E+02  0.27849179666E+04  0.27848701520E+04 0.  0.
        1    1    3    3  502    0 -0.13078104927E+04 -0.40848991540E+03  0.25644425325E+03  0.13939138965E+04  0.50400001928E-02 0.  1.
       -1    1    3    3    0  502  0.13078104927E+04  0.40848991540E+03 -0.24012502427E+03  0.13910040701E+04  0.50400001928E-02 0. -1.
</event>
<event>
 5   0  0.7681342E-06  0.2845696E+04  0.7818609E-02  0.8289220E-01
       -1   -1    0    0    0  501  0.00000000000E+00  0.00000000000E+00  0.82588146544E+03  0.82588146546E+03  0.50400001928E-02 0. -1.
        1   -1    0    0  501    0  0.00000000000E+00  0.00000000000E+00 -0.24513164806E+04  0.24513164806E+04  0.50400001928E-02 0.  1.
    10030    2    1    2    0    0  0.00000000000E+00  0.00000000000E+00 -0.16254350151E+04  0.32771979460E+04  0.28456962925E+04 0.  0.
        2    1    3    3  502    0  0.10351746388E+04 -0.90776656376E+03 -0.12261364234E+04  0.18436477961E+04  0.25500000920E-02 0.  1.
       -2    1    3    3    0  502 -0.10351746388E+04  0.90776656376E+03 -0.39929859171E+03  0.14335501500E+04  0.25500000920E-02 0. -1.
</event>
<event>
 5   0  0.7555871E-06  0.2381904E+04  0.7818609E-02  0.8446310E-01
       -1   -1    0    0    0  501  0.00000000000E+00  0.00000000000E+00  0.14671004056E+04  0.14671004056E+04  0.50400001928E-02 0. -1.
        1   -1    0    0  501    0  0.00000000000E+00  0.00000000000E+00 -0.96678204991E+03  0.96678204992E+03  0.50400001928E-02 0.  1.
    10030    2    1    2    0    0  0.00000000000E+00  0.00000000000E+00  0.50031835565E+03  0.24338824555E+04  0.23819037240E+04 0.  0.
        3    1    3    3  502    0 -0.10727565784E+03 -0.63451731864E+03 -0.77383021776E+03  0.10064459799E+04  0.10100000352E+00 0. -1.
       -3    1    3    3    0  502  0.10727565784E+03  0.63451731864E+03  0.12741485734E+04  0.14274364756E+04  0.10100000352E+00 0.  1.
</event>
<event>
 5   0  0.1874272E-05  0.2814651E+04  0.7818609E-02  0.8298734E-01
       -2   -1    0    0    0  501  0.00000000000E+00  0.00000000000E+00  0.19541154178E+04  0.19541154178E+04  0.25500000920E-02 0.  1.
        2   -1    0    0  501    0  0.00000000000E+00  0.00000000000E+00 -0.10135352189E+04  0.10135352189E+04  0.25500000920E-02 0. -1.
    10030    2    1    2    0    0  0.00000000000E+00  0.00000000000E+00  0.94058019888E+03  0.29676506367E+04  0.28146508115E+04 0.  0.
        3    1    3    3  502    0 -0.11323378805E+04 -0.68011636387E+03 -0.41717271043E+02  0.13215474584E+04  0.10100000352E+00 0. -1.
       -3    1    3    3    0  502  0.11323378805E+04  0.68011636387E+03  0.98229746992E+03  0.16461031783E+04  0.10100000352E+00 0.  1.
</event>
<event>
 5   0  0.7555871E-06  0.2595929E+04  0.7818609E-02  0.8369585E-01
        1   -1    0    0  501    0  0.00000000000E+00  0.00000000000E+00  0.86459547633E+03  0.86459547635E+03  0.50400001928E-02 0. -1.
       -1   -1    0    0    0  501  0.00000000000E+00  0.00000000000E+00 -0.19485557295E+04  0.19485557295E+04  0.50400001928E-02 0.  1.
    10030    2    1    2    0    0  0.00000000000E+00  0.00000000000E+00 -0.10839602532E+04  0.28131512059E+04  0.25959294822E+04 0.  0.
        3    1    3    3  502    0 -0.49176605390E+03  0.23944002587E+03  0.73360906025E+03  0.91506701461E+03  0.10100000352E+00 0. -1.
       -3    1    3    3    0  502  0.49176605390E+03 -0.23944002587E+03 -0.18175693134E+04  0.18980841912E+04  0.10100000352E+00 0.  1.
</event>
<event>
 5   0  0.1923559E-05  0.2800460E+04  0.7818609E-02  0.8303126E-01
       -2   -1    0    0    0  501  0.00000000000E+00  0.00000000000E+00  0.15806192669E+04  0.15806192669E+04  0.25500000920E-02 0.  1.
        2   -1    0    0  501    0  0.00000000000E+00  0.00000000000E+00 -0.12404276297E+04  0.12404276297E+04  0.25500000920E-02 0. -1.
    10030    2    1    2    0    0  0.00000000000E+00  0.00000000000E+00  0.34019163727E+03  0.28210468966E+04  0.28004598270E+04 0.  0.
        4    1    3    3  502    0  0.50183153798E+03 -0.93029534774E+03 -0.75500040933E+03  0.12989655721E+04  0.12699999809E+01 0. -1.
       -4    1    3    3    0  502 -0.50183153798E+03  0.93029534774E+03  0.10951920466E+04  0.15220813245E+04  0.12699999809E+01 0.  1.
</event>
<event>
 5   0  0.1874272E-05  0.2768736E+04  0.7818609E-02  0.8313041E-01
        2   -1    0    0  501    0  0.00000000000E+00  0.00000000000E+00  0.89711063348E+03  0.89711063349E+03  0.25500000920E-02 0. -1.
       -2   -1    0    0    0  501  0.00000000000E+00  0.00000000000E+00 -0.21362751660E+04  0.21362751660E+04  0.25500000920E-02 0.  1.
    10030    2    1    2    0    0  0.00000000000E+00  0.00000000000E+00 -0.12391645325E+04  0.30333857995E+04  0.27687362947E+04 0.  0.
        3    1    3    3  502    0  0.95924706447E+03 -0.15455587450E+03 -0.16999605215E+04  0.19580368316E+04  0.10100000352E+00 0. -1.
       -3    1    3    3    0  502 -0.95924706447E+03  0.15455587450E+03  0.46079598900E+03  0.10753489679E+04  0.10100000352E+00 0.  1.
</event>
<event>
 5   0  0.1832502E-05  0.2819227E+04  0.7818609E-02  0.8297324E-01
       -2   -1    0    0    0  501  0.00000000000E+00  0.00000000000E+00  0.15517069789E+04  0.15517069789E+04  0.25500000920E-02 0.  1.
        2   -1    0    0  501    0  0.00000000000E+00  0.00000000000E+00 -0.12805322016E+04  0.12805322016E+04  0.25500000920E-02 0. -1.
    10030    2    1    2    0    0  0.00000000000E+00  0.00000000000E+00  0.27117477725E+03  0.28322391805E+04  0.28192273793E+04 0.  0.
        2    1    3    3  502    0 -0.15675206382E+02  0.13027567478E+04  0.67620666371E+03  0.14678815716E+04  0.25500000920E-02 0.  1.
       -2    1    3    3    0  502  0.15675206382E+02 -0.13027567478E+04 -0.40503188646E+03  0.13643576090E+04  0.25500000920E-02 0. -1.
</event>
<event>
 5   0  0.7613444E-06  0.2870981E+04  0.7818609E-02  0.8281564E-01
        1   -1    0    0  501    0  0.00000000000E+00  0.00000000000E+00  0.17627398650E+04  0.17627398650E+04  0.50400001928E-02 0.  1.
       -1   -1    0    0    0  501  0.00000000000E+00  0.00000000000E+00 -0.11689943837E+04  0.11689943837E+04  0.50400001928E-02 0. -1.
    10030    2    1    2    0    0  0.00000000000E+00  0.00000000000E+00  0.59374548136E+03  0.29317342487E+04  0.28709810185E+04 0.  0.
        5    1    3    3  502    0  0.19599816850E+03 -0.10903174088E+04 -0.63535486571E+03  0.12770689994E+04  0.46999998093E+01 0. -1.
       -5    1    3    3    0  502 -0.19599816850E+03  0.10903174088E+04  0.12291003471E+04  0.16546652493E+04  0.46999998093E+01 0.  1.
</event>
<event>
 5   0  0.7388013E-06  0.2750442E+04  0.7818609E-02  0.8318822E-01
       -1   -1    0    0    0  501  0.00000000000E+00  0.00000000000E+00  0.12678871636E+04  0.12678871636E+04  0.50400001928E-02 0. -1.
        1   -1    0    0  501    0  0.00000000000E+00  0.00000000000E+00 -0.14916408128E+04  0.14916408128E+04  0.50400001928E-02 0.  1.
    10030    2    1    2    0    0  0.00000000000E+00  0.00000000000E+00 -0.22375364921E+03  0.27595279764E+04  0.27504415931E+04 0.  0.
        1    1    3    3  502    0 -0.11383026633E+04  0.37676324966E+03 -0.78756194724E+03  0.14345512609E+04  0.50400001928E-02 0.  1.
       -1    1    3    3    0  502  0.11383026633E+04 -0.37676324966E+03  0.56380829802E+03  0.13249767154E+04  0.50400001928E-02 0. -1.
</event>
<event>
 5   0  0.1923559E-05  0.2797962E+04  0.7818609E-02  0.8303901E-01
       -2   -1    0    0    0  501  0.00000000000E+00  0.00000000000E+00  0.81020550294E+03  0.81020550294E+03  0.25500000920E-02 0. -1.
        2   -1    0    0  501    0  0.00000000000E+00  0.00000000000E+00 -0.24156189787E+04  0.24156189787E+04  0.25500000920E-02 0.  1.
    10030    2    1    2    0    0  0.00000000000E+00  0.00000000000E+00 -0.16054134758E+04  0.32258244817E+04  0.27979619651E+04 0.  0.
        4    1    3    3  502    0 -0.67262582715E+03 -0.11130764200E+04 -0.20833062509E+03  0.13171058736E+04  0.12699999809E+01 0. -1.
       -4    1    3    3    0  502  0.67262582715E+03  0.11130764200E+04 -0.13970828507E+04  0.19087186080E+04  0.12699999809E+01 0.  1.
</event>
<event>
 5   0  0.1923559E-05  0.2684826E+04  0.7818609E-02  0.8339945E-01
        2   -1    0    0  501    0  0.00000000000E+00  0.00000000000E+00  0.21513065161E+04  0.21513065161E+04  0.25500000920E-02 0. -1.
       -2   -1    0    0    0  501  0.00000000000E+00  0.00000000000E+00 -0.83766415448E+03  0.83766415449E+03  0.25500000920E-02 0.  1.
    10030    2    1    2    0    0  0.00000000000E+00  0.00000000000E+00  0.13136423616E+04  0.29889706706E+04  0.26848257700E+04 0.  0.
        4    1    3    3  502    0 -0.22141731979E+03  0.13183290947E+04  0.79341291805E+03  0.15545169355E+04  0.12699999809E+01 0. -1.
       -4    1    3    3    0  502  0.22141731979E+03 -0.13183290947E+04  0.52022944359E+03  0.14344537351E+04  0.12699999809E+01 0.  1.
</event>
<event>
 5   0  0.1814230E-05  0.2810404E+04  0.7818609E-02  0.8300046E-01
       -2   -1    0    0    0  501  0.00000000000E+00  0.00000000000E+00  0.10458923677E+04  0.10458923677E+04  0.25500000920E-02 0. -1.
        2   -1    0    0  501    0  0.00000000000E+00  0.00000000000E+00 -0.18879500921E+04  0.18879500921E+04  0.25500000920E-02 0.  1.
    10030    2    1    2    0    0  0.00000000000E+00  0.00000000000E+00 -0.84205772447E+03  0.29338424598E+04  0.28104039509E+04 0.  0.
        5    1    3    3  502    0 -0.73861364369E+03 -0.11289022944E+04 -0.10567026772E+02  0.13491123959E+04  0.46999998093E+01 0. -1.
       -5    1    3    3    0  502  0.73861364369E+03  0.11289022944E+04 -0.83149069770E+03  0.15847300638E+04  0.46999998093E+01 0.  1.
</event>
<event>
 5   0  0.1874272E-05  0.3022229E+04  0.7818609E-02  0.8237412E-01
       -2   -1    0    0    0  501  0.00000000000E+00  0.00000000000E+00  0.11188158408E+04  0.11188158408E+04  0.25500000920E-02 0.  1.
        2   -1    0    0  501    0  0.00000000000E+00  0.00000000000E+00 -0.20409682146E+04  0.20409682146E+04  0.25500000920E-02 0. -1.
    10030    2    1    2    0    0  0.00000000000E+00  0.00000000000E+00 -0.92215237383E+03  0.31597840554E+04  0.30222293553E+04 0.  0.
        3    1    3    3  502    0 -0.14167493844E+03 -0.73104827400E+03 -0.18358238276E+04  0.19810988121E+04  0.10100000352E+00 0. -1.
       -3    1    3    3    0  502  0.14167493844E+03  0.73104827400E+03  0.91367145376E+03  0.11786852433E+04  0.10100000352E+00 0.  1.
</event>
<event>
 5   0  0.1923559E-05  0.2817382E+04  0.7818609E-02  0.8297892E-01
        2   -1    0    0  501    0  0.00000000000E+00  0.00000000000E+00  0.14694317713E+04  0.14694317713E+04  0.25500000920E-02 0. -1.
       -2   -1    0    0    0  501  0.00000000000E+00  0.00000000000E+00 -0.13504606898E+04  0.13504606898E+04  0.25500000920E-02 0.  1.
    10030    2    1    2    0    0  0.00000000000E+00  0.00000000000E+00  0.11897108151E+03  0.28198924611E+04  0.28173816522E+04 0.  0.
        4    1    3    3  502    0 -0.13122155493E+04 -0.16271157904E+03 -0.42676994110E+03  0.13894311431E+04  0.12699999809E+01 0.  1.
       -4    1    3    3    0  502  0.13122155493E+04  0.16271157904E+03  0.54574102261E+03  0.14304613180E+04  0.12699999809E+01 0. -1.
</event>
<event>
 5   0  0.7613444E-06  0.2249292E+04  0.7818609E-02  0.8498187E-01
       -1   -1    0    0    0  501  0.00000000000E+00  0.00000000000E+00  0.12462253034E+04  0.12462253034E+04  0.50400001928E-02 0. -1.
        1   -1    0    0  501    0  0.00000000000E+00  0.00000000000E+00 -0.10149279802E+04  0.10149279802E+04  0.50400001928E-02 0.  1.
    10030    2    1    2    0    0  0.00000000000E+00  0.00000000000E+00  0.23129732318E+03  0.22611532835E+04  0.22492922709E+04 0.  0.
        5    1    3    3  502    0  0.98381690577E+03  0.46827570159E+03  0.39573770356E+03  0.11592274396E+04  0.46999998093E+01 0. -1.
       -5    1    3    3    0  502 -0.98381690577E+03 -0.46827570159E+03 -0.16444038038E+03  0.11019258439E+04  0.46999998093E+01 0.  1.
</event>
<event>
 5   0  0.7681342E-06  0.2834268E+04  0.7818609E-02  0.8292708E-01
       -1   -1    0    0    0  501  0.00000000000E+00  0.00000000000E+00  0.12266284527E+04  0.12266284528E+04  0.50400001928E-02 0. -1.
        1   -1    0    0  501    0  0.00000000000E+00  0.00000000000E+00 -0.16372264641E+04  0.16372264641E+04  0.50400001928E-02 0.  1.
    10030    2    1    2    0    0  0.00000000000E+00  0.00000000000E+00 -0.41059801139E+03  0.28638549169E+04  0.28342678522E+04 0.  0.
        2    1    3    3  502    0 -0.44349094120E+02 -0.11414015497E+04  0.64220835137E+03  0.13104182181E+04  0.25500000920E-02 0. -1.
       -2    1    3    3    0  502  0.44349094120E+02  0.11414015497E+04 -0.10528063628E+04  0.15534366988E+04  0.25500000920E-02 0.  1.
</event>
<event>
 5   0  0.1923559E-05  0.2692822E+04  0.7818609E-02  0.8337338E-01
       -2   -1    0    0    0  501  0.00000000000E+00  0.00000000000E+00  0.90757359994E+03  0.90757359995E+03  0.25500000920E-02 0. -1.
        2   -1    0    0  501    0  0.00000000000E+00  0.00000000000E+00 -0.19974387471E+04  0.19974387471E+04  0.25500000920E-02 0.  1.
    10030    2    1    2    0    0  0.00000000000E+00  0.00000000000E+00 -0.10898651472E+04  0.29050123471E+04  0.26928220694E+04 0.  0.
        4    1    3    3  502    0 -0.89260018622E+03 -0.52576697277E+03 -0.14727337968E+04  0.18005866964E+04  0.12699999809E+01 0.  1.
       -4    1    3    3    0  502  0.89260018622E+03  0.52576697277E+03  0.38286864963E+03  0.11044256507E+04  0.12699999809E+01 0. -1.
</event>
<event>
 5   0  0.1874272E-05  0.2881076E+04  0.7818609E-02  0.8278530E-01
        2   -1    0    0  501    0  0.00000000000E+00  0.00000000000E+00  0.19046905151E+04  0.19046905151E+04  0.25500000920E-02 0. -1.
       -2   -1    0    0    0  501  0.00000000000E+00  0.00000000000E+00 -0.10894944717E+04  0.10894944718E+04  0.25500000920E-02 0.  1.
    10030    2    1    2    0    0  0.00000000000E+00  0.00000000000E+00  0.81519604335E+03  0.29941849868E+04  0.28810760397E+04 0.  0.
        3    1    3    3  502    0 -0.82822360459E+03 -0.70709217742E+03  0.13876013800E+04  0.17639079586E+04  0.10100000352E+00 0. -1.
       -3    1    3    3    0  502  0.82822360459E+03  0.70709217742E+03 -0.57240533664E+03  0.12302770282E+04  0.10100000352E+00 0.  1.
</event>
<event>
 5   0  0.1832502E-05  0.2861792E+04  0.7818609E-02  0.8284337E-01
       -2   -1    0    0    0  501  0.00000000000E+00  0.00000000000E+00  0.12061210283E+04  0.12061210283E+04  0.25500000920E-02 0. -1.
        2   -1    0    0  501    0  0.00000000000E+00  0.00000000000E+00 -0.16975607672E+04  0.16975607672E+04  0.25500000920E-02 0.  1.
    10030    2    1    2    0    0  0.00000000000E+00  0.00000000000E+00 -0.49143973885E+03  0.29036817955E+04  0.28617922623E+04 0.  0.
        2    1    3    3  502    0 -0.10243364811E+04  0.13157149128E+03  0.75917471715E+03  0.12817653978E+04  0.25500000920E-02 0. -1.
       -2    1    3    3    0  502  0.10243364811E+04 -0.13157149128E+03 -0.12506144560E+04  0.16219163978E+04  0.25500000920E-02 0.  1.
</event>
<event>
 5   0  0.1923559E-05  0.2780924E+04  0.7818609E-02  0.8309215E-01
       -2   -1    0    0    0  501  0.00000000000E+00  0.00000000000E+00  0.10128069977E+04  0.10128069977E+04  0.25500000920E-02 0.  1.
        2   -1    0    0  501    0  0.00000000000E+00  0.00000000000E+00 -0.19089371549E+04  0.19089371549E+04  0.25500000920E-02 0. -1.
    10030    2    1    2    0    0  0.00000000000E+00  0.00000000000E+00 -0.89613015724E+03  0.29217441526E+04  0.27809242411E+04 0.  0.
        4    1    3    3  502    0 -0.11462813985E+04  0.27834025620E+03  0.32538487281E+03  0.12236467101E+04  0.12699999809E+01 0.  1.
       -4    1    3    3    0  502  0.11462813985E+04 -0.27834025620E+03 -0.12215150301E+04  0.16980974425E+04  0.12699999809E+01 0. -1.
</event>
<event>
 5   0  0.7388013E-06  0.2815302E+04  0.7818609E-02  0.8298533E-01
       -1   -1    0    0    0  501  0.00000000000E+00  0.00000000000E+00  0.87728703769E+03  0.87728703770E+03  0.50400001928E-02 0.  1.
        1   -1    0    0  501    0  0.00000000000E+00  0.00000000000E+00 -0.22586471686E+04  0.22586471686E+04  0.50400001928E-02 0. -1.
    10030    2    1    2    0    0  0.00000000000E+00  0.00000000000E+00 -0.13813601309E+04  0.31359342063E+04  0.28153023878E+04 0.  0.
        1    1    3    3  502    0 -0.69597408712E+03 -0.40568442421E+03 -0.19764968905E+04  0.21343616704E+04  0.50400001928E-02 0. -1.
       -1    1    3    3    0  502  0.69597408712E+03  0.40568442421E+03  0.59513675959E+03  0.10015725359E+04  0.50400001928E-02 0.  1.
</event>
<event>
 5   0  0.1832502E-05  0.2321516E+04  0.7818609E-02  0.8469486E-01
        2   -1    0    0  501    0  0.00000000000E+00  0.00000000000E+00  0.18528201250E+04  0.18528201250E+04  0.25500000920E-02 0. -1.
       -2   -1    0    0    0  501  0.00000000000E+00  0.00000000000E+00 -0.72719391757E+03  0.72719391758E+03  0.25500000920E-02 0.  1.
    10030    2    1    2    0    0  0.00000000000E+00  0.00000000000E+00  0.11256262074E+04  0.25800140425E+04  0.23215163366E+04 0.  0.
        2    1    3    3  502    0 -0.10344598181E+04 -0.52625501749E+03  0.58231929780E+03  0.12985173173E+04  0.25500000920E-02 0. -1.
       -2    1    3    3    0  502  0.10344598181E+04  0.52625501749E+03  0.54330690960E+03  0.12814967252E+04  0.25500000920E-02 0.  1.
</event>
<event>
 5   0  0.7613444E-06  0.2799388E+04  0.7818609E-02  0.8303458E-01
        1   -1    0    0  501    0  0.00000000000E+00  0.00000000000E+00  0.11905840026E+04  0.11905840026E+04  0.50400001928E-02 0. -1.
       -1   -1    0    0    0  501  0.00000000000E+00  0.00000000000E+00 -0.16455317874E+04  0.16455317874E+04  0.50400001928E-02 0.  1.
    10030    2    1    2    0    0  0.00000000000E+00  0.00000000000E+00 -0.45494778481E+03  0.28361157900E+04  0.27993883774E+04 0.  0.
        5    1    3    3  502    0 -0.10228014724E+04 -0.26020117016E+03  0.70398727766E+03  0.12686400901E+04  0.46999998093E+01 0. -1.
       -5    1    3    3    0  502  0.10228014724E+04  0.26020117016E+03 -0.11589350625E+04  0.15674757000E+04  0.46999998093E+01 0.  1.
</event>
<event>
 5   0  0.7555871E-06  0.2807039E+04  0.7818609E-02  0.8301086E-01
       -1   -1    0    0    0  501  0.00000000000E+00  0.00000000000E+00  0.82752835879E+03  0.82752835880E+03  0.50400001928E-02 0.  1.
        1   -1    0    0  501    0  0.00000000000E+00  0.00000000000E+00 -0.23804220581E+04  0.23804220581E+04  0.50400001928E-02 0. -1.
    10030    2    1    2    0    0  0.00000000000E+00  0.00000000000E+00 -0.15528936993E+04  0.32079504169E+04  0.28070388376E+04 0.  0.
        3    1    3    3  502    0  0.15949443061E+02 -0.12761226724E+04 -0.10897199301E+03  0.12808662558E+04  0.10100000352E+00 0. -1.
       -3    1    3    3    0  502 -0.15949443061E+02  0.12761226724E+04 -0.14439217063E+04  0.19270841611E+04  0.10100000352E+00 0.  1.
</event>
<event>
 5   0  0.1814230E-05  0.2829775E+04  0.7818609E-02  0.8294083E-01
       -2   -1    0    0    0  501  0.00000000000E+00  0.00000000000E+00  0.74212452852E+03  0.74212452853E+03  0.25500000920E-02 0. -1.
        2   -1    0    0  501    0  0.00000000000E+00  0.00000000000E+00 -0.26975353790E+04  0.26975353790E+04  0.25500000920E-02 0.  1.
    10030    2    1    2    0    0  0.00000000000E+00  0.00000000000E+00 -0.19554108505E+04  0.34396599075E+04  0.28297753772E+04 0.  0.
        5    1    3    3  502    0 -0.13111746628E+04  0.20027143417E+03 -0.15764018240E+04  0.20601826240E+04  0.46999998093E+01 0.  1.
       -5    1    3    3    0  502  0.13111746628E+04 -0.20027143417E+03 -0.37900902649E+03  0.13794772835E+04  0.46999998093E+01 0. -1.
</event>
<event>
 5   0  0.7613444E-06  0.2783026E+04  0.7818609E-02  0.8308557E-01
       -1   -1    0    0    0  501  0.00000000000E+00  0.00000000000E+00  0.15760815149E+04  0.15760815149E+04  0.50400001928E-02 0. -1.
        1   -1    0    0  501    0  0.00000000000E+00  0.00000000000E+00 -0.12285588300E+04  0.12285588300E+04  0.50400001928E-02 0.  1.
    10030    2    1    2    0    0  0.00000000000E+00  0.00000000000E+00  0.34752268492E+03  0.28046403448E+04  0.27830263109E+04 0.  0.
        5    1    3    3  502    0  0.12114806543E+04 -0.68046675379E+03  0.98573641716E+02  0.13930036725E+04  0.46999998093E+01 0.  1.
       -5    1    3    3    0  502 -0.12114806543E+04  0.68046675379E+03  0.24894904320E+03  0.14116366724E+04  0.46999998093E+01 0. -1.
</event>
<event>
 5   0  0.1874272E-05  0.2726416E+04  0.7818609E-02  0.8326484E-01
        2   -1    0    0  501    0  0.00000000000E+00  0.00000000000E+00  0.15801150354E+04  0.15801150354E+04  0.25500000920E-02 0.  1.
       -2   -1    0    0    0  501  0.00000000000E+00  0.00000000000E+00 -0.11760767922E+04  0.11760767922E+04  0.25500000920E-02 0. -1.
    10030    2    1    2    0    0  0.00000000000E+00  0.00000000000E+00  0.40403824312E+03  0.27561918276E+04  0.27264164188E+04 0.  0.
        3    1    3    3  502    0  0.49559938083E+02 -0.66889119814E+03 -0.99772955698E+03  0.12022212365E+04  0.10100000352E+00 0. -1.
       -3    1    3    3    0  502 -0.49559938083E+02  0.66889119814E+03  0.14017678001E+04  0.15539705911E+04  0.10100000352E+00 0.  1.
</event>
<event>
 5   0  0.7388013E-06  0.2820262E+04  0.7818609E-02  0.8297005E-01
        1   -1    0    0  501    0  0.00000000000E+00  0.00000000000E+00  0.27950859594E+04  0.27950859594E+04  0.50400001928E-02 0.  1.
       -1   -1    0    0    0  501  0.00000000000E+00  0.00000000000E+00 -0.71141605367E+03  0.71141605369E+03  0.50400001928E-02 0. -1.
    10030    2    1    2    0    0  0.00000000000E+00  0.00000000000E+00  0.20836699058E+04  0.35065020131E+04  0.28202617063E+04 0.  0.
        1    1    3    3  502    0  0.13650517573E+04 -0.33499349041E+03  0.90071846785E+03  0.16693953088E+04  0.50400001928E-02 0. -1.
       -1    1    3    3    0  502 -0.13650517573E+04  0.33499349041E+03  0.11829514379E+04  0.18371067043E+04  0.50400001928E-02 0.  1.
</event>
<event>
 5   0  0.7613444E-06  0.2786110E+04  0.7818609E-02  0.8307594E-01
        1   -1    0    0  501    0  0.00000000000E+00  0.00000000000E+00  0.18227631288E+04  0.18227631288E+04  0.50400001928E-02 0. -1.
       -1   -1    0    0    0  501  0.00000000000E+00  0.00000000000E+00 -0.10646485561E+04  0.10646485561E+04  0.50400001928E-02 0.  1.
    10030    2    1    2    0    0  0.00000000000E+00  0.00000000000E+00  0.75811457268E+03  0.28874116850E+04  0.27861099284E+04 0.  0.
        5    1    3    3  502    0 -0.24165494807E+03  0.10297323327E+04 -0.56045525263E+03  0.11970288096E+04  0.46999998093E+01 0.  1.
       -5    1    3    3    0  502  0.24165494807E+03 -0.10297323327E+04  0.13185698253E+04  0.16903828753E+04  0.46999998093E+01 0. -1.
</event>
<event>
 5   0  0.1874272E-05  0.2779753E+04  0.7818609E-02  0.8309582E-01
        2   -1    0    0  501    0  0.00000000000E+00  0.00000000000E+00  0.14593696336E+04  0.14593696336E+04  0.25500000920E-02 0.  1.
       -2   -1    0    0    0  501  0.00000000000E+00  0.00000000000E+00 -0.13236928436E+04  0.13236928436E+04  0.25500000920E-02 0. -1.
    10030    2    1    2    0    0  0.00000000000E+00  0.00000000000E+00  0.13567679001E+03  0.27830624771E+04  0.27797533273E+04 0.  0.
        3    1    3    3  502    0  0.40929685078E+03 -0.11654514028E+04 -0.57006705238E+03  0.13604327763E+04  0.10100000352E+00 0. -1.
       -3    1    3    3    0  502 -0.40929685078E+03  0.11654514028E+04  0.70574384240E+03  0.14226297008E+04  0.10100000352E+00 0.  1.
</event>
<event>
 5   0  0.1814230E-05  0.2200219E+04  0.7818609E-02  0.8518337E-01
        2   -1    0    0  501    0  0.00000000000E+00  0.00000000000E+00  0.14972894265E+04  0.14972894265E+04  0.25500000920E-02 0. -1.
       -2   -1    0    0    0  501  0.00000000000E+00  0.00000000000E+00 -0.80828812091E+03  0.80828812091E+03  0.25500000920E-02 0.  1.
    10030    2    1    2    0    0  0.00000000000E+00  0.00000000000E+00  0.68900130561E+03  0.23055775474E+04  0.22002193136E+04 0.  0.
        5    1    3    3  502    0 -0.86934652838E+03 -0.40346399699E+02  0.10496488070E+04  0.13635160162E+04  0.46999998093E+01 0. -1.
       -5    1    3    3    0  502  0.86934652838E+03  0.40346399699E+02 -0.36064750140E+03  0.94206153124E+03  0.46999998093E+01 0.  1.
</event>
<event>
 5   0  0.1814230E-05  0.1742614E+04  0.7818609E-02  0.8737427E-01
       -2   -1    0    0    0  501  0.00000000000E+00  0.00000000000E+00  0.46562290858E+03  0.46562290859E+03  0.25500000920E-02 0.  1.
        2   -1    0    0  501    0  0.00000000000E+00  0.00000000000E+00 -0.16304515754E+04  0.16304515754E+04  0.25500000920E-02 0. -1.
    10030    2    1    2    0    0  0.00000000000E+00  0.00000000000E+00 -0.11648286668E+04  0.20960744840E+04  0.17426136747E+04 0.  0.
        5    1    3    3  502    0  0.78489226321E+03  0.34205774283E+03 -0.38811237606E+03  0.94005992932E+03  0.46999998093E+01 0.  1.
       -5    1    3    3    0  502 -0.78489226321E+03 -0.34205774283E+03 -0.77671629076E+03  0.11560145547E+04  0.46999998093E+01 0. -1.
</event>
<event>
 5   0  0.7509685E-06  0.2824086E+04  0.7818609E-02  0.8295829E-01
       -1   -1    0    0    0  501  0.00000000000E+00  0.00000000000E+00  0.91268038893E+03  0.91268038894E+03  0.50400001928E-02 0.  1.
        1   -1    0    0  501    0  0.00000000000E+00  0.00000000000E+00 -0.21846258318E+04  0.21846258318E+04  0.50400001928E-02 0. -1.
    10030    2    1    2    0    0  0.00000000000E+00  0.00000000000E+00 -0.12719454428E+04  0.30973062207E+04  0.28240858017E+04 0.  0.
        4    1    3    3  502    0 -0.69139976313E+03 -0.10127661370E+04 -0.14038007562E+04  0.18639707768E+04  0.12699999809E+01 0. -1.
       -4    1    3    3    0  502  0.69139976313E+03  0.10127661370E+04  0.13185531334E+03  0.12333354439E+04  0.12699999809E+01 0.  1.
</event>
<event>
 5   0  0.6288000E-06  0.2101330E+04  0.7818609E-02  0.8560658E-01
        3   -1    0    0  501    0  0.00000000000E+00  0.00000000000E+00  0.16467546207E+04  0.16467546238E+04  0.10100000352E+00 0. -1.
       -3   -1    0    0    0  501  0.00000000000E+00  0.00000000000E+00 -0.67034687703E+03  0.67034688463E+03  0.10100000352E+00 0.  1.
    10030    2    1    2    0    0  0.00000000000E+00  0.00000000000E+00  0.97640774364E+03  0.23171015084E+04  0.21013298928E+04 0.  0.
        3    1    3    3  502    0  0.14743231402E+03  0.60148177743E+03  0.14241087395E+04  0.15529334590E+04  0.10100000352E+00 0. -1.
       -3    1    3    3    0  502 -0.14743231402E+03 -0.60148177743E+03 -0.44770099591E+03  0.76416804941E+03  0.10100000352E+00 0.  1.
</event>
<event>
 5   0  0.7509685E-06  0.2806323E+04  0.7818609E-02  0.8301308E-01
        1   -1    0    0  501    0  0.00000000000E+00  0.00000000000E+00  0.96876334171E+03  0.96876334172E+03  0.50400001928E-02 0.  1.
       -1   -1    0    0    0  501  0.00000000000E+00  0.00000000000E+00 -0.20323455174E+04  0.20323455174E+04  0.50400001928E-02 0. -1.
    10030    2    1    2    0    0  0.00000000000E+00  0.00000000000E+00 -0.10635821757E+04  0.30011088591E+04  0.28063227433E+04 0.  0.
        4    1    3    3  502    0 -0.88964846779E+03 -0.64281118429E+03 -0.14666409211E+04  0.18318618450E+04  0.12699999809E+01 0.  1.
       -4    1    3    3    0  502  0.88964846779E+03  0.64281118429E+03  0.40305874539E+03  0.11692470141E+04  0.12699999809E+01 0. -1.
</event>
<event>
 5   0  0.7555871E-06  0.2734708E+04  0.7818609E-02  0.8323831E-01
       -1   -1    0    0    0  501  0.00000000000E+00  0.00000000000E+00  0.57593447870E+03  0.57593447872E+03  0.50400001928E-02 0. -1.
        1   -1    0    0  501    0  0.00000000000E+00  0.00000000000E+00 -0.32463007927E+04  0.32463007927E+04  0.50400001928E-02 0.  1.
    10030    2    1    2    0    0  0.00000000000E+00  0.00000000000E+00 -0.26703663140E+04  0.38222352714E+04  0.27347077027E+04 0.  0.
        3    1    3    3  502    0 -0.97359367570E+03  0.61054863757E+03 -0.29957951709E+03  0.11876035456E+04  0.10100000352E+00 0. -1.
       -3    1    3    3    0  502  0.97359367570E+03 -0.61054863757E+03 -0.23707867969E+04  0.26346317259E+04  0.10100000352E+00 0.  1.
</event>
<event>
 5   0  0.7388013E-06  0.3035449E+04  0.7818609E-02  0.8233680E-01
        1   -1    0    0  501    0  0.00000000000E+00  0.00000000000E+00  0.17687754450E+04  0.17687754450E+04  0.50400001928E-02 0. -1.
       -1   -1    0    0    0  501  0.00000000000E+00  0.00000000000E+00 -0.13023066647E+04  0.13023066647E+04  0.50400001928E-02 0.  1.
    10030    2    1    2    0    0  0.00000000000E+00  0.00000000000E+00  0.46646878027E+03  0.30710821098E+04  0.30354492587E+04 0.  0.
        1    1    3    3  502    0  0.13601737367E+04 -0.49107314300E+03  0.69936241614E+03  0.16063415623E+04  0.50400001928E-02 0. -1.
       -1    1    3    3    0  502 -0.13601737367E+04  0.49107314300E+03 -0.23289363588E+03  0.14647405474E+04  0.50400001928E-02 0.  1.
</event>
<event>
 5   0  0.1874272E-05  0.2953112E+04  0.7818609E-02  0.8257248E-01
        2   -1    0    0  501    0  0.00000000000E+00  0.00000000000E+00  0.23415653286E+04  0.23415653286E+04  0.25500000920E-02 0. -1.
       -2   -1    0    0    0  501  0.00000000000E+00  0.00000000000E+00 -0.93109428923E+03  0.93109428923E+03  0.25500000920E-02 0.  1.
    10030    2    1    2    0    0  0.00000000000E+00  0.00000000000E+00  0.14104710393E+04  0.32726596178E+04  0.29531123279E+04 0.  0.
        3    1    3    3  502    0 -0.75903621111E+03 -0.44370930133E+02 -0.69747317877E+03  0.10317817572E+04  0.10100000352E+00 0.  1.
       -3    1    3    3    0  502  0.75903621111E+03  0.44370930133E+02  0.21079442181E+04  0.22408778606E+04  0.10100000352E+00 0. -1.
</event>
<event>
 5   0  0.1814230E-05  0.2402406E+04  0.7818609E-02  0.8438603E-01
       -2   -1    0    0    0  501  0.00000000000E+00  0.00000000000E+00  0.11209744159E+04  0.11209744159E+04  0.25500000920E-02 0.  1.
        2   -1    0    0  501    0  0.00000000000E+00  0.00000000000E+00 -0.12871733559E+04  0.12871733559E+04  0.25500000920E-02 0. -1.
    10030    2    1    2    0    0  0.00000000000E+00  0.00000000000E+00 -0.16619894000E+03  0.24081477718E+04  0.24024057949E+04 0.  0.
        5    1    3    3  502    0  0.11649191517E+04 -0.26314693006E+03 -0.21218370799E+03  0.12129826679E+04  0.46999998093E+01 0. -1.
       -5    1    3    3    0  502 -0.11649191517E+04  0.26314693006E+03  0.45984767991E+02  0.11951651039E+04  0.46999998093E+01 0.  1.
</event>
<event>
 5   0  0.1814230E-05  0.2834209E+04  0.7818609E-02  0.8292726E-01
       -2   -1    0    0    0  501  0.00000000000E+00  0.00000000000E+00  0.99827204197E+03  0.99827204197E+03  0.25500000920E-02 0.  1.
        2   -1    0    0  501    0  0.00000000000E+00  0.00000000000E+00 -0.20116607017E+04  0.20116607017E+04  0.25500000920E-02 0. -1.
    10030    2    1    2    0    0  0.00000000000E+00  0.00000000000E+00 -0.10133886598E+04  0.30099327437E+04  0.28342086278E+04 0.  0.
        5    1    3    3  502    0 -0.10826269052E+04  0.88374216012E+03 -0.25744892242E+03  0.14210500551E+04  0.46999998093E+01 0.  1.
       -5    1    3    3    0  502  0.10826269052E+04 -0.88374216012E+03 -0.75593973733E+03  0.15888826886E+04  0.46999998093E+01 0. -1.
</event>
<event>
 5   0  0.7388013E-06  0.2911527E+04  0.7818609E-02  0.8269456E-01
       -1   -1    0    0    0  501  0.00000000000E+00  0.00000000000E+00  0.78126700547E+03  0.78126700548E+03  0.50400001928E-02 0. -1.
        1   -1    0    0  501    0  0.00000000000E+00  0.00000000000E+00 -0.27125780929E+04  0.27125780929E+04  0.50400001928E-02 0.  1.
    10030    2    1    2    0    0  0.00000000000E+00  0.00000000000E+00 -0.19313110874E+04  0.34938450984E+04  0.29115272719E+04 0.  0.
        1    1    3    3  502    0 -0.75729142191E+03  0.45525044346E+03  0.42267443520E+03  0.97948810211E+03  0.50400001928E-02 0. -1.
       -1    1    3    3    0  502  0.75729142191E+03 -0.45525044346E+03 -0.23539855226E+04  0.25143569963E+04  0.50400001928E-02 0.  1.
</event>
<event>
 5   0  0.1904553E-05  0.3451614E+04  0.7818609E-02  0.8125354E-01
        2   -1    0    0  501    0  0.00000000000E+00  0.00000000000E+00  0.17722883696E+04  0.17722883696E+04  0.25500000920E-02 0.  1.
       -2   -1    0    0    0  501  0.00000000000E+00  0.00000000000E+00 -0.16805442039E+04  0.16805442039E+04  0.25500000920E-02 0. -1.
    10030    2    1    2    0    0  0.00000000000E+00  0.00000000000E+00  0.91744165662E+02  0.34528325735E+04  0.34516135052E+04 0.  0.
        1    1    3    3  502    0  0.63720165119E+03  0.15193347590E+04  0.55986762052E+03  0.17400735061E+04  0.50400001928E-02 0.  1.
       -1    1    3    3    0  502 -0.63720165119E+03 -0.15193347590E+04 -0.46812345486E+03  0.17127590674E+04  0.50400001928E-02 0. -1.
</event>
<event>
 5   0  0.1904553E-05  0.2769496E+04  0.7818609E-02  0.8312802E-01
       -2   -1    0    0    0  501  0.00000000000E+00  0.00000000000E+00  0.11102833459E+04  0.11102833459E+04  0.25500000920E-02 0. -1.
        2   -1    0    0  501    0  0.00000000000E+00  0.00000000000E+00 -0.17270606261E+04  0.17270606261E+04  0.25500000920E-02 0.  1.
    10030    2    1    2    0    0  0.00000000000E+00  0.00000000000E+00 -0.61677728017E+03  0.28373439720E+04  0.27694957306E+04 0.  0.
        1    1    3    3  502    0  0.11205072507E+04 -0.89737026745E+02  0.52008631207E+03  0.12385794302E+04  0.50400001928E-02 0. -1.
       -1    1    3    3    0  502 -0.11205072507E+04  0.89737026745E+02 -0.11368635922E+04  0.15987645418E+04  0.50400001928E-02 0.  1.
</event>
<event>
 5   0  0.7555871E-06  0.2823464E+04  0.7818609E-02  0.8296021E-01
        1   -1    0    0  501    0  0.00000000000E+00  0.00000000000E+00  0.12426535035E+04  0.12426535035E+04  0.50400001928E-02 0.  1.
       -1   -1    0    0    0  501  0.00000000000E+00  0.00000000000E+00 -0.16038151664E+04  0.16038151664E+04  0.50400001928E-02 0. -1.
    10030    2    1    2    0    0  0.00000000000E+00  0.00000000000E+00 -0.36116166293E+03  0.28464686699E+04  0.28234635011E+04 0.  0.
        3    1    3    3  502    0  0.46974049310E+03  0.72336680065E+03 -0.13073054133E+04  0.15661938300E+04  0.10100000352E+00 0. -1.
       -3    1    3    3    0  502 -0.46974049310E+03 -0.72336680065E+03  0.94614375040E+03  0.12802748399E+04  0.10100000352E+00 0.  1.
</event>
<event>
 5   0  0.1923559E-05  0.2819367E+04  0.7818609E-02  0.8297281E-01
       -2   -1    0    0    0  501  0.00000000000E+00  0.00000000000E+00  0.11194341941E+04  0.11194341941E+04  0.25500000920E-02 0.  1.
        2   -1    0    0  501    0  0.00000000000E+00  0.00000000000E+00 -0.17751894268E+04  0.17751894268E+04  0.25500000920E-02 0. -1.
    10030    2    1    2    0    0  0.00000000000E+00  0.00000000000E+00 -0.65575523269E+03  0.28946236208E+04  0.28193671242E+04 0.  0.
        4    1    3    3  502    0 -0.21257878224E+03 -0.53766216104E+03 -0.16478609953E+04  0.17463441273E+04  0.12699999809E+01 0. -1.
       -4    1    3    3    0  502  0.21257878224E+03  0.53766216104E+03  0.99210576265E+03  0.11482794935E+04  0.12699999809E+01 0.  1.
</event>
<event>
 5   0  0.7681342E-06  0.2817981E+04  0.7818609E-02  0.8297708E-01
       -1   -1    0    0    0  501  0.00000000000E+00  0.00000000000E+00  0.12004421375E+04  0.12004421376E+04  0.50400001928E-02 0. -1.
        1   -1    0    0  501    0  0.00000000000E+00  0.00000000000E+00 -0.16537693145E+04  0.16537693145E+04  0.50400001928E-02 0.  1.
    10030    2    1    2    0    0  0.00000000000E+00  0.00000000000E+00 -0.45332717693E+03  0.28542114520E+04  0.28179811006E+04 0.  0.
        2    1    3    3  502    0 -0.70273633781E+03 -0.19187423702E+03 -0.14482379321E+04  0.16211252855E+04  0.25500000920E-02 0.  1.
       -2    1    3    3    0  502  0.70273633781E+03  0.19187423702E+03  0.99491075517E+03  0.12330861665E+04  0.25500000920E-02 0. -1.
</event>
<event>
 5   0  0.1832502E-05  0.2267986E+04  0.7818609E-02  0.8490652E-01
        2   -1    0    0  501    0  0.00000000000E+00  0.00000000000E+00  0.12536000361E+04  0.12536000361E+04  0.25500000920E-02 0.  1.
       -2   -1    0    0    0  501  0.00000000000E+00  0.00000000000E+00 -0.10257975497E+04  0.10257975497E+04  0.25500000920E-02 0. -1.
    10030    2    1    2    0    0  0.00000000000E+00  0.00000000000E+00  0.22780248640E+03  0.22793975858E+04  0.22679857542E+04 0.  0.
        2    1    3    3  502    0 -0.59943049475E+02  0.10698360299E+04 -0.25917749755E+03  0.11024133868E+04  0.25500000920E-02 0. -1.
       -2    1    3    3    0  502  0.59943049475E+02 -0.10698360299E+04  0.48697998395E+03  0.11769841991E+04  0.25500000920E-02 0.  1.
</event>
<event>
 5   0  0.7388013E-06  0.2783920E+04  0.7818609E-02  0.8308278E-01
        1   -1    0    0  501    0  0.00000000000E+00  0.00000000000E+00  0.11212221599E+04  0.11212221599E+04  0.50400001928E-02 0. -1.
       -1   -1    0    0    0  501  0.00000000000E+00  0.00000000000E+00 -0.17280714515E+04  0.17280714515E+04  0.50400001928E-02 0.  1.
    10030    2    1    2    0    0  0.00000000000E+00  0.00000000000E+00 -0.60684929157E+03  0.28492936115E+04  0.27839195430E+04 0.  0.
        1    1    3    3  502    0  0.32029652085E+03 -0.22537105936E+03 -0.16705194872E+04  0.17158138980E+04  0.50400001928E-02 0.  1.
       -1    1    3    3    0  502 -0.32029652085E+03  0.22537105936E+03  0.10636701956E+04  0.11334797134E+04  0.50400001928E-02 0. -1.
</event>
<event>
 5   0  0.1832502E-05  0.2703960E+04  0.7818609E-02  0.8333721E-01
       -2   -1    0    0    0  501  0.00000000000E+00  0.00000000000E+00  0.92800538024E+03  0.92800538024E+03  0.25500000920E-02 0. -1.
        2   -1    0    0  501    0  0.00000000000E+00  0.00000000000E+00 -0.19696544343E+04  0.19696544343E+04  0.25500000920E-02 0.  1.
    10030    2    1    2    0    0  0.00000000000E+00  0.00000000000E+00 -0.10416490540E+04  0.28976598145E+04  0.27039599940E+04 0.  0.
        2    1    3    3  502    0  0.10286021945E+04 -0.69570432700E+03 -0.10937467487E+04  0.16547836522E+04  0.25500000920E-02 0.  1.
       -2    1    3    3    0  502 -0.10286021945E+04  0.69570432700E+03  0.52097694688E+02  0.12428761624E+04  0.25500000920E-02 0. -1.
</event>
<event>
 5   0  0.1814230E-05  0.2914972E+04  0.7818609E-02  0.8268437E-01
       -2   -1    0    0    0  501  0.00000000000E+00  0.00000000000E+00  0.16678812174E+04  0.16678812174E+04  0.25500000920E-02 0. -1.
        2   -1    0    0  501    0  0.00000000000E+00  0.00000000000E+00 -0.12736311178E+04  0.12736311178E+04  0.25500000920E-02 0.  1.
    10030    2    1    2    0    0  0.00000000000E+00  0.00000000000E+00  0.39425009958E+03  0.29415123353E+04  0.29149719857E+04 0.  0.
        5    1    3    3  502    0 -0.20070367718E+03  0.81134393947E+03 -0.10077657243E+04  0.13092649843E+04  0.46999998093E+01 0.  1.
       -5    1    3    3    0  502  0.20070367718E+03 -0.81134393947E+03  0.14020158239E+04  0.16322473509E+04  0.46999998093E+01 0. -1.
</event>
<event>
 5   0  0.1814230E-05  0.2155287E+04  0.7818609E-02  0.8537273E-01
       -2   -1    0    0    0  501  0.00000000000E+00  0.00000000000E+00  0.94662961590E+03  0.94662961590E+03  0.25500000920E-02 0. -1.
        2   -1    0    0  501    0  0.00000000000E+00  0.00000000000E+00 -0.12267896011E+04  0.12267896011E+04  0.25500000920E-02 0.  1.
    10030    2    1    2    0    0  0.00000000000E+00  0.00000000000E+00 -0.28015998521E+03  0.21734192170E+04  0.21552868662E+04 0.  0.
        5    1    3    3  502    0  0.36918455668E+03 -0.10103641903E+04 -0.75037395301E+02  0.10783254307E+04  0.46999998093E+01 0.  1.
       -5    1    3    3    0  502 -0.36918455668E+03  0.10103641903E+04 -0.20512258991E+03  0.10950937863E+04  0.46999998093E+01 0. -1.
</event>
<event>
 5   0  0.1814230E-05  0.2623493E+04  0.7818609E-02  0.8360265E-01
       -2   -1    0    0    0  501  0.00000000000E+00  0.00000000000E+00  0.17134683596E+04  0.17134683596E+04  0.25500000920E-02 0. -1.
        2   -1    0    0  501    0  0.00000000000E+00  0.00000000000E+00 -0.10042084359E+04  0.10042084359E+04  0.25500000920E-02 0.  1.
    10030    2    1    2    0    0  0.00000000000E+00  0.00000000000E+00  0.70925992370E+03  0.27176767955E+04  0.26234933820E+04 0.  0.
        5    1    3    3  502    0 -0.59959671751E+03  0.19766953367E+03  0.15457202977E+04  0.16696894313E+04  0.46999998093E+01 0. -1.
       -5    1    3    3    0  502  0.59959671751E+03 -0.19766953367E+03 -0.83646037401E+03  0.10479873642E+04  0.46999998093E+01 0.  1.
</event>
<event>
 5   0  0.7555871E-06  0.2791463E+04  0.7818609E-02  0.8305924E-01
        1   -1    0    0  501    0  0.00000000000E+00  0.00000000000E+00  0.10509325381E+04  0.10509325381E+04  0.50400001928E-02 0.  1.
       -1   -1    0    0    0  501  0.00000000000E+00  0.00000000000E+00 -0.18536557209E+04  0.18536557209E+04  0.50400001928E-02 0. -1.
    10030    2    1    2    0    0  0.00000000000E+00  0.00000000000E+00 -0.80272318282E+03  0.29045882590E+04  0.27914634954E+04 0.  0.
        3    1    3    3  502    0 -0.58814091823E+02 -0.11419241339E+04  0.43145994634E+03  0.12221323661E+04  0.10100000352E+00 0.  1.
       -3    1    3    3    0  502  0.58814091823E+02  0.11419241339E+04 -0.12341831292E+04  0.16824558929E+04  0.10100000352E+00 0. -1.
</event>
<event>
 5   0  0.7555871E-06  0.2860928E+04  0.7818609E-02  0.8284598E-01
        1   -1    0    0  501    0  0.00000000000E+00  0.00000000000E+00  0.10215563937E+04  0.10215563938E+04  0.50400001928E-02 0.  1.
       -1   -1    0    0    0  501  0.00000000000E+00  0.00000000000E+00 -0.20030491994E+04  0.20030491994E+04  0.50400001928E-02 0. -1.
    10030    2    1    2    0    0  0.00000000000E+00  0.00000000000E+00 -0.98149280562E+03  0.30246055931E+04  0.28609283225E+04 0.  0.
        3    1    3    3  502    0  0.46551468167E+03 -0.85113405872E+03 -0.16021236527E+04  0.18729477605E+04  0.10100000352E+00 0. -1.
       -3    1    3    3    0  502 -0.46551468167E+03  0.85113405872E+03  0.62063084713E+03  0.11516578326E+04  0.10100000352E+00 0.  1.
</event>
<event>
 5   0  0.7613444E-06  0.3180944E+04  0.7818609E-02  0.8193868E-01
        1   -1    0    0  501    0  0.00000000000E+00  0.00000000000E+00  0.14026523979E+04  0.14026523979E+04  0.50400001928E-02 0.  1.
       -1   -1    0    0    0  501  0.00000000000E+00  0.00000000000E+00 -0.18034410753E+04  0.18034410753E+04  0.50400001928E-02 0. -1.
    10030    2    1    2    0    0  0.00000000000E+00  0.00000000000E+00 -0.40078867740E+03  0.32060934733E+04  0.31809438529E+04 0.  0.
        5    1    3    3  502    0 -0.10372778304E+04  0.11900422726E+04 -0.39539999504E+03  0.16274240855E+04  0.46999998093E+01 0.  1.
       -5    1    3    3    0  502  0.10372778304E+04 -0.11900422726E+04 -0.53886823614E+01  0.15786693878E+04  0.46999998093E+01 0. -1.
</event>
<event>
 5   0  0.1904553E-05  0.2801138E+04  0.7818609E-02  0.8302915E-01
       -2   -1    0    0    0  501  0.00000000000E+00  0.00000000000E+00  0.15820951156E+04  0.15820951156E+04  0.25500000920E-02 0. -1.
        2   -1    0    0  501    0  0.00000000000E+00  0.00000000000E+00 -0.12398710031E+04  0.12398710032E+04  0.25500000920E-02 0.  1.
    10030    2    1    2    0    0  0.00000000000E+00  0.00000000000E+00  0.34222411241E+03  0.28219661187E+04  0.28011382387E+04 0.  0.
        1    1    3    3  502    0 -0.60873420583E+03  0.11113458096E+04 -0.42993701624E+03  0.13380929265E+04  0.50400001928E-02 0.  1.
       -1    1    3    3    0  502  0.60873420583E+03 -0.11113458096E+04  0.77216112865E+03  0.14838731922E+04  0.50400001928E-02 0. -1.
</event>
<event>
 5   0  0.7613444E-06  0.2817438E+04  0.7818609E-02  0.8297875E-01
        1   -1    0    0  501    0  0.00000000000E+00  0.00000000000E+00  0.15132354791E+04  0.15132354791E+04  0.50400001928E-02 0.  1.
       -1   -1    0    0    0  501  0.00000000000E+00  0.00000000000E+00 -0.13114211943E+04  0.13114211944E+04  0.50400001928E-02 0. -1.
    10030    2    1    2    0    0  0.00000000000E+00  0.00000000000E+00  0.20181428471E+03  0.28246566734E+04  0.28174378994E+04 0.  0.
        5    1    3    3  502    0 -0.30086734684E+02  0.47870544860E+03  0.14288395838E+04  0.15072056145E+04  0.46999998093E+01 0.  1.
       -5    1    3    3    0  502  0.30086734684E+02 -0.47870544860E+03 -0.12270252991E+04  0.13174510589E+04  0.46999998093E+01 0. -1.
</event>
<event>
 5   0  0.1904553E-05  0.2807951E+04  0.7818609E-02  0.8300804E-01
        2   -1    0    0  501    0  0.00000000000E+00  0.00000000000E+00  0.14553018741E+04  0.14553018741E+04  0.25500000920E-02 0. -1.
       -2   -1    0    0    0  501  0.00000000000E+00  0.00000000000E+00 -0.13544589559E+04  0.13544589559E+04  0.25500000920E-02 0.  1.
    10030    2    1    2    0    0  0.00000000000E+00  0.00000000000E+00  0.10084291821E+03  0.28097608301E+04  0.28079506100E+04 0.  0.
        1    1    3    3  502    0 -0.19037185610E+02  0.11500775317E+04  0.85599071148E+03  0.14337924681E+04  0.50400001928E-02 0. -1.
       -1    1    3    3    0  502  0.19037185610E+02 -0.11500775317E+04 -0.75514779327E+03  0.13759683620E+04  0.50400001928E-02 0.  1.
</event>
<event>
 5   0  0.1874272E-05  0.2160279E+04  0.7818609E-02  0.8535145E-01
        2   -1    0    0  501    0  0.00000000000E+00  0.00000000000E+00  0.80375973327E+03  0.80375973328E+03  0.25500000920E-02 0.  1.
       -2   -1    0    0    0  501  0.00000000000E+00  0.00000000000E+00 -0.14515545401E+04  0.14515545401E+04  0.25500000920E-02 0. -1.
    10030    2    1    2    0    0  0.00000000000E+00  0.00000000000E+00 -0.64779480685E+03  0.22553142734E+04  0.21602787691E+04 0.  0.
        3    1    3    3  502    0  0.13620694227E+03 -0.13733445972E+03  0.78553188445E+03  0.80899532547E+03  0.10100000352E+00 0.  1.
       -3    1    3    3    0  502 -0.13620694227E+03  0.13733445972E+03 -0.14333266913E+04  0.14463189479E+04  0.10100000352E+00 0. -1.
</event>
<event>
 5   0  0.1832502E-05  0.3297787E+04  0.7818609E-02  0.8163459E-01
        2   -1    0    0  501    0  0.00000000000E+00  0.00000000000E+00  0.19150082221E+04  0.19150082221E+04  0.25500000920E-02 0. -1.
       -2   -1    0    0    0  501  0.00000000000E+00  0.00000000000E+00 -0.14197585008E+04  0.14197585008E+04  0.25500000920E-02 0.  1.
    10030    2    1    2    0    0  0.00000000000E+00  0.00000000000E+00  0.49524972133E+03  0.33347667229E+04  0.32977866532E+04 0.  0.
        2    1    3    3  502    0  0.95114605946E+03  0.13063830644E+04  0.57922532285E+03  0.17166296957E+04  0.25500000920E-02 0. -1.
       -2    1    3    3    0  502 -0.95114605946E+03 -0.13063830644E+04 -0.83975601523E+02  0.16181370273E+04  0.25500000920E-02 0.  1.
</event>
<event>
 5   0  0.7681342E-06  0.2825513E+04  0.7818609E-02  0.8295391E-01
        1   -1    0    0  501    0  0.00000000000E+00  0.00000000000E+00  0.11182619394E+04  0.11182619394E+04  0.50400001928E-02 0.  1.
       -1   -1    0    0    0  501  0.00000000000E+00  0.00000000000E+00 -0.17848057586E+04  0.17848057586E+04  0.50400001928E-02 0. -1.
    10030    2    1    2    0    0  0.00000000000E+00  0.00000000000E+00 -0.66654381913E+03  0.29030676980E+04  0.28255125900E+04 0.  0.
        2    1    3    3  502    0  0.82557274753E+03  0.81608407959E+03  0.49401002758E+03  0.12615900657E+04  0.25500000920E-02 0.  1.
       -2    1    3    3    0  502 -0.82557274753E+03 -0.81608407959E+03 -0.11605538467E+04  0.16414776324E+04  0.25500000920E-02 0. -1.
</event>
<event>
 5   0  0.1814230E-05  0.2834385E+04  0.7818609E-02  0.8292672E-01
       -2   -1    0    0    0  501  0.00000000000E+00  0.00000000000E+00  0.10959680018E+04  0.10959680018E+04  0.25500000920E-02 0.  1.
        2   -1    0    0  501    0  0.00000000000E+00  0.00000000000E+00 -0.18325671636E+04  0.18325671636E+04  0.25500000920E-02 0. -1.
    10030    2    1    2    0    0  0.00000000000E+00  0.00000000000E+00 -0.73659916180E+03  0.29285351653E+04  0.28343852754E+04 0.  0.
        5    1    3    3  502    0 -0.78169702470E+03 -0.81575617754E+03 -0.12522314042E+04  0.16865983396E+04  0.46999998093E+01 0. -1.
       -5    1    3    3    0  502  0.78169702470E+03  0.81575617754E+03  0.51563224240E+03  0.12419368257E+04  0.46999998093E+01 0.  1.
</event>
<event>
 5   0  0.1814230E-05  0.2689609E+04  0.7818609E-02  0.8338385E-01
       -2   -1    0    0    0  501  0.00000000000E+00  0.00000000000E+00  0.34497634349E+04  0.34497634349E+04  0.25500000920E-02 0.  1.
        2   -1    0    0  501    0  0.00000000000E+00  0.00000000000E+00 -0.52423840497E+03  0.52423840497E+03  0.25500000920E-02 0. -1.
    10030    2    1    2    0    0  0.00000000000E+00  0.00000000000E+00  0.29255250300E+04  0.39740018399E+04  0.26896085073E+04 0.  0.
        5    1    3    3  502    0  0.49676187182E+03  0.12493270465E+04  0.15067416933E+04  0.20193768956E+04  0.46999998093E+01 0.  1.
       -5    1    3    3    0  502 -0.49676187182E+03 -0.12493270465E+04  0.14187833367E+04  0.19546249443E+04  0.46999998093E+01 0. -1.
</event>
<event>
 5   0  0.1904553E-05  0.2825723E+04  0.7818609E-02  0.8295327E-01
       -2   -1    0    0    0  501  0.00000000000E+00  0.00000000000E+00  0.77052863060E+03  0.77052863060E+03  0.25500000920E-02 0.  1.
        2   -1    0    0  501    0  0.00000000000E+00  0.00000000000E+00 -0.25906596107E+04  0.25906596107E+04  0.25500000920E-02 0. -1.
    10030    2    1    2    0    0  0.00000000000E+00  0.00000000000E+00 -0.18201309801E+04  0.33611882413E+04  0.28257228471E+04 0.  0.
        1    1    3    3  502    0 -0.53906306065E+01  0.13700703281E+04 -0.49963628315E+03  0.14583408992E+04  0.50400001928E-02 0.  1.
       -1    1    3    3    0  502  0.53906306065E+01 -0.13700703281E+04 -0.13204946970E+04  0.19028473421E+04  0.50400001928E-02 0. -1.
</event>
<event>
 5   0  0.1923559E-05  0.2818204E+04  0.7818609E-02  0.8297639E-01
        2   -1    0    0  501    0  0.00000000000E+00  0.00000000000E+00  0.13809398400E+04  0.13809398400E+04  0.25500000920E-02 0. -1.
       -2   -1    0    0    0  501  0.00000000000E+00  0.00000000000E+00 -0.14378383730E+04  0.14378383730E+04  0.25500000920E-02 0.  1.
    10030    2    1    2    0    0  0.00000000000E+00  0.00000000000E+00 -0.56898532969E+02  0.28187782130E+04  0.28182038910E+04 0.  0.
        4    1    3    3  502    0  0.13303434916E+04  0.38019516147E+03 -0.29534538470E+03  0.14147765462E+04  0.12699999809E+01 0. -1.
       -4    1    3    3    0  502 -0.13303434916E+04 -0.38019516147E+03  0.23844685174E+03  0.14040016668E+04  0.12699999809E+01 0.  1.
</event>
<event>
 5   0  0.7681342E-06  0.2747985E+04  0.7818609E-02  0.8319601E-01
        1   -1    0    0  501    0  0.00000000000E+00  0.00000000000E+00  0.10256721711E+04  0.10256721711E+04  0.50400001928E-02 0. -1.
       -1   -1    0    0    0  501  0.00000000000E+00  0.00000000000E+00 -0.18406034930E+04  0.18406034930E+04  0.50400001928E-02 0.  1.
    10030    2    1    2    0    0  0.00000000000E+00  0.00000000000E+00 -0.81493132190E+03  0.28662756640E+04  0.27479852843E+04 0.  0.
        2    1    3    3  502    0  0.12073426855E+04 -0.64232273113E+03 -0.26908628920E+03  0.13937942037E+04  0.25500000920E-02 0. -1.
       -2    1    3    3    0  502 -0.12073426855E+04  0.64232273113E+03 -0.54584503270E+03  0.14724814603E+04  0.25500000920E-02 0.  1.
</event>
<event>
 5   0  0.7681342E-06  0.2757861E+04  0.7818609E-02  0.8316471E-01
       -1   -1    0    0    0  501  0.00000000000E+00  0.00000000000E+00  0.15502166198E+04  0.15502166198E+04  0.50400001928E-02 0. -1.
        1   -1    0    0  501    0  0.00000000000E+00  0.00000000000E+00 -0.12265704027E+04  0.12265704027E+04  0.50400001928E-02 0.  1.
    10030    2    1    2    0    0  0.00000000000E+00  0.00000000000E+00  0.32364621712E+03  0.27767870225E+04  0.27578613624E+04 0.  0.
        2    1    3    3  502    0 -0.36211831014E+03  0.58149888639E+03  0.13667725405E+04  0.15288354401E+04  0.25500000920E-02 0. -1.
       -2    1    3    3    0  502  0.36211831014E+03 -0.58149888639E+03 -0.10431263234E+04  0.12479515824E+04  0.25500000920E-02 0.  1.
</event>
<event>
 5   0  0.1814230E-05  0.2752307E+04  0.7818609E-02  0.8318230E-01
       -2   -1    0    0    0  501  0.00000000000E+00  0.00000000000E+00  0.10904476096E+04  0.10904476096E+04  0.25500000920E-02 0.  1.
        2   -1    0    0  501    0  0.00000000000E+00  0.00000000000E+00 -0.17367161881E+04  0.17367161881E+04  0.25500000920E-02 0. -1.
    10030    2    1    2    0    0  0.00000000000E+00  0.00000000000E+00 -0.64626857848E+03  0.28271637977E+04  0.27523066805E+04 0.  0.
        5    1    3    3  502    0  0.85935451875E+03 -0.87109142693E+03 -0.96993096775E+03  0.15614348002E+04  0.46999998093E+01 0. -1.
       -5    1    3    3    0  502 -0.85935451875E+03  0.87109142693E+03  0.32366238928E+03  0.12657289975E+04  0.46999998093E+01 0.  1.
</event>
<event>
 5   0  0.1874272E-05  0.2794847E+04  0.7818609E-02  0.8304870E-01
       -2   -1    0    0    0  501  0.00000000000E+00  0.00000000000E+00  0.84737304806E+03  0.84737304806E+03  0.25500000920E-02 0.  1.
        2   -1    0    0  501    0  0.00000000000E+00  0.00000000000E+00 -0.23045252663E+04  0.23045252663E+04  0.25500000920E-02 0. -1.
    10030    2    1    2    0    0  0.00000000000E+00  0.00000000000E+00 -0.14571522182E+04  0.31518983143E+04  0.27948471151E+04 0.  0.
        3    1    3    3  502    0 -0.90956796448E+03 -0.23228719126E+03  0.43881010416E+03  0.10362555375E+04  0.10100000352E+00 0.  1.
       -3    1    3    3    0  502  0.90956796448E+03  0.23228719126E+03 -0.18959623224E+04  0.21156427769E+04  0.10100000352E+00 0. -1.
</event>
<event>
 5   0  0.7681342E-06  0.2368374E+04  0.7818609E-02  0.8451440E-01
       -1   -1    0    0    0  501  0.00000000000E+00  0.00000000000E+00  0.18915317042E+04  0.18915317042E+04  0.50400001928E-02 0. -1.
        1   -1    0    0  501    0  0.00000000000E+00  0.00000000000E+00 -0.74135600580E+03  0.74135600582E+03  0.50400001928E-02 0.  1.
    10030    2    1    2    0    0  0.00000000000E+00  0.00000000000E+00  0.11501756984E+04  0.26328877100E+04  0.23683736100E+04 0.  0.
        2    1    3    3  502    0  0.10066497672E+04  0.59137817918E+03  0.79526478222E+03  0.14126280397E+04  0.25500000920E-02 0. -1.
       -2    1    3    3    0  502 -0.10066497672E+04 -0.59137817918E+03  0.35491091616E+03  0.12202596703E+04  0.25500000920E-02 0.  1.
</event>
<event>
 5   0  0.1832502E-05  0.2828691E+04  0.7818609E-02  0.8294416E-01
        2   -1    0    0  501    0  0.00000000000E+00  0.00000000000E+00  0.16912741965E+04  0.16912741965E+04  0.25500000920E-02 0.  1.
       -2   -1    0    0    0  501  0.00000000000E+00  0.00000000000E+00 -0.11827610476E+04  0.11827610476E+04  0.25500000920E-02 0. -1.
    10030    2    1    2    0    0  0.00000000000E+00  0.00000000000E+00  0.50851314884E+03  0.28740352441E+04  0.28286910333E+04 0.  0.
        2    1    3    3  502    0 -0.14015272539E+04  0.57201836357E+01  0.61312814538E+02  0.14028794050E+04  0.25500000920E-02 0. -1.
       -2    1    3    3    0  502  0.14015272539E+04 -0.57201836357E+01  0.44720033430E+03  0.14711558391E+04  0.25500000920E-02 0.  1.
</event>
<event>
 5   0  0.7509685E-06  0.2847943E+04  0.7818609E-02  0.8288537E-01
       -1   -1    0    0    0  501  0.00000000000E+00  0.00000000000E+00  0.94702374156E+03  0.94702374157E+03  0.50400001928E-02 0.  1.
        1   -1    0    0  501    0  0.00000000000E+00  0.00000000000E+00 -0.21411236687E+04  0.21411236687E+04  0.50400001928E-02 0. -1.
    10030    2    1    2    0    0  0.00000000000E+00  0.00000000000E+00 -0.11940999271E+04  0.30881474102E+04  0.28479430808E+04 0.  0.
        4    1    3    3  502    0 -0.11803968934E+04 -0.75318178763E+03 -0.87787955118E+03  0.16526626245E+04  0.12699999809E+01 0. -1.
       -4    1    3    3    0  502  0.11803968934E+04  0.75318178763E+03 -0.31622037593E+03  0.14354847858E+04  0.12699999809E+01 0.  1.
</event>
<event>
 5   0  0.7555871E-06  0.2899803E+04  0.7818609E-02  0.8272936E-01
       -1   -1    0    0    0  501  0.00000000000E+00  0.00000000000E+00  0.12958280097E+04  0.12958280097E+04  0.50400001928E-02 0. -1.
        1   -1    0    0  501    0  0.00000000000E+00  0.00000000000E+00 -0.16222940928E+04  0.16222940928E+04  0.50400001928E-02 0.  1.
    10030    2    1    2    0    0  0.00000000000E+00  0.00000000000E+00 -0.32646608311E+03  0.29181221025E+04  0.28998028384E+04 0.  0.
        3    1    3    3  502    0  0.75231692046E+03 -0.73608944267E+03  0.84026560639E+03  0.13467942367E+04  0.10100000352E+00 0. -1.
       -3    1    3    3    0  502 -0.75231692046E+03  0.73608944267E+03 -0.11667316895E+04  0.15713278658E+04  0.10100000352E+00 0.  1.
</event>
<event>
 5   0  0.1904553E-05  0.2747986E+04  0.7818609E-02  0.8319601E-01
        2   -1    0    0  501    0  0.00000000000E+00  0.00000000000E+00  0.13251282241E+04  0.13251282241E+04  0.25500000920E-02 0. -1.
       -2   -1    0    0    0  501  0.00000000000E+00  0.00000000000E+00 -0.14246593613E+04  0.14246593613E+04  0.25500000920E-02 0.  1.
    10030    2    1    2    0    0  0.00000000000E+00  0.00000000000E+00 -0.99531137184E+02  0.27497875855E+04  0.27479856837E+04 0.  0.
        1    1    3    3  502    0  0.10582401192E+04  0.94217828856E+02  0.82207330758E+03  0.13433367680E+04  0.50400001928E-02 0. -1.
       -1    1    3    3    0  502 -0.10582401192E+04 -0.94217828856E+02 -0.92160444477E+03  0.14064508174E+04  0.50400001928E-02 0.  1.
</event>
<event>
 5   0  0.7681342E-06  0.2760470E+04  0.7818609E-02  0.8315647E-01
        1   -1    0    0  501    0  0.00000000000E+00  0.00000000000E+00  0.81158603678E+03  0.81158603679E+03  0.50400001928E-02 0. -1.
       -1   -1    0    0    0  501  0.00000000000E+00  0.00000000000E+00 -0.23473158697E+04  0.23473158697E+04  0.50400001928E-02 0.  1.
    10030    2    1    2    0    0  0.00000000000E+00  0.00000000000E+00 -0.15357298329E+04  0.31589019065E+04  0.27604700931E+04 0.  0.
        2    1    3    3  502    0  0.69150950448E+02  0.14903783649E+01 -0.23453314161E+04  0.23463511089E+04  0.25500000920E-02 0.  1.
       -2    1    3    3    0  502 -0.69150950448E+02 -0.14903783649E+01  0.80960158315E+03  0.81255079756E+03  0.25500000920E-02 0. -1.
</event>
<event>
 5   0  0.1904553E-05  0.2774911E+04  0.7818609E-02  0.8311100E-01
        2   -1    0    0  501    0  0.00000000000E+00  0.00000000000E+00  0.10879014373E+04  0.10879014373E+04  0.25500000920E-02 0. -1.
       -2   -1    0    0    0  501  0.00000000000E+00  0.00000000000E+00 -0.17694923838E+04  0.17694923838E+04  0.25500000920E-02 0.  1.
    10030    2    1    2    0    0  0.00000000000E+00  0.00000000000E+00 -0.68159094656E+03  0.28573938211E+04  0.27749113915E+04 0.  0.
        1    1    3    3  502    0 -0.73586834723E+03  0.57199021163E+03  0.71754791760E+03  0.11762440396E+04  0.50400001928E-02 0. -1.
       -1    1    3    3    0  502  0.73586834723E+03 -0.57199021163E+03 -0.13991388642E+04  0.16811497815E+04  0.50400001928E-02 0.  1.
</event>
<event>
 5   0  0.1874272E-05  0.2827239E+04  0.7818609E-02  0.8294861E-01
        2   -1    0    0  501    0  0.00000000000E+00  0.00000000000E+00  0.86014329227E+03  0.86014329227E+03  0.25500000920E-02 0. -1.
       -2   -1    0    0    0  501  0.00000000000E+00  0.00000000000E+00 -0.23232412588E+04  0.23232412588E+04  0.25500000920E-02 0.  1.
    10030    2    1    2    0    0  0.00000000000E+00  0.00000000000E+00 -0.14630979665E+04  0.31833845511E+04  0.28272392082E+04 0.  0.
        3    1    3    3  502    0 -0.28767084791E+03  0.17241549841E+03  0.81469786512E+03  0.88103021655E+03  0.10100000352E+00 0. -1.
       -3    1    3    3    0  502  0.28767084791E+03 -0.17241549841E+03 -0.22777958317E+04  0.23023543345E+04  0.10100000352E+00 0.  1.
</event>
<event>
 5   0  0.7388013E-06  0.2764507E+04  0.7818609E-02  0.8314373E-01
        1   -1    0    0  501    0  0.00000000000E+00  0.00000000000E+00  0.16539285659E+04  0.16539285659E+04  0.50400001928E-02 0. -1.
       -1   -1    0    0    0  501  0.00000000000E+00  0.00000000000E+00 -0.11552039922E+04  0.11552039922E+04  0.50400001928E-02 0.  1.
    10030    2    1    2    0    0  0.00000000000E+00  0.00000000000E+00  0.49872457368E+03  0.28091325582E+04  0.27645071041E+04 0.  0.
        1    1    3    3  502    0  0.13325862360E+04  0.19876405701E+03  0.56310459701E+03  0.14602671037E+04  0.50400001928E-02 0. -1.
       -1    1    3    3    0  502 -0.13325862360E+04 -0.19876405701E+03 -0.64380023326E+02  0.13488654545E+04  0.50400001928E-02 0.  1.
</event>
<event>
 5   0  0.7388013E-06  0.2728053E+04  0.7818609E-02  0.8325960E-01
        1   -1    0    0  501    0  0.00000000000E+00  0.00000000000E+00  0.17500490831E+04  0.17500490831E+04  0.50400001928E-02 0.  1.
       -1   -1    0    0    0  501  0.00000000000E+00  0.00000000000E+00 -0.10631524145E+04  0.10631524145E+04  0.50400001928E-02 0. -1.
    10030    2    1    2    0    0  0.00000000000E+00  0.00000000000E+00  0.68689666858E+03  0.28132014977E+04  0.27280534513E+04 0.  0.
        1    1    3    3  502    0 -0.61414916337E+03 -0.70904825016E+03 -0.67773291409E+03  0.11572599184E+04  0.50400001928E-02 0. -1.
       -1    1    3    3    0  502  0.61414916337E+03  0.70904825016E+03  0.13646295827E+04  0.16559415792E+04  0.50400001928E-02 0.  1.
</event>
<event>
 5   0  0.1904553E-05  0.2761911E+04  0.7818609E-02  0.8315192E-01
       -2   -1    0    0    0  501  0.00000000000E+00  0.00000000000E+00  0.81640591263E+03  0.81640591263E+03  0.25500000920E-02 0.  1.
        2   -1    0    0  501    0  0.00000000000E+00  0.00000000000E+00 -0.23358943099E+04  0.23358943099E+04  0.25500000920E-02 0. -1.
    10030    2    1    2    0    0  0.00000000000E+00  0.00000000000E+00 -0.15194883973E+04  0.31523002225E+04  0.27619108790E+04 0.  0.
        1    1    3    3  502    0  0.81538764638E+03  0.11099852546E+04 -0.87452567274E+03  0.16314776835E+04  0.50400001928E-02 0. -1.
       -1    1    3    3    0  502 -0.81538764638E+03 -0.11099852546E+04 -0.64496272454E+03  0.15208225391E+04  0.50400001928E-02 0.  1.
</event>
<event>
 5   0  0.7681342E-06  0.2554666E+04  0.7818609E-02  0.8383765E-01
       -1   -1    0    0    0  501  0.00000000000E+00  0.00000000000E+00  0.11198142085E+04  0.11198142085E+04  0.50400001928E-02 0.  1.
        1   -1    0    0  501    0  0.00000000000E+00  0.00000000000E+00 -0.14570088308E+04  0.14570088309E+04  0.50400001928E-02 0. -1.
    10030    2    1    2    0    0  0.00000000000E+00  0.00000000000E+00 -0.33719462239E+03  0.25768230393E+04  0.25546656851E+04 0.  0.
        2    1    3    3  502    0  0.44805051788E+03 -0.83482407202E+03  0.69551178623E+03  0.11753370336E+04  0.25500000920E-02 0.  1.
       -2    1    3    3    0  502 -0.44805051788E+03  0.83482407202E+03 -0.10327064086E+04  0.14014860057E+04  0.25500000920E-02 0. -1.
</event>
<event>
 5   0  0.7388013E-06  0.1893350E+04  0.7818609E-02  0.8658174E-01
        1   -1    0    0  501    0  0.00000000000E+00  0.00000000000E+00  0.60588076707E+03  0.60588076709E+03  0.50400001928E-02 0.  1.
       -1   -1    0    0    0  501  0.00000000000E+00  0.00000000000E+00 -0.14791582321E+04  0.14791582321E+04  0.50400001928E-02 0. -1.
    10030    2    1    2    0    0  0.00000000000E+00  0.00000000000E+00 -0.87327746506E+03  0.20850389992E+04  0.18933499669E+04 0.  0.
        1    1    3    3  502    0 -0.26608386249E+03 -0.59244979772E+03  0.32185825333E+03  0.72483799566E+03  0.50400001928E-02 0.  1.
       -1    1    3    3    0  502  0.26608386249E+03  0.59244979772E+03 -0.11951357184E+04  0.13602010036E+04  0.50400001928E-02 0. -1.
</event>
<event>
 5   0  0.1874272E-05  0.2797295E+04  0.7818609E-02  0.8304109E-01
       -2   -1    0    0    0  501  0.00000000000E+00  0.00000000000E+00  0.25728541237E+04  0.25728541237E+04  0.25500000920E-02 0. -1.
        2   -1    0    0  501    0  0.00000000000E+00  0.00000000000E+00 -0.76032847511E+03  0.76032847511E+03  0.25500000920E-02 0.  1.
    10030    2    1    2    0    0  0.00000000000E+00  0.00000000000E+00  0.18125256486E+04  0.33331825988E+04  0.27972945877E+04 0.  0.
        3    1    3    3  502    0 -0.63319565673E+03  0.63443639815E+03  0.21856201177E+04  0.23622831312E+04  0.10100000352E+00 0. -1.
       -3    1    3    3    0  502  0.63319565673E+03 -0.63443639815E+03 -0.37309446913E+03  0.97089946756E+03  0.10100000352E+00 0.  1.
</event>
<event>
 5   0  0.7509685E-06  0.2806693E+04  0.7818609E-02  0.8301193E-01
       -1   -1    0    0    0  501  0.00000000000E+00  0.00000000000E+00  0.14408343823E+04  0.14408343823E+04  0.50400001928E-02 0. -1.
        1   -1    0    0  501    0  0.00000000000E+00  0.00000000000E+00 -0.13668342354E+04  0.13668342354E+04  0.50400001928E-02 0.  1.
    10030    2    1    2    0    0  0.00000000000E+00  0.00000000000E+00  0.74000146908E+02  0.28076686176E+04  0.28066932580E+04 0.  0.
        4    1    3    3  502    0  0.11998531097E+04 -0.38558524091E+03 -0.58051233524E+03  0.13875588806E+04  0.12699999809E+01 0.  1.
       -4    1    3    3    0  502 -0.11998531097E+04  0.38558524091E+03  0.65451248214E+03  0.14201097370E+04  0.12699999809E+01 0. -1.
</event>
<event>
 5   0  0.7388013E-06  0.2728216E+04  0.7818609E-02  0.8325907E-01
       -1   -1    0    0    0  501  0.00000000000E+00  0.00000000000E+00  0.10412519192E+04  0.10412519193E+04  0.50400001928E-02 0.  1.
        1   -1    0    0  501    0  0.00000000000E+00  0.00000000000E+00 -0.17870709932E+04  0.17870709932E+04  0.50400001928E-02 0. -1.
    10030    2    1    2    0    0  0.00000000000E+00  0.00000000000E+00 -0.74581907398E+03  0.28283229125E+04  0.27282163415E+04 0.  0.
        1    1    3    3  502    0 -0.13433241763E+04 -0.21773198693E+03 -0.47051318749E+03  0.14398992049E+04  0.50400001928E-02 0.  1.
       -1    1    3    3    0  502  0.13433241763E+04  0.21773198693E+03 -0.27530588649E+03  0.13884237076E+04  0.50400001928E-02 0. -1.
</event>
<event>
 5   0  0.7388013E-06  0.2664877E+04  0.7818609E-02  0.8346492E-01
        1   -1    0    0  501    0  0.00000000000E+00  0.00000000000E+00  0.10378761594E+04  0.10378761594E+04  0.50400001928E-02 0.  1.
       -1   -1    0    0    0  501  0.00000000000E+00  0.00000000000E+00 -0.17106014493E+04  0.17106014493E+04  0.50400001928E-02 0. -1.
    10030    2    1    2    0    0  0.00000000000E+00  0.00000000000E+00 -0.67272528993E+03  0.27484776088E+04  0.26648770797E+04 0.  0.
        1    1    3    3  502    0  0.68475730150E+03  0.85024398739E+03  0.45153010685E+03  0.11813919068E+04  0.50400001928E-02 0. -1.
       -1    1    3    3    0  502 -0.68475730150E+03 -0.85024398739E+03 -0.11242553968E+04  0.15670857019E+04  0.50400001928E-02 0.  1.
</event>
<event>
 5   0  0.1832502E-05  0.2777547E+04  0.7818609E-02  0.8310273E-01
       -2   -1    0    0    0  501  0.00000000000E+00  0.00000000000E+00  0.10889787256E+04  0.10889787256E+04  0.25500000920E-02 0. -1.
        2   -1    0    0  501    0  0.00000000000E+00  0.00000000000E+00 -0.17711010078E+04  0.17711010078E+04  0.25500000920E-02 0.  1.
    10030    2    1    2    0    0  0.00000000000E+00  0.00000000000E+00 -0.68212228216E+03  0.28600797334E+04  0.27775466285E+04 0.  0.
        2    1    3    3  502    0  0.97446139049E+03 -0.96980690824E+03 -0.54334401237E+03  0.14782838552E+04  0.25500000920E-02 0.  1.
       -2    1    3    3    0  502 -0.97446139049E+03  0.96980690824E+03 -0.13877826980E+03  0.13817958782E+04  0.25500000920E-02 0. -1.
</event>
<event>
 5   0  0.1923559E-05  0.2803651E+04  0.7818609E-02  0.8302136E-01
       -2   -1    0    0    0  501  0.00000000000E+00  0.00000000000E+00  0.87393930492E+03  0.87393930493E+03  0.25500000920E-02 0.  1.
        2   -1    0    0  501    0  0.00000000000E+00  0.00000000000E+00 -0.22485708306E+04  0.22485708306E+04  0.25500000920E-02 0. -1.
    10030    2    1    2    0    0  0.00000000000E+00  0.00000000000E+00 -0.13746315257E+04  0.31225101355E+04  0.28036507834E+04 0.  0.
        4    1    3    3  502    0 -0.12376654728E+04 -0.57979850297E+03 -0.10344186086E+04  0.17140611416E+04  0.12699999809E+01 0. -1.
       -4    1    3    3    0  502  0.12376654728E+04  0.57979850297E+03 -0.34021291712E+03  0.14084489939E+04  0.12699999809E+01 0.  1.
</event>
<event>
 5   0  0.1874272E-05  0.2781699E+04  0.7818609E-02  0.8308973E-01
       -2   -1    0    0    0  501  0.00000000000E+00  0.00000000000E+00  0.14768673846E+04  0.14768673846E+04  0.25500000920E-02 0. -1.
        2   -1    0    0  501    0  0.00000000000E+00  0.00000000000E+00 -0.13098413632E+04  0.13098413632E+04  0.25500000920E-02 0.  1.
    10030    2    1    2    0    0  0.00000000000E+00  0.00000000000E+00  0.16702602143E+03  0.27867087478E+04  0.27816987531E+04 0.  0.
        3    1    3    3  502    0 -0.84641068450E+03 -0.93858346306E+03 -0.49814618735E+03  0.13584916629E+04  0.10100000352E+00 0.  1.
       -3    1    3    3    0  502  0.84641068450E+03  0.93858346306E+03  0.66517220878E+03  0.14282170849E+04  0.10100000352E+00 0. -1.
</event>
<event>
 5   0  0.7555871E-06  0.2784935E+04  0.7818609E-02  0.8307961E-01
        1   -1    0    0  501    0  0.00000000000E+00  0.00000000000E+00  0.17691753428E+04  0.17691753428E+04  0.50400001928E-02 0. -1.
       -1   -1    0    0    0  501  0.00000000000E+00  0.00000000000E+00 -0.10959712372E+04  0.10959712372E+04  0.50400001928E-02 0.  1.
    10030    2    1    2    0    0  0.00000000000E+00  0.00000000000E+00  0.67320410566E+03  0.28651465800E+04  0.27849346773E+04 0.  0.
        3    1    3    3  502    0  0.91115116730E+03 -0.39010788674E+03 -0.66961932455E+03  0.11961482613E+04  0.10100000352E+00 0. -1.
       -3    1    3    3    0  502 -0.91115116730E+03  0.39010788674E+03  0.13428234302E+04  0.16689983187E+04  0.10100000352E+00 0.  1.
</event>
<event>
 5   0  0.1814230E-05  0.2873539E+04  0.7818609E-02  0.8280794E-01
        2   -1    0    0  501    0  0.00000000000E+00  0.00000000000E+00  0.20196106841E+04  0.20196106841E+04  0.25500000920E-02 0.  1.
       -2   -1    0    0    0  501  0.00000000000E+00  0.00000000000E+00 -0.10221311770E+04  0.10221311770E+04  0.25500000920E-02 0. -1.
    10030    2    1    2    0    0  0.00000000000E+00  0.00000000000E+00  0.99747950704E+03  0.30417418611E+04  0.28735393129E+04 0.  0.
        5    1    3    3  502    0  0.56233906662E+02 -0.53792121558E+03 -0.91025080543E+03  0.10588201477E+04  0.46999998093E+01 0. -1.
       -5    1    3    3    0  502 -0.56233906662E+02  0.53792121558E+03  0.19077303125E+04  0.19829217134E+04  0.46999998093E+01 0.  1.
</event>
<event>
 5   0  0.1832502E-05  0.2838221E+04  0.7818609E-02  0.8291500E-01
        2   -1    0    0  501    0  0.00000000000E+00  0.00000000000E+00  0.12630469271E+04  0.12630469271E+04  0.25500000920E-02 0. -1.
       -2   -1    0    0    0  501  0.00000000000E+00  0.00000000000E+00 -0.15944572494E+04  0.15944572494E+04  0.25500000920E-02 0.  1.
    10030    2    1    2    0    0  0.00000000000E+00  0.00000000000E+00 -0.33141032227E+03  0.28575041765E+04  0.28382208014E+04 0.  0.
        2    1    3    3  502    0 -0.18425105456E+03 -0.78860387021E+03  0.10075577644E+04  0.12926782909E+04  0.25500000920E-02 0. -1.
       -2    1    3    3    0  502  0.18425105456E+03  0.78860387021E+03 -0.13389680867E+04  0.15648258856E+04  0.25500000920E-02 0.  1.
</event>
<event>
 5   0  0.7555871E-06  0.2510157E+04  0.7818609E-02  0.8399376E-01
       -1   -1    0    0    0  501  0.00000000000E+00  0.00000000000E+00  0.72353827164E+03  0.72353827166E+03  0.50400001928E-02 0. -1.
        1   -1    0    0  501    0  0.00000000000E+00  0.00000000000E+00 -0.21771103297E+04  0.21771103297E+04  0.50400001928E-02 0.  1.
    10030    2    1    2    0    0  0.00000000000E+00  0.00000000000E+00 -0.14535720581E+04  0.29006486014E+04  0.25101574813E+04 0.  0.
        3    1    3    3  502    0 -0.81634622238E+03 -0.51944739372E+03 -0.16504976018E+04  0.19132143354E+04  0.10100000352E+00 0.  1.
       -3    1    3    3    0  502  0.81634622238E+03  0.51944739372E+03  0.19692554369E+03  0.98743426596E+03  0.10100000352E+00 0. -1.
</event>
<event>
 5   0  0.1814230E-05  0.2807226E+04  0.7818609E-02  0.8301029E-01
        2   -1    0    0  501    0  0.00000000000E+00  0.00000000000E+00  0.18393726509E+04  0.18393726509E+04  0.25500000920E-02 0.  1.
       -2   -1    0    0    0  501  0.00000000000E+00  0.00000000000E+00 -0.10710876069E+04  0.10710876069E+04  0.25500000920E-02 0. -1.
    10030    2    1    2    0    0  0.00000000000E+00  0.00000000000E+00  0.76828504402E+03  0.29104602577E+04  0.28072258554E+04 0.  0.
        5    1    3    3  502    0 -0.13688663529E+04  0.29066954818E+03  0.49687611457E+03  0.14849888355E+04  0.46999998093E+01 0. -1.
       -5    1    3    3    0  502  0.13688663529E+04 -0.29066954818E+03  0.27140892944E+03  0.14254714222E+04  0.46999998093E+01 0.  1.
</event>
<event>
 5   0  0.6288000E-06  0.1811534E+04  0.7818609E-02  0.8700190E-01
        3   -1    0    0  501    0  0.00000000000E+00  0.00000000000E+00  0.13981616817E+04  0.13981616854E+04  0.10100000352E+00 0. -1.
       -3   -1    0    0    0  501  0.00000000000E+00  0.00000000000E+00 -0.58678064224E+03  0.58678065093E+03  0.10100000352E+00 0.  1.
    10030    2    1    2    0    0  0.00000000000E+00  0.00000000000E+00  0.81138103949E+03  0.19849423363E+04  0.18115344013E+04 0.  0.
        5    1    3    3  502    0  0.64180552568E+03  0.58965083264E+03  0.13553347947E+03  0.88203959735E+03  0.46999998093E+01 0. -1.
       -5    1    3    3    0  502 -0.64180552568E+03 -0.58965083264E+03  0.67584756002E+03  0.11029027390E+04  0.46999998093E+01 0.  1.
</event>
<event>
 5   0  0.1814230E-05  0.2808336E+04  0.7818609E-02  0.8300685E-01
       -2   -1    0    0    0  501  0.00000000000E+00  0.00000000000E+00  0.16601731458E+04  0.16601731458E+04  0.25500000920E-02 0.  1.
        2   -1    0    0  501    0  0.00000000000E+00  0.00000000000E+00 -0.11876401253E+04  0.11876401253E+04  0.25500000920E-02 0. -1.
    10030    2    1    2    0    0  0.00000000000E+00  0.00000000000E+00  0.47253302052E+03  0.28478132711E+04  0.28083363352E+04 0.  0.
        5    1    3    3  502    0  0.11330038366E+04 -0.14470177110E+02 -0.60470358902E+03  0.12843658359E+04  0.46999998093E+01 0.  1.
       -5    1    3    3    0  502 -0.11330038366E+04  0.14470177110E+02  0.10772366095E+04  0.15634474352E+04  0.46999998093E+01 0. -1.
</event>
<event>
 5   0  0.1904553E-05  0.2701824E+04  0.7818609E-02  0.8334414E-01
       -2   -1    0    0    0  501  0.00000000000E+00  0.00000000000E+00  0.68886839533E+03  0.68886839533E+03  0.25500000920E-02 0. -1.
        2   -1    0    0  501    0  0.00000000000E+00  0.00000000000E+00 -0.26492181609E+04  0.26492181609E+04  0.25500000920E-02 0.  1.
    10030    2    1    2    0    0  0.00000000000E+00  0.00000000000E+00 -0.19603497655E+04  0.33380865562E+04  0.27018235793E+04 0.  0.
        1    1    3    3  502    0  0.10495610765E+03 -0.45802854342E+02 -0.26432107036E+04  0.26456901764E+04  0.50400001928E-02 0.  1.
       -1    1    3    3    0  502 -0.10495610765E+03  0.45802854342E+02  0.68286093805E+03  0.69239637978E+03  0.50400001928E-02 0. -1.
</event>
<event>
 5   0  0.1923559E-05  0.2791361E+04  0.7818609E-02  0.8305955E-01
       -2   -1    0    0    0  501  0.00000000000E+00  0.00000000000E+00  0.15589315030E+04  0.15589315030E+04  0.25500000920E-02 0.  1.
        2   -1    0    0  501    0  0.00000000000E+00  0.00000000000E+00 -0.12495254360E+04  0.12495254360E+04  0.25500000920E-02 0. -1.
    10030    2    1    2    0    0  0.00000000000E+00  0.00000000000E+00  0.30940606702E+03  0.28084569390E+04  0.27913613639E+04 0.  0.
        4    1    3    3  502    0 -0.37489293299E+03  0.16157666591E+02 -0.11978206006E+04  0.12552217276E+04  0.12699999809E+01 0. -1.
       -4    1    3    3    0  502  0.37489293299E+03 -0.16157666591E+02  0.15072266676E+04  0.15532352114E+04  0.12699999809E+01 0.  1.
</event>
<event>
 5   0  0.7555871E-06  0.2819109E+04  0.7818609E-02  0.8297360E-01
        1   -1    0    0  501    0  0.00000000000E+00  0.00000000000E+00  0.23219611862E+04  0.23219611862E+04  0.50400001928E-02 0.  1.
       -1   -1    0    0    0  501  0.00000000000E+00  0.00000000000E+00 -0.85567494805E+03  0.85567494807E+03  0.50400001928E-02 0. -1.
    10030    2    1    2    0    0  0.00000000000E+00  0.00000000000E+00  0.14662862381E+04  0.31776361343E+04  0.28191090915E+04 0.  0.
        3    1    3    3  502    0 -0.94251565889E+02 -0.14063636306E+04  0.72175985530E+03  0.15835653817E+04  0.10100000352E+00 0. -1.
       -3    1    3    3    0  502  0.94251565889E+02  0.14063636306E+04  0.74452638285E+03  0.15940707526E+04  0.10100000352E+00 0.  1.
</event>
<event>
 5   0  0.7509685E-06  0.2843858E+04  0.7818609E-02  0.8289780E-01
       -1   -1    0    0    0  501  0.00000000000E+00  0.00000000000E+00  0.13267103263E+04  0.13267103263E+04  0.50400001928E-02 0.  1.
        1   -1    0    0  501    0  0.00000000000E+00  0.00000000000E+00 -0.15239812486E+04  0.15239812486E+04  0.50400001928E-02 0. -1.
    10030    2    1    2    0    0  0.00000000000E+00  0.00000000000E+00 -0.19727092238E+03  0.28506915749E+04  0.28438577036E+04 0.  0.
        4    1    3    3  502    0 -0.13034957864E+04  0.23717174593E+03  0.41886896782E+03  0.13895339245E+04  0.12699999809E+01 0.  1.
       -4    1    3    3    0  502  0.13034957864E+04 -0.23717174593E+03 -0.61613989020E+03  0.14611576504E+04  0.12699999809E+01 0. -1.
</event>
<event>
 5   0  0.1904553E-05  0.2736903E+04  0.7818609E-02  0.8323130E-01
        2   -1    0    0  501    0  0.00000000000E+00  0.00000000000E+00  0.17579355562E+04  0.17579355562E+04  0.25500000920E-02 0.  1.
       -2   -1    0    0    0  501  0.00000000000E+00  0.00000000000E+00 -0.10652607334E+04  0.10652607334E+04  0.25500000920E-02 0. -1.
    10030    2    1    2    0    0  0.00000000000E+00  0.00000000000E+00  0.69267482282E+03  0.28231962896E+04  0.27369031549E+04 0.  0.
        1    1    3    3  502    0  0.77257210617E+03 -0.11062795504E+04  0.58142118514E+03  0.14692762496E+04  0.50400001928E-02 0.  1.
       -1    1    3    3    0  502 -0.77257210617E+03  0.11062795504E+04  0.11125363768E+03  0.13539200401E+04  0.50400001928E-02 0. -1.
</event>
<event>
 5   0  0.7388013E-06  0.2793839E+04  0.7818609E-02  0.8305184E-01
       -1   -1    0    0    0  501  0.00000000000E+00  0.00000000000E+00  0.10584123752E+04  0.10584123752E+04  0.50400001928E-02 0.  1.
        1   -1    0    0  501    0  0.00000000000E+00  0.00000000000E+00 -0.18436901920E+04  0.18436901920E+04  0.50400001928E-02 0. -1.
    10030    2    1    2    0    0  0.00000000000E+00  0.00000000000E+00 -0.78527781674E+03  0.29021025672E+04  0.27938393048E+04 0.  0.
        1    1    3    3  502    0  0.28236546801E+03  0.13673271566E+04 -0.34537056276E+03  0.14382609765E+04  0.50400001928E-02 0.  1.
       -1    1    3    3    0  502 -0.28236546801E+03 -0.13673271566E+04 -0.43990725398E+03  0.14638415908E+04  0.50400001928E-02 0. -1.
</event>
<event>
 5   0  0.1923559E-05  0.2769531E+04  0.7818609E-02  0.8312791E-01
        2   -1    0    0  501    0  0.00000000000E+00  0.00000000000E+00  0.16408701886E+04  0.16408701887E+04  0.25500000920E-02 0. -1.
       -2   -1    0    0    0  501  0.00000000000E+00  0.00000000000E+00 -0.11686329239E+04  0.11686329239E+04  0.25500000920E-02 0.  1.
    10030    2    1    2    0    0  0.00000000000E+00  0.00000000000E+00  0.47223726475E+03  0.28095031126E+04  0.27695305929E+04 0.  0.
        4    1    3    3  502    0  0.10681721450E+04 -0.24999892277E+03  0.10933487685E+04  0.15488396738E+04  0.12699999809E+01 0. -1.
       -4    1    3    3    0  502 -0.10681721450E+04  0.24999892277E+03 -0.62111150370E+03  0.12606634387E+04  0.12699999809E+01 0.  1.
</event>
<event>
 5   0  0.1814230E-05  0.2774711E+04  0.7818609E-02  0.8311163E-01
       -2   -1    0    0    0  501  0.00000000000E+00  0.00000000000E+00  0.17812131330E+04  0.17812131330E+04  0.25500000920E-02 0. -1.
        2   -1    0    0  501    0  0.00000000000E+00  0.00000000000E+00 -0.10805870124E+04  0.10805870124E+04  0.25500000920E-02 0.  1.
    10030    2    1    2    0    0  0.00000000000E+00  0.00000000000E+00  0.70062612065E+03  0.28618001454E+04  0.27747113564E+04 0.  0.
        5    1    3    3  502    0  0.10239587098E+04  0.43637158139E+03  0.12044494499E+04  0.16400098060E+04  0.46999998093E+01 0.  1.
       -5    1    3    3    0  502 -0.10239587098E+04 -0.43637158139E+03 -0.50382332923E+03  0.12217903394E+04  0.46999998093E+01 0. -1.
</event>
<event>
 5   0  0.1814230E-05  0.2170281E+04  0.7818609E-02  0.8530901E-01
       -2   -1    0    0    0  501  0.00000000000E+00  0.00000000000E+00  0.13715909151E+04  0.13715909151E+04  0.25500000920E-02 0.  1.
        2   -1    0    0  501    0  0.00000000000E+00  0.00000000000E+00 -0.85851397861E+03  0.85851397861E+03  0.25500000920E-02 0. -1.
    10030    2    1    2    0    0  0.00000000000E+00  0.00000000000E+00  0.51307693650E+03  0.22301048937E+04  0.21702810634E+04 0.  0.
        5    1    3    3  502    0  0.61110130527E+03  0.55335305835E+03 -0.46850566206E+03  0.94824261551E+03  0.46999998093E+01 0. -1.
       -5    1    3    3    0  502 -0.61110130527E+03 -0.55335305835E+03  0.98158259856E+03  0.12818622782E+04  0.46999998093E+01 0.  1.
</event>
<event>
 5   0  0.7509685E-06  0.2353426E+04  0.7818609E-02  0.8457149E-01
       -1   -1    0    0    0  501  0.00000000000E+00  0.00000000000E+00  0.19024321955E+04  0.19024321955E+04  0.50400001928E-02 0.  1.
        1   -1    0    0  501    0  0.00000000000E+00  0.00000000000E+00 -0.72783315173E+03  0.72783315175E+03  0.50400001928E-02 0. -1.
    10030    2    1    2    0    0  0.00000000000E+00  0.00000000000E+00  0.11745990438E+04  0.26302653472E+04  0.23534257760E+04 0.  0.
        4    1    3    3  502    0  0.40959111023E+03  0.10241537305E+03 -0.64026500405E+03  0.76693850766E+03  0.12699999809E+01 0. -1.
       -4    1    3    3    0  502 -0.40959111023E+03 -0.10241537305E+03  0.18148640478E+04  0.18633268396E+04  0.12699999809E+01 0.  1.
</event>
<event>
 5   0  0.7509685E-06  0.2753429E+04  0.7818609E-02  0.8317874E-01
       -1   -1    0    0    0  501  0.00000000000E+00  0.00000000000E+00  0.11192234706E+04  0.11192234706E+04  0.50400001928E-02 0. -1.
        1   -1    0    0  501    0  0.00000000000E+00  0.00000000000E+00 -0.16934449399E+04  0.16934449399E+04  0.50400001928E-02 0.  1.
    10030    2    1    2    0    0  0.00000000000E+00  0.00000000000E+00 -0.57422146931E+03  0.28126684105E+04  0.27534293693E+04 0.  0.
        4    1    3    3  502    0  0.79417791361E+03 -0.55465656830E+03 -0.12864106579E+04  0.16103466896E+04  0.12699999809E+01 0.  1.
       -4    1    3    3    0  502 -0.79417791361E+03  0.55465656830E+03  0.71218918856E+03  0.12023217208E+04  0.12699999809E+01 0. -1.
</event>
<event>
 5   0  0.7388013E-06  0.1839631E+04  0.7818609E-02  0.8685504E-01
        1   -1    0    0  501    0  0.00000000000E+00  0.00000000000E+00  0.16372879511E+04  0.16372879511E+04  0.50400001928E-02 0.  1.
       -1   -1    0    0    0  501  0.00000000000E+00  0.00000000000E+00 -0.51674495974E+03  0.51674495977E+03  0.50400001928E-02 0. -1.
    10030    2    1    2    0    0  0.00000000000E+00  0.00000000000E+00  0.11205429914E+04  0.21540329109E+04  0.18396307199E+04 0.  0.
        1    1    3    3  502    0 -0.72904370707E+03  0.71117979709E+02 -0.91132571976E+02  0.73815150177E+03  0.50400001928E-02 0. -1.
       -1    1    3    3    0  502  0.72904370707E+03 -0.71117979709E+02  0.12116755634E+04  0.14158814091E+04  0.50400001928E-02 0.  1.
</event>
<event>
 5   0  0.1814230E-05  0.2763815E+04  0.7818609E-02  0.8314591E-01
        2   -1    0    0  501    0  0.00000000000E+00  0.00000000000E+00  0.17547051340E+04  0.17547051340E+04  0.25500000920E-02 0. -1.
       -2   -1    0    0    0  501  0.00000000000E+00  0.00000000000E+00 -0.10883128778E+04  0.10883128778E+04  0.25500000920E-02 0.  1.
    10030    2    1    2    0    0  0.00000000000E+00  0.00000000000E+00  0.66639225617E+03  0.28430180118E+04  0.27638148954E+04 0.  0.
        5    1    3    3  502    0  0.10734243020E+04 -0.84314821959E+03  0.55503207929E+03  0.14735064816E+04  0.46999998093E+01 0. -1.
       -5    1    3    3    0  502 -0.10734243020E+04  0.84314821959E+03  0.11136017689E+03  0.13695115302E+04  0.46999998093E+01 0.  1.
</event>
<event>
 5   0  0.1923559E-05  0.2822709E+04  0.7818609E-02  0.8296253E-01
       -2   -1    0    0    0  501  0.00000000000E+00  0.00000000000E+00  0.12893819123E+04  0.12893819123E+04  0.25500000920E-02 0. -1.
        2   -1    0    0  501    0  0.00000000000E+00  0.00000000000E+00 -0.15448651290E+04  0.15448651290E+04  0.25500000920E-02 0.  1.
    10030    2    1    2    0    0  0.00000000000E+00  0.00000000000E+00 -0.25548321669E+03  0.28342470413E+04  0.28227087376E+04 0.  0.
        4    1    3    3  502    0  0.39823979157E+03  0.12052919680E+04 -0.74718792759E+03  0.14729613273E+04  0.12699999809E+01 0.  1.
       -4    1    3    3    0  502 -0.39823979157E+03 -0.12052919680E+04  0.49170471090E+03  0.13612857140E+04  0.12699999809E+01 0. -1.
</event>
<event>
 5   0  0.1904553E-05  0.2777323E+04  0.7818609E-02  0.8310343E-01
        2   -1    0    0  501    0  0.00000000000E+00  0.00000000000E+00  0.15360627044E+04  0.15360627044E+04  0.25500000920E-02 0. -1.
       -2   -1    0    0    0  501  0.00000000000E+00  0.00000000000E+00 -0.12554052308E+04  0.12554052308E+04  0.25500000920E-02 0.  1.
    10030    2    1    2    0    0  0.00000000000E+00  0.00000000000E+00  0.28065747363E+03  0.27914679352E+04  0.27773232825E+04 0.  0.
        1    1    3    3  502    0  0.18916654422E+03  0.10906465223E+04 -0.70244471489E+03  0.13110005322E+04  0.50400001928E-02 0.  1.
       -1    1    3    3    0  502 -0.18916654422E+03 -0.10906465223E+04  0.98310218852E+03  0.14804674029E+04  0.50400001928E-02 0. -1.
</event>
<event>
 5   0  0.1904553E-05  0.2828481E+04  0.7818609E-02  0.8294480E-01
        2   -1    0    0  501    0  0.00000000000E+00  0.00000000000E+00  0.12555964309E+04  0.12555964309E+04  0.25500000920E-02 0. -1.
       -2   -1    0    0    0  501  0.00000000000E+00  0.00000000000E+00 -0.15929291216E+04  0.15929291216E+04  0.25500000920E-02 0.  1.
    10030    2    1    2    0    0  0.00000000000E+00  0.00000000000E+00 -0.33733269075E+03  0.28485255525E+04  0.28284809490E+04 0.  0.
        1    1    3    3  502    0 -0.21624899742E+03 -0.18487439660E+03  0.12264791643E+04  0.12590446028E+04  0.50400001928E-02 0. -1.
       -1    1    3    3    0  502  0.21624899742E+03  0.18487439660E+03 -0.15638118550E+04  0.15894809497E+04  0.50400001928E-02 0.  1.
</event>
<event>
 5   0  0.7681342E-06  0.2841291E+04  0.7818609E-02  0.8290562E-01
       -1   -1    0    0    0  501  0.00000000000E+00  0.00000000000E+00  0.10078798819E+04  0.10078798819E+04  0.50400001928E-02 0.  1.
        1   -1    0    0  501    0  0.00000000000E+00  0.00000000000E+00 -0.20024551311E+04  0.20024551311E+04  0.50400001928E-02 0. -1.
    10030    2    1    2    0    0  0.00000000000E+00  0.00000000000E+00 -0.99457524918E+03  0.30103350130E+04  0.28412914254E+04 0.  0.
        2    1    3    3  502    0 -0.11046220067E+04  0.76812046527E+03 -0.14042273131E+02  0.13455095735E+04  0.25500000920E-02 0. -1.
       -2    1    3    3    0  502  0.11046220067E+04 -0.76812046527E+03 -0.98053297605E+03  0.16648254395E+04  0.25500000920E-02 0.  1.
</event>
<event>
 5   0  0.7613444E-06  0.2856046E+04  0.7818609E-02  0.8286076E-01
        1   -1    0    0  501    0  0.00000000000E+00  0.00000000000E+00  0.10944050176E+04  0.10944050176E+04  0.50400001928E-02 0.  1.
       -1   -1    0    0    0  501  0.00000000000E+00  0.00000000000E+00 -0.18633413899E+04  0.18633413899E+04  0.50400001928E-02 0. -1.
    10030    2    1    2    0    0  0.00000000000E+00  0.00000000000E+00 -0.76893637231E+03  0.29577464075E+04  0.28560463348E+04 0.  0.
        5    1    3    3  502    0  0.11515215087E+04 -0.30148048941E+03 -0.12014418959E+04  0.16912649081E+04  0.46999998093E+01 0. -1.
       -5    1    3    3    0  502 -0.11515215087E+04  0.30148048941E+03  0.43250552354E+03  0.12664814994E+04  0.46999998093E+01 0.  1.
</event>
<event>
 5   0  0.1814230E-05  0.2270611E+04  0.7818609E-02  0.8489600E-01
       -2   -1    0    0    0  501  0.00000000000E+00  0.00000000000E+00  0.21330836746E+04  0.21330836746E+04  0.25500000920E-02 0.  1.
        2   -1    0    0  501    0  0.00000000000E+00  0.00000000000E+00 -0.60425154468E+03  0.60425154469E+03  0.25500000920E-02 0. -1.
    10030    2    1    2    0    0  0.00000000000E+00  0.00000000000E+00  0.15288321299E+04  0.27373352192E+04  0.22706114642E+04 0.  0.
        5    1    3    3  502    0  0.95057266705E+03  0.30731608039E+03  0.11423962954E+03  0.10055368474E+04  0.46999998093E+01 0. -1.
       -5    1    3    3    0  502 -0.95057266705E+03 -0.30731608039E+03  0.14145925003E+04  0.17317983718E+04  0.46999998093E+01 0.  1.
</event>
<event>
 5   0  0.7509685E-06  0.2859423E+04  0.7818609E-02  0.8285054E-01
        1   -1    0    0  501    0  0.00000000000E+00  0.00000000000E+00  0.16771012716E+04  0.16771012716E+04  0.50400001928E-02 0.  1.
       -1   -1    0    0    0  501  0.00000000000E+00  0.00000000000E+00 -0.12188138813E+04  0.12188138813E+04  0.50400001928E-02 0. -1.
    10030    2    1    2    0    0  0.00000000000E+00  0.00000000000E+00  0.45828739022E+03  0.28959151529E+04  0.28594225363E+04 0.  0.
        4    1    3    3  502    0  0.86882477210E+03  0.55684559699E+03  0.12312867367E+04  0.16065497640E+04  0.12699999809E+01 0.  1.
       -4    1    3    3    0  502 -0.86882477210E+03 -0.55684559699E+03 -0.77299934646E+03  0.12893653889E+04  0.12699999809E+01 0. -1.
</event>
<event>
 5   0  0.1832502E-05  0.2860127E+04  0.7818609E-02  0.8284841E-01
        2   -1    0    0  501    0  0.00000000000E+00  0.00000000000E+00  0.16917729994E+04  0.16917729994E+04  0.25500000920E-02 0. -1.
       -2   -1    0    0    0  501  0.00000000000E+00  0.00000000000E+00 -0.12088395020E+04  0.12088395020E+04  0.25500000920E-02 0.  1.
    10030    2    1    2    0    0  0.00000000000E+00  0.00000000000E+00  0.48293349734E+03  0.29006125014E+04  0.28601272909E+04 0.  0.
        2    1    3    3  502    0  0.13214218341E+04  0.45490027523E+03  0.54906200485E+03  0.15015189007E+04  0.25500000920E-02 0.  1.
       -2    1    3    3    0  502 -0.13214218341E+04 -0.45490027523E+03 -0.66128507510E+02  0.13990936007E+04  0.25500000920E-02 0. -1.
</event>
<event>
 5   0  0.7388013E-06  0.2776551E+04  0.7818609E-02  0.8310585E-01
       -1   -1    0    0    0  501  0.00000000000E+00  0.00000000000E+00  0.12621549075E+04  0.12621549075E+04  0.50400001928E-02 0. -1.
        1   -1    0    0  501    0  0.00000000000E+00  0.00000000000E+00 -0.15269990915E+04  0.15269990915E+04  0.50400001928E-02 0.  1.
    10030    2    1    2    0    0  0.00000000000E+00  0.00000000000E+00 -0.26484418401E+03  0.27891539989E+04  0.27765513840E+04 0.  0.
        1    1    3    3  502    0  0.10464061366E+04  0.37647971621E+03 -0.96722152714E+03  0.14738453996E+04  0.50400001928E-02 0.  1.
       -1    1    3    3    0  502 -0.10464061366E+04 -0.37647971621E+03  0.70237734313E+03  0.13153085993E+04  0.50400001928E-02 0. -1.
</event>
<event>
 5   0  0.1874272E-05  0.3013082E+04  0.7818609E-02  0.8240005E-01
        2   -1    0    0  501    0  0.00000000000E+00  0.00000000000E+00  0.13210251383E+04  0.13210251383E+04  0.25500000920E-02 0.  1.
       -2   -1    0    0    0  501  0.00000000000E+00  0.00000000000E+00 -0.17181089884E+04  0.17181089884E+04  0.25500000920E-02 0. -1.
    10030    2    1    2    0    0  0.00000000000E+00  0.00000000000E+00 -0.39708385011E+03  0.30391341267E+04  0.30130815880E+04 0.  0.
        3    1    3    3  502    0  0.37728306256E+03 -0.39158671339E+03 -0.16156749655E+04  0.17047252763E+04  0.10100000352E+00 0. -1.
       -3    1    3    3    0  502 -0.37728306256E+03  0.39158671339E+03  0.12185911154E+04  0.13344088504E+04  0.10100000352E+00 0.  1.
</event>
<event>
 5   0  0.1814230E-05  0.2784872E+04  0.7818609E-02  0.8307980E-01
        2   -1    0    0  501    0  0.00000000000E+00  0.00000000000E+00  0.15526533665E+04  0.15526533665E+04  0.25500000920E-02 0. -1.
       -2   -1    0    0    0  501  0.00000000000E+00  0.00000000000E+00 -0.12487515326E+04  0.12487515326E+04  0.25500000920E-02 0.  1.
    10030    2    1    2    0    0  0.00000000000E+00  0.00000000000E+00  0.30390183396E+03  0.28014048991E+04  0.27848721845E+04 0.  0.
        5    1    3    3  502    0 -0.73040592834E+03 -0.11802236019E+04  0.39773827633E+02  0.13885332614E+04  0.46999998093E+01 0. -1.
       -5    1    3    3    0  502  0.73040592834E+03  0.11802236019E+04  0.26412800633E+03  0.14128716376E+04  0.46999998093E+01 0.  1.
</event>
<event>
 5   0  0.7388013E-06  0.2763982E+04  0.7818609E-02  0.8314538E-01
        1   -1    0    0  501    0  0.00000000000E+00  0.00000000000E+00  0.78468219980E+03  0.78468219981E+03  0.50400001928E-02 0. -1.
       -1   -1    0    0    0  501  0.00000000000E+00  0.00000000000E+00 -0.24339787222E+04  0.24339787222E+04  0.50400001928E-02 0.  1.
    10030    2    1    2    0    0  0.00000000000E+00  0.00000000000E+00 -0.16492965224E+04  0.32186609220E+04  0.27639824732E+04 0.  0.
        1    1    3    3  502    0 -0.76799577679E+03 -0.63955878721E+03  0.28685384847E+03  0.10397779022E+04  0.50400001928E-02 0. -1.
       -1    1    3    3    0  502  0.76799577679E+03  0.63955878721E+03 -0.19361503709E+04  0.21788830199E+04  0.50400001928E-02 0.  1.
</event>
<event>
 5   0  0.7509685E-06  0.2386707E+04  0.7818609E-02  0.8444497E-01
       -1   -1    0    0    0  501  0.00000000000E+00  0.00000000000E+00  0.11347436531E+04  0.11347436531E+04  0.50400001928E-02 0.  1.
        1   -1    0    0  501    0  0.00000000000E+00  0.00000000000E+00 -0.12549903147E+04  0.12549903147E+04  0.50400001928E-02 0. -1.
    10030    2    1    2    0    0  0.00000000000E+00  0.00000000000E+00 -0.12024666157E+03  0.23897339678E+04  0.23867067640E+04 0.  0.
        4    1    3    3  502    0  0.38530044325E+03 -0.50189424275E+03 -0.10732052618E+04  0.12458432523E+04  0.12699999809E+01 0. -1.
       -4    1    3    3    0  502 -0.38530044325E+03  0.50189424275E+03  0.95295860022E+03  0.11438907155E+04  0.12699999809E+01 0.  1.
</event>
<event>
 5   0  0.6288000E-06  0.2798825E+04  0.7818609E-02  0.8303633E-01
       -3   -1    0    0    0  501  0.00000000000E+00  0.00000000000E+00  0.19337966629E+04  0.19337966656E+04  0.10100000352E+00 0.  1.
        3   -1    0    0  501    0  0.00000000000E+00  0.00000000000E+00 -0.10126996475E+04  0.10126996526E+04  0.10100000352E+00 0. -1.
    10030    2    1    2    0    0  0.00000000000E+00  0.00000000000E+00  0.92109701541E+03  0.29464963181E+04  0.27988249036E+04 0.  0.
        5    1    3    3  502    0  0.64559024913E+02  0.12744484750E+04  0.10652650219E+04  0.16622871112E+04  0.46999998093E+01 0.  1.
       -5    1    3    3    0  502 -0.64559024913E+02 -0.12744484750E+04 -0.14416800646E+03  0.12842092070E+04  0.46999998093E+01 0. -1.
</event>
<event>
 5   0  0.7613444E-06  0.2799706E+04  0.7818609E-02  0.8303360E-01
        1   -1    0    0  501    0  0.00000000000E+00  0.00000000000E+00  0.12063251956E+04  0.12063251956E+04  0.50400001928E-02 0. -1.
       -1   -1    0    0    0  501  0.00000000000E+00  0.00000000000E+00 -0.16244274181E+04  0.16244274181E+04  0.50400001928E-02 0.  1.
    10030    2    1    2    0    0  0.00000000000E+00  0.00000000000E+00 -0.41810222250E+03  0.28307526137E+04  0.27997055008E+04 0.  0.
        5    1    3    3  502    0 -0.12620221342E+04 -0.34676227770E+03  0.29306620582E+03  0.13412135682E+04  0.46999998093E+01 0.  1.
       -5    1    3    3    0  502  0.12620221342E+04  0.34676227770E+03 -0.71116842833E+03  0.14895390455E+04  0.46999998093E+01 0. -1.
</event>
<event>
 5   0  0.1814230E-05  0.2514838E+04  0.7818609E-02  0.8397718E-01
        2   -1    0    0  501    0  0.00000000000E+00  0.00000000000E+00  0.14953697023E+04  0.14953697023E+04  0.25500000920E-02 0.  1.
       -2   -1    0    0    0  501  0.00000000000E+00  0.00000000000E+00 -0.10573323812E+04  0.10573323812E+04  0.25500000920E-02 0. -1.
    10030    2    1    2    0    0  0.00000000000E+00  0.00000000000E+00  0.43803732104E+03  0.25527020835E+04  0.25148382120E+04 0.  0.
        5    1    3    3  502    0 -0.10229918428E+04 -0.29007956013E+03 -0.46222112432E+03  0.11594519910E+04  0.46999998093E+01 0. -1.
       -5    1    3    3    0  502  0.10229918428E+04  0.29007956013E+03  0.90025844536E+03  0.13932500925E+04  0.46999998093E+01 0.  1.
</event>
<event>
 5   0  0.1814230E-05  0.2867709E+04  0.7818609E-02  0.8282550E-01
       -2   -1    0    0    0  501  0.00000000000E+00  0.00000000000E+00  0.12337454401E+04  0.12337454401E+04  0.25500000920E-02 0. -1.
        2   -1    0    0  501    0  0.00000000000E+00  0.00000000000E+00 -0.16664208889E+04  0.16664208889E+04  0.25500000920E-02 0.  1.
    10030    2    1    2    0    0  0.00000000000E+00  0.00000000000E+00 -0.43267544886E+03  0.29001663290E+04  0.28677093109E+04 0.  0.
        5    1    3    3  502    0  0.51988239122E+03 -0.44107558172E+03 -0.14919990426E+04  0.16403989157E+04  0.46999998093E+01 0.  1.
       -5    1    3    3    0  502 -0.51988239122E+03  0.44107558172E+03  0.10593235937E+04  0.12597674133E+04  0.46999998093E+01 0. -1.
</event>
<event>
 5   0  0.1874272E-05  0.2783202E+04  0.7818609E-02  0.8308503E-01
        2   -1    0    0  501    0  0.00000000000E+00  0.00000000000E+00  0.29002537483E+04  0.29002537483E+04  0.25500000920E-02 0. -1.
       -2   -1    0    0    0  501  0.00000000000E+00  0.00000000000E+00 -0.66771855173E+03  0.66771855173E+03  0.25500000920E-02 0.  1.
    10030    2    1    2    0    0  0.00000000000E+00  0.00000000000E+00  0.22325351966E+04  0.35679723000E+04  0.27832019204E+04 0.  0.
        3    1    3    3  502    0 -0.13254201486E+04  0.19692427385E+03  0.63482894819E+03  0.14827425750E+04  0.10100000352E+00 0. -1.
       -3    1    3    3    0  502  0.13254201486E+04 -0.19692427385E+03  0.15977062484E+04  0.20852297251E+04  0.10100000352E+00 0.  1.
</event>
<event>
 5   0  0.1814230E-05  0.2895407E+04  0.7818609E-02  0.8274245E-01
        2   -1    0    0  501    0  0.00000000000E+00  0.00000000000E+00  0.22178709340E+04  0.22178709340E+04  0.25500000920E-02 0.  1.
       -2   -1    0    0    0  501  0.00000000000E+00  0.00000000000E+00 -0.94498101080E+03  0.94498101081E+03  0.25500000920E-02 0. -1.
    10030    2    1    2    0    0  0.00000000000E+00  0.00000000000E+00  0.12728899232E+04  0.31628519448E+04  0.28954073406E+04 0.  0.
        5    1    3    3  502    0 -0.61846971253E+03  0.95658229836E+03 -0.33954178111E+03  0.11886400590E+04  0.46999998093E+01 0. -1.
       -5    1    3    3    0  502  0.61846971253E+03 -0.95658229836E+03  0.16124317043E+04  0.19742118857E+04  0.46999998093E+01 0.  1.
</event>
<event>
 5   0  0.7681342E-06  0.2908297E+04  0.7818609E-02  0.8270413E-01
        1   -1    0    0  501    0  0.00000000000E+00  0.00000000000E+00  0.21010693535E+04  0.21010693535E+04  0.50400001928E-02 0. -1.
       -1   -1    0    0    0  501  0.00000000000E+00  0.00000000000E+00 -0.10064151496E+04  0.10064151497E+04  0.50400001928E-02 0.  1.
    10030    2    1    2    0    0  0.00000000000E+00  0.00000000000E+00  0.10946542038E+04  0.31074845031E+04  0.29082971154E+04 0.  0.
        2    1    3    3  502    0  0.10397136466E+04  0.74536534008E+03  0.12860343626E+04  0.18139620556E+04  0.25500000920E-02 0. -1.
       -2    1    3    3    0  502 -0.10397136466E+04 -0.74536534008E+03 -0.19138015877E+03  0.12935224476E+04  0.25500000920E-02 0.  1.
</event>
<event>
 5   0  0.1874272E-05  0.3158995E+04  0.7818609E-02  0.8199731E-01
       -2   -1    0    0    0  501  0.00000000000E+00  0.00000000000E+00  0.77068867102E+03  0.77068867103E+03  0.25500000920E-02 0. -1.
        2   -1    0    0  501    0  0.00000000000E+00  0.00000000000E+00 -0.32371203708E+04  0.32371203708E+04  0.25500000920E-02 0.  1.
    10030    2    1    2    0    0  0.00000000000E+00  0.00000000000E+00 -0.24664316997E+04  0.40078090418E+04  0.31589947746E+04 0.  0.
        3    1    3    3  502    0  0.32569451941E+03 -0.90355011312E+03 -0.28240696718E+04  0.29829262894E+04  0.10100000352E+00 0.  1.
       -3    1    3    3    0  502 -0.32569451941E+03  0.90355011312E+03  0.35763797202E+03  0.10248827524E+04  0.10100000352E+00 0. -1.
</event>
<event>
 5   0  0.1832502E-05  0.2816899E+04  0.7818609E-02  0.8298041E-01
       -2   -1    0    0    0  501  0.00000000000E+00  0.00000000000E+00  0.10672980355E+04  0.10672980355E+04  0.25500000920E-02 0.  1.
        2   -1    0    0  501    0  0.00000000000E+00  0.00000000000E+00 -0.18586470691E+04  0.18586470691E+04  0.25500000920E-02 0. -1.
    10030    2    1    2    0    0  0.00000000000E+00  0.00000000000E+00 -0.79134903351E+03  0.29259451046E+04  0.28168992638E+04 0.  0.
        2    1    3    3  502    0  0.18103317503E+03 -0.36488764583E+03 -0.17961310134E+04  0.18417390211E+04  0.25500000920E-02 0. -1.
       -2    1    3    3    0  502 -0.18103317503E+03  0.36488764583E+03  0.10047819799E+04  0.10842060835E+04  0.25500000920E-02 0.  1.
</event>
<event>
 5   0  0.1874272E-05  0.2786883E+04  0.7818609E-02  0.8307352E-01
        2   -1    0    0  501    0  0.00000000000E+00  0.00000000000E+00  0.30220533588E+04  0.30220533588E+04  0.25500000920E-02 0. -1.
       -2   -1    0    0    0  501  0.00000000000E+00  0.00000000000E+00 -0.64250331824E+03  0.64250331824E+03  0.25500000920E-02 0.  1.
    10030    2    1    2    0    0  0.00000000000E+00  0.00000000000E+00  0.23795500406E+04  0.36645566771E+04  0.27868830696E+04 0.  0.
        3    1    3    3  502    0 -0.10818370388E+04 -0.58073058685E+03  0.32345663226E+03  0.12697415470E+04  0.10100000352E+00 0.  1.
       -3    1    3    3    0  502  0.10818370388E+04  0.58073058685E+03  0.20560934083E+04  0.23948151300E+04  0.10100000352E+00 0. -1.
</event>
<event>
 5   0  0.7681342E-06  0.2775273E+04  0.7818609E-02  0.8310986E-01
       -1   -1    0    0    0  501  0.00000000000E+00  0.00000000000E+00  0.11426384106E+04  0.11426384106E+04  0.50400001928E-02 0. -1.
        1   -1    0    0  501    0  0.00000000000E+00  0.00000000000E+00 -0.16851660283E+04  0.16851660283E+04  0.50400001928E-02 0.  1.
    10030    2    1    2    0    0  0.00000000000E+00  0.00000000000E+00 -0.54252761767E+03  0.28278044389E+04  0.27752732710E+04 0.  0.
        2    1    3    3  502    0 -0.11930532170E+04 -0.37247444809E+03  0.34299213672E+03  0.12960543194E+04  0.25500000920E-02 0. -1.
       -2    1    3    3    0  502  0.11930532170E+04  0.37247444809E+03 -0.88551975439E+03  0.15317501195E+04  0.25500000920E-02 0.  1.
</event>
<event>
 5   0  0.1832502E-05  0.2763176E+04  0.7818609E-02  0.8314793E-01
       -2   -1    0    0    0  501  0.00000000000E+00  0.00000000000E+00  0.10613244886E+04  0.10613244886E+04  0.25500000920E-02 0. -1.
        2   -1    0    0  501    0  0.00000000000E+00  0.00000000000E+00 -0.17984933948E+04  0.17984933948E+04  0.25500000920E-02 0.  1.
    10030    2    1    2    0    0  0.00000000000E+00  0.00000000000E+00 -0.73716890616E+03  0.28598178834E+04  0.27631757689E+04 0.  0.
        2    1    3    3  502    0 -0.96797513726E+03  0.93761113340E+03 -0.53478191605E+02  0.13486847003E+04  0.25500000920E-02 0.  1.
       -2    1    3    3    0  502  0.96797513726E+03 -0.93761113340E+03 -0.68369071455E+03  0.15111331831E+04  0.25500000920E-02 0. -1.
</event>
<event>
 5   0  0.7509685E-06  0.2453629E+04  0.7818609E-02  0.8419694E-01
       -1   -1    0    0    0  501  0.00000000000E+00  0.00000000000E+00  0.96598044398E+03  0.96598044399E+03  0.50400001928E-02 0.  1.
        1   -1    0    0  501    0  0.00000000000E+00  0.00000000000E+00 -0.15580792032E+04  0.15580792032E+04  0.50400001928E-02 0. -1.
    10030    2    1    2    0    0  0.00000000000E+00  0.00000000000E+00 -0.59209875925E+03  0.25240596472E+04  0.24536291819E+04 0.  0.
        4    1    3    3  502    0 -0.51718499691E+03 -0.12824850679E+03 -0.14328235614E+04  0.15286964942E+04  0.12699999809E+01 0. -1.
       -4    1    3    3    0  502  0.51718499691E+03  0.12824850679E+03  0.84072480214E+03  0.99536315300E+03  0.12699999809E+01 0.  1.
</event>
<event>
 5   0  0.7509685E-06  0.2311211E+04  0.7818609E-02  0.8473514E-01
        1   -1    0    0  501    0  0.00000000000E+00  0.00000000000E+00  0.16736066310E+04  0.16736066311E+04  0.50400001928E-02 0.  1.
       -1   -1    0    0    0  501  0.00000000000E+00  0.00000000000E+00 -0.79793168690E+03  0.79793168692E+03  0.50400001928E-02 0. -1.
    10030    2    1    2    0    0  0.00000000000E+00  0.00000000000E+00  0.87567494415E+03  0.24715383180E+04  0.23112107324E+04 0.  0.
        4    1    3    3  502    0  0.70198109780E+03  0.73380412435E+03 -0.15194303408E+03  0.10268077975E+04  0.12699999809E+01 0. -1.
       -4    1    3    3    0  502 -0.70198109780E+03 -0.73380412435E+03  0.10276179782E+04  0.14447305204E+04  0.12699999809E+01 0.  1.
</event>
<event>
 5   0  0.1923559E-05  0.2819997E+04  0.7818609E-02  0.8297087E-01
       -2   -1    0    0    0  501  0.00000000000E+00  0.00000000000E+00  0.13193426493E+04  0.13193426493E+04  0.25500000920E-02 0.  1.
        2   -1    0    0  501    0  0.00000000000E+00  0.00000000000E+00 -0.15068838778E+04  0.15068838778E+04  0.25500000920E-02 0. -1.
    10030    2    1    2    0    0  0.00000000000E+00  0.00000000000E+00 -0.18754122846E+03  0.28262265271E+04  0.28199972819E+04 0.  0.
        4    1    3    3  502    0  0.76356956368E+03  0.81583147035E+02 -0.12789225430E+04  0.14917569414E+04  0.12699999809E+01 0. -1.
       -4    1    3    3    0  502 -0.76356956368E+03 -0.81583147035E+02  0.10913813145E+04  0.13344695857E+04  0.12699999809E+01 0.  1.
</event>
<event>
 5   0  0.7613444E-06  0.2820883E+04  0.7818609E-02  0.8296814E-01
       -1   -1    0    0    0  501  0.00000000000E+00  0.00000000000E+00  0.23200615370E+04  0.23200615370E+04  0.50400001928E-02 0.  1.
        1   -1    0    0  501    0  0.00000000000E+00  0.00000000000E+00 -0.85745343400E+03  0.85745343402E+03  0.50400001928E-02 0. -1.
    10030    2    1    2    0    0  0.00000000000E+00  0.00000000000E+00  0.14626081030E+04  0.31775149711E+04  0.28208826506E+04 0.  0.
        5    1    3    3  502    0 -0.36696185837E+03 -0.43540138438E+03 -0.72221619669E+03  0.91970304761E+03  0.46999998093E+01 0. -1.
       -5    1    3    3    0  502  0.36696185837E+03  0.43540138438E+03  0.21848242997E+04  0.22578119234E+04  0.46999998093E+01 0.  1.
</event>
<event>
 5   0  0.7681342E-06  0.2802288E+04  0.7818609E-02  0.8302558E-01
        1   -1    0    0  501    0  0.00000000000E+00  0.00000000000E+00  0.21481628019E+04  0.21481628019E+04  0.50400001928E-02 0. -1.
       -1   -1    0    0    0  501  0.00000000000E+00  0.00000000000E+00 -0.91389934213E+03  0.91389934214E+03  0.50400001928E-02 0.  1.
    10030    2    1    2    0    0  0.00000000000E+00  0.00000000000E+00  0.12342634597E+04  0.30620621440E+04  0.28022880447E+04 0.  0.
        2    1    3    3  502    0  0.51533834253E+03 -0.12090881427E+04  0.11476678336E+04  0.17448808556E+04  0.25500000920E-02 0. -1.
       -2    1    3    3    0  502 -0.51533834253E+03  0.12090881427E+04  0.86595626137E+02  0.13171812884E+04  0.25500000920E-02 0.  1.
</event>
<event>
 5   0  0.1874272E-05  0.2757158E+04  0.7818609E-02  0.8316694E-01
        2   -1    0    0  501    0  0.00000000000E+00  0.00000000000E+00  0.23459148130E+04  0.23459148130E+04  0.25500000920E-02 0.  1.
       -2   -1    0    0    0  501  0.00000000000E+00  0.00000000000E+00 -0.81012349028E+03  0.81012349028E+03  0.25500000920E-02 0. -1.
    10030    2    1    2    0    0  0.00000000000E+00  0.00000000000E+00  0.15357913227E+04  0.31560383033E+04  0.27571584620E+04 0.  0.
        3    1    3    3  502    0 -0.24053888982E+03 -0.65565273300E+03  0.21284373297E+04  0.22400859226E+04  0.10100000352E+00 0.  1.
       -3    1    3    3    0  502  0.24053888982E+03  0.65565273300E+03 -0.59264600703E+03  0.91595238067E+03  0.10100000352E+00 0. -1.
</event>
<event>
 5   0  0.1874272E-05  0.2762451E+04  0.7818609E-02  0.8315022E-01
       -2   -1    0    0    0  501  0.00000000000E+00  0.00000000000E+00  0.12141619821E+04  0.12141619821E+04  0.25500000920E-02 0.  1.
        2   -1    0    0  501    0  0.00000000000E+00  0.00000000000E+00 -0.15712761343E+04  0.15712761343E+04  0.25500000920E-02 0. -1.
    10030    2    1    2    0    0  0.00000000000E+00  0.00000000000E+00 -0.35711415225E+03  0.27854381164E+04  0.27624509014E+04 0.  0.
        3    1    3    3  502    0  0.13085569812E+02  0.74905650558E+02  0.12120498585E+04  0.12144327722E+04  0.10100000352E+00 0.  1.
       -3    1    3    3    0  502 -0.13085569812E+02 -0.74905650558E+02 -0.15691640107E+04  0.15710053442E+04  0.10100000352E+00 0. -1.
</event>
<event>
 5   0  0.1832502E-05  0.2869152E+04  0.7818609E-02  0.8282115E-01
        2   -1    0    0  501    0  0.00000000000E+00  0.00000000000E+00  0.11117385775E+04  0.11117385775E+04  0.25500000920E-02 0. -1.
       -2   -1    0    0    0  501  0.00000000000E+00  0.00000000000E+00 -0.18511616173E+04  0.18511616173E+04  0.25500000920E-02 0.  1.
    10030    2    1    2    0    0  0.00000000000E+00  0.00000000000E+00 -0.73942303978E+03  0.29629001948E+04  0.28691516399E+04 0.  0.
        2    1    3    3  502    0  0.19459177471E+03 -0.63765655253E+03  0.94204382612E+03  0.11540876952E+04  0.25500000920E-02 0. -1.
       -2    1    3    3    0  502 -0.19459177471E+03  0.63765655253E+03 -0.16814668659E+04  0.18088124996E+04  0.25500000920E-02 0.  1.
</event>
<event>
 5   0  0.7388013E-06  0.2818288E+04  0.7818609E-02  0.8297613E-01
        1   -1    0    0  501    0  0.00000000000E+00  0.00000000000E+00  0.15490042625E+04  0.15490042625E+04  0.50400001928E-02 0. -1.
       -1   -1    0    0    0  501  0.00000000000E+00  0.00000000000E+00 -0.12819116061E+04  0.12819116061E+04  0.50400001928E-02 0.  1.
    10030    2    1    2    0    0  0.00000000000E+00  0.00000000000E+00  0.26709265644E+03  0.28309158686E+04  0.28182878079E+04 0.  0.
        1    1    3    3  502    0  0.31225752792E+03  0.96585796289E+03 -0.84822772317E+03  0.13228290285E+04  0.50400001928E-02 0.  1.
       -1    1    3    3    0  502 -0.31225752792E+03 -0.96585796289E+03  0.11153203796E+04  0.15080868401E+04  0.50400001928E-02 0. -1.
</event>
<event>
 5   0  0.1923559E-05  0.2994194E+04  0.7818609E-02  0.8245391E-01
       -2   -1    0    0    0  501  0.00000000000E+00  0.00000000000E+00  0.10059771775E+04  0.10059771775E+04  0.25500000920E-02 0.  1.
        2   -1    0    0  501    0  0.00000000000E+00  0.00000000000E+00 -0.22279824468E+04  0.22279824468E+04  0.25500000920E-02 0. -1.
    10030    2    1    2    0    0  0.00000000000E+00  0.00000000000E+00 -0.12220052693E+04  0.32339596243E+04  0.29941940441E+04 0.  0.
        4    1    3    3  502    0 -0.57773323077E+03 -0.11231624181E+04  0.25711873876E+03  0.12889457561E+04  0.12699999809E+01 0.  1.
       -4    1    3    3    0  502  0.57773323077E+03  0.11231624181E+04 -0.14791240081E+04  0.19450138682E+04  0.12699999809E+01 0. -1.
</event>
<event>
 5   0  0.7555871E-06  0.2775835E+04  0.7818609E-02  0.8310810E-01
        1   -1    0    0  501    0  0.00000000000E+00  0.00000000000E+00  0.11542886229E+04  0.11542886229E+04  0.50400001928E-02 0.  1.
       -1   -1    0    0    0  501  0.00000000000E+00  0.00000000000E+00 -0.16688328696E+04  0.16688328696E+04  0.50400001928E-02 0. -1.
    10030    2    1    2    0    0  0.00000000000E+00  0.00000000000E+00 -0.51454424667E+03  0.28231214925E+04  0.27758348618E+04 0.  0.
        3    1    3    3  502    0  0.67887589103E+03  0.11528806776E+03 -0.14828525809E+04  0.16349359623E+04  0.10100000352E+00 0. -1.
       -3    1    3    3    0  502 -0.67887589103E+03 -0.11528806776E+03  0.96830833420E+03  0.11881855302E+04  0.10100000352E+00 0.  1.
</event>
<event>
 5   0  0.1874272E-05  0.2769927E+04  0.7818609E-02  0.8312666E-01
       -2   -1    0    0    0  501  0.00000000000E+00  0.00000000000E+00  0.11151658273E+04  0.11151658273E+04  0.25500000920E-02 0. -1.
        2   -1    0    0  501    0  0.00000000000E+00  0.00000000000E+00 -0.17200351936E+04  0.17200351936E+04  0.25500000920E-02 0.  1.
    10030    2    1    2    0    0  0.00000000000E+00  0.00000000000E+00 -0.60486936633E+03  0.28352010209E+04  0.27699274140E+04 0.  0.
        3    1    3    3  502    0 -0.43612934385E+03  0.12692638543E+04 -0.65237559234E+03  0.14922578397E+04  0.10100000352E+00 0.  1.
       -3    1    3    3    0  502  0.43612934385E+03 -0.12692638543E+04  0.47506226006E+02  0.13429431812E+04  0.10100000352E+00 0. -1.
</event>
<event>
 5   0  0.1874272E-05  0.2798886E+04  0.7818609E-02  0.8303614E-01
       -2   -1    0    0    0  501  0.00000000000E+00  0.00000000000E+00  0.14186423186E+04  0.14186423186E+04  0.25500000920E-02 0.  1.
        2   -1    0    0  501    0  0.00000000000E+00  0.00000000000E+00 -0.13805035000E+04  0.13805035000E+04  0.25500000920E-02 0. -1.
    10030    2    1    2    0    0  0.00000000000E+00  0.00000000000E+00  0.38138818609E+02  0.27991458186E+04  0.27988859828E+04 0.  0.
        3    1    3    3  502    0  0.17659030396E+03 -0.21593850991E+03  0.13905563011E+04  0.14182596421E+04  0.10100000352E+00 0.  1.
       -3    1    3    3    0  502 -0.17659030396E+03  0.21593850991E+03 -0.13524174825E+04  0.13808861766E+04  0.10100000352E+00 0. -1.
</event>
<event>
 5   0  0.7388013E-06  0.2785253E+04  0.7818609E-02  0.8307861E-01
       -1   -1    0    0    0  501  0.00000000000E+00  0.00000000000E+00  0.10775217115E+04  0.10775217115E+04  0.50400001928E-02 0. -1.
        1   -1    0    0  501    0  0.00000000000E+00  0.00000000000E+00 -0.17998792155E+04  0.17998792155E+04  0.50400001928E-02 0.  1.
    10030    2    1    2    0    0  0.00000000000E+00  0.00000000000E+00 -0.72235750406E+03  0.28774009270E+04  0.27852532616E+04 0.  0.
        1    1    3    3  502    0  0.56421469655E+03 -0.65857902917E+03 -0.14868823044E+04  0.17213028637E+04  0.50400001928E-02 0.  1.
       -1    1    3    3    0  502 -0.56421469655E+03  0.65857902917E+03  0.76452480037E+03  0.11560980633E+04  0.50400001928E-02 0. -1.
</event>
<event>
 5   0  0.7388013E-06  0.2916182E+04  0.7818609E-02  0.8268079E-01
        1   -1    0    0  501    0  0.00000000000E+00  0.00000000000E+00  0.14270415807E+04  0.14270415807E+04  0.50400001928E-02 0.  1.
       -1   -1    0    0    0  501  0.00000000000E+00  0.00000000000E+00 -0.14898155162E+04  0.14898155162E+04  0.50400001928E-02 0. -1.
    10030    2    1    2    0    0  0.00000000000E+00  0.00000000000E+00 -0.62773935472E+02  0.29168570969E+04  0.29161815370E+04 0.  0.
        1    1    3    3  502    0 -0.11984439268E+03 -0.14273603601E+04 -0.30404581224E+03  0.14642964632E+04  0.50400001928E-02 0. -1.
       -1    1    3    3    0  502  0.11984439268E+03  0.14273603601E+04  0.24127187677E+03  0.14525606337E+04  0.50400001928E-02 0.  1.
</event>
<event>
 5   0  0.1904553E-05  0.2745947E+04  0.7818609E-02  0.8320249E-01
       -2   -1    0    0    0  501  0.00000000000E+00  0.00000000000E+00  0.11533904024E+04  0.11533904024E+04  0.25500000920E-02 0. -1.
        2   -1    0    0  501    0  0.00000000000E+00  0.00000000000E+00 -0.16343614964E+04  0.16343614964E+04  0.25500000920E-02 0.  1.
    10030    2    1    2    0    0  0.00000000000E+00  0.00000000000E+00 -0.48097109401E+03  0.27877518988E+04  0.27459474605E+04 0.  0.
        1    1    3    3  502    0  0.11109151888E+04 -0.49599931913E+03  0.40552647880E+03  0.12824194346E+04  0.50400001928E-02 0. -1.
       -1    1    3    3    0  502 -0.11109151888E+04  0.49599931913E+03 -0.88649757281E+03  0.15053324642E+04  0.50400001928E-02 0.  1.
</event>
<event>
 5   0  0.7509685E-06  0.2807601E+04  0.7818609E-02  0.8300913E-01
       -1   -1    0    0    0  501  0.00000000000E+00  0.00000000000E+00  0.81770212561E+03  0.81770212562E+03  0.50400001928E-02 0. -1.
        1   -1    0    0  501    0  0.00000000000E+00  0.00000000000E+00 -0.24099915127E+04  0.24099915127E+04  0.50400001928E-02 0.  1.
    10030    2    1    2    0    0  0.00000000000E+00  0.00000000000E+00 -0.15922893871E+04  0.32276936383E+04  0.28076005290E+04 0.  0.
        4    1    3    3  502    0  0.12002875223E+04 -0.71343702188E+03 -0.96262661169E+03  0.16959758627E+04  0.12699999809E+01 0.  1.
       -4    1    3    3    0  502 -0.12002875223E+04  0.71343702188E+03 -0.62966277541E+03  0.15317177756E+04  0.12699999809E+01 0. -1.
</event>
<event>
 5   0  0.1814230E-05  0.2844724E+04  0.7818609E-02  0.8289516E-01
       -2   -1    0    0    0  501  0.00000000000E+00  0.00000000000E+00  0.10856890663E+04  0.10856890663E+04  0.25500000920E-02 0.  1.
        2   -1    0    0  501    0  0.00000000000E+00  0.00000000000E+00 -0.18634371190E+04  0.18634371190E+04  0.25500000920E-02 0. -1.
    10030    2    1    2    0    0  0.00000000000E+00  0.00000000000E+00 -0.77774805272E+03  0.29491261852E+04  0.28447237516E+04 0.  0.
        5    1    3    3  502    0 -0.94084750700E+01  0.11742705534E+04  0.44313300088E+03  0.12551449312E+04  0.46999998093E+01 0.  1.
       -5    1    3    3    0  502  0.94084750700E+01 -0.11742705534E+04 -0.12208810536E+04  0.16939812540E+04  0.46999998093E+01 0. -1.
</event>
<event>
 5   0  0.7681342E-06  0.2827022E+04  0.7818609E-02  0.8294928E-01
       -1   -1    0    0    0  501  0.00000000000E+00  0.00000000000E+00  0.65738410545E+03  0.65738410547E+03  0.50400001928E-02 0.  1.
        1   -1    0    0  501    0  0.00000000000E+00  0.00000000000E+00 -0.30393395670E+04  0.30393395670E+04  0.50400001928E-02 0. -1.
    10030    2    1    2    0    0  0.00000000000E+00  0.00000000000E+00 -0.23819554616E+04  0.36967236725E+04  0.28270221240E+04 0.  0.
        2    1    3    3  502    0 -0.10170856418E+04 -0.25933680190E+03 -0.24289565260E+04  0.26460439499E+04  0.25500000920E-02 0. -1.
       -2    1    3    3    0  502  0.10170856418E+04  0.25933680190E+03  0.47001064389E+02  0.10506797226E+04  0.25500000920E-02 0.  1.
</event>
<event>
 5   0  0.7613444E-06  0.2996367E+04  0.7818609E-02  0.8244769E-01
        1   -1    0    0  501    0  0.00000000000E+00  0.00000000000E+00  0.23154420983E+04  0.23154420983E+04  0.50400001928E-02 0. -1.
       -1   -1    0    0    0  501  0.00000000000E+00  0.00000000000E+00 -0.96938483010E+03  0.96938483011E+03  0.50400001928E-02 0.  1.
    10030    2    1    2    0    0  0.00000000000E+00  0.00000000000E+00  0.13460572682E+04  0.32848269284E+04  0.29963674308E+04 0.  0.
        5    1    3    3  502    0 -0.64861577490E+03 -0.75509137500E+03  0.19004919240E+04  0.21454037035E+04  0.46999998093E+01 0. -1.
       -5    1    3    3    0  502  0.64861577490E+03  0.75509137500E+03 -0.55443465572E+03  0.11394232249E+04  0.46999998093E+01 0.  1.
</event>
<event>
 5   0  0.7388013E-06  0.2232947E+04  0.7818609E-02  0.8504839E-01
        1   -1    0    0  501    0  0.00000000000E+00  0.00000000000E+00  0.10058996073E+04  0.10058996074E+04  0.50400001928E-02 0. -1.
       -1   -1    0    0    0  501  0.00000000000E+00  0.00000000000E+00 -0.12392024475E+04  0.12392024475E+04  0.50400001928E-02 0.  1.
    10030    2    1    2    0    0  0.00000000000E+00  0.00000000000E+00 -0.23330284018E+03  0.22451020549E+04  0.22329471605E+04 0.  0.
        1    1    3    3  502    0 -0.10021392753E+04  0.41554199373E+03 -0.38181981225E+03  0.11501063623E+04  0.50400001928E-02 0.  1.
       -1    1    3    3    0  502  0.10021392753E+04 -0.41554199373E+03  0.14851697206E+03  0.10949956925E+04  0.50400001928E-02 0. -1.
</event>
<event>
 5   0  0.1814230E-05  0.1932192E+04  0.7818609E-02  0.8638996E-01
       -2   -1    0    0    0  501  0.00000000000E+00  0.00000000000E+00  0.94554959535E+03  0.94554959536E+03  0.25500000920E-02 0. -1.
        2   -1    0    0  501    0  0.00000000000E+00  0.00000000000E+00 -0.98708886199E+03  0.98708886200E+03  0.25500000920E-02 0.  1.
    10030    2    1    2    0    0  0.00000000000E+00  0.00000000000E+00 -0.41539266639E+02  0.19326384574E+04  0.19321919926E+04 0.  0.
        5    1    3    3  502    0  0.17026841464E+03  0.65247055697E+03  0.67120683334E+03  0.95144619599E+03  0.46999998093E+01 0. -1.
       -5    1    3    3    0  502 -0.17026841464E+03 -0.65247055697E+03 -0.71274609997E+03  0.98119226137E+03  0.46999998093E+01 0.  1.
</event>
<event>
 5   0  0.7681342E-06  0.2734761E+04  0.7818609E-02  0.8323814E-01
        1   -1    0    0  501    0  0.00000000000E+00  0.00000000000E+00  0.19894018802E+04  0.19894018802E+04  0.50400001928E-02 0.  1.
       -1   -1    0    0    0  501  0.00000000000E+00  0.00000000000E+00 -0.93984487725E+03  0.93984487726E+03  0.50400001928E-02 0. -1.
    10030    2    1    2    0    0  0.00000000000E+00  0.00000000000E+00  0.10495570030E+04  0.29292467575E+04  0.27347608056E+04 0.  0.
        2    1    3    3  502    0 -0.43008636889E+03  0.12809682604E+04  0.74913887344E+03  0.15450123043E+04  0.25500000920E-02 0.  1.
       -2    1    3    3    0  502  0.43008636889E+03 -0.12809682604E+04  0.30041812953E+03  0.13842344532E+04  0.25500000920E-02 0. -1.
</event>
<event>
 5   0  0.7555871E-06  0.2806652E+04  0.7818609E-02  0.8301206E-01
       -1   -1    0    0    0  501  0.00000000000E+00  0.00000000000E+00  0.12966573199E+04  0.12966573199E+04  0.50400001928E-02 0.  1.
        1   -1    0    0  501    0  0.00000000000E+00  0.00000000000E+00 -0.15187694841E+04  0.15187694841E+04  0.50400001928E-02 0. -1.
    10030    2    1    2    0    0  0.00000000000E+00  0.00000000000E+00 -0.22211216426E+03  0.28154268040E+04  0.28066517909E+04 0.  0.
        3    1    3    3  502    0  0.27213382890E+03 -0.74688579464E+03  0.10490320076E+04  0.13161927573E+04  0.10100000352E+00 0.  1.
       -3    1    3    3    0  502 -0.27213382890E+03  0.74688579464E+03 -0.12711441719E+04  0.14992340468E+04  0.10100000352E+00 0. -1.
</event>
<event>
 5   0  0.1874272E-05  0.2823311E+04  0.7818609E-02  0.8296067E-01
       -2   -1    0    0    0  501  0.00000000000E+00  0.00000000000E+00  0.90069679187E+03  0.90069679188E+03  0.25500000920E-02 0. -1.
        2   -1    0    0  501    0  0.00000000000E+00  0.00000000000E+00 -0.22124779912E+04  0.22124779912E+04  0.25500000920E-02 0.  1.
    10030    2    1    2    0    0  0.00000000000E+00  0.00000000000E+00 -0.13117811993E+04  0.31131747831E+04  0.28233114095E+04 0.  0.
        3    1    3    3  502    0 -0.10901726633E+04 -0.83659039320E+03 -0.29958740730E+03  0.14064538907E+04  0.10100000352E+00 0. -1.
       -3    1    3    3    0  502  0.10901726633E+04  0.83659039320E+03 -0.10121937920E+04  0.17067208924E+04  0.10100000352E+00 0.  1.
</event>
<event>
 5   0  0.1814230E-05  0.2819055E+04  0.7818609E-02  0.8297377E-01
       -2   -1    0    0    0  501  0.00000000000E+00  0.00000000000E+00  0.10651991630E+04  0.10651991630E+04  0.25500000920E-02 0.  1.
        2   -1    0    0  501    0  0.00000000000E+00  0.00000000000E+00 -0.18651608902E+04  0.18651608902E+04  0.25500000920E-02 0. -1.
    10030    2    1    2    0    0  0.00000000000E+00  0.00000000000E+00 -0.79996172717E+03  0.29303600531E+04  0.28190550325E+04 0.  0.
        5    1    3    3  502    0  0.13656337974E+04 -0.29685588021E+03 -0.20925158679E+03  0.14131126632E+04  0.46999998093E+01 0. -1.
       -5    1    3    3    0  502 -0.13656337974E+04  0.29685588021E+03 -0.59071014038E+03  0.15172473899E+04  0.46999998093E+01 0.  1.
</event>
<event>
 5   0  0.1904553E-05  0.2516486E+04  0.7818609E-02  0.8397136E-01
        2   -1    0    0  501    0  0.00000000000E+00  0.00000000000E+00  0.13331048109E+04  0.13331048109E+04  0.25500000920E-02 0.  1.
       -2   -1    0    0    0  501  0.00000000000E+00  0.00000000000E+00 -0.11875846967E+04  0.11875846967E+04  0.25500000920E-02 0. -1.
    10030    2    1    2    0    0  0.00000000000E+00  0.00000000000E+00  0.14552011418E+03  0.25206895076E+04  0.25164855434E+04 0.  0.
        1    1    3    3  502    0  0.79919218334E+03 -0.50073911150E+03  0.90705427591E+03  0.13085087937E+04  0.50400001928E-02 0.  1.
       -1    1    3    3    0  502 -0.79919218334E+03  0.50073911150E+03 -0.76153416173E+03  0.12121807139E+04  0.50400001928E-02 0. -1.
</event>
<event>
 5   0  0.7509685E-06  0.2783598E+04  0.7818609E-02  0.8308379E-01
       -1   -1    0    0    0  501  0.00000000000E+00  0.00000000000E+00  0.16749768753E+04  0.16749768753E+04  0.50400001928E-02 0. -1.
        1   -1    0    0  501    0  0.00000000000E+00  0.00000000000E+00 -0.11564958937E+04  0.11564958937E+04  0.50400001928E-02 0.  1.
    10030    2    1    2    0    0  0.00000000000E+00  0.00000000000E+00  0.51848098163E+03  0.28314727690E+04  0.27835975846E+04 0.  0.
        4    1    3    3  502    0  0.30653661264E+03  0.25194553489E+03 -0.10977430565E+04  0.11672543332E+04  0.12699999809E+01 0.  1.
       -4    1    3    3    0  502 -0.30653661264E+03 -0.25194553489E+03  0.16162240382E+04  0.16642184357E+04  0.12699999809E+01 0. -1.
</event>
<event>
 5   0  0.7613444E-06  0.2848460E+04  0.7818609E-02  0.8288379E-01
       -1   -1    0    0    0  501  0.00000000000E+00  0.00000000000E+00  0.16184841110E+04  0.16184841110E+04  0.50400001928E-02 0. -1.
        1   -1    0    0  501    0  0.00000000000E+00  0.00000000000E+00 -0.12532908025E+04  0.12532908025E+04  0.50400001928E-02 0.  1.
    10030    2    1    2    0    0  0.00000000000E+00  0.00000000000E+00  0.36519330844E+03  0.28717749135E+04  0.28484601106E+04 0.  0.
        5    1    3    3  502    0 -0.12883074475E+04 -0.32892121340E+03  0.69715036190E+03  0.15013214049E+04  0.46999998093E+01 0. -1.
       -5    1    3    3    0  502  0.12883074475E+04  0.32892121340E+03 -0.33195705346E+03  0.13704535086E+04  0.46999998093E+01 0.  1.
</event>
<event>
 5   0  0.7555871E-06  0.2878780E+04  0.7818609E-02  0.8279219E-01
       -1   -1    0    0    0  501  0.00000000000E+00  0.00000000000E+00  0.16071747048E+04  0.16071747048E+04  0.50400001928E-02 0.  1.
        1   -1    0    0  501    0  0.00000000000E+00  0.00000000000E+00 -0.12891217544E+04  0.12891217544E+04  0.50400001928E-02 0. -1.
    10030    2    1    2    0    0  0.00000000000E+00  0.00000000000E+00  0.31805295045E+03  0.28962964593E+04  0.28787802105E+04 0.  0.
        3    1    3    3  502    0 -0.16171274247E+03  0.12120987623E+04  0.92292859982E+03  0.15320351273E+04  0.10100000352E+00 0.  1.
       -3    1    3    3    0  502  0.16171274247E+03 -0.12120987623E+04 -0.60487564937E+03  0.13642613320E+04  0.10100000352E+00 0. -1.
</event>
<event>
 5   0  0.1832502E-05  0.2752103E+04  0.7818609E-02  0.8318295E-01
       -2   -1    0    0    0  501  0.00000000000E+00  0.00000000000E+00  0.92606441177E+03  0.92606441178E+03  0.25500000920E-02 0.  1.
        2   -1    0    0  501    0  0.00000000000E+00  0.00000000000E+00 -0.20446938079E+04  0.20446938079E+04  0.25500000920E-02 0. -1.
    10030    2    1    2    0    0  0.00000000000E+00  0.00000000000E+00 -0.11186293961E+04  0.29707582197E+04  0.27521033182E+04 0.  0.
        2    1    3    3  502    0  0.13437564796E+04 -0.47966956820E+02 -0.24361316256E+03  0.13665027181E+04  0.25500000920E-02 0.  1.
       -2    1    3    3    0  502 -0.13437564796E+04  0.47966956820E+02 -0.87501623357E+03  0.16042555016E+04  0.25500000920E-02 0. -1.
</event>
<event>
 5   0  0.7555871E-06  0.2801637E+04  0.7818609E-02  0.8302760E-01
        1   -1    0    0  501    0  0.00000000000E+00  0.00000000000E+00  0.17137920002E+04  0.17137920002E+04  0.50400001928E-02 0.  1.
       -1   -1    0    0    0  501  0.00000000000E+00  0.00000000000E+00 -0.11449999657E+04  0.11449999657E+04  0.50400001928E-02 0. -1.
    10030    2    1    2    0    0  0.00000000000E+00  0.00000000000E+00  0.56879203442E+03  0.28587919659E+04  0.28016365085E+04 0.  0.
        3    1    3    3  502    0  0.82954196705E+03  0.51283857244E+03  0.13104689579E+04  0.16335458904E+04  0.10100000352E+00 0.  1.
       -3    1    3    3    0  502 -0.82954196705E+03 -0.51283857244E+03 -0.74167692343E+03  0.12252460755E+04  0.10100000352E+00 0. -1.
</event>
<event>
 5   0  0.7681342E-06  0.2815201E+04  0.7818609E-02  0.8298564E-01
       -1   -1    0    0    0  501  0.00000000000E+00  0.00000000000E+00  0.16813493399E+04  0.16813493399E+04  0.50400001928E-02 0.  1.
        1   -1    0    0  501    0  0.00000000000E+00  0.00000000000E+00 -0.11784224238E+04  0.11784224238E+04  0.50400001928E-02 0. -1.
    10030    2    1    2    0    0  0.00000000000E+00  0.00000000000E+00  0.50292691607E+03  0.28597717637E+04  0.28152014240E+04 0.  0.
        2    1    3    3  502    0 -0.11749077054E+04  0.58704332894E+03 -0.26282429448E+03  0.13394418973E+04  0.25500000920E-02 0. -1.
       -2    1    3    3    0  502  0.11749077054E+04 -0.58704332894E+03  0.76575121056E+03  0.15203298664E+04  0.25500000920E-02 0.  1.
</event>
<event>
 5   0  0.7509685E-06  0.2809517E+04  0.7818609E-02  0.8300320E-01
        1   -1    0    0  501    0  0.00000000000E+00  0.00000000000E+00  0.17006738486E+04  0.17006738487E+04  0.50400001928E-02 0.  1.
       -1   -1    0    0    0  501  0.00000000000E+00  0.00000000000E+00 -0.11603324612E+04  0.11603324612E+04  0.50400001928E-02 0. -1.
    10030    2    1    2    0    0  0.00000000000E+00  0.00000000000E+00  0.54034138750E+03  0.28610063098E+04  0.28095174479E+04 0.  0.
        4    1    3    3  502    0  0.14068725496E+03  0.13155887812E+04 -0.21047375316E+03  0.13397266731E+04  0.12699999809E+01 0. -1.
       -4    1    3    3    0  502 -0.14068725496E+03 -0.13155887812E+04  0.75081514066E+03  0.15212796368E+04  0.12699999809E+01 0.  1.
</event>
<event>
 5   0  0.1904553E-05  0.2761187E+04  0.7818609E-02  0.8315421E-01
       -2   -1    0    0    0  501  0.00000000000E+00  0.00000000000E+00  0.12029835371E+04  0.12029835371E+04  0.25500000920E-02 0. -1.
        2   -1    0    0  501    0  0.00000000000E+00  0.00000000000E+00 -0.15844261166E+04  0.15844261166E+04  0.25500000920E-02 0.  1.
    10030    2    1    2    0    0  0.00000000000E+00  0.00000000000E+00 -0.38144257951E+03  0.27874096537E+04  0.27611870883E+04 0.  0.
        1    1    3    3  502    0 -0.54015546603E+03 -0.98658264464E+03  0.61745977482E+03  0.12831094325E+04  0.50400001928E-02 0. -1.
       -1    1    3    3    0  502  0.54015546603E+03  0.98658264464E+03 -0.99890235433E+03  0.15043002213E+04  0.50400001928E-02 0.  1.
</event>
<event>
 5   0  0.1874272E-05  0.2778490E+04  0.7818609E-02  0.8309978E-01
        2   -1    0    0  501    0  0.00000000000E+00  0.00000000000E+00  0.18651418540E+04  0.18651418540E+04  0.25500000920E-02 0.  1.
       -2   -1    0    0    0  501  0.00000000000E+00  0.00000000000E+00 -0.10347743769E+04  0.10347743769E+04  0.25500000920E-02 0. -1.
    10030    2    1    2    0    0  0.00000000000E+00  0.00000000000E+00  0.83036747705E+03  0.28999162309E+04  0.27784895176E+04 0.  0.
        3    1    3    3  502    0 -0.18474697414E+03 -0.94347662787E+03 -0.63150014051E+03  0.11502486816E+04  0.10100000352E+00 0. -1.
       -3    1    3    3    0  502  0.18474697414E+03  0.94347662787E+03  0.14618676176E+04  0.17496675494E+04  0.10100000352E+00 0.  1.
</event>
<event>
 5   0  0.7681342E-06  0.2794762E+04  0.7818609E-02  0.8304896E-01
        1   -1    0    0  501    0  0.00000000000E+00  0.00000000000E+00  0.16518869091E+04  0.16518869091E+04  0.50400001928E-02 0.  1.
       -1   -1    0    0    0  501  0.00000000000E+00  0.00000000000E+00 -0.11820868872E+04  0.11820868872E+04  0.50400001928E-02 0. -1.
    10030    2    1    2    0    0  0.00000000000E+00  0.00000000000E+00  0.46980002190E+03  0.28339737963E+04  0.27947621397E+04 0.  0.
        2    1    3    3  502    0 -0.13808703825E+04  0.11949319741E+03  0.54664222421E+02  0.13871084365E+04  0.25500000920E-02 0. -1.
       -2    1    3    3    0  502  0.13808703825E+04 -0.11949319741E+03  0.41513579948E+03  0.14468653598E+04  0.25500000920E-02 0.  1.
</event>
<event>
 5   0  0.7613444E-06  0.2767607E+04  0.7818609E-02  0.8313396E-01
        1   -1    0    0  501    0  0.00000000000E+00  0.00000000000E+00  0.25119261466E+04  0.25119261466E+04  0.50400001928E-02 0. -1.
       -1   -1    0    0    0  501  0.00000000000E+00  0.00000000000E+00 -0.76232838051E+03  0.76232838053E+03  0.50400001928E-02 0.  1.
    10030    2    1    2    0    0  0.00000000000E+00  0.00000000000E+00  0.17495977661E+04  0.32742545271E+04  0.27676073358E+04 0.  0.
        5    1    3    3  502    0 -0.10475770215E+04  0.46006682439E+03 -0.46025233919E+02  0.11450849362E+04  0.46999998093E+01 0.  1.
       -5    1    3    3    0  502  0.10475770215E+04 -0.46006682439E+03  0.17956230000E+04  0.21291695909E+04  0.46999998093E+01 0. -1.
</event>
<event>
 5   0  0.1814230E-05  0.2762906E+04  0.7818609E-02  0.8314878E-01
       -2   -1    0    0    0  501  0.00000000000E+00  0.00000000000E+00  0.22507761225E+04  0.22507761225E+04  0.25500000920E-02 0.  1.
        2   -1    0    0  501    0  0.00000000000E+00  0.00000000000E+00 -0.84789076648E+03  0.84789076648E+03  0.25500000920E-02 0. -1.
    10030    2    1    2    0    0  0.00000000000E+00  0.00000000000E+00  0.14028853561E+04  0.30986668890E+04  0.27629059280E+04 0.  0.
        5    1    3    3  502    0 -0.44161554804E+03 -0.19998803798E+03  0.21522337447E+04  0.22061622083E+04  0.46999998093E+01 0.  1.
       -5    1    3    3    0  502  0.44161554804E+03  0.19998803798E+03 -0.74934838861E+03  0.89250468073E+03  0.46999998093E+01 0. -1.
</event>
<event>
 5   0  0.1904553E-05  0.2805564E+04  0.7818609E-02  0.8301543E-01
        2   -1    0    0  501    0  0.00000000000E+00  0.00000000000E+00  0.99314093427E+03  0.99314093427E+03  0.25500000920E-02 0.  1.
       -2   -1    0    0    0  501  0.00000000000E+00  0.00000000000E+00 -0.19813880634E+04  0.19813880634E+04  0.25500000920E-02 0. -1.
    10030    2    1    2    0    0  0.00000000000E+00  0.00000000000E+00 -0.98824712909E+03  0.29745289976E+04  0.28055641803E+04 0.  0.
        1    1    3    3  502    0  0.85945644103E+02  0.79770635597E+02 -0.19761828157E+04  0.19796586900E+04  0.50400001928E-02 0. -1.
       -1    1    3    3    0  502 -0.85945644103E+02 -0.79770635597E+02  0.98793568660E+03  0.99487030759E+03  0.50400001928E-02 0.  1.
</event>
<event>
 5   0  0.6288000E-06  0.2817788E+04  0.7818609E-02  0.8297767E-01
       -3   -1    0    0    0  501  0.00000000000E+00  0.00000000000E+00  0.13073104457E+04  0.13073104496E+04  0.10100000352E+00 0. -1.
        3   -1    0    0  501    0  0.00000000000E+00  0.00000000000E+00 -0.15183710255E+04  0.15183710288E+04  0.10100000352E+00 0.  1.
    10030    2    1    2    0    0  0.00000000000E+00  0.00000000000E+00 -0.21106057971E+03  0.28256814785E+04  0.28177880065E+04 0.  0.
        5    1    3    3  502    0 -0.87274418649E+03 -0.77889539631E+03  0.68190806994E+03  0.13540240616E+04  0.46999998093E+01 0. -1.
       -5    1    3    3    0  502  0.87274418649E+03  0.77889539631E+03 -0.89296864965E+03  0.14716574169E+04  0.46999998093E+01 0.  1.
</event>
<event>
 5   0  0.7509685E-06  0.2841140E+04  0.7818609E-02  0.8290609E-01
       -1   -1    0    0    0  501  0.00000000000E+00  0.00000000000E+00  0.16076503911E+04  0.16076503911E+04  0.50400001928E-02 0.  1.
        1   -1    0    0  501    0  0.00000000000E+00  0.00000000000E+00 -0.12552596133E+04  0.12552596133E+04  0.50400001928E-02 0. -1.
    10030    2    1    2    0    0  0.00000000000E+00  0.00000000000E+00  0.35239077786E+03  0.28629100044E+04  0.28411396363E+04 0.  0.
        4    1    3    3  502    0  0.11678254693E+04  0.44836738231E+03 -0.50213992620E+03  0.13479598490E+04  0.12699999809E+01 0. -1.
       -4    1    3    3    0  502 -0.11678254693E+04 -0.44836738231E+03  0.85453070406E+03  0.15149501554E+04  0.12699999809E+01 0.  1.
</event>
<event>
 5   0  0.1923559E-05  0.2794194E+04  0.7818609E-02  0.8305073E-01
        2   -1    0    0  501    0  0.00000000000E+00  0.00000000000E+00  0.19238073977E+04  0.19238073977E+04  0.25500000920E-02 0. -1.
       -2   -1    0    0    0  501  0.00000000000E+00  0.00000000000E+00 -0.10145919797E+04  0.10145919798E+04  0.25500000920E-02 0.  1.
    10030    2    1    2    0    0  0.00000000000E+00  0.00000000000E+00  0.90921541791E+03  0.29383993774E+04  0.27941936628E+04 0.  0.
        4    1    3    3  502    0 -0.31131875981E+03 -0.13387950763E+04  0.71769145507E+03  0.15506044834E+04  0.12699999809E+01 0. -1.
       -4    1    3    3    0  502  0.31131875981E+03  0.13387950763E+04  0.19152396284E+03  0.13877948940E+04  0.12699999809E+01 0.  1.
</event>
<event>
 5   0  0.1874272E-05  0.2850846E+04  0.7818609E-02  0.8287654E-01
        2   -1    0    0  501    0  0.00000000000E+00  0.00000000000E+00  0.21151868396E+04  0.21151868396E+04  0.25500000920E-02 0. -1.
       -2   -1    0    0    0  501  0.00000000000E+00  0.00000000000E+00 -0.96059192960E+03  0.96059192961E+03  0.25500000920E-02 0.  1.
    10030    2    1    2    0    0  0.00000000000E+00  0.00000000000E+00  0.11545949100E+04  0.30757787692E+04  0.28508464762E+04 0.  0.
        3    1    3    3  502    0 -0.11588146733E+04 -0.19348927660E+03 -0.29357072597E+03  0.12109803172E+04  0.10100000352E+00 0. -1.
       -3    1    3    3    0  502  0.11588146733E+04  0.19348927660E+03  0.14481656359E+04  0.18647984520E+04  0.10100000352E+00 0.  1.
</event>
<event>
 5   0  0.1814230E-05  0.2788339E+04  0.7818609E-02  0.8306898E-01
       -2   -1    0    0    0  501  0.00000000000E+00  0.00000000000E+00  0.12797075807E+04  0.12797075807E+04  0.25500000920E-02 0. -1.
        2   -1    0    0  501    0  0.00000000000E+00  0.00000000000E+00 -0.15188692847E+04  0.15188692847E+04  0.25500000920E-02 0.  1.
    10030    2    1    2    0    0  0.00000000000E+00  0.00000000000E+00 -0.23916170394E+03  0.27985768654E+04  0.27883389591E+04 0.  0.
        5    1    3    3  502    0  0.10784148032E+03  0.77606269771E+03  0.10378155253E+04  0.13003792717E+04  0.46999998093E+01 0. -1.
       -5    1    3    3    0  502 -0.10784148032E+03 -0.77606269771E+03 -0.12769772293E+04  0.14981975937E+04  0.46999998093E+01 0.  1.
</event>
<event>
 5   0  0.1814230E-05  0.1921395E+04  0.7818609E-02  0.8644279E-01
       -2   -1    0    0    0  501  0.00000000000E+00  0.00000000000E+00  0.11897674444E+04  0.11897674444E+04  0.25500000920E-02 0. -1.
        2   -1    0    0  501    0  0.00000000000E+00  0.00000000000E+00 -0.77573105735E+03  0.77573105736E+03  0.25500000920E-02 0.  1.
    10030    2    1    2    0    0  0.00000000000E+00  0.00000000000E+00  0.41403638708E+03  0.19654985018E+04  0.19213948659E+04 0.  0.
        5    1    3    3  502    0 -0.52617487955E+03 -0.33932651041E+03 -0.53834609656E+03  0.82573669787E+03  0.46999998093E+01 0.  1.
       -5    1    3    3    0  502  0.52617487955E+03  0.33932651041E+03  0.95238248364E+03  0.11397618039E+04  0.46999998093E+01 0. -1.
</event>
<event>
 5   0  0.1814230E-05  0.2828632E+04  0.7818609E-02  0.8294434E-01
       -2   -1    0    0    0  501  0.00000000000E+00  0.00000000000E+00  0.77894343510E+03  0.77894343511E+03  0.25500000920E-02 0. -1.
        2   -1    0    0  501    0  0.00000000000E+00  0.00000000000E+00 -0.25679519584E+04  0.25679519584E+04  0.25500000920E-02 0.  1.
    10030    2    1    2    0    0  0.00000000000E+00  0.00000000000E+00 -0.17890085233E+04  0.33468953935E+04  0.28286316972E+04 0.  0.
        5    1    3    3  502    0 -0.13237475287E+04  0.49785346089E+03 -0.90643317753E+03  0.16798240335E+04  0.46999998093E+01 0. -1.
       -5    1    3    3    0  502  0.13237475287E+04 -0.49785346089E+03 -0.88257534578E+03  0.16670713600E+04  0.46999998093E+01 0.  1.
</event>
<event>
 5   0  0.7613444E-06  0.2779011E+04  0.7818609E-02  0.8309814E-01
       -1   -1    0    0    0  501  0.00000000000E+00  0.00000000000E+00  0.13913931791E+04  0.13913931792E+04  0.50400001928E-02 0.  1.
        1   -1    0    0  501    0  0.00000000000E+00  0.00000000000E+00 -0.13876201212E+04  0.13876201212E+04  0.50400001928E-02 0. -1.
    10030    2    1    2    0    0  0.00000000000E+00  0.00000000000E+00  0.37730579730E+01  0.27790133003E+04  0.27790107390E+04 0.  0.
        5    1    3    3  502    0 -0.88209016417E+03  0.88930128473E+03  0.60335466278E+03  0.13903232616E+04  0.46999998093E+01 0.  1.
       -5    1    3    3    0  502  0.88209016417E+03 -0.88930128473E+03 -0.59958160480E+03  0.13886900387E+04  0.46999998093E+01 0. -1.
</event>
<event>
 5   0  0.1904553E-05  0.2801886E+04  0.7818609E-02  0.8302683E-01
       -2   -1    0    0    0  501  0.00000000000E+00  0.00000000000E+00  0.13514834057E+04  0.13514834057E+04  0.25500000920E-02 0. -1.
        2   -1    0    0  501    0  0.00000000000E+00  0.00000000000E+00 -0.14522127421E+04  0.14522127421E+04  0.25500000920E-02 0.  1.
    10030    2    1    2    0    0  0.00000000000E+00  0.00000000000E+00 -0.10072933643E+03  0.28036961479E+04  0.28018860952E+04 0.  0.
        1    1    3    3  502    0 -0.42007213564E+03 -0.12156895865E+04  0.50522338618E+03  0.13818872747E+04  0.50400001928E-02 0.  1.
       -1    1    3    3    0  502  0.42007213564E+03  0.12156895865E+04 -0.60595272261E+03  0.14218088732E+04  0.50400001928E-02 0. -1.
</event>
<event>
 5   0  0.7681342E-06  0.2804242E+04  0.7818609E-02  0.8301952E-01
       -1   -1    0    0    0  501  0.00000000000E+00  0.00000000000E+00  0.15492669680E+04  0.15492669680E+04  0.50400001928E-02 0.  1.
        1   -1    0    0  501    0  0.00000000000E+00  0.00000000000E+00 -0.12689510789E+04  0.12689510789E+04  0.50400001928E-02 0. -1.
    10030    2    1    2    0    0  0.00000000000E+00  0.00000000000E+00  0.28031588907E+03  0.28182180469E+04  0.28042424935E+04 0.  0.
        2    1    3    3  502    0 -0.10886001962E+04  0.19098013150E+03 -0.72693988309E+03  0.13228625747E+04  0.25500000920E-02 0. -1.
       -2    1    3    3    0  502  0.10886001962E+04 -0.19098013150E+03  0.10072557722E+04  0.14953554722E+04  0.25500000920E-02 0.  1.
</event>
<event>
 5   0  0.7509685E-06  0.2755890E+04  0.7818609E-02  0.8317095E-01
       -1   -1    0    0    0  501  0.00000000000E+00  0.00000000000E+00  0.12858545519E+04  0.12858545519E+04  0.50400001928E-02 0. -1.
        1   -1    0    0  501    0  0.00000000000E+00  0.00000000000E+00 -0.14766309349E+04  0.14766309349E+04  0.50400001928E-02 0.  1.
    10030    2    1    2    0    0  0.00000000000E+00  0.00000000000E+00 -0.19077638297E+03  0.27624854868E+04  0.27558901351E+04 0.  0.
        4    1    3    3  502    0 -0.77675345954E+03 -0.15864033247E+03 -0.12251250241E+04  0.14592620154E+04  0.12699999809E+01 0.  1.
       -4    1    3    3    0  502  0.77675345954E+03  0.15864033247E+03  0.10343486412E+04  0.13032234714E+04  0.12699999809E+01 0. -1.
</event>
<event>
 5   0  0.7555871E-06  0.2806763E+04  0.7818609E-02  0.8301172E-01
        1   -1    0    0  501    0  0.00000000000E+00  0.00000000000E+00  0.26581388377E+04  0.26581388377E+04  0.50400001928E-02 0.  1.
       -1   -1    0    0    0  501  0.00000000000E+00  0.00000000000E+00 -0.74092417825E+03  0.74092417827E+03  0.50400001928E-02 0. -1.
    10030    2    1    2    0    0  0.00000000000E+00  0.00000000000E+00  0.19172146594E+04  0.33990630160E+04  0.28067627859E+04 0.  0.
        3    1    3    3  502    0 -0.61886428154E+03  0.20315541548E+03  0.24639932575E+04  0.25486325559E+04  0.10100000352E+00 0.  1.
       -3    1    3    3    0  502  0.61886428154E+03 -0.20315541548E+03 -0.54677859810E+03  0.85043046003E+03  0.10100000352E+00 0. -1.
</event>
<event>
 5   0  0.1904553E-05  0.2847564E+04  0.7818609E-02  0.8288652E-01
        2   -1    0    0  501    0  0.00000000000E+00  0.00000000000E+00  0.19421445815E+04  0.19421445815E+04  0.25500000920E-02 0. -1.
       -2   -1    0    0    0  501  0.00000000000E+00  0.00000000000E+00 -0.10437715415E+04  0.10437715415E+04  0.25500000920E-02 0.  1.
    10030    2    1    2    0    0  0.00000000000E+00  0.00000000000E+00  0.89837304000E+03  0.29859161230E+04  0.28475640422E+04 0.  0.
        1    1    3    3  502    0  0.12712420081E+04  0.30755249763E+03  0.10391133362E+04  0.16704494328E+04  0.50400001928E-02 0.  1.
       -1    1    3    3    0  502 -0.12712420081E+04 -0.30755249763E+03 -0.14074029618E+03  0.13154666902E+04  0.50400001928E-02 0. -1.
</event>
<event>
 5   0  0.7509685E-06  0.2061519E+04  0.7818609E-02  0.8578386E-01
        1   -1    0    0  501    0  0.00000000000E+00  0.00000000000E+00  0.10071288670E+04  0.10071288670E+04  0.50400001928E-02 0.  1.
       -1   -1    0    0    0  501  0.00000000000E+00  0.00000000000E+00 -0.10549450522E+04  0.10549450523E+04  0.50400001928E-02 0. -1.
    10030    2    1    2    0    0  0.00000000000E+00  0.00000000000E+00 -0.47816185272E+02  0.20620739192E+04  0.20615194544E+04 0.  0.
        4    1    3    3  502    0 -0.39906390217E+03 -0.58220558841E+03  0.72745880695E+03  0.10136139669E+04  0.12699999809E+01 0.  1.
       -4    1    3    3    0  502  0.39906390217E+03  0.58220558841E+03 -0.77527499222E+03  0.10484599523E+04  0.12699999809E+01 0. -1.
</event>
<event>
 5   0  0.7509685E-06  0.2614938E+04  0.7818609E-02  0.8363145E-01
       -1   -1    0    0    0  501  0.00000000000E+00  0.00000000000E+00  0.12339229807E+04  0.12339229807E+04  0.50400001928E-02 0.  1.
        1   -1    0    0  501    0  0.00000000000E+00  0.00000000000E+00 -0.13853984056E+04  0.13853984056E+04  0.50400001928E-02 0. -1.
    10030    2    1    2    0    0  0.00000000000E+00  0.00000000000E+00 -0.15147542487E+03  0.26193213863E+04  0.26149378043E+04 0.  0.
        4    1    3    3  502    0 -0.11689621080E+04  0.51495646040E+03 -0.35516906594E+03  0.13258202157E+04  0.12699999809E+01 0. -1.
       -4    1    3    3    0  502  0.11689621080E+04 -0.51495646040E+03  0.20369364107E+03  0.12935011706E+04  0.12699999809E+01 0.  1.
</event>
<event>
 5   0  0.7613444E-06  0.2726663E+04  0.7818609E-02  0.8326405E-01
        1   -1    0    0  501    0  0.00000000000E+00  0.00000000000E+00  0.13995449084E+04  0.13995449084E+04  0.50400001928E-02 0.  1.
       -1   -1    0    0    0  501  0.00000000000E+00  0.00000000000E+00 -0.13280550948E+04  0.13280550948E+04  0.50400001928E-02 0. -1.
    10030    2    1    2    0    0  0.00000000000E+00  0.00000000000E+00  0.71489813605E+02  0.27276000032E+04  0.27266629759E+04 0.  0.
        5    1    3    3  502    0 -0.53569655668E+03 -0.84888541881E+03  0.95859833513E+03  0.13879877929E+04  0.46999998093E+01 0.  1.
       -5    1    3    3    0  502  0.53569655668E+03  0.84888541881E+03 -0.88710852152E+03  0.13396122103E+04  0.46999998093E+01 0. -1.
</event>
<event>
 5   0  0.1832502E-05  0.2797105E+04  0.7818609E-02  0.8304168E-01
        2   -1    0    0  501    0  0.00000000000E+00  0.00000000000E+00  0.14182663055E+04  0.14182663055E+04  0.25500000920E-02 0. -1.
       -2   -1    0    0    0  501  0.00000000000E+00  0.00000000000E+00 -0.13791125936E+04  0.13791125936E+04  0.25500000920E-02 0.  1.
    10030    2    1    2    0    0  0.00000000000E+00  0.00000000000E+00  0.39153711854E+02  0.27973788991E+04  0.27971048768E+04 0.  0.
        2    1    3    3  502    0 -0.80698728064E+03  0.90379329934E+03  0.71812801363E+03  0.14084667703E+04  0.25500000920E-02 0. -1.
       -2    1    3    3    0  502  0.80698728064E+03 -0.90379329934E+03 -0.67897430178E+03  0.13889121288E+04  0.25500000920E-02 0.  1.
</event>
<event>
 5   0  0.1923559E-05  0.2657709E+04  0.7818609E-02  0.8348859E-01
       -2   -1    0    0    0  501  0.00000000000E+00  0.00000000000E+00  0.13563361059E+04  0.13563361059E+04  0.25500000920E-02 0.  1.
        2   -1    0    0  501    0  0.00000000000E+00  0.00000000000E+00 -0.13019300079E+04  0.13019300079E+04  0.25500000920E-02 0. -1.
    10030    2    1    2    0    0  0.00000000000E+00  0.00000000000E+00  0.54406097950E+02  0.26582661138E+04  0.26577092972E+04 0.  0.
        4    1    3    3  502    0 -0.39663145185E+03  0.35696884815E+03  0.12444665688E+04  0.13540464988E+04  0.12699999809E+01 0.  1.
       -4    1    3    3    0  502  0.39663145185E+03 -0.35696884815E+03 -0.11900604708E+04  0.13042196151E+04  0.12699999809E+01 0. -1.
</event>
<event>
 5   0  0.1814230E-05  0.2796452E+04  0.7818609E-02  0.8304371E-01
       -2   -1    0    0    0  501  0.00000000000E+00  0.00000000000E+00  0.13039188079E+04  0.13039188079E+04  0.25500000920E-02 0.  1.
        2   -1    0    0  501    0  0.00000000000E+00  0.00000000000E+00 -0.14993545737E+04  0.14993545737E+04  0.25500000920E-02 0. -1.
    10030    2    1    2    0    0  0.00000000000E+00  0.00000000000E+00 -0.19543576579E+03  0.28032733817E+04  0.27964524873E+04 0.  0.
        5    1    3    3  502    0  0.10200214724E+04  0.42092434221E+03  0.76309278587E+03  0.13416235671E+04  0.46999998093E+01 0. -1.
       -5    1    3    3    0  502 -0.10200214724E+04 -0.42092434221E+03 -0.95852855167E+03  0.14616498146E+04  0.46999998093E+01 0.  1.
</event>
<event>
 5   0  0.1874272E-05  0.2817839E+04  0.7818609E-02  0.8297751E-01
       -2   -1    0    0    0  501  0.00000000000E+00  0.00000000000E+00  0.11149647334E+04  0.11149647334E+04  0.25500000920E-02 0. -1.
        2   -1    0    0  501    0  0.00000000000E+00  0.00000000000E+00 -0.17803736877E+04  0.17803736877E+04  0.25500000920E-02 0.  1.
    10030    2    1    2    0    0  0.00000000000E+00  0.00000000000E+00 -0.66540895428E+03  0.28953384212E+04  0.28178387989E+04 0.  0.
        3    1    3    3  502    0  0.49702535884E+02 -0.12369141154E+04  0.35857460253E+03  0.12887989085E+04  0.10100000352E+00 0. -1.
       -3    1    3    3    0  502 -0.49702535884E+02  0.12369141154E+04 -0.10239835568E+04  0.16065395126E+04  0.10100000352E+00 0.  1.
</event>
<event>
 5   0  0.1814230E-05  0.2846131E+04  0.7818609E-02  0.8289088E-01
        2   -1    0    0  501    0  0.00000000000E+00  0.00000000000E+00  0.29460005698E+04  0.29460005698E+04  0.25500000920E-02 0.  1.
       -2   -1    0    0    0  501  0.00000000000E+00  0.00000000000E+00 -0.68741194403E+03  0.68741194404E+03  0.25500000920E-02 0. -1.
    10030    2    1    2    0    0  0.00000000000E+00  0.00000000000E+00  0.22585886257E+04  0.36334125138E+04  0.28461313946E+04 0.  0.
        5    1    3    3  502    0 -0.86077262920E+03 -0.10492197651E+04  0.16758616373E+04  0.21564614423E+04  0.46999998093E+01 0.  1.
       -5    1    3    3    0  502  0.86077262920E+03  0.10492197651E+04  0.58272698846E+03  0.14769510715E+04  0.46999998093E+01 0. -1.
</event>
<event>
 5   0  0.1832502E-05  0.2704684E+04  0.7818609E-02  0.8333487E-01
       -2   -1    0    0    0  501  0.00000000000E+00  0.00000000000E+00  0.87036651924E+03  0.87036651924E+03  0.25500000920E-02 0. -1.
        2   -1    0    0  501    0  0.00000000000E+00  0.00000000000E+00 -0.21012175626E+04  0.21012175626E+04  0.25500000920E-02 0.  1.
    10030    2    1    2    0    0  0.00000000000E+00  0.00000000000E+00 -0.12308510433E+04  0.29715840818E+04  0.27046843928E+04 0.  0.
        2    1    3    3  502    0  0.64083523422E+03  0.19266538379E+03 -0.19065689971E+04  0.20205927567E+04  0.25500000920E-02 0.  1.
       -2    1    3    3    0  502 -0.64083523422E+03 -0.19266538379E+03  0.67571795375E+03  0.95099132518E+03  0.25500000920E-02 0. -1.
</event>
<event>
 5   0  0.7388013E-06  0.2829079E+04  0.7818609E-02  0.8294297E-01
       -1   -1    0    0    0  501  0.00000000000E+00  0.00000000000E+00  0.14691174700E+04  0.14691174701E+04  0.50400001928E-02 0.  1.
        1   -1    0    0  501    0  0.00000000000E+00  0.00000000000E+00 -0.13619890742E+04  0.13619890742E+04  0.50400001928E-02 0. -1.
    10030    2    1    2    0    0  0.00000000000E+00  0.00000000000E+00  0.10712839586E+03  0.28311065442E+04  0.28290789617E+04 0.  0.
        1    1    3    3  502    0 -0.82836413520E+02 -0.10606252908E+04  0.98650595168E+03  0.14508555654E+04  0.50400001928E-02 0.  1.
       -1    1    3    3    0  502  0.82836413520E+02  0.10606252908E+04 -0.87937755582E+03  0.13802509788E+04  0.50400001928E-02 0. -1.
</event>
<event>
 5   0  0.7509685E-06  0.2698962E+04  0.7818609E-02  0.8335342E-01
       -1   -1    0    0    0  501  0.00000000000E+00  0.00000000000E+00  0.98230003558E+03  0.98230003560E+03  0.50400001928E-02 0. -1.
        1   -1    0    0  501    0  0.00000000000E+00  0.00000000000E+00 -0.18539133689E+04  0.18539133689E+04  0.50400001928E-02 0.  1.
    10030    2    1    2    0    0  0.00000000000E+00  0.00000000000E+00 -0.87161333327E+03  0.28362134045E+04  0.26989621474E+04 0.  0.
        4    1    3    3  502    0  0.51430488800E+03  0.66448747912E+03  0.67384890321E+03  0.10770919575E+04  0.12699999809E+01 0. -1.
       -4    1    3    3    0  502 -0.51430488800E+03 -0.66448747912E+03 -0.15454622365E+04  0.17591214469E+04  0.12699999809E+01 0.  1.
</event>
<event>
 5   0  0.1923559E-05  0.2265730E+04  0.7818609E-02  0.8491557E-01
        2   -1    0    0  501    0  0.00000000000E+00  0.00000000000E+00  0.13896694916E+04  0.13896694916E+04  0.25500000920E-02 0.  1.
       -2   -1    0    0    0  501  0.00000000000E+00  0.00000000000E+00 -0.92351677547E+03  0.92351677548E+03  0.25500000920E-02 0. -1.
    10030    2    1    2    0    0  0.00000000000E+00  0.00000000000E+00  0.46615271608E+03  0.23131862670E+04  0.22657299820E+04 0.  0.
        4    1    3    3  502    0  0.18577736373E+03 -0.57438724973E+03 -0.74561963866E+03  0.95936656185E+03  0.12699999809E+01 0. -1.
       -4    1    3    3    0  502 -0.18577736373E+03  0.57438724973E+03  0.12117723547E+04  0.13538197052E+04  0.12699999809E+01 0.  1.
</event>
<event>
 5   0  0.1923559E-05  0.2758372E+04  0.7818609E-02  0.8316310E-01
       -2   -1    0    0    0  501  0.00000000000E+00  0.00000000000E+00  0.11927798787E+04  0.11927798787E+04  0.25500000920E-02 0.  1.
        2   -1    0    0  501    0  0.00000000000E+00  0.00000000000E+00 -0.15947233294E+04  0.15947233294E+04  0.25500000920E-02 0. -1.
    10030    2    1    2    0    0  0.00000000000E+00  0.00000000000E+00 -0.40194345067E+03  0.27875032080E+04  0.27583719106E+04 0.  0.
        4    1    3    3  502    0  0.52335762716E+03 -0.10087496734E+03  0.10844974083E+04  0.12083936472E+04  0.12699999809E+01 0.  1.
       -4    1    3    3    0  502 -0.52335762716E+03  0.10087496734E+03 -0.14864408590E+04  0.15791095609E+04  0.12699999809E+01 0. -1.
</event>
<event>
 5   0  0.7681342E-06  0.2715907E+04  0.7818609E-02  0.8329862E-01
       -1   -1    0    0    0  501  0.00000000000E+00  0.00000000000E+00  0.18979587954E+04  0.18979587954E+04  0.50400001928E-02 0.  1.
        1   -1    0    0  501    0  0.00000000000E+00  0.00000000000E+00 -0.97158986202E+03  0.97158986203E+03  0.50400001928E-02 0. -1.
    10030    2    1    2    0    0  0.00000000000E+00  0.00000000000E+00  0.92636893334E+03  0.28695486574E+04  0.27159068645E+04 0.  0.
        2    1    3    3  502    0  0.40393918506E+03  0.27592817997E+02  0.18327016564E+04  0.18768920029E+04  0.25500000920E-02 0.  1.
       -2    1    3    3    0  502 -0.40393918506E+03 -0.27592817997E+02 -0.90633272311E+03  0.99265665454E+03  0.25500000920E-02 0. -1.
</event>
<event>
 5   0  0.7681342E-06  0.2829259E+04  0.7818609E-02  0.8294242E-01
       -1   -1    0    0    0  501  0.00000000000E+00  0.00000000000E+00  0.11200184431E+04  0.11200184431E+04  0.50400001928E-02 0.  1.
        1   -1    0    0  501    0  0.00000000000E+00  0.00000000000E+00 -0.17867360304E+04  0.17867360304E+04  0.50400001928E-02 0. -1.
    10030    2    1    2    0    0  0.00000000000E+00  0.00000000000E+00 -0.66671758733E+03  0.29067544735E+04  0.28292594840E+04 0.  0.
        2    1    3    3  502    0 -0.83375706243E+03 -0.95979171102E+03 -0.97069407977E+03  0.15995618038E+04  0.25500000920E-02 0. -1.
       -2    1    3    3    0  502  0.83375706243E+03  0.95979171102E+03  0.30397649244E+03  0.13071926697E+04  0.25500000920E-02 0.  1.
</event>
<event>
 5   0  0.1832502E-05  0.2764685E+04  0.7818609E-02  0.8314317E-01
        2   -1    0    0  501    0  0.00000000000E+00  0.00000000000E+00  0.11661164633E+04  0.11661164633E+04  0.25500000920E-02 0. -1.
       -2   -1    0    0    0  501  0.00000000000E+00  0.00000000000E+00 -0.16386619309E+04  0.16386619309E+04  0.25500000920E-02 0.  1.
    10030    2    1    2    0    0  0.00000000000E+00  0.00000000000E+00 -0.47254546767E+03  0.28047783942E+04  0.27646849046E+04 0.  0.
        2    1    3    3  502    0  0.75761126950E+03 -0.63259913760E+03 -0.12181482995E+04  0.15678143335E+04  0.25500000920E-02 0.  1.
       -2    1    3    3    0  502 -0.75761126950E+03  0.63259913760E+03  0.74560283188E+03  0.12369640607E+04  0.25500000920E-02 0. -1.
</event>
<event>
 5   0  0.1874272E-05  0.2848385E+04  0.7818609E-02  0.8288402E-01
        2   -1    0    0  501    0  0.00000000000E+00  0.00000000000E+00  0.24323201296E+04  0.24323201296E+04  0.25500000920E-02 0.  1.
       -2   -1    0    0    0  501  0.00000000000E+00  0.00000000000E+00 -0.83390540368E+03  0.83390540369E+03  0.25500000920E-02 0. -1.
    10030    2    1    2    0    0  0.00000000000E+00  0.00000000000E+00  0.15984147260E+04  0.32662255333E+04  0.28483854371E+04 0.  0.
        3    1    3    3  502    0 -0.11017309048E+04 -0.41916120333E+03 -0.11729990504E+03  0.11845954494E+04  0.10100000352E+00 0. -1.
       -3    1    3    3    0  502  0.11017309048E+04  0.41916120333E+03  0.17157146310E+04  0.20816300839E+04  0.10100000352E+00 0.  1.
</event>
<event>
 5   0  0.1832502E-05  0.2916998E+04  0.7818609E-02  0.8267838E-01
        2   -1    0    0  501    0  0.00000000000E+00  0.00000000000E+00  0.26610533609E+04  0.26610533609E+04  0.25500000920E-02 0.  1.
       -2   -1    0    0    0  501  0.00000000000E+00  0.00000000000E+00 -0.79938974318E+03  0.79938974318E+03  0.25500000920E-02 0. -1.
    10030    2    1    2    0    0  0.00000000000E+00  0.00000000000E+00  0.18616636177E+04  0.34604431041E+04  0.29169976090E+04 0.  0.
        2    1    3    3  502    0 -0.21884497142E+02  0.53492811256E+03 -0.67860665010E+03  0.86436913549E+03  0.25500000920E-02 0. -1.
       -2    1    3    3    0  502  0.21884497142E+02 -0.53492811256E+03  0.25402702678E+04  0.25960739686E+04  0.25500000920E-02 0.  1.
</event>
<event>
 5   0  0.1904553E-05  0.2794151E+04  0.7818609E-02  0.8305087E-01
       -2   -1    0    0    0  501  0.00000000000E+00  0.00000000000E+00  0.16734938073E+04  0.16734938073E+04  0.25500000920E-02 0. -1.
        2   -1    0    0  501    0  0.00000000000E+00  0.00000000000E+00 -0.11663141620E+04  0.11663141620E+04  0.25500000920E-02 0.  1.
    10030    2    1    2    0    0  0.00000000000E+00  0.00000000000E+00  0.50717964524E+03  0.28398079693E+04  0.27941506956E+04 0.  0.
        1    1    3    3  502    0  0.75612378747E+03 -0.69348817793E+03  0.12173304598E+04  0.15920246490E+04  0.50400001928E-02 0. -1.
       -1    1    3    3    0  502 -0.75612378747E+03  0.69348817793E+03 -0.71015081451E+03  0.12477833202E+04  0.50400001928E-02 0.  1.
</event>
<event>
 5   0  0.7613444E-06  0.2786179E+04  0.7818609E-02  0.8307572E-01
        1   -1    0    0  501    0  0.00000000000E+00  0.00000000000E+00  0.14312584118E+04  0.14312584118E+04  0.50400001928E-02 0.  1.
       -1   -1    0    0    0  501  0.00000000000E+00  0.00000000000E+00 -0.13559381472E+04  0.13559381472E+04  0.50400001928E-02 0. -1.
    10030    2    1    2    0    0  0.00000000000E+00  0.00000000000E+00  0.75320264602E+02  0.27871965591E+04  0.27861786584E+04 0.  0.
        5    1    3    3  502    0 -0.11014775045E+04  0.73427164753E+03 -0.39639727466E+03  0.13818684578E+04  0.46999998093E+01 0. -1.
       -5    1    3    3    0  502  0.11014775045E+04 -0.73427164753E+03  0.47171753926E+03  0.14053281013E+04  0.46999998093E+01 0.  1.
</event>
<event>
 5   0  0.1814230E-05  0.2794582E+04  0.7818609E-02  0.8304953E-01
        2   -1    0    0  501    0  0.00000000000E+00  0.00000000000E+00  0.10861824826E+04  0.10861824826E+04  0.25500000920E-02 0.  1.
       -2   -1    0    0    0  501  0.00000000000E+00  0.00000000000E+00 -0.17975078857E+04  0.17975078857E+04  0.25500000920E-02 0. -1.
    10030    2    1    2    0    0  0.00000000000E+00  0.00000000000E+00 -0.71132540306E+03  0.28836903683E+04  0.27945815986E+04 0.  0.
        5    1    3    3  502    0 -0.63995825242E+03  0.49227907517E+03  0.82110133405E+03  0.11515705551E+04  0.46999998093E+01 0.  1.
       -5    1    3    3    0  502  0.63995825242E+03 -0.49227907517E+03 -0.15324267371E+04  0.17321198132E+04  0.46999998093E+01 0. -1.
</event>
<event>
 5   0  0.1923559E-05  0.2903536E+04  0.7818609E-02  0.8271826E-01
       -2   -1    0    0    0  501  0.00000000000E+00  0.00000000000E+00  0.14308674730E+04  0.14308674730E+04  0.25500000920E-02 0. -1.
        2   -1    0    0  501    0  0.00000000000E+00  0.00000000000E+00 -0.14729735618E+04  0.14729735618E+04  0.25500000920E-02 0.  1.
    10030    2    1    2    0    0  0.00000000000E+00  0.00000000000E+00 -0.42106088775E+02  0.29038410348E+04  0.29035357468E+04 0.  0.
        4    1    3    3  502    0 -0.98097268587E+03  0.25885858995E+03  0.10174747273E+04  0.14368617239E+04  0.12699999809E+01 0. -1.
       -4    1    3    3    0  502  0.98097268587E+03 -0.25885858995E+03 -0.10595808161E+04  0.14669793109E+04  0.12699999809E+01 0.  1.
</event>
<event>
 5   0  0.1832502E-05  0.1887194E+04  0.7818609E-02  0.8661257E-01
        2   -1    0    0  501    0  0.00000000000E+00  0.00000000000E+00  0.11072712706E+04  0.11072712706E+04  0.25500000920E-02 0. -1.
       -2   -1    0    0    0  501  0.00000000000E+00  0.00000000000E+00 -0.80411676421E+03  0.80411676422E+03  0.25500000920E-02 0.  1.
    10030    2    1    2    0    0  0.00000000000E+00  0.00000000000E+00  0.30315450639E+03  0.19113880348E+04  0.18871940984E+04 0.  0.
        2    1    3    3  502    0 -0.54200639077E+03  0.77153005408E+03  0.18873324730E+03  0.96158712067E+03  0.25500000920E-02 0.  1.
       -2    1    3    3    0  502  0.54200639077E+03 -0.77153005408E+03  0.11442125908E+03  0.94980091415E+03  0.25500000920E-02 0. -1.
</event>
<event>
 5   0  0.7613444E-06  0.2804290E+04  0.7818609E-02  0.8301938E-01
        1   -1    0    0  501    0  0.00000000000E+00  0.00000000000E+00  0.17514100981E+04  0.17514100981E+04  0.50400001928E-02 0.  1.
       -1   -1    0    0    0  501  0.00000000000E+00  0.00000000000E+00 -0.11225299512E+04  0.11225299513E+04  0.50400001928E-02 0. -1.
    10030    2    1    2    0    0  0.00000000000E+00  0.00000000000E+00  0.62888014682E+03  0.28739400493E+04  0.28042897796E+04 0.  0.
        5    1    3    3  502    0  0.98548900216E+03  0.99117243725E+03  0.20042572820E+03  0.14120212237E+04  0.46999998093E+01 0.  1.
       -5    1    3    3    0  502 -0.98548900216E+03 -0.99117243725E+03  0.42845441862E+03  0.14619188256E+04  0.46999998093E+01 0. -1.
</event>
<event>
 5   0  0.7613444E-06  0.2815478E+04  0.7818609E-02  0.8298479E-01
        1   -1    0    0  501    0  0.00000000000E+00  0.00000000000E+00  0.17570582028E+04  0.17570582028E+04  0.50400001928E-02 0.  1.
       -1   -1    0    0    0  501  0.00000000000E+00  0.00000000000E+00 -0.11278679160E+04  0.11278679161E+04  0.50400001928E-02 0. -1.
    10030    2    1    2    0    0  0.00000000000E+00  0.00000000000E+00  0.62919028674E+03  0.28849261188E+04  0.28154783420E+04 0.  0.
        5    1    3    3  502    0 -0.43129596959E+03  0.16758111329E+03  0.16769036372E+04  0.17395768282E+04  0.46999998093E+01 0.  1.
       -5    1    3    3    0  502  0.43129596959E+03 -0.16758111329E+03 -0.10477133504E+04  0.11453492906E+04  0.46999998093E+01 0. -1.
</event>
<event>
 5   0  0.1904553E-05  0.2451103E+04  0.7818609E-02  0.8420615E-01
       -2   -1    0    0    0  501  0.00000000000E+00  0.00000000000E+00  0.14920551971E+04  0.14920551971E+04  0.25500000920E-02 0. -1.
        2   -1    0    0  501    0  0.00000000000E+00  0.00000000000E+00 -0.10066494177E+04  0.10066494177E+04  0.25500000920E-02 0.  1.
    10030    2    1    2    0    0  0.00000000000E+00  0.00000000000E+00  0.48540577944E+03  0.24987046148E+04  0.24511030132E+04 0.  0.
        1    1    3    3  502    0  0.78095483734E+03  0.48989254547E+02  0.12042526311E+04  0.14361458159E+04  0.50400001928E-02 0. -1.
       -1    1    3    3    0  502 -0.78095483734E+03 -0.48989254547E+02 -0.71884685165E+03  0.10625587989E+04  0.50400001928E-02 0.  1.
</event>
<event>
 5   0  0.1814230E-05  0.2806578E+04  0.7818609E-02  0.8301229E-01
       -2   -1    0    0    0  501  0.00000000000E+00  0.00000000000E+00  0.11494570620E+04  0.11494570620E+04  0.25500000920E-02 0. -1.
        2   -1    0    0  501    0  0.00000000000E+00  0.00000000000E+00 -0.17131739745E+04  0.17131739745E+04  0.25500000920E-02 0.  1.
    10030    2    1    2    0    0  0.00000000000E+00  0.00000000000E+00 -0.56371691246E+03  0.28626310365E+04  0.28065779330E+04 0.  0.
        5    1    3    3  502    0  0.10386788084E+04 -0.93150538475E+03 -0.12838101276E+03  0.14010923322E+04  0.46999998093E+01 0. -1.
       -5    1    3    3    0  502 -0.10386788084E+04  0.93150538475E+03 -0.43533589970E+03  0.14615387044E+04  0.46999998093E+01 0.  1.
</event>
<event>
 5   0  0.1814230E-05  0.2862029E+04  0.7818609E-02  0.8284265E-01
        2   -1    0    0  501    0  0.00000000000E+00  0.00000000000E+00  0.12317849443E+04  0.12317849443E+04  0.25500000920E-02 0. -1.
       -2   -1    0    0    0  501  0.00000000000E+00  0.00000000000E+00 -0.16624674553E+04  0.16624674553E+04  0.25500000920E-02 0.  1.
    10030    2    1    2    0    0  0.00000000000E+00  0.00000000000E+00 -0.43068251103E+03  0.28942523996E+04  0.28620289179E+04 0.  0.
        5    1    3    3  502    0  0.50877347989E+03  0.44219725045E+02 -0.15671696255E+04  0.16482865536E+04  0.46999998093E+01 0.  1.
       -5    1    3    3    0  502 -0.50877347989E+03 -0.44219725045E+02  0.11364871144E+04  0.12459658459E+04  0.46999998093E+01 0. -1.
</event>
<event>
 5   0  0.7509685E-06  0.2824794E+04  0.7818609E-02  0.8295612E-01
        1   -1    0    0  501    0  0.00000000000E+00  0.00000000000E+00  0.15155652740E+04  0.15155652740E+04  0.50400001928E-02 0. -1.
       -1   -1    0    0    0  501  0.00000000000E+00  0.00000000000E+00 -0.13162516223E+04  0.13162516223E+04  0.50400001928E-02 0.  1.
    10030    2    1    2    0    0  0.00000000000E+00  0.00000000000E+00  0.19931365171E+03  0.28318168964E+04  0.28247939753E+04 0.  0.
        4    1    3    3  502    0 -0.92637677662E+03 -0.14391392222E+03 -0.95936839260E+03  0.13413703720E+04  0.12699999809E+01 0.  1.
       -4    1    3    3    0  502  0.92637677662E+03  0.14391392222E+03  0.11586820443E+04  0.14904465244E+04  0.12699999809E+01 0. -1.
</event>
<event>
 5   0  0.7509685E-06  0.2643820E+04  0.7818609E-02  0.8353467E-01
        1   -1    0    0  501    0  0.00000000000E+00  0.00000000000E+00  0.12004688983E+04  0.12004688983E+04  0.50400001928E-02 0. -1.
       -1   -1    0    0    0  501  0.00000000000E+00  0.00000000000E+00 -0.14556365856E+04  0.14556365856E+04  0.50400001928E-02 0.  1.
    10030    2    1    2    0    0  0.00000000000E+00  0.00000000000E+00 -0.25516768731E+03  0.26561054838E+04  0.26438203026E+04 0.  0.
        4    1    3    3  502    0 -0.45020439978E+03 -0.30278993718E+03  0.10834548277E+04  0.12117102477E+04  0.12699999809E+01 0. -1.
       -4    1    3    3    0  502  0.45020439978E+03  0.30278993718E+03 -0.13386225150E+04  0.14443952362E+04  0.12699999809E+01 0.  1.
</event>
<event>
 5   0  0.7681342E-06  0.2824103E+04  0.7818609E-02  0.8295824E-01
        1   -1    0    0  501    0  0.00000000000E+00  0.00000000000E+00  0.13616131502E+04  0.13616131502E+04  0.50400001928E-02 0. -1.
       -1   -1    0    0    0  501  0.00000000000E+00  0.00000000000E+00 -0.14643577574E+04  0.14643577574E+04  0.50400001928E-02 0.  1.
    10030    2    1    2    0    0  0.00000000000E+00  0.00000000000E+00 -0.10274460720E+03  0.28259709076E+04  0.28241025329E+04 0.  0.
        2    1    3    3  502    0 -0.92226331752E+03  0.39946350399E+03 -0.10438692312E+04  0.14490699395E+04  0.25500000920E-02 0.  1.
       -2    1    3    3    0  502  0.92226331752E+03 -0.39946350399E+03  0.94112462400E+03  0.13769009680E+04  0.25500000920E-02 0. -1.
</event>
<event>
 5   0  0.1904553E-05  0.2754627E+04  0.7818609E-02  0.8317495E-01
       -2   -1    0    0    0  501  0.00000000000E+00  0.00000000000E+00  0.77622098958E+03  0.77622098959E+03  0.25500000920E-02 0.  1.
        2   -1    0    0  501    0  0.00000000000E+00  0.00000000000E+00 -0.24438820022E+04  0.24438820022E+04  0.25500000920E-02 0. -1.
    10030    2    1    2    0    0  0.00000000000E+00  0.00000000000E+00 -0.16676610126E+04  0.32201029918E+04  0.27546270210E+04 0.  0.
        1    1    3    3  502    0  0.21870494136E+03  0.19603947356E+03  0.73918755505E+03  0.79540025656E+03  0.50400001928E-02 0.  1.
       -1    1    3    3    0  502 -0.21870494136E+03 -0.19603947356E+03 -0.24068485677E+04  0.24247027353E+04  0.50400001928E-02 0. -1.
</event>
<event>
 5   0  0.1814230E-05  0.2826532E+04  0.7818609E-02  0.8295078E-01
        2   -1    0    0  501    0  0.00000000000E+00  0.00000000000E+00  0.12272422816E+04  0.12272422816E+04  0.25500000920E-02 0.  1.
       -2   -1    0    0    0  501  0.00000000000E+00  0.00000000000E+00 -0.16274870296E+04  0.16274870296E+04  0.25500000920E-02 0. -1.
    10030    2    1    2    0    0  0.00000000000E+00  0.00000000000E+00 -0.40024474796E+03  0.28547293112E+04  0.28265320770E+04 0.  0.
        5    1    3    3  502    0 -0.84016422888E+02  0.40295558472E+03  0.11653511799E+04  0.12359196677E+04  0.46999998093E+01 0.  1.
       -5    1    3    3    0  502  0.84016422888E+02 -0.40295558472E+03 -0.15655959279E+04  0.16188096435E+04  0.46999998093E+01 0. -1.
</event>
<event>
 5   0  0.1874272E-05  0.2385765E+04  0.7818609E-02  0.8444852E-01
       -2   -1    0    0    0  501  0.00000000000E+00  0.00000000000E+00  0.19772836878E+04  0.19772836878E+04  0.25500000920E-02 0.  1.
        2   -1    0    0  501    0  0.00000000000E+00  0.00000000000E+00 -0.71965846274E+03  0.71965846274E+03  0.25500000920E-02 0. -1.
    10030    2    1    2    0    0  0.00000000000E+00  0.00000000000E+00  0.12576252250E+04  0.26969421505E+04  0.23857652350E+04 0.  0.
        3    1    3    3  502    0  0.55685170941E+03 -0.70217479265E+03 -0.26117140038E+03  0.93345796706E+03  0.10100000352E+00 0. -1.
       -3    1    3    3    0  502 -0.55685170941E+03  0.70217479265E+03  0.15187966254E+04  0.17634841834E+04  0.10100000352E+00 0.  1.
</event>
<event>
 5   0  0.7388013E-06  0.2889945E+04  0.7818609E-02  0.8275875E-01
        1   -1    0    0  501    0  0.00000000000E+00  0.00000000000E+00  0.67529450591E+03  0.67529450593E+03  0.50400001928E-02 0.  1.
       -1   -1    0    0    0  501  0.00000000000E+00  0.00000000000E+00 -0.30919045207E+04  0.30919045207E+04  0.50400001928E-02 0. -1.
    10030    2    1    2    0    0  0.00000000000E+00  0.00000000000E+00 -0.24166100148E+04  0.37671990266E+04  0.28899454221E+04 0.  0.
        1    1    3    3  502    0  0.12358778611E+04 -0.67879289119E+03 -0.16200964816E+04  0.21477584796E+04  0.50400001928E-02 0. -1.
       -1    1    3    3    0  502 -0.12358778611E+04  0.67879289119E+03 -0.79651353311E+03  0.16194405470E+04  0.50400001928E-02 0.  1.
</event>
<event>
 5   0  0.1904553E-05  0.2769122E+04  0.7818609E-02  0.8312919E-01
       -2   -1    0    0    0  501  0.00000000000E+00  0.00000000000E+00  0.90774286746E+03  0.90774286746E+03  0.25500000920E-02 0. -1.
        2   -1    0    0  501    0  0.00000000000E+00  0.00000000000E+00 -0.21118413779E+04  0.21118413779E+04  0.25500000920E-02 0.  1.
    10030    2    1    2    0    0  0.00000000000E+00  0.00000000000E+00 -0.12040985104E+04  0.30195842453E+04  0.27691218449E+04 0.  0.
        1    1    3    3  502    0 -0.18666342575E+03 -0.42527491899E+03 -0.20243663309E+04  0.20769595646E+04  0.50400001928E-02 0.  1.
       -1    1    3    3    0  502  0.18666342575E+03  0.42527491899E+03  0.82026782054E+03  0.94262468070E+03  0.50400001928E-02 0. -1.
</event>
<event>
 5   0  0.7509685E-06  0.2785400E+04  0.7818609E-02  0.8307816E-01
       -1   -1    0    0    0  501  0.00000000000E+00  0.00000000000E+00  0.13340524252E+04  0.13340524252E+04  0.50400001928E-02 0.  1.
        1   -1    0    0  501    0  0.00000000000E+00  0.00000000000E+00 -0.14539255575E+04  0.14539255575E+04  0.50400001928E-02 0. -1.
    10030    2    1    2    0    0  0.00000000000E+00  0.00000000000E+00 -0.11987313235E+03  0.27879779827E+04  0.27853997315E+04 0.  0.
        4    1    3    3  502    0 -0.56649666049E+03  0.72841959501E+03  0.98414820807E+03  0.13490970614E+04  0.12699999809E+01 0.  1.
       -4    1    3    3    0  502  0.56649666049E+03 -0.72841959501E+03 -0.11040213404E+04  0.14388809213E+04  0.12699999809E+01 0. -1.
</event>
<event>
 5   0  0.1874272E-05  0.2788620E+04  0.7818609E-02  0.8306810E-01
        2   -1    0    0  501    0  0.00000000000E+00  0.00000000000E+00  0.22641062188E+04  0.22641062188E+04  0.25500000920E-02 0.  1.
       -2   -1    0    0    0  501  0.00000000000E+00  0.00000000000E+00 -0.85866112486E+03  0.85866112486E+03  0.25500000920E-02 0. -1.
    10030    2    1    2    0    0  0.00000000000E+00  0.00000000000E+00  0.14054450939E+04  0.31227673436E+04  0.27886197250E+04 0.  0.
        3    1    3    3  502    0 -0.28820212721E+03  0.10437659267E+04  0.16863808231E+04  0.20040928288E+04  0.10100000352E+00 0.  1.
       -3    1    3    3    0  502  0.28820212721E+03 -0.10437659267E+04 -0.28093572915E+03  0.11186745148E+04  0.10100000352E+00 0. -1.
</event>
<event>
 5   0  0.1923559E-05  0.2779256E+04  0.7818609E-02  0.8309738E-01
       -2   -1    0    0    0  501  0.00000000000E+00  0.00000000000E+00  0.10926093941E+04  0.10926093941E+04  0.25500000920E-02 0. -1.
        2   -1    0    0  501    0  0.00000000000E+00  0.00000000000E+00 -0.17673889712E+04  0.17673889712E+04  0.25500000920E-02 0.  1.
    10030    2    1    2    0    0  0.00000000000E+00  0.00000000000E+00 -0.67477957709E+03  0.28599983653E+04  0.27792558666E+04 0.  0.
        4    1    3    3  502    0 -0.45677939833E+03 -0.12611322122E+04  0.36429924517E+02  0.13418012623E+04  0.12699999809E+01 0. -1.
       -4    1    3    3    0  502  0.45677939833E+03  0.12611322122E+04 -0.71120950161E+03  0.15181971030E+04  0.12699999809E+01 0.  1.
</event>
<event>
 5   0  0.7388013E-06  0.2749941E+04  0.7818609E-02  0.8318980E-01
        1   -1    0    0  501    0  0.00000000000E+00  0.00000000000E+00  0.17686678776E+04  0.17686678776E+04  0.50400001928E-02 0.  1.
       -1   -1    0    0    0  501  0.00000000000E+00  0.00000000000E+00 -0.10689085706E+04  0.10689085706E+04  0.50400001928E-02 0. -1.
    10030    2    1    2    0    0  0.00000000000E+00  0.00000000000E+00  0.69975930704E+03  0.28375764482E+04  0.27499412742E+04 0.  0.
        1    1    3    3  502    0  0.96598535430E+03  0.96292391730E+03  0.17057769418E+03  0.13745715423E+04  0.50400001928E-02 0. -1.
       -1    1    3    3    0  502 -0.96598535430E+03 -0.96292391730E+03  0.52918161286E+03  0.14630049059E+04  0.50400001928E-02 0.  1.
</event>
<event>
 5   0  0.1904553E-05  0.2736611E+04  0.7818609E-02  0.8323223E-01
        2   -1    0    0  501    0  0.00000000000E+00  0.00000000000E+00  0.13918567368E+04  0.13918567368E+04  0.25500000920E-02 0.  1.
       -2   -1    0    0    0  501  0.00000000000E+00  0.00000000000E+00 -0.13451532440E+04  0.13451532440E+04  0.25500000920E-02 0. -1.
    10030    2    1    2    0    0  0.00000000000E+00  0.00000000000E+00  0.46703492747E+02  0.27370099808E+04  0.27366114848E+04 0.  0.
        1    1    3    3  502    0  0.12339926819E+04 -0.44806710965E+03  0.40910018445E+03  0.13750872826E+04  0.50400001928E-02 0.  1.
       -1    1    3    3    0  502 -0.12339926819E+04  0.44806710965E+03 -0.36239669170E+03  0.13619226982E+04  0.50400001928E-02 0. -1.
</event>
<event>
 5   0  0.7613444E-06  0.2524349E+04  0.7818609E-02  0.8394362E-01
       -1   -1    0    0    0  501  0.00000000000E+00  0.00000000000E+00  0.18047738554E+04  0.18047738554E+04  0.50400001928E-02 0.  1.
        1   -1    0    0  501    0  0.00000000000E+00  0.00000000000E+00 -0.88270551950E+03  0.88270551952E+03  0.50400001928E-02 0. -1.
    10030    2    1    2    0    0  0.00000000000E+00  0.00000000000E+00  0.92206833593E+03  0.26874793750E+04  0.25243485050E+04 0.  0.
        5    1    3    3  502    0 -0.65549982446E+03  0.57069728175E+02  0.16077298557E+04  0.17371684871E+04  0.46999998093E+01 0.  1.
       -5    1    3    3    0  502  0.65549982446E+03 -0.57069728175E+02 -0.68566151980E+03  0.95031088780E+03  0.46999998093E+01 0. -1.
</event>
<event>
 5   0  0.7613444E-06  0.2908104E+04  0.7818609E-02  0.8270470E-01
        1   -1    0    0  501    0  0.00000000000E+00  0.00000000000E+00  0.27798122763E+04  0.27798122763E+04  0.50400001928E-02 0.  1.
       -1   -1    0    0    0  501  0.00000000000E+00  0.00000000000E+00 -0.76057895385E+03  0.76057895387E+03  0.50400001928E-02 0. -1.
    10030    2    1    2    0    0  0.00000000000E+00  0.00000000000E+00  0.20192333225E+04  0.35403912302E+04  0.29081036523E+04 0.  0.
        5    1    3    3  502    0 -0.11213257244E+04  0.21436973913E+03 -0.86685005739E+02  0.11449288823E+04  0.46999998093E+01 0.  1.
       -5    1    3    3    0  502  0.11213257244E+04 -0.21436973913E+03  0.21059183282E+04  0.23954623479E+04  0.46999998093E+01 0. -1.
</event>
<event>
 5   0  0.7388013E-06  0.2784226E+04  0.7818609E-02  0.8308182E-01
        1   -1    0    0  501    0  0.00000000000E+00  0.00000000000E+00  0.10648847688E+04  0.10648847688E+04  0.50400001928E-02 0. -1.
       -1   -1    0    0    0  501  0.00000000000E+00  0.00000000000E+00 -0.18198944800E+04  0.18198944800E+04  0.50400001928E-02 0.  1.
    10030    2    1    2    0    0  0.00000000000E+00  0.00000000000E+00 -0.75500971119E+03  0.28847792489E+04  0.27842255029E+04 0.  0.
        1    1    3    3  502    0  0.67835921701E+03 -0.77636251335E+03 -0.13467397984E+04  0.16960595697E+04  0.50400001928E-02 0.  1.
       -1    1    3    3    0  502 -0.67835921701E+03  0.77636251335E+03  0.59173008723E+03  0.11887196791E+04  0.50400001928E-02 0. -1.
</event>
<event>
 5   0  0.7555871E-06  0.2850681E+04  0.7818609E-02  0.8287704E-01
        1   -1    0    0  501    0  0.00000000000E+00  0.00000000000E+00  0.12364410595E+04  0.12364410595E+04  0.50400001928E-02 0. -1.
       -1   -1    0    0    0  501  0.00000000000E+00  0.00000000000E+00 -0.16430990801E+04  0.16430990801E+04  0.50400001928E-02 0.  1.
    10030    2    1    2    0    0  0.00000000000E+00  0.00000000000E+00 -0.40665802056E+03  0.28795401396E+04  0.28506807380E+04 0.  0.
        3    1    3    3  502    0 -0.14202114708E+04 -0.83118047544E+02 -0.11477206189E+03  0.14272637696E+04  0.10100000352E+00 0.  1.
       -3    1    3    3    0  502  0.14202114708E+04  0.83118047544E+02 -0.29188595867E+03  0.14522763700E+04  0.10100000352E+00 0. -1.
</event>
<event>
 5   0  0.7555871E-06  0.2713568E+04  0.7818609E-02  0.8330616E-01
        1   -1    0    0  501    0  0.00000000000E+00  0.00000000000E+00  0.14286760287E+04  0.14286760288E+04  0.50400001928E-02 0. -1.
       -1   -1    0    0    0  501  0.00000000000E+00  0.00000000000E+00 -0.12885097499E+04  0.12885097500E+04  0.50400001928E-02 0.  1.
    10030    2    1    2    0    0  0.00000000000E+00  0.00000000000E+00  0.14016627880E+03  0.27171857787E+04  0.27135681252E+04 0.  0.
        3    1    3    3  502    0  0.12135216343E+04  0.39376512434E+03 -0.39224362279E+03  0.13347437207E+04  0.10100000352E+00 0. -1.
       -3    1    3    3    0  502 -0.12135216343E+04 -0.39376512434E+03  0.53240990159E+03  0.13824420580E+04  0.10100000352E+00 0.  1.
</event>
<event>
 5   0  0.7509685E-06  0.2827329E+04  0.7818609E-02  0.8294834E-01
        1   -1    0    0  501    0  0.00000000000E+00  0.00000000000E+00  0.16733342649E+04  0.16733342649E+04  0.50400001928E-02 0. -1.
       -1   -1    0    0    0  501  0.00000000000E+00  0.00000000000E+00 -0.11942908072E+04  0.11942908073E+04  0.50400001928E-02 0.  1.
    10030    2    1    2    0    0  0.00000000000E+00  0.00000000000E+00  0.47904345767E+03  0.28676250722E+04  0.28273292911E+04 0.  0.
        4    1    3    3  502    0 -0.11570188585E+04  0.69497893916E+03  0.66593941720E+03  0.15050466056E+04  0.12699999809E+01 0.  1.
       -4    1    3    3    0  502  0.11570188585E+04 -0.69497893916E+03 -0.18689595952E+03  0.13625784665E+04  0.12699999809E+01 0. -1.
</event>
<event>
 5   0  0.7555871E-06  0.2794735E+04  0.7818609E-02  0.8304905E-01
        1   -1    0    0  501    0  0.00000000000E+00  0.00000000000E+00  0.18241801977E+04  0.18241801977E+04  0.50400001928E-02 0.  1.
       -1   -1    0    0    0  501  0.00000000000E+00  0.00000000000E+00 -0.10704181368E+04  0.10704181369E+04  0.50400001928E-02 0. -1.
    10030    2    1    2    0    0  0.00000000000E+00  0.00000000000E+00  0.75376206090E+03  0.28945983346E+04  0.27947347413E+04 0.  0.
        3    1    3    3  502    0  0.12845718493E+04 -0.84674789764E+02  0.93975285902E+03  0.15938726744E+04  0.10100000352E+00 0.  1.
       -3    1    3    3    0  502 -0.12845718493E+04  0.84674789764E+02 -0.18599079812E+03  0.13007256602E+04  0.10100000352E+00 0. -1.
</event>
<event>
 5   0  0.7388013E-06  0.2617183E+04  0.7818609E-02  0.8362388E-01
       -1   -1    0    0    0  501  0.00000000000E+00  0.00000000000E+00  0.12301948127E+04  0.12301948127E+04  0.50400001928E-02 0. -1.
        1   -1    0    0  501    0  0.00000000000E+00  0.00000000000E+00 -0.13919841681E+04  0.13919841682E+04  0.50400001928E-02 0.  1.
    10030    2    1    2    0    0  0.00000000000E+00  0.00000000000E+00 -0.16178935545E+03  0.26221789809E+04  0.26171829917E+04 0.  0.
        1    1    3    3  502    0  0.71293601730E+02 -0.38803689343E+03 -0.13309768388E+04  0.13882199947E+04  0.50400001928E-02 0.  1.
       -1    1    3    3    0  502 -0.71293601730E+02  0.38803689343E+03  0.11691874833E+04  0.12339589862E+04  0.50400001928E-02 0. -1.
</event>
<event>
 5   0  0.7613444E-06  0.2768681E+04  0.7818609E-02  0.8313058E-01
       -1   -1    0    0    0  501  0.00000000000E+00  0.00000000000E+00  0.30513442715E+04  0.30513442715E+04  0.50400001928E-02 0. -1.
        1   -1    0    0  501    0  0.00000000000E+00  0.00000000000E+00 -0.62805039412E+03  0.62805039414E+03  0.50400001928E-02 0.  1.
    10030    2    1    2    0    0  0.00000000000E+00  0.00000000000E+00  0.24232938774E+04  0.36793946657E+04  0.27686805322E+04 0.  0.
        5    1    3    3  502    0  0.88978055247E+03  0.94695377099E+03  0.18461278617E+04  0.22575741511E+04  0.46999998093E+01 0.  1.
       -5    1    3    3    0  502 -0.88978055247E+03 -0.94695377099E+03  0.57716601566E+03  0.14218205145E+04  0.46999998093E+01 0. -1.
</event>
<event>
 5   0  0.1874272E-05  0.2855903E+04  0.7818609E-02  0.8286120E-01
        2   -1    0    0  501    0  0.00000000000E+00  0.00000000000E+00  0.14788446807E+04  0.14788446807E+04  0.25500000920E-02 0. -1.
       -2   -1    0    0    0  501  0.00000000000E+00  0.00000000000E+00 -0.13788096680E+04  0.13788096680E+04  0.25500000920E-02 0.  1.
    10030    2    1    2    0    0  0.00000000000E+00  0.00000000000E+00  0.10003501269E+03  0.28576543487E+04  0.28559028998E+04 0.  0.
        3    1    3    3  502    0  0.10008262832E+04  0.44771339632E+03  0.96542542916E+03  0.14608719327E+04  0.10100000352E+00 0. -1.
       -3    1    3    3    0  502 -0.10008262832E+04 -0.44771339632E+03 -0.86539041647E+03  0.13967824160E+04  0.10100000352E+00 0.  1.
</event>
<event>
 5   0  0.1832502E-05  0.2744680E+04  0.7818609E-02  0.8320652E-01
       -2   -1    0    0    0  501  0.00000000000E+00  0.00000000000E+00  0.98327228054E+03  0.98327228054E+03  0.25500000920E-02 0.  1.
        2   -1    0    0  501    0  0.00000000000E+00  0.00000000000E+00 -0.19153571717E+04  0.19153571717E+04  0.25500000920E-02 0. -1.
    10030    2    1    2    0    0  0.00000000000E+00  0.00000000000E+00 -0.93208489112E+03  0.28986294522E+04  0.27446803925E+04 0.  0.
        2    1    3    3  502    0  0.10221527646E+04 -0.78196732240E+03 -0.96926510493E+03  0.16111312830E+04  0.25500000920E-02 0. -1.
       -2    1    3    3    0  502 -0.10221527646E+04  0.78196732240E+03  0.37180213813E+02  0.12874981692E+04  0.25500000920E-02 0.  1.
</event>
<event>
 5   0  0.7613444E-06  0.2793793E+04  0.7818609E-02  0.8305198E-01
       -1   -1    0    0    0  501  0.00000000000E+00  0.00000000000E+00  0.94512642958E+03  0.94512642959E+03  0.50400001928E-02 0.  1.
        1   -1    0    0  501    0  0.00000000000E+00  0.00000000000E+00 -0.20646125861E+04  0.20646125861E+04  0.50400001928E-02 0. -1.
    10030    2    1    2    0    0  0.00000000000E+00  0.00000000000E+00 -0.11194861565E+04  0.30097390157E+04  0.27937930646E+04 0.  0.
        5    1    3    3  502    0 -0.69181499792E+03 -0.93912436788E+02 -0.18631676450E+04  0.19896842213E+04  0.46999998093E+01 0. -1.
       -5    1    3    3    0  502  0.69181499792E+03  0.93912436788E+02  0.74368148852E+03  0.10200547944E+04  0.46999998093E+01 0.  1.
</event>
<event>
 5   0  0.1874272E-05  0.2835711E+04  0.7818609E-02  0.8292267E-01
        2   -1    0    0  501    0  0.00000000000E+00  0.00000000000E+00  0.33106081286E+04  0.33106081286E+04  0.25500000920E-02 0.  1.
       -2   -1    0    0    0  501  0.00000000000E+00  0.00000000000E+00 -0.60723401834E+03  0.60723401835E+03  0.25500000920E-02 0. -1.
    10030    2    1    2    0    0  0.00000000000E+00  0.00000000000E+00  0.27033741102E+04  0.39178421469E+04  0.28357107589E+04 0.  0.
        3    1    3    3  502    0  0.83179611353E+03 -0.74113364718E+03  0.25633742766E+04  0.27950047495E+04  0.10100000352E+00 0.  1.
       -3    1    3    3    0  502 -0.83179611353E+03  0.74113364718E+03  0.13999983362E+03  0.11228373974E+04  0.10100000352E+00 0. -1.
</event>
<event>
 5   0  0.1904553E-05  0.2815563E+04  0.7818609E-02  0.8298453E-01
       -2   -1    0    0    0  501  0.00000000000E+00  0.00000000000E+00  0.12643470597E+04  0.12643470597E+04  0.25500000920E-02 0. -1.
        2   -1    0    0  501    0  0.00000000000E+00  0.00000000000E+00 -0.15674874425E+04  0.15674874425E+04  0.25500000920E-02 0.  1.
    10030    2    1    2    0    0  0.00000000000E+00  0.00000000000E+00 -0.30314038280E+03  0.28318345021E+04  0.28155625647E+04 0.  0.
        1    1    3    3  502    0  0.22989597182E+03  0.92554660152E+03 -0.11931028253E+04  0.15274105608E+04  0.50400001928E-02 0.  1.
       -1    1    3    3    0  502 -0.22989597182E+03 -0.92554660152E+03  0.88996244254E+03  0.13044239413E+04  0.50400001928E-02 0. -1.
</event>
<event>
 5   0  0.1923559E-05  0.2748280E+04  0.7818609E-02  0.8319508E-01
        2   -1    0    0  501    0  0.00000000000E+00  0.00000000000E+00  0.27002020166E+04  0.27002020166E+04  0.25500000920E-02 0.  1.
       -2   -1    0    0    0  501  0.00000000000E+00  0.00000000000E+00 -0.69930330561E+03  0.69930330562E+03  0.25500000920E-02 0. -1.
    10030    2    1    2    0    0  0.00000000000E+00  0.00000000000E+00  0.20008987110E+04  0.33995053223E+04  0.27482796045E+04 0.  0.
        4    1    3    3  502    0 -0.29852925103E+03 -0.36654348595E+02  0.26589854762E+04  0.26759425686E+04  0.12699999809E+01 0.  1.
       -4    1    3    3    0  502  0.29852925103E+03  0.36654348595E+02 -0.65808676520E+03  0.72356275362E+03  0.12699999809E+01 0. -1.
</event>
<event>
 5   0  0.1832502E-05  0.2697685E+04  0.7818609E-02  0.8335756E-01
       -2   -1    0    0    0  501  0.00000000000E+00  0.00000000000E+00  0.11567121063E+04  0.11567121063E+04  0.25500000920E-02 0. -1.
        2   -1    0    0  501    0  0.00000000000E+00  0.00000000000E+00 -0.15728863782E+04  0.15728863782E+04  0.25500000920E-02 0.  1.
    10030    2    1    2    0    0  0.00000000000E+00  0.00000000000E+00 -0.41617427194E+03  0.27295984845E+04  0.26976854638E+04 0.  0.
        2    1    3    3  502    0  0.38014674718E+02  0.11724862171E+04 -0.88170111425E+03  0.14675032877E+04  0.25500000920E-02 0.  1.
       -2    1    3    3    0  502 -0.38014674718E+02 -0.11724862171E+04  0.46552684231E+03  0.12620951967E+04  0.25500000920E-02 0. -1.
</event>
<event>
 5   0  0.7613444E-06  0.2565529E+04  0.7818609E-02  0.8380005E-01
       -1   -1    0    0    0  501  0.00000000000E+00  0.00000000000E+00  0.94070463959E+03  0.94070463960E+03  0.50400001928E-02 0.  1.
        1   -1    0    0  501    0  0.00000000000E+00  0.00000000000E+00 -0.17492041391E+04  0.17492041391E+04  0.50400001928E-02 0. -1.
    10030    2    1    2    0    0  0.00000000000E+00  0.00000000000E+00 -0.80849949951E+03  0.26899087787E+04  0.25655287558E+04 0.  0.
        5    1    3    3  502    0 -0.46255309673E+03  0.11825981923E+04 -0.59462492192E+03  0.14021750032E+04  0.46999998093E+01 0. -1.
       -5    1    3    3    0  502  0.46255309673E+03 -0.11825981923E+04 -0.21387457759E+03  0.12877337755E+04  0.46999998093E+01 0.  1.
</event>
<event>
 5   0  0.1832502E-05  0.2777988E+04  0.7818609E-02  0.8310135E-01
       -2   -1    0    0    0  501  0.00000000000E+00  0.00000000000E+00  0.11143683107E+04  0.11143683107E+04  0.25500000920E-02 0. -1.
        2   -1    0    0  501    0  0.00000000000E+00  0.00000000000E+00 -0.17312992022E+04  0.17312992022E+04  0.25500000920E-02 0.  1.
    10030    2    1    2    0    0  0.00000000000E+00  0.00000000000E+00 -0.61693089147E+03  0.28456675129E+04  0.27779884573E+04 0.  0.
        2    1    3    3  502    0 -0.11991159087E+04 -0.67681858593E+03 -0.49551362776E+03  0.14633851565E+04  0.25500000920E-02 0. -1.
       -2    1    3    3    0  502  0.11991159087E+04  0.67681858593E+03 -0.12141726370E+03  0.13822823564E+04  0.25500000920E-02 0.  1.
</event>
<event>
 5   0  0.7613444E-06  0.2792904E+04  0.7818609E-02  0.8305475E-01
       -1   -1    0    0    0  501  0.00000000000E+00  0.00000000000E+00  0.16116618571E+04  0.16116618571E+04  0.50400001928E-02 0.  1.
        1   -1    0    0  501    0  0.00000000000E+00  0.00000000000E+00 -0.12099800040E+04  0.12099800040E+04  0.50400001928E-02 0. -1.
    10030    2    1    2    0    0  0.00000000000E+00  0.00000000000E+00  0.40168185306E+03  0.28216418611E+04  0.27929043093E+04 0.  0.
        5    1    3    3  502    0 -0.13460056316E+04 -0.37191651839E+03  0.19895809422E+03  0.14105528952E+04  0.46999998093E+01 0. -1.
       -5    1    3    3    0  502  0.13460056316E+04  0.37191651839E+03  0.20272375885E+03  0.14110889658E+04  0.46999998093E+01 0.  1.
</event>
<event>
 5   0  0.7509685E-06  0.2202129E+04  0.7818609E-02  0.8517542E-01
       -1   -1    0    0    0  501  0.00000000000E+00  0.00000000000E+00  0.48643475532E+03  0.48643475534E+03  0.50400001928E-02 0.  1.
        1   -1    0    0  501    0  0.00000000000E+00  0.00000000000E+00 -0.24923042829E+04  0.24923042829E+04  0.50400001928E-02 0. -1.
    10030    2    1    2    0    0  0.00000000000E+00  0.00000000000E+00 -0.20058695276E+04  0.29787390383E+04  0.22021293550E+04 0.  0.
        4    1    3    3  502    0  0.96418063380E+03 -0.42389208753E+03 -0.56878888827E+03  0.11970176309E+04  0.12699999809E+01 0. -1.
       -4    1    3    3    0  502 -0.96418063380E+03  0.42389208753E+03 -0.14370806393E+04  0.17817214073E+04  0.12699999809E+01 0.  1.
</event>
<event>
 5   0  0.7681342E-06  0.2819908E+04  0.7818609E-02  0.8297114E-01
        1   -1    0    0  501    0  0.00000000000E+00  0.00000000000E+00  0.19277955971E+04  0.19277955971E+04  0.50400001928E-02 0.  1.
       -1   -1    0    0    0  501  0.00000000000E+00  0.00000000000E+00 -0.10312142155E+04  0.10312142155E+04  0.50400001928E-02 0. -1.
    10030    2    1    2    0    0  0.00000000000E+00  0.00000000000E+00  0.89658138153E+03  0.29590098126E+04  0.28199079590E+04 0.  0.
        2    1    3    3  502    0  0.59674582924E+03  0.90194806702E+03  0.13975440939E+04  0.17671291392E+04  0.25500000920E-02 0.  1.
       -2    1    3    3    0  502 -0.59674582924E+03 -0.90194806702E+03 -0.50096271239E+03  0.11918806734E+04  0.25500000920E-02 0. -1.
</event>
<event>
 5   0  0.7509685E-06  0.2669676E+04  0.7818609E-02  0.8344912E-01
       -1   -1    0    0    0  501  0.00000000000E+00  0.00000000000E+00  0.78574481691E+03  0.78574481693E+03  0.50400001928E-02 0.  1.
        1   -1    0    0  501    0  0.00000000000E+00  0.00000000000E+00 -0.22676471618E+04  0.22676471619E+04  0.50400001928E-02 0. -1.
    10030    2    1    2    0    0  0.00000000000E+00  0.00000000000E+00 -0.14819023449E+04  0.30533919788E+04  0.26696756388E+04 0.  0.
        4    1    3    3  502    0  0.10728360566E+04  0.39962512219E+03  0.44079421740E+02  0.11456971899E+04  0.12699999809E+01 0.  1.
       -4    1    3    3    0  502 -0.10728360566E+04 -0.39962512219E+03 -0.15259817667E+04  0.19076947889E+04  0.12699999809E+01 0. -1.
</event>
<event>
 5   0  0.1904553E-05  0.2738369E+04  0.7818609E-02  0.8322662E-01
       -2   -1    0    0    0  501  0.00000000000E+00  0.00000000000E+00  0.64123130399E+03  0.64123130399E+03  0.25500000920E-02 0. -1.
        2   -1    0    0  501    0  0.00000000000E+00  0.00000000000E+00 -0.29235417796E+04  0.29235417796E+04  0.25500000920E-02 0.  1.
    10030    2    1    2    0    0  0.00000000000E+00  0.00000000000E+00 -0.22823104756E+04  0.35647730836E+04  0.27383692283E+04 0.  0.
        1    1    3    3  502    0  0.10883147127E+04  0.83020088507E+03 -0.11824053322E+04  0.18087965040E+04  0.50400001928E-02 0. -1.
       -1    1    3    3    0  502 -0.10883147127E+04 -0.83020088507E+03 -0.10999051434E+04  0.17559765795E+04  0.50400001928E-02 0.  1.
</event>
<event>
 5   0  0.1923559E-05  0.2818315E+04  0.7818609E-02  0.8297605E-01
       -2   -1    0    0    0  501  0.00000000000E+00  0.00000000000E+00  0.22167253814E+04  0.22167253814E+04  0.25500000920E-02 0.  1.
        2   -1    0    0  501    0  0.00000000000E+00  0.00000000000E+00 -0.89579170397E+03  0.89579170398E+03  0.25500000920E-02 0. -1.
    10030    2    1    2    0    0  0.00000000000E+00  0.00000000000E+00  0.13209336774E+04  0.31125170853E+04  0.28183145365E+04 0.  0.
        4    1    3    3  502    0 -0.93759275990E+03 -0.74178951605E+03 -0.16331502040E+03  0.12066504375E+04  0.12699999809E+01 0. -1.
       -4    1    3    3    0  502  0.93759275990E+03  0.74178951605E+03  0.14842486978E+04  0.19058666478E+04  0.12699999809E+01 0.  1.
</event>
<event>
 5   0  0.7555871E-06  0.2847814E+04  0.7818609E-02  0.8288576E-01
       -1   -1    0    0    0  501  0.00000000000E+00  0.00000000000E+00  0.10751843027E+04  0.10751843028E+04  0.50400001928E-02 0. -1.
        1   -1    0    0  501    0  0.00000000000E+00  0.00000000000E+00 -0.18857331497E+04  0.18857331498E+04  0.50400001928E-02 0.  1.
    10030    2    1    2    0    0  0.00000000000E+00  0.00000000000E+00 -0.81054884700E+03  0.29609174525E+04  0.28478136749E+04 0.  0.
        3    1    3    3  502    0 -0.28008154709E+03 -0.74088318070E+03  0.82500316850E+03  0.11436711934E+04  0.10100000352E+00 0. -1.
       -3    1    3    3    0  502  0.28008154709E+03  0.74088318070E+03 -0.16355520155E+04  0.18172462591E+04  0.10100000352E+00 0.  1.
</event>
<event>
 5   0  0.1874272E-05  0.2790968E+04  0.7818609E-02  0.8306078E-01
       -2   -1    0    0    0  501  0.00000000000E+00  0.00000000000E+00  0.10994402171E+04  0.10994402171E+04  0.25500000920E-02 0.  1.
        2   -1    0    0  501    0  0.00000000000E+00  0.00000000000E+00 -0.17712425734E+04  0.17712425734E+04  0.25500000920E-02 0. -1.
    10030    2    1    2    0    0  0.00000000000E+00  0.00000000000E+00 -0.67180235639E+03  0.28706827905E+04  0.27909678030E+04 0.  0.
        3    1    3    3  502    0 -0.12708747366E+04  0.56633546509E+03 -0.44628293762E+03  0.14611731334E+04  0.10100000352E+00 0. -1.
       -3    1    3    3    0  502  0.12708747366E+04 -0.56633546509E+03 -0.22551941876E+03  0.14095096571E+04  0.10100000352E+00 0.  1.
</event>
<event>
 5   0  0.7555871E-06  0.2767041E+04  0.7818609E-02  0.8313575E-01
        1   -1    0    0  501    0  0.00000000000E+00  0.00000000000E+00  0.16957126547E+04  0.16957126547E+04  0.50400001928E-02 0.  1.
       -1   -1    0    0    0  501  0.00000000000E+00  0.00000000000E+00 -0.11288046742E+04  0.11288046742E+04  0.50400001928E-02 0. -1.
    10030    2    1    2    0    0  0.00000000000E+00  0.00000000000E+00  0.56690798052E+03  0.28245173289E+04  0.27670405640E+04 0.  0.
        3    1    3    3  502    0 -0.32530575681E+03  0.53488646141E+03  0.15428569772E+04  0.16650330400E+04  0.10100000352E+00 0.  1.
       -3    1    3    3    0  502  0.32530575681E+03 -0.53488646141E+03 -0.97594899664E+03  0.11594842889E+04  0.10100000352E+00 0. -1.
</event>
<event>
 5   0  0.7681342E-06  0.2709179E+04  0.7818609E-02  0.8332033E-01
        1   -1    0    0  501    0  0.00000000000E+00  0.00000000000E+00  0.24280144732E+04  0.24280144732E+04  0.50400001928E-02 0.  1.
       -1   -1    0    0    0  501  0.00000000000E+00  0.00000000000E+00 -0.75572550075E+03  0.75572550077E+03  0.50400001928E-02 0. -1.
    10030    2    1    2    0    0  0.00000000000E+00  0.00000000000E+00  0.16722889724E+04  0.31837399739E+04  0.27091788081E+04 0.  0.
        2    1    3    3  502    0  0.36658445496E+03  0.12810324037E+04  0.11227608583E+04  0.17424178967E+04  0.25500000920E-02 0.  1.
       -2    1    3    3    0  502 -0.36658445496E+03 -0.12810324037E+04  0.54952811415E+03  0.14413220772E+04  0.25500000920E-02 0. -1.
</event>
<event>
 5   0  0.1832502E-05  0.2717838E+04  0.7818609E-02  0.8329240E-01
       -2   -1    0    0    0  501  0.00000000000E+00  0.00000000000E+00  0.96394240374E+03  0.96394240375E+03  0.25500000920E-02 0. -1.
        2   -1    0    0  501    0  0.00000000000E+00  0.00000000000E+00 -0.19157378183E+04  0.19157378183E+04  0.25500000920E-02 0.  1.
    10030    2    1    2    0    0  0.00000000000E+00  0.00000000000E+00 -0.95179541454E+03  0.28796802220E+04  0.27178380507E+04 0.  0.
        2    1    3    3  502    0  0.69887977754E+03 -0.52577759584E+03 -0.15779224515E+04  0.18040826718E+04  0.25500000920E-02 0.  1.
       -2    1    3    3    0  502 -0.69887977754E+03  0.52577759584E+03  0.62612703693E+03  0.10755975503E+04  0.25500000920E-02 0. -1.
</event>
<event>
 5   0  0.6288000E-06  0.2437261E+04  0.7818609E-02  0.8425684E-01
        3   -1    0    0  501    0  0.00000000000E+00  0.00000000000E+00  0.18468329164E+04  0.18468329191E+04  0.10100000352E+00 0. -1.
       -3   -1    0    0    0  501  0.00000000000E+00  0.00000000000E+00 -0.80411201848E+03  0.80411202482E+03  0.10100000352E+00 0.  1.
    10030    2    1    2    0    0  0.00000000000E+00  0.00000000000E+00  0.10427208979E+04  0.26509449439E+04  0.24372612139E+04 0.  0.
        1    1    3    3  502    0  0.28514422627E+03 -0.56747020194E+03  0.16526095524E+04  0.17704372320E+04  0.50400001928E-02 0. -1.
       -1    1    3    3    0  502 -0.28514422627E+03  0.56747020194E+03 -0.60988865449E+03  0.88050771193E+03  0.50400001928E-02 0.  1.
</event>
<event>
 5   0  0.7388013E-06  0.2638831E+04  0.7818609E-02  0.8355130E-01
       -1   -1    0    0    0  501  0.00000000000E+00  0.00000000000E+00  0.14919072478E+04  0.14919072478E+04  0.50400001928E-02 0. -1.
        1   -1    0    0  501    0  0.00000000000E+00  0.00000000000E+00 -0.11668669402E+04  0.11668669402E+04  0.50400001928E-02 0.  1.
    10030    2    1    2    0    0  0.00000000000E+00  0.00000000000E+00  0.32504030759E+03  0.26587741880E+04  0.26388309876E+04 0.  0.
        1    1    3    3  502    0  0.10075399488E+04 -0.82587647608E+03 -0.47981132737E+02  0.13036529029E+04  0.50400001928E-02 0.  1.
       -1    1    3    3    0  502 -0.10075399488E+04  0.82587647608E+03  0.37302144032E+03  0.13551212850E+04  0.50400001928E-02 0. -1.
</event>
<event>
 5   0  0.1923559E-05  0.2835867E+04  0.7818609E-02  0.8292219E-01
       -2   -1    0    0    0  501  0.00000000000E+00  0.00000000000E+00  0.93494824879E+03  0.93494824879E+03  0.25500000920E-02 0. -1.
        2   -1    0    0  501    0  0.00000000000E+00  0.00000000000E+00 -0.21504247192E+04  0.21504247192E+04  0.25500000920E-02 0.  1.
    10030    2    1    2    0    0  0.00000000000E+00  0.00000000000E+00 -0.12154764704E+04  0.30853729680E+04  0.28358672926E+04 0.  0.
        4    1    3    3  502    0 -0.69701332127E+03  0.76339224646E+03  0.44818692334E+03  0.11267068932E+04  0.12699999809E+01 0. -1.
       -4    1    3    3    0  502  0.69701332127E+03 -0.76339224646E+03 -0.16636633937E+04  0.19586660748E+04  0.12699999809E+01 0.  1.
</event>
<event>
 5   0  0.7388013E-06  0.2776548E+04  0.7818609E-02  0.8310586E-01
       -1   -1    0    0    0  501  0.00000000000E+00  0.00000000000E+00  0.84295075623E+03  0.84295075625E+03  0.50400001928E-02 0. -1.
        1   -1    0    0  501    0  0.00000000000E+00  0.00000000000E+00 -0.22863792697E+04  0.22863792697E+04  0.50400001928E-02 0.  1.
    10030    2    1    2    0    0  0.00000000000E+00  0.00000000000E+00 -0.14434285135E+04  0.31293300260E+04  0.27765483136E+04 0.  0.
        1    1    3    3  502    0  0.12755680989E+03 -0.12491050065E+04 -0.54203881024E+02  0.12567705112E+04  0.50400001928E-02 0. -1.
       -1    1    3    3    0  502 -0.12755680989E+03  0.12491050065E+04 -0.13892246325E+04  0.18725595148E+04  0.50400001928E-02 0.  1.
</event>
<event>
 5   0  0.1923559E-05  0.2631268E+04  0.7818609E-02  0.8357657E-01
       -2   -1    0    0    0  501  0.00000000000E+00  0.00000000000E+00  0.13603024914E+04  0.13603024914E+04  0.25500000920E-02 0.  1.
        2   -1    0    0  501    0  0.00000000000E+00  0.00000000000E+00 -0.12724319586E+04  0.12724319586E+04  0.25500000920E-02 0. -1.
    10030    2    1    2    0    0  0.00000000000E+00  0.00000000000E+00  0.87870532852E+02  0.26327344500E+04  0.26312676515E+04 0.  0.
        4    1    3    3  502    0  0.55949356114E+03 -0.84716202287E+03  0.88116585207E+03  0.13443107564E+04  0.12699999809E+01 0.  1.
       -4    1    3    3    0  502 -0.55949356114E+03  0.84716202287E+03 -0.79329531921E+03  0.12884236936E+04  0.12699999809E+01 0. -1.
</event>
<event>
 5   0  0.1814230E-05  0.2268504E+04  0.7818609E-02  0.8490444E-01
       -2   -1    0    0    0  501  0.00000000000E+00  0.00000000000E+00  0.66086518185E+03  0.66086518185E+03  0.25500000920E-02 0. -1.
        2   -1    0    0  501    0  0.00000000000E+00  0.00000000000E+00 -0.19467322431E+04  0.19467322431E+04  0.25500000920E-02 0.  1.
    10030    2    1    2    0    0  0.00000000000E+00  0.00000000000E+00 -0.12858670612E+04  0.26075974249E+04  0.22685039633E+04 0.  0.
        5    1    3    3  502    0 -0.83082714253E+02  0.24689233302E+03  0.62600313472E+03  0.67805646976E+03  0.46999998093E+01 0. -1.
       -5    1    3    3    0  502  0.83082714253E+02 -0.24689233302E+03 -0.19118701959E+04  0.19295409551E+04  0.46999998093E+01 0.  1.
</event>
<event>
 5   0  0.7509685E-06  0.2647549E+04  0.7818609E-02  0.8352227E-01
        1   -1    0    0  501    0  0.00000000000E+00  0.00000000000E+00  0.10349551358E+04  0.10349551358E+04  0.50400001928E-02 0. -1.
       -1   -1    0    0    0  501  0.00000000000E+00  0.00000000000E+00 -0.16931925018E+04  0.16931925018E+04  0.50400001928E-02 0.  1.
    10030    2    1    2    0    0  0.00000000000E+00  0.00000000000E+00 -0.65823736608E+03  0.27281476376E+04  0.26475485081E+04 0.  0.
        4    1    3    3  502    0 -0.14377711572E+03  0.25569005356E+03 -0.16592793790E+04  0.16850100691E+04  0.12699999809E+01 0.  1.
       -4    1    3    3    0  502  0.14377711572E+03 -0.25569005356E+03  0.10010420129E+04  0.10431375686E+04  0.12699999809E+01 0. -1.
</event>
<event>
 5   0  0.1814230E-05  0.2831571E+04  0.7818609E-02  0.8293533E-01
       -2   -1    0    0    0  501  0.00000000000E+00  0.00000000000E+00  0.10680024972E+04  0.10680024972E+04  0.25500000920E-02 0.  1.
        2   -1    0    0  501    0  0.00000000000E+00  0.00000000000E+00 -0.18768200829E+04  0.18768200829E+04  0.25500000920E-02 0. -1.
    10030    2    1    2    0    0  0.00000000000E+00  0.00000000000E+00 -0.80881758571E+03  0.29448225802E+04  0.28315709671E+04 0.  0.
        5    1    3    3  502    0  0.12722269628E+04  0.61293900259E+03 -0.29952489849E+03  0.14436041427E+04  0.46999998093E+01 0.  1.
       -5    1    3    3    0  502 -0.12722269628E+04 -0.61293900259E+03 -0.50929268722E+03  0.15012184375E+04  0.46999998093E+01 0. -1.
</event>
<event>
 5   0  0.7681342E-06  0.2823290E+04  0.7818609E-02  0.8296074E-01
        1   -1    0    0  501    0  0.00000000000E+00  0.00000000000E+00  0.13544557933E+04  0.13544557933E+04  0.50400001928E-02 0.  1.
       -1   -1    0    0    0  501  0.00000000000E+00  0.00000000000E+00 -0.14712491758E+04  0.14712491758E+04  0.50400001928E-02 0. -1.
    10030    2    1    2    0    0  0.00000000000E+00  0.00000000000E+00 -0.11679338254E+03  0.28257049691E+04  0.28232902576E+04 0.  0.
        2    1    3    3  502    0 -0.88747767212E+03 -0.56480666610E+03  0.88374724333E+03  0.13739113431E+04  0.25500000920E-02 0.  1.
       -2    1    3    3    0  502  0.88747767212E+03  0.56480666610E+03 -0.10005406259E+04  0.14517936260E+04  0.25500000920E-02 0. -1.
</event>
<event>
 5   0  0.1832502E-05  0.2657371E+04  0.7818609E-02  0.8348970E-01
        2   -1    0    0  501    0  0.00000000000E+00  0.00000000000E+00  0.10242067805E+04  0.10242067805E+04  0.25500000920E-02 0.  1.
       -2   -1    0    0    0  501  0.00000000000E+00  0.00000000000E+00 -0.17236809337E+04  0.17236809337E+04  0.25500000920E-02 0. -1.
    10030    2    1    2    0    0  0.00000000000E+00  0.00000000000E+00 -0.69947415323E+03  0.27478877142E+04  0.26573714077E+04 0.  0.
        2    1    3    3  502    0  0.61628467429E+03 -0.69482011847E+03 -0.13322725722E+04  0.16240480299E+04  0.25500000920E-02 0. -1.
       -2    1    3    3    0  502 -0.61628467429E+03  0.69482011847E+03  0.63279841898E+03  0.11238396842E+04  0.25500000920E-02 0.  1.
</event>
<event>
 5   0  0.7613444E-06  0.2697546E+04  0.7818609E-02  0.8335802E-01
        1   -1    0    0  501    0  0.00000000000E+00  0.00000000000E+00  0.14932241541E+04  0.14932241541E+04  0.50400001928E-02 0.  1.
       -1   -1    0    0    0  501  0.00000000000E+00  0.00000000000E+00 -0.12182954805E+04  0.12182954805E+04  0.50400001928E-02 0. -1.
    10030    2    1    2    0    0  0.00000000000E+00  0.00000000000E+00  0.27492867358E+03  0.27115196345E+04  0.26975457277E+04 0.  0.
        5    1    3    3  502    0  0.23801843568E+02 -0.14659190684E+03 -0.12100435662E+04  0.12191321655E+04  0.46999998093E+01 0. -1.
       -5    1    3    3    0  502 -0.23801843568E+02  0.14659190684E+03  0.14849722398E+04  0.14923874690E+04  0.46999998093E+01 0.  1.
</event>
</LesHouchesEvents>
