<LesHouchesEvents version="3.0">
<header>
<!--
#*********************************************************************
#                                                                    *
#                        MadGraph5_aMC@NLO                           *
#                                                                    *
#                           Going Beyond                             *
#                                                                    *
#                   http://madgraph.hep.uiuc.edu                     *
#                   http://madgraph.phys.ucl.ac.be                   *
#                   http://amcatnlo.cern.ch                          *
#                                                                    *
#                     The MadGraph5_aMC@NLO team                     *
#                                                                    *
#....................................................................*
#                                                                    *
# This file contains all the information necessary to reproduce      *
# the events generated:                                              *
#                                                                    *
# 1. software version                                                *
# 2. proc_card          : code generation info including model       *
# 3. param_card         : model primary parameters in the LH format  *
# 4. run_card           : running parameters (collider and cuts)     *
# 5. pythia_card        : present only if pythia has been run        *
# 6. pgs_card           : present only if pgs has been run           *
# 7. delphes_cards      : present only if delphes has been run       *
#                                                                    *
#                                                                    *
#*********************************************************************
-->
<MGVersion>
#5.2.2.3
</MGVersion>
<MG5ProcCard>
#************************************************************
#*                     MadGraph5_aMC@NLO                    *
#*                                                          *
#*                *                       *                 *
#*                  *        * *        *                   *
#*                    * * * * 5 * * * *                     *
#*                  *        * *        *                   *
#*                *                       *                 *
#*                                                          *
#*                                                          *
#*         VERSION 2.2.3                 2015-02-10         *
#*                                                          *
#*    The MadGraph5_aMC@NLO Development Team - Find us at   *
#*    https://server06.fynu.ucl.ac.be/projects/madgraph     *
#*                                                          *
#************************************************************
#*                                                          *
#*               Command File for MadGraph5_aMC@NLO         *
#*                                                          *
#*     run as ./bin/mg5_aMC  filename                       *
#*                                                          *
#************************************************************
set group_subprocesses Auto
set ignore_six_quark_processes False
set loop_optimized_output True
set gauge unitary
set complex_mass_scheme False
import model sm
define p = g u c d s u~ c~ d~ s~
define j = g u c d s u~ c~ d~ s~
define l+ = e+ mu+
define l- = e- mu-
define vl = ve vm vt
define vl~ = ve~ vm~ vt~
import model Zprime_UFO
generate p p > zph, zph > j j
add process p p > zph, zph > b b~
output Dijet_signal
</MG5ProcCard>
<MGProcCard>
#*********************************************************************
#                        MadGraph/MadEvent                           *
#                   http://madgraph.hep.uiuc.edu                     *
#                                                                    *
#                          proc_card.dat                             *
#*********************************************************************
#                                                                    *
#            This Files is generated by MADGRAPH 5                   *
#                                                                    *
# WARNING: This Files is generated for MADEVENT (compatibility issue)*
#          This files is NOT a valid MG4 proc_card.dat               *
#          Running this in MG4 will NEVER reproduce the result of MG5*
#                                                                    *
#*********************************************************************
#*********************************************************************
# Process(es) requested : mg2 input                                  *
#*********************************************************************
# Begin PROCESS # This is TAG. Do not modify this line
p p > zph , zph > j j           #Process
# Be carefull the coupling are here in MG5 convention
          
end_coup           # End the couplings input

done               # this tells MG there are no more procs
# End PROCESS  # This is TAG. Do not modify this line
#*********************************************************************
# Model information                                                  *
#*********************************************************************
# Begin MODEL  # This is TAG. Do not modify this line
Zprime_UFO
# End   MODEL  # This is TAG. Do not modify this line
#*********************************************************************
# Start multiparticle definitions                                    *
#*********************************************************************
# Begin MULTIPARTICLES # This is TAG. Do not modify this line

# End  MULTIPARTICLES # This is TAG. Do not modify this line
</MGProcCard>
<MGRunCard>
#*********************************************************************
#                       MadGraph5_aMC@NLO                            *
#                                                                    *
#                     run_card.dat MadEvent                          *
#                                                                    *
#  This file is used to set the parameters of the run.               *
#                                                                    *
#  Some notation/conventions:                                        *
#                                                                    *
#   Lines starting with a '# ' are info or comments                  *
#                                                                    *
#   mind the format:   value    = variable     ! comment             *
#*********************************************************************
#
#*******************                                                 
# Running parameters
#*******************                                                 
#                                                                    
#*********************************************************************
# Tag name for the run (one word)                                    *
#*********************************************************************
  tag_1     = run_tag ! name of the run 
#*********************************************************************
# Run to generate the grid pack                                      *
#*********************************************************************
  .false.     = gridpack  !True = setting up the grid pack
#*********************************************************************
# Number of events and rnd seed                                      *
# Warning: Do not generate more than 1M events in a single run       *
# If you want to run Pythia, avoid more than 50k events in a run.    *
#*********************************************************************
  2000 = nevents ! Number of unweighted events requested 
 1956 = iseed   ! rnd seed (0=assigned automatically=default))
#*********************************************************************
# Collider type and energy                                           *
# lpp: 0=No PDF, 1=proton, -1=antiproton, 2=photon from proton,      *
#                                         3=photon from electron     *
#*********************************************************************
        1     = lpp1    ! beam 1 type 
        1     = lpp2    ! beam 2 type
     4000     = ebeam1  ! beam 1 total energy in GeV
     4000     = ebeam2  ! beam 2 total energy in GeV
#*********************************************************************
# Beam polarization from -100 (left-handed) to 100 (right-handed)    *
#*********************************************************************
        0     = polbeam1 ! beam polarization for beam 1
        0     = polbeam2 ! beam polarization for beam 2
#*********************************************************************
# PDF CHOICE: this automatically fixes also alpha_s and its evol.    *
#*********************************************************************
 'nn23lo1'    = pdlabel     ! PDF set                                     
 230000    = lhaid     ! if pdlabel=lhapdf, this is the lhapdf number
#*********************************************************************
# Renormalization and factorization scales                           *
#*********************************************************************
 F        = fixed_ren_scale  ! if .true. use fixed ren scale
 F        = fixed_fac_scale  ! if .true. use fixed fac scale
 91.1880  = scale            ! fixed ren scale
 91.1880  = dsqrt_q2fact1    ! fixed fact scale for pdf1
 91.1880  = dsqrt_q2fact2    ! fixed fact scale for pdf2
 1        = scalefact        ! scale factor for event-by-event scales
#*********************************************************************
# Matching - Warning! ickkw > 1 is still beta
#*********************************************************************
 0        = ickkw            ! 0 no matching, 1 MLM, 2 CKKW matching
 1        = highestmult      ! for ickkw=2, highest mult group
 1        = ktscheme         ! for ickkw=1, 1 Durham kT, 2 Pythia pTE
 1        = alpsfact         ! scale factor for QCD emission vx
 F        = chcluster        ! cluster only according to channel diag
 T        = pdfwgt           ! for ickkw=1, perform pdf reweighting
 5        = asrwgtflavor     ! highest quark flavor for a_s reweight
 T        = clusinfo         ! include clustering tag in output
 3.0      = lhe_version       ! Change the way clustering information pass to shower.        
#*********************************************************************
#**********************************************************
#
#**********************************************************
# Automatic ptj and mjj cuts if xqcut > 0
# (turn off for VBF and single top processes)
#**********************************************************
   T  = auto_ptj_mjj  ! Automatic setting of ptj and mjj
#**********************************************************
#                                                                    
#**********************************
# BW cutoff (M+/-bwcutoff*Gamma)
#**********************************
  15  = bwcutoff      ! (M+/-bwcutoff*Gamma)
#**********************************************************
# Apply pt/E/eta/dr/mij cuts on decay products or not
# (note that etmiss/ptll/ptheavy/ht/sorted cuts always apply)
#**********************************************************
   T  = cut_decays    ! Cut decay products 
#*************************************************************
# Number of helicities to sum per event (0 = all helicities)
# 0 gives more stable result, but longer run time (needed for
# long decay chains e.g.).
# Use >=2 if most helicities contribute, e.g. pure QCD.
#*************************************************************
   0  = nhel          ! Number of helicities used per event
#*******************                                                 
# Standard Cuts
#*******************                                                 
#                                                                    
#*********************************************************************
# Minimum and maximum pt's (for max, -1 means no cut)                *
#*********************************************************************
 20  = ptj       ! minimum pt for the jets 
  0  = ptb       ! minimum pt for the b 
 10  = pta       ! minimum pt for the photons 
 10  = ptl       ! minimum pt for the charged leptons 
  0  = misset    ! minimum missing Et (sum of neutrino's momenta)
  0  = ptheavy   ! minimum pt for one heavy final state
 1.0 = ptonium   ! minimum pt for the quarkonium states
 -1  = ptjmax    ! maximum pt for the jets
 -1  = ptbmax    ! maximum pt for the b
 -1  = ptamax    ! maximum pt for the photons
 -1  = ptlmax    ! maximum pt for the charged leptons
 -1  = missetmax ! maximum missing Et (sum of neutrino's momenta)
#*********************************************************************
# Minimum and maximum E's (in the center of mass frame)              *
#*********************************************************************
  0  = ej     ! minimum E for the jets 
  0  = eb     ! minimum E for the b 
  0  = ea     ! minimum E for the photons 
  0  = el     ! minimum E for the charged leptons 
 -1   = ejmax ! maximum E for the jets
 -1   = ebmax ! maximum E for the b
 -1   = eamax ! maximum E for the photons
 -1   = elmax ! maximum E for the charged leptons
#*********************************************************************
# Maximum and minimum absolute rapidity (for max, -1 means no cut)   *
#*********************************************************************
   5  = etaj    ! max rap for the jets 
  -1  = etab    ! max rap for the b
 2.5  = etaa    ! max rap for the photons 
 2.5  = etal    ! max rap for the charged leptons 
 0.6  = etaonium ! max rap for the quarkonium states
   0  = etajmin ! min rap for the jets
   0  = etabmin ! min rap for the b
   0  = etaamin ! min rap for the photons
   0  = etalmin ! main rap for the charged leptons
#*********************************************************************
# Minimum and maximum DeltaR distance                                *
#*********************************************************************
 0.4 = drjj    ! min distance between jets 
 0   = drbb    ! min distance between b's 
 0.4 = drll    ! min distance between leptons 
 0.4 = draa    ! min distance between gammas 
 0   = drbj    ! min distance between b and jet 
 0.4 = draj    ! min distance between gamma and jet 
 0.4 = drjl    ! min distance between jet and lepton 
 0   = drab    ! min distance between gamma and b 
 0   = drbl    ! min distance between b and lepton 
 0.4 = dral    ! min distance between gamma and lepton 
 -1  = drjjmax ! max distance between jets
 -1  = drbbmax ! max distance between b's
 -1  = drllmax ! max distance between leptons
 -1  = draamax ! max distance between gammas
 -1  = drbjmax ! max distance between b and jet
 -1  = drajmax ! max distance between gamma and jet
 -1  = drjlmax ! max distance between jet and lepton
 -1  = drabmax ! max distance between gamma and b
 -1  = drblmax ! max distance between b and lepton
 -1  = dralmax ! maxdistance between gamma and lepton
#*********************************************************************
# Minimum and maximum invariant mass for pairs                       *
# WARNING: for four lepton final state mmll cut require to have      *
#          different lepton masses for each flavor!                  *           
#*********************************************************************
 0   = mmjj    ! min invariant mass of a jet pair 
 0   = mmbb    ! min invariant mass of a b pair 
 0   = mmaa    ! min invariant mass of gamma gamma pair
 0   = mmll    ! min invariant mass of l+l- (same flavour) lepton pair
 -1  = mmjjmax ! max invariant mass of a jet pair
 -1  = mmbbmax ! max invariant mass of a b pair
 -1  = mmaamax ! max invariant mass of gamma gamma pair
 -1  = mmllmax ! max invariant mass of l+l- (same flavour) lepton pair
#*********************************************************************
# Minimum and maximum invariant mass for all letpons                 *
#*********************************************************************
 0   = mmnl    ! min invariant mass for all letpons (l+- and vl) 
 -1  = mmnlmax ! max invariant mass for all letpons (l+- and vl) 
#*********************************************************************
# Minimum and maximum pt for 4-momenta sum of leptons                *
#*********************************************************************
 0   = ptllmin  ! Minimum pt for 4-momenta sum of leptons(l and vl)
 -1  = ptllmax  ! Maximum pt for 4-momenta sum of leptons(l and vl)
#*********************************************************************
# Inclusive cuts                                                     *
#*********************************************************************
 0  = xptj ! minimum pt for at least one jet  
 0  = xptb ! minimum pt for at least one b 
 0  = xpta ! minimum pt for at least one photon 
 0  = xptl ! minimum pt for at least one charged lepton 
#*********************************************************************
# Control the pt's of the jets sorted by pt                          *
#*********************************************************************
 0   = ptj1min ! minimum pt for the leading jet in pt
 0   = ptj2min ! minimum pt for the second jet in pt
 0   = ptj3min ! minimum pt for the third jet in pt
 0   = ptj4min ! minimum pt for the fourth jet in pt
 -1  = ptj1max ! maximum pt for the leading jet in pt 
 -1  = ptj2max ! maximum pt for the second jet in pt
 -1  = ptj3max ! maximum pt for the third jet in pt
 -1  = ptj4max ! maximum pt for the fourth jet in pt
 0   = cutuse  ! reject event if fails any (0) / all (1) jet pt cuts
#*********************************************************************
# Control the pt's of leptons sorted by pt                           *
#*********************************************************************
 0   = ptl1min ! minimum pt for the leading lepton in pt
 0   = ptl2min ! minimum pt for the second lepton in pt
 0   = ptl3min ! minimum pt for the third lepton in pt
 0   = ptl4min ! minimum pt for the fourth lepton in pt
 -1  = ptl1max ! maximum pt for the leading lepton in pt 
 -1  = ptl2max ! maximum pt for the second lepton in pt
 -1  = ptl3max ! maximum pt for the third lepton in pt
 -1  = ptl4max ! maximum pt for the fourth lepton in pt
#*********************************************************************
# Control the Ht(k)=Sum of k leading jets                            *
#*********************************************************************
 0   = htjmin ! minimum jet HT=Sum(jet pt)
 -1  = htjmax ! maximum jet HT=Sum(jet pt)
 0   = ihtmin  !inclusive Ht for all partons (including b)
 -1  = ihtmax  !inclusive Ht for all partons (including b)
 0   = ht2min ! minimum Ht for the two leading jets
 0   = ht3min ! minimum Ht for the three leading jets
 0   = ht4min ! minimum Ht for the four leading jets
 -1  = ht2max ! maximum Ht for the two leading jets
 -1  = ht3max ! maximum Ht for the three leading jets
 -1  = ht4max ! maximum Ht for the four leading jets
#***********************************************************************
# Photon-isolation cuts, according to hep-ph/9801442                   *
# When ptgmin=0, all the other parameters are ignored                  *
# When ptgmin>0, pta and draj are not going to be used                 *
#***********************************************************************
   0 = ptgmin ! Min photon transverse momentum
 0.4 = R0gamma ! Radius of isolation code
 1.0 = xn ! n parameter of eq.(3.4) in hep-ph/9801442
 1.0 = epsgamma ! epsilon_gamma parameter of eq.(3.4) in hep-ph/9801442
 .true. = isoEM ! isolate photons from EM energy (photons and leptons)
#*********************************************************************
# WBF cuts                                                           *
#*********************************************************************
 0   = xetamin ! minimum rapidity for two jets in the WBF case  
 0   = deltaeta ! minimum rapidity for two jets in the WBF case 
#*********************************************************************
# KT DURHAM CUT                                                      *
#*********************************************************************
 -1    =  ktdurham        
 0.4  =  dparameter 
#*********************************************************************
# maximal pdg code for quark to be considered as a light jet         *
# (otherwise b cuts are applied)                                     *
#*********************************************************************
 4 = maxjetflavor    ! Maximum jet pdg code
#*********************************************************************
# Jet measure cuts                                                   *
#*********************************************************************
 0   = xqcut   ! minimum kt jet measure between partons
#*********************************************************************
#
#*********************************************************************
# Store info for systematics studies                                 *
# WARNING: If use_syst is T, matched Pythia output is                *
#          meaningful ONLY if plotted taking matchscale              *
#          reweighting into account!                                 *
#*********************************************************************
   F  = use_syst      ! Enable systematics studies
#
#**************************************
# Parameter of the systematics study
#  will be used by SysCalc (if installed)
#**************************************                                  
#
0.5 1 2 = sys_scalefact  # factorization/renormalization scale factor
0.5 1 2 = sys_alpsfact  # \alpha_s emission scale factors
30 50 = sys_matchscale # variation of merging scale
# PDF sets and number of members (0 or none for all members).
CT10nlo.LHgrid = sys_pdf # matching scales
# MSTW2008nlo68cl.LHgrid 1  = sys_pdf
</MGRunCard>
<slha>
######################################################################
## PARAM_CARD AUTOMATICALY GENERATED BY MG5 FOLLOWING UFO MODEL   ####
######################################################################
##                                                                  ##
##  Width set on Auto will be computed following the information    ##
##        present in the decay.py files of the model.               ##
##        See  arXiv:1402.1178 for more details.                    ##
##                                                                  ##
######################################################################

###################################
## INFORMATION FOR CKMBLOCK
###################################
Block ckmblock 
    1 2.277360e-01 # cabi 

###################################
## INFORMATION FOR FRBLOCK
###################################
Block frblock 
    1 1.000000e+00 # gz 

###################################
## INFORMATION FOR MASS
###################################
Block mass 
    1 5.040000e-03 # MD 
    2 2.550000e-03 # MU 
    3 1.010000e-01 # MS 
    4 1.270000e+00 # MC 
    5 4.700000e+00 # MB 
    6 1.720000e+02 # MT 
   11 5.110000e-04 # Me 
   13 1.056600e-01 # MM 
   15 1.777000e+00 # MTA 
   23 9.118760e+01 # MZ 
   25 1.200000e+02 # MH 
  10030 2.300000e+03 # MZph 
  10031 3.000000e+02 # MZpl 
## Dependent parameters, given by model restrictions.
## Those values should be edited following the 
## analytical expression. MG5 ignores those values 
## but they are important for interfacing the output of MG5
## to external program such as Pythia.
  12 0.000000 # ve : 0.0 
  14 0.000000 # vm : 0.0 
  16 0.000000 # vt : 0.0 
  21 0.000000 # g : 0.0 
  22 0.000000 # a : 0.0 
  24 79.824360 # w+ : cmath.sqrt(MZ__exp__2/2. + cmath.sqrt(MZ__exp__4/4. - (aEW*cmath.pi*MZ__exp__2)/(Gf*sqrt__2))) 

###################################
## INFORMATION FOR SMINPUTS
###################################
Block sminputs 
    1 1.279000e+02 # aEWM1 
    2 1.166370e-05 # Gf 
    3 1.184000e-01 # aS 

###################################
## INFORMATION FOR YUKAWA
###################################
Block yukawa 
    1 5.040000e-03 # ymdo 
    2 2.550000e-03 # ymup 
    3 1.010000e-01 # yms 
    4 1.270000e+00 # ymc 
    5 4.700000e+00 # ymb 
    6 1.720000e+02 # ymt 
   11 5.110000e-04 # yme 
   13 1.056600e-01 # ymm 
   15 1.777000e+00 # ymtau 

###################################
## INFORMATION FOR DECAY
###################################
DECAY   6 1.508336e+00 # WT 
DECAY  23 2.495200e+00 # WZ 
DECAY  24 2.085000e+00 # WW 
DECAY  25 5.753088e-03 # WH 
## Dependent parameters, given by model restrictions.
## Those values should be edited following the 
## analytical expression. MG5 ignores those values 
## but they are important for interfacing the output of MG5
## to external program such as Pythia.
DECAY  1 0.000000 # d : 0.0 
DECAY  2 0.000000 # u : 0.0 
DECAY  3 0.000000 # s : 0.0 
DECAY  4 0.000000 # c : 0.0 
DECAY  5 0.000000 # b : 0.0 
DECAY  11 0.000000 # e- : 0.0 
DECAY  12 0.000000 # ve : 0.0 
DECAY  13 0.000000 # mu- : 0.0 
DECAY  14 0.000000 # vm : 0.0 
DECAY  15 0.000000 # ta- : 0.0 
DECAY  16 0.000000 # vt : 0.0 
DECAY  21 0.000000 # g : 0.0 
DECAY  22 0.000000 # a : 0.0 
DECAY  10030 0.308725 # zph : (gz__exp__2*MZph*(5 + cmath.sqrt(1 - (4*MT__exp__2)/MZph__exp__2)))/(144.*cmath.pi) 
DECAY  10031 0.132629 # zpl : (5*gz__exp__2*MZpl)/(144.*cmath.pi) 
#===========================================================
# QUANTUM NUMBERS OF NEW STATE(S) (NON SM PDG CODE)
#===========================================================

Block QNUMBERS 10030  # zph 
        1 0  # 3 times electric charge
        2 3  # number of spin states (2S+1)
        3 1  # colour rep (1: singlet, 3: triplet, 8: octet)
        4 0  # Particle/Antiparticle distinction (0=own anti)
Block QNUMBERS 10031  # zpl 
        1 0  # 3 times electric charge
        2 3  # number of spin states (2S+1)
        3 1  # colour rep (1: singlet, 3: triplet, 8: octet)
        4 0  # Particle/Antiparticle distinction (0=own anti)
</slha>
## END BANNER##
<MGGenerationInfo>
#  Number of Events        :         3935
#  Integrated weight (pb)  :  0.12836E-01
#  Max wgt                 :  0.47986E-05
#  Average wgt             :  0.32620E-05
</MGGenerationInfo>
</header>
<init>
     2212     2212  0.40000000000E+04  0.40000000000E+04 0 0  247000  247000 2   1
  0.12840803227E-01  0.26027735927E-04  0.47986090000E-05   0
</init>
<event>
 5   0  0.4605516E-05  0.2296744E+04  0.7818609E-02  0.8479206E-01
       -2   -1    0    0    0  501  0.00000000000E+00  0.00000000000E+00  0.91381870299E+03  0.91381870299E+03  0.25500000920E-02 0.  1.
        2   -1    0    0  501    0  0.00000000000E+00  0.00000000000E+00 -0.14431288766E+04  0.14431288766E+04  0.25500000920E-02 0. -1.
    10030    2    1    2    0    0  0.00000000000E+00  0.00000000000E+00 -0.52931017365E+03  0.23569475796E+04  0.22967439198E+04 0.  0.
        1    1    3    3  502    0 -0.35732283177E+03 -0.17259742109E+03  0.84122349016E+03  0.93012173197E+03  0.50400001928E-02 0.  1.
       -1    1    3    3    0  502  0.35732283177E+03  0.17259742109E+03 -0.13705336638E+04  0.14268258477E+04  0.50400001928E-02 0. -1.
</event>
<event>
 5   0  0.4605516E-05  0.2287879E+04  0.7818609E-02  0.8482716E-01
        2   -1    0    0  501    0  0.00000000000E+00  0.00000000000E+00  0.83923897788E+03  0.83923897789E+03  0.25500000920E-02 0. -1.
       -2   -1    0    0    0  501  0.00000000000E+00  0.00000000000E+00 -0.15592670899E+04  0.15592670899E+04  0.25500000920E-02 0.  1.
    10030    2    1    2    0    0  0.00000000000E+00  0.00000000000E+00 -0.72002811200E+03  0.23985060678E+04  0.22878791216E+04 0.  0.
        1    1    3    3  502    0  0.76894250130E+03  0.62578346589E+03 -0.95832933617E+03  0.13788664305E+04  0.50400001928E-02 0. -1.
       -1    1    3    3    0  502 -0.76894250130E+03 -0.62578346589E+03  0.23830122417E+03  0.10196396373E+04  0.50400001928E-02 0.  1.
</event>
<event>
 5   0  0.4602447E-05  0.2320001E+04  0.7818609E-02  0.8470077E-01
       -2   -1    0    0    0  501  0.00000000000E+00  0.00000000000E+00  0.77204435737E+03  0.77204435737E+03  0.25500000920E-02 0. -1.
        2   -1    0    0  501    0  0.00000000000E+00  0.00000000000E+00 -0.17429060789E+04  0.17429060789E+04  0.25500000920E-02 0.  1.
    10030    2    1    2    0    0  0.00000000000E+00  0.00000000000E+00 -0.97086172155E+03  0.25149504363E+04  0.23200006928E+04 0.  0.
        3    1    3    3  502    0  0.14365407411E+03 -0.42711173476E+03 -0.16441468433E+04  0.17047814463E+04  0.10100000352E+00 0.  1.
       -3    1    3    3    0  502 -0.14365407411E+03  0.42711173476E+03  0.67328512177E+03  0.81016899001E+03  0.10100000352E+00 0. -1.
</event>
<event>
 5   0  0.4605516E-05  0.2322106E+04  0.7818609E-02  0.8469256E-01
        2   -1    0    0  501    0  0.00000000000E+00  0.00000000000E+00  0.21157210325E+04  0.21157210325E+04  0.25500000920E-02 0. -1.
       -2   -1    0    0    0  501  0.00000000000E+00  0.00000000000E+00 -0.63715588140E+03  0.63715588141E+03  0.25500000920E-02 0.  1.
    10030    2    1    2    0    0  0.00000000000E+00  0.00000000000E+00  0.14785651511E+04  0.27528769140E+04  0.23221060263E+04 0.  0.
        1    1    3    3  502    0  0.85026249279E+02  0.49022113071E+03 -0.50437080059E+03  0.70847450524E+03  0.50400001928E-02 0.  1.
       -1    1    3    3    0  502 -0.85026249279E+02 -0.49022113071E+03  0.19829359517E+04  0.20444024087E+04  0.50400001928E-02 0. -1.
</event>
<event>
 5   0  0.4602447E-05  0.2200783E+04  0.7818609E-02  0.8518102E-01
       -2   -1    0    0    0  501  0.00000000000E+00  0.00000000000E+00  0.62506983229E+03  0.62506983229E+03  0.25500000920E-02 0. -1.
        2   -1    0    0  501    0  0.00000000000E+00  0.00000000000E+00 -0.19371625351E+04  0.19371625351E+04  0.25500000920E-02 0.  1.
    10030    2    1    2    0    0  0.00000000000E+00  0.00000000000E+00 -0.13120927028E+04  0.25622323674E+04  0.22007833705E+04 0.  0.
        3    1    3    3  502    0  0.49098034268E+03 -0.95218384697E+03 -0.94860598213E+03  0.14309329456E+04  0.10100000352E+00 0.  1.
       -3    1    3    3    0  502 -0.49098034268E+03  0.95218384697E+03 -0.36348672064E+03  0.11312994217E+04  0.10100000352E+00 0. -1.
</event>
<event>
 5   0  0.2085063E-05  0.2313782E+04  0.7818609E-02  0.8472507E-01
       -1   -1    0    0    0  501  0.00000000000E+00  0.00000000000E+00  0.92874741098E+03  0.92874741099E+03  0.50400001928E-02 0. -1.
        1   -1    0    0  501    0  0.00000000000E+00  0.00000000000E+00 -0.14410775809E+04  0.14410775809E+04  0.50400001928E-02 0.  1.
    10030    2    1    2    0    0  0.00000000000E+00  0.00000000000E+00 -0.51233016995E+03  0.23698249919E+04  0.23137822476E+04 0.  0.
        1    1    3    3  502    0  0.13199926944E+03  0.11031312246E+04  0.74255056813E+02  0.11134792855E+04  0.50400001928E-02 0.  1.
       -1    1    3    3    0  502 -0.13199926944E+03 -0.11031312246E+04 -0.58658522676E+03  0.12563457064E+04  0.50400001928E-02 0. -1.
</event>
<event>
 5   0  0.1968318E-05  0.2328975E+04  0.7818609E-02  0.8466584E-01
        1   -1    0    0  501    0  0.00000000000E+00  0.00000000000E+00  0.19146901553E+04  0.19146901553E+04  0.50400001928E-02 0.  1.
       -1   -1    0    0    0  501  0.00000000000E+00  0.00000000000E+00 -0.70822458273E+03  0.70822458275E+03  0.50400001928E-02 0. -1.
    10030    2    1    2    0    0  0.00000000000E+00  0.00000000000E+00  0.12064655726E+04  0.26229147381E+04  0.23289745695E+04 0.  0.
        3    1    3    3  502    0 -0.40747436860E+03  0.71892485581E+03  0.15272347061E+04  0.17364717582E+04  0.10100000352E+00 0.  1.
       -3    1    3    3    0  502  0.40747436860E+03 -0.71892485581E+03 -0.32076913350E+03  0.88644297988E+03  0.10100000352E+00 0. -1.
</event>
<event>
 5   0  0.4605516E-05  0.2297151E+04  0.7818609E-02  0.8479045E-01
        2   -1    0    0  501    0  0.00000000000E+00  0.00000000000E+00  0.84550265010E+03  0.84550265011E+03  0.25500000920E-02 0. -1.
       -2   -1    0    0    0  501  0.00000000000E+00  0.00000000000E+00 -0.15602852597E+04  0.15602852597E+04  0.25500000920E-02 0.  1.
    10030    2    1    2    0    0  0.00000000000E+00  0.00000000000E+00 -0.71478260963E+03  0.24057879098E+04  0.22971506890E+04 0.  0.
        1    1    3    3  502    0 -0.15157518208E+03 -0.55954123853E+03  0.68104726949E+03  0.89436391740E+03  0.50400001928E-02 0. -1.
       -1    1    3    3    0  502  0.15157518208E+03  0.55954123853E+03 -0.13958298791E+04  0.15114239924E+04  0.50400001928E-02 0.  1.
</event>
<event>
 5   0  0.2042951E-05  0.2240296E+04  0.7818609E-02  0.8501841E-01
        1   -1    0    0  501    0  0.00000000000E+00  0.00000000000E+00  0.20843373974E+04  0.20843373974E+04  0.50400001928E-02 0. -1.
       -1   -1    0    0    0  501  0.00000000000E+00  0.00000000000E+00 -0.60198086288E+03  0.60198086290E+03  0.50400001928E-02 0.  1.
    10030    2    1    2    0    0  0.00000000000E+00  0.00000000000E+00  0.14823565346E+04  0.26863182604E+04  0.22402957172E+04 0.  0.
        2    1    3    3  502    0 -0.10975699990E+04  0.34878548229E+02  0.10062148216E+04  0.14894108510E+04  0.25500000920E-02 0.  1.
       -2    1    3    3    0  502  0.10975699990E+04 -0.34878548229E+02  0.47614171296E+03  0.11969074094E+04  0.25500000920E-02 0. -1.
</event>
<event>
 5   0  0.4605516E-05  0.2293951E+04  0.7818609E-02  0.8480310E-01
       -2   -1    0    0    0  501  0.00000000000E+00  0.00000000000E+00  0.59134511921E+03  0.59134511922E+03  0.25500000920E-02 0.  1.
        2   -1    0    0  501    0  0.00000000000E+00  0.00000000000E+00 -0.22246790930E+04  0.22246790930E+04  0.25500000920E-02 0. -1.
    10030    2    1    2    0    0  0.00000000000E+00  0.00000000000E+00 -0.16333339738E+04  0.28160242122E+04  0.22939512841E+04 0.  0.
        1    1    3    3  502    0  0.96708257689E+03 -0.36803304818E+03 -0.14241129462E+04  0.17603393760E+04  0.50400001928E-02 0. -1.
       -1    1    3    3    0  502 -0.96708257689E+03  0.36803304818E+03 -0.20922102760E+03  0.10556848363E+04  0.50400001928E-02 0.  1.
</event>
<event>
 5   0  0.1604500E-05  0.2304467E+04  0.7818609E-02  0.8476162E-01
       -4   -1    0    0    0  501  0.00000000000E+00  0.00000000000E+00  0.10643943964E+04  0.10643951540E+04  0.12699999809E+01 0.  1.
        4   -1    0    0  501    0  0.00000000000E+00  0.00000000000E+00 -0.12473204270E+04  0.12473210736E+04  0.12699999809E+01 0. -1.
    10030    2    1    2    0    0  0.00000000000E+00  0.00000000000E+00 -0.18292603065E+03  0.23117162276E+04  0.23044673971E+04 0.  0.
        1    1    3    3  502    0 -0.33218749518E+03 -0.10626717577E+04  0.20615642446E+03  0.11323074971E+04  0.50400001928E-02 0. -1.
       -1    1    3    3    0  502  0.33218749518E+03  0.10626717577E+04 -0.38908245512E+03  0.11794087305E+04  0.50400001928E-02 0.  1.
</event>
<event>
 5   0  0.4436695E-05  0.2312585E+04  0.7818609E-02  0.8472976E-01
        2   -1    0    0  501    0  0.00000000000E+00  0.00000000000E+00  0.10562563177E+04  0.10562563177E+04  0.25500000920E-02 0.  1.
       -2   -1    0    0    0  501  0.00000000000E+00  0.00000000000E+00 -0.12658027956E+04  0.12658027956E+04  0.25500000920E-02 0. -1.
    10030    2    1    2    0    0  0.00000000000E+00  0.00000000000E+00 -0.20954647794E+03  0.23220591133E+04  0.23125848739E+04 0.  0.
        5    1    3    3  502    0  0.94160247033E+03  0.66499087225E+03 -0.14059120821E+02  0.11528433637E+04  0.46999998093E+01 0. -1.
       -5    1    3    3    0  502 -0.94160247033E+03 -0.66499087225E+03 -0.19548735712E+03  0.11692157496E+04  0.46999998093E+01 0.  1.
</event>
<event>
 5   0  0.2043885E-05  0.2262420E+04  0.7818609E-02  0.8492888E-01
        1   -1    0    0  501    0  0.00000000000E+00  0.00000000000E+00  0.47109432761E+03  0.47109432764E+03  0.50400001928E-02 0. -1.
       -1   -1    0    0    0  501  0.00000000000E+00  0.00000000000E+00 -0.27163049534E+04  0.27163049534E+04  0.50400001928E-02 0.  1.
    10030    2    1    2    0    0  0.00000000000E+00  0.00000000000E+00 -0.22452106258E+04  0.31873992811E+04  0.22624198157E+04 0.  0.
        5    1    3    3  502    0 -0.13178134050E+03  0.58570577151E+03  0.22812107050E+03  0.64224519094E+03  0.46999998093E+01 0. -1.
       -5    1    3    3    0  502  0.13178134050E+03 -0.58570577151E+03 -0.24733316963E+04  0.25451540901E+04  0.46999998093E+01 0.  1.
</event>
<event>
 5   0  0.2085063E-05  0.2315757E+04  0.7818609E-02  0.8471734E-01
       -1   -1    0    0    0  501  0.00000000000E+00  0.00000000000E+00  0.28441769829E+04  0.28441769830E+04  0.50400001928E-02 0. -1.
        1   -1    0    0  501    0  0.00000000000E+00  0.00000000000E+00 -0.47137811879E+03  0.47137811881E+03  0.50400001928E-02 0.  1.
    10030    2    1    2    0    0  0.00000000000E+00  0.00000000000E+00  0.23727988642E+04  0.33155551018E+04  0.23157571511E+04 0.  0.
        1    1    3    3  502    0  0.20066224735E+02 -0.50457289738E+03 -0.30541712053E+03  0.59014920120E+03  0.50400001928E-02 0.  1.
       -1    1    3    3    0  502 -0.20066224735E+02  0.50457289738E+03  0.26782159847E+04  0.27254059006E+04  0.50400001928E-02 0. -1.
</event>
<event>
 5   0  0.1968318E-05  0.2301654E+04  0.7818609E-02  0.8477269E-01
       -1   -1    0    0    0  501  0.00000000000E+00  0.00000000000E+00  0.71386916944E+03  0.71386916946E+03  0.50400001928E-02 0. -1.
        1   -1    0    0  501    0  0.00000000000E+00  0.00000000000E+00 -0.18552456743E+04  0.18552456743E+04  0.50400001928E-02 0.  1.
    10030    2    1    2    0    0  0.00000000000E+00  0.00000000000E+00 -0.11413765048E+04  0.25691148437E+04  0.23016539172E+04 0.  0.
        3    1    3    3  502    0  0.20182525663E+03 -0.73055165773E+03 -0.15373255874E+04  0.17140038304E+04  0.10100000352E+00 0.  1.
       -3    1    3    3    0  502 -0.20182525663E+03  0.73055165773E+03  0.39594908260E+03  0.85511101328E+03  0.10100000352E+00 0. -1.
</event>
<event>
 5   0  0.1968318E-05  0.2290137E+04  0.7818609E-02  0.8481820E-01
       -1   -1    0    0    0  501  0.00000000000E+00  0.00000000000E+00  0.84517491780E+03  0.84517491781E+03  0.50400001928E-02 0. -1.
        1   -1    0    0  501    0  0.00000000000E+00  0.00000000000E+00 -0.15513736050E+04  0.15513736050E+04  0.50400001928E-02 0.  1.
    10030    2    1    2    0    0  0.00000000000E+00  0.00000000000E+00 -0.70619868716E+03  0.23965485228E+04  0.22901371654E+04 0.  0.
        3    1    3    3  502    0 -0.39657560138E+03  0.80043461791E+03 -0.11027761778E+04  0.14191839534E+04  0.10100000352E+00 0. -1.
       -3    1    3    3    0  502  0.39657560138E+03 -0.80043461791E+03  0.39657749063E+03  0.97736456935E+03  0.10100000352E+00 0.  1.
</event>
<event>
 5   0  0.4605516E-05  0.2280852E+04  0.7818609E-02  0.8485509E-01
       -2   -1    0    0    0  501  0.00000000000E+00  0.00000000000E+00  0.62958345120E+03  0.62958345121E+03  0.25500000920E-02 0. -1.
        2   -1    0    0  501    0  0.00000000000E+00  0.00000000000E+00 -0.20657653043E+04  0.20657653043E+04  0.25500000920E-02 0.  1.
    10030    2    1    2    0    0  0.00000000000E+00  0.00000000000E+00 -0.14361818531E+04  0.26953487555E+04  0.22808521650E+04 0.  0.
        1    1    3    3  502    0  0.88450697638E+03 -0.71979198982E+03 -0.73095765701E+03  0.13545302493E+04  0.50400001928E-02 0. -1.
       -1    1    3    3    0  502 -0.88450697638E+03  0.71979198982E+03 -0.70522419610E+03  0.13408185062E+04  0.50400001928E-02 0.  1.
</event>
<event>
 5   0  0.2031860E-05  0.2305713E+04  0.7818609E-02  0.8475672E-01
       -1   -1    0    0    0  501  0.00000000000E+00  0.00000000000E+00  0.60262489950E+03  0.60262489953E+03  0.50400001928E-02 0.  1.
        1   -1    0    0  501    0  0.00000000000E+00  0.00000000000E+00 -0.22054816348E+04  0.22054816348E+04  0.50400001928E-02 0. -1.
    10030    2    1    2    0    0  0.00000000000E+00  0.00000000000E+00 -0.16028567353E+04  0.28081065344E+04  0.23057130338E+04 0.  0.
        4    1    3    3  502    0 -0.83213726613E+03 -0.69496344230E+03 -0.12788196615E+04  0.16765464370E+04  0.12699999809E+01 0. -1.
       -4    1    3    3    0  502  0.83213726613E+03  0.69496344230E+03 -0.32403707377E+03  0.11315600973E+04  0.12699999809E+01 0.  1.
</event>
<event>
 5   0  0.2085063E-05  0.2297173E+04  0.7818609E-02  0.8479036E-01
       -1   -1    0    0    0  501  0.00000000000E+00  0.00000000000E+00  0.11115445281E+04  0.11115445281E+04  0.50400001928E-02 0. -1.
        1   -1    0    0  501    0  0.00000000000E+00  0.00000000000E+00 -0.11868632793E+04  0.11868632793E+04  0.50400001928E-02 0.  1.
    10030    2    1    2    0    0  0.00000000000E+00  0.00000000000E+00 -0.75318751188E+02  0.22984078074E+04  0.22971733794E+04 0.  0.
        1    1    3    3  502    0 -0.58742506271E+02 -0.66169384785E+03 -0.97515912741E+03  0.11799257409E+04  0.50400001928E-02 0.  1.
       -1    1    3    3    0  502  0.58742506271E+02  0.66169384785E+03  0.89984037622E+03  0.11184820665E+04  0.50400001928E-02 0. -1.
</event>
<event>
 5   0  0.4798609E-05  0.2307118E+04  0.7818609E-02  0.8475120E-01
       -2   -1    0    0    0  501  0.00000000000E+00  0.00000000000E+00  0.11899539597E+04  0.11899539597E+04  0.25500000920E-02 0.  1.
        2   -1    0    0  501    0  0.00000000000E+00  0.00000000000E+00 -0.11182767975E+04  0.11182767975E+04  0.25500000920E-02 0. -1.
    10030    2    1    2    0    0  0.00000000000E+00  0.00000000000E+00  0.71677162218E+02  0.23082307572E+04  0.23071175984E+04 0.  0.
        2    1    3    3  502    0  0.34198798276E+02  0.10018034010E+04 -0.53532940727E+03  0.11363789801E+04  0.25500000920E-02 0. -1.
       -2    1    3    3    0  502 -0.34198798276E+02 -0.10018034010E+04  0.60700656949E+03  0.11718517771E+04  0.25500000920E-02 0.  1.
</event>
<event>
 5   0  0.1968318E-05  0.2274712E+04  0.7818609E-02  0.8487959E-01
        1   -1    0    0  501    0  0.00000000000E+00  0.00000000000E+00  0.21142240017E+04  0.21142240017E+04  0.50400001928E-02 0.  1.
       -1   -1    0    0    0  501  0.00000000000E+00  0.00000000000E+00 -0.61184575824E+03  0.61184575827E+03  0.50400001928E-02 0. -1.
    10030    2    1    2    0    0  0.00000000000E+00  0.00000000000E+00  0.15023782434E+04  0.27260697599E+04  0.22747122784E+04 0.  0.
        3    1    3    3  502    0 -0.15609902030E+03  0.81329963375E+03 -0.18308655382E+03  0.84814143560E+03  0.10100000352E+00 0. -1.
       -3    1    3    3    0  502  0.15609902030E+03 -0.81329963375E+03  0.16854647972E+04  0.18779283243E+04  0.10100000352E+00 0.  1.
</event>
<event>
 5   0  0.4602447E-05  0.2268487E+04  0.7818609E-02  0.8490451E-01
       -2   -1    0    0    0  501  0.00000000000E+00  0.00000000000E+00  0.17521863910E+04  0.17521863910E+04  0.25500000920E-02 0. -1.
        2   -1    0    0  501    0  0.00000000000E+00  0.00000000000E+00 -0.73423024592E+03  0.73423024593E+03  0.25500000920E-02 0.  1.
    10030    2    1    2    0    0  0.00000000000E+00  0.00000000000E+00  0.10179561450E+04  0.24864166369E+04  0.22684869360E+04 0.  0.
        3    1    3    3  502    0  0.29610559215E+03 -0.89332192189E+03  0.12028903021E+04  0.15273007781E+04  0.10100000352E+00 0. -1.
       -3    1    3    3    0  502 -0.29610559215E+03  0.89332192189E+03 -0.18493415706E+03  0.95911585874E+03  0.10100000352E+00 0.  1.
</event>
<event>
 5   0  0.2085063E-05  0.2322235E+04  0.7818609E-02  0.8469206E-01
        1   -1    0    0  501    0  0.00000000000E+00  0.00000000000E+00  0.13091428028E+04  0.13091428028E+04  0.50400001928E-02 0. -1.
       -1   -1    0    0    0  501  0.00000000000E+00  0.00000000000E+00 -0.10298292367E+04  0.10298292367E+04  0.50400001928E-02 0.  1.
    10030    2    1    2    0    0  0.00000000000E+00  0.00000000000E+00  0.27931356606E+03  0.23389720396E+04  0.23222347284E+04 0.  0.
        1    1    3    3  502    0 -0.45489380051E+03 -0.98650353726E+03  0.55258226288E+03  0.12187964375E+04  0.50400001928E-02 0. -1.
       -1    1    3    3    0  502  0.45489380051E+03  0.98650353726E+03 -0.27326869682E+03  0.11201756021E+04  0.50400001928E-02 0.  1.
</event>
<event>
 5   0  0.4798609E-05  0.2323507E+04  0.7818609E-02  0.8468710E-01
        2   -1    0    0  501    0  0.00000000000E+00  0.00000000000E+00  0.12639712844E+04  0.12639712844E+04  0.25500000920E-02 0. -1.
       -2   -1    0    0    0  501  0.00000000000E+00  0.00000000000E+00 -0.10678018886E+04  0.10678018886E+04  0.25500000920E-02 0.  1.
    10030    2    1    2    0    0  0.00000000000E+00  0.00000000000E+00  0.19616939582E+03  0.23317731730E+04  0.23235067675E+04 0.  0.
        2    1    3    3  502    0  0.23860930762E+03 -0.21001900648E+03 -0.10233112653E+04  0.10715448336E+04  0.25500000920E-02 0.  1.
       -2    1    3    3    0  502 -0.23860930762E+03  0.21001900648E+03  0.12194806611E+04  0.12602283394E+04  0.25500000920E-02 0. -1.
</event>
<event>
 5   0  0.2042951E-05  0.2328381E+04  0.7818609E-02  0.8466814E-01
       -1   -1    0    0    0  501  0.00000000000E+00  0.00000000000E+00  0.81453466448E+03  0.81453466449E+03  0.50400001928E-02 0. -1.
        1   -1    0    0  501    0  0.00000000000E+00  0.00000000000E+00 -0.16639434905E+04  0.16639434905E+04  0.50400001928E-02 0.  1.
    10030    2    1    2    0    0  0.00000000000E+00  0.00000000000E+00 -0.84940882600E+03  0.24784781550E+04  0.23283811138E+04 0.  0.
        2    1    3    3  502    0 -0.19376377708E+03  0.11041376639E+04 -0.75908048399E+03  0.13538343929E+04  0.25500000920E-02 0. -1.
       -2    1    3    3    0  502  0.19376377708E+03 -0.11041376639E+04 -0.90328342009E+02  0.11246437621E+04  0.25500000920E-02 0.  1.
</event>
<event>
 5   0  0.4602447E-05  0.2339786E+04  0.7818609E-02  0.8462397E-01
        2   -1    0    0  501    0  0.00000000000E+00  0.00000000000E+00  0.60144035451E+03  0.60144035451E+03  0.25500000920E-02 0.  1.
       -2   -1    0    0    0  501  0.00000000000E+00  0.00000000000E+00 -0.22756189509E+04  0.22756189509E+04  0.25500000920E-02 0. -1.
    10030    2    1    2    0    0  0.00000000000E+00  0.00000000000E+00 -0.16741785964E+04  0.28770593054E+04  0.23397855189E+04 0.  0.
        3    1    3    3  502    0 -0.98899512812E+02  0.63586524832E+03  0.36426356903E+03  0.73945499226E+03  0.10100000352E+00 0.  1.
       -3    1    3    3    0  502  0.98899512812E+02 -0.63586524832E+03 -0.20384421654E+04  0.21376043132E+04  0.10100000352E+00 0. -1.
</event>
<event>
 5   0  0.4436695E-05  0.2251444E+04  0.7818609E-02  0.8497316E-01
       -2   -1    0    0    0  501  0.00000000000E+00  0.00000000000E+00  0.10520111198E+04  0.10520111198E+04  0.25500000920E-02 0. -1.
        2   -1    0    0  501    0  0.00000000000E+00  0.00000000000E+00 -0.12045972419E+04  0.12045972419E+04  0.25500000920E-02 0.  1.
    10030    2    1    2    0    0  0.00000000000E+00  0.00000000000E+00 -0.15258612204E+03  0.22566083617E+04  0.22514437087E+04 0.  0.
        5    1    3    3  502    0  0.54729563772E+03  0.94573157804E+03 -0.34762954227E+03  0.11466512641E+04  0.46999998093E+01 0.  1.
       -5    1    3    3    0  502 -0.54729563772E+03 -0.94573157804E+03  0.19504342023E+03  0.11099570976E+04  0.46999998093E+01 0. -1.
</event>
<event>
 5   0  0.2042951E-05  0.2310068E+04  0.7818609E-02  0.8473962E-01
       -1   -1    0    0    0  501  0.00000000000E+00  0.00000000000E+00  0.13837391720E+04  0.13837391720E+04  0.50400001928E-02 0. -1.
        1   -1    0    0  501    0  0.00000000000E+00  0.00000000000E+00 -0.96412922555E+03  0.96412922556E+03  0.50400001928E-02 0.  1.
    10030    2    1    2    0    0  0.00000000000E+00  0.00000000000E+00  0.41960994646E+03  0.23478683976E+04  0.23100678573E+04 0.  0.
        2    1    3    3  502    0  0.14080016835E+03 -0.12399175324E+03 -0.94853931833E+03  0.96691544652E+03  0.25500000920E-02 0.  1.
       -2    1    3    3    0  502 -0.14080016835E+03  0.12399175324E+03  0.13681492648E+04  0.13809529511E+04  0.25500000920E-02 0. -1.
</event>
<event>
 5   0  0.4602447E-05  0.2288113E+04  0.7818609E-02  0.8482623E-01
       -2   -1    0    0    0  501  0.00000000000E+00  0.00000000000E+00  0.11872591201E+04  0.11872591201E+04  0.25500000920E-02 0.  1.
        2   -1    0    0  501    0  0.00000000000E+00  0.00000000000E+00 -0.11024261136E+04  0.11024261136E+04  0.25500000920E-02 0. -1.
    10030    2    1    2    0    0  0.00000000000E+00  0.00000000000E+00  0.84833006536E+02  0.22896852337E+04  0.22881131594E+04 0.  0.
        3    1    3    3  502    0 -0.77354404541E+03 -0.13948760926E+03  0.87427476145E+03  0.11756630266E+04  0.10100000352E+00 0.  1.
       -3    1    3    3    0  502  0.77354404541E+03  0.13948760926E+03 -0.78944175491E+03  0.11140222071E+04  0.10100000352E+00 0. -1.
</event>
<event>
 5   0  0.4605516E-05  0.2343915E+04  0.7818609E-02  0.8460805E-01
        2   -1    0    0  501    0  0.00000000000E+00  0.00000000000E+00  0.12377021912E+04  0.12377021912E+04  0.25500000920E-02 0.  1.
       -2   -1    0    0    0  501  0.00000000000E+00  0.00000000000E+00 -0.11097048768E+04  0.11097048768E+04  0.25500000920E-02 0. -1.
    10030    2    1    2    0    0  0.00000000000E+00  0.00000000000E+00  0.12799731441E+03  0.23474070681E+04  0.23439148088E+04 0.  0.
        1    1    3    3  502    0 -0.48873566874E+03 -0.14900568083E+03 -0.99228550140E+03  0.11161074156E+04  0.50400001928E-02 0. -1.
       -1    1    3    3    0  502  0.48873566874E+03  0.14900568083E+03  0.11202828158E+04  0.12312996525E+04  0.50400001928E-02 0.  1.
</event>
<event>
 5   0  0.2043885E-05  0.2292988E+04  0.7818609E-02  0.8480691E-01
        1   -1    0    0  501    0  0.00000000000E+00  0.00000000000E+00  0.10361901773E+04  0.10361901773E+04  0.50400001928E-02 0. -1.
       -1   -1    0    0    0  501  0.00000000000E+00  0.00000000000E+00 -0.12685397061E+04  0.12685397062E+04  0.50400001928E-02 0.  1.
    10030    2    1    2    0    0  0.00000000000E+00  0.00000000000E+00 -0.23234952883E+03  0.23047298835E+04  0.22929879049E+04 0.  0.
        5    1    3    3  502    0  0.88635067785E+03 -0.49568791631E+03  0.41862343468E+03  0.10984496823E+04  0.46999998093E+01 0. -1.
       -5    1    3    3    0  502 -0.88635067785E+03  0.49568791631E+03 -0.65097296352E+03  0.12062802012E+04  0.46999998093E+01 0.  1.
</event>
<event>
 5   0  0.4602447E-05  0.2201033E+04  0.7818609E-02  0.8517998E-01
       -2   -1    0    0    0  501  0.00000000000E+00  0.00000000000E+00  0.56606485378E+03  0.56606485379E+03  0.25500000920E-02 0. -1.
        2   -1    0    0  501    0  0.00000000000E+00  0.00000000000E+00 -0.21395730511E+04  0.21395730511E+04  0.25500000920E-02 0.  1.
    10030    2    1    2    0    0  0.00000000000E+00  0.00000000000E+00 -0.15735081973E+04  0.27056379049E+04  0.22010334903E+04 0.  0.
        3    1    3    3  502    0 -0.10576978328E+04  0.13006854538E+03 -0.44899981564E+03  0.11563923973E+04  0.10100000352E+00 0. -1.
       -3    1    3    3    0  502  0.10576978328E+04 -0.13006854538E+03 -0.11245083817E+04  0.15492455075E+04  0.10100000352E+00 0.  1.
</event>
<event>
 5   0  0.2031860E-05  0.2284048E+04  0.7818609E-02  0.8484237E-01
       -1   -1    0    0    0  501  0.00000000000E+00  0.00000000000E+00  0.94942778118E+03  0.94942778120E+03  0.50400001928E-02 0.  1.
        1   -1    0    0  501    0  0.00000000000E+00  0.00000000000E+00 -0.13736897619E+04  0.13736897619E+04  0.50400001928E-02 0. -1.
    10030    2    1    2    0    0  0.00000000000E+00  0.00000000000E+00 -0.42426198067E+03  0.23231175431E+04  0.22840483556E+04 0.  0.
        4    1    3    3  502    0 -0.28754725811E+03 -0.27864849601E+03  0.87569109074E+03  0.96289402806E+03  0.12699999809E+01 0.  1.
       -4    1    3    3    0  502  0.28754725811E+03  0.27864849601E+03 -0.12999530714E+04  0.13602235150E+04  0.12699999809E+01 0. -1.
</event>
<event>
 5   0  0.2085063E-05  0.2423694E+04  0.7818609E-02  0.8430686E-01
        1   -1    0    0  501    0  0.00000000000E+00  0.00000000000E+00  0.18595805667E+04  0.18595805667E+04  0.50400001928E-02 0. -1.
       -1   -1    0    0    0  501  0.00000000000E+00  0.00000000000E+00 -0.78973386676E+03  0.78973386677E+03  0.50400001928E-02 0.  1.
    10030    2    1    2    0    0  0.00000000000E+00  0.00000000000E+00  0.10698466999E+04  0.26493144335E+04  0.24236944952E+04 0.  0.
        1    1    3    3  502    0 -0.10079655240E+04 -0.45917137450E+02 -0.19872675734E+03  0.10283944794E+04  0.50400001928E-02 0. -1.
       -1    1    3    3    0  502  0.10079655240E+04  0.45917137450E+02  0.12685734573E+04  0.16209199541E+04  0.50400001928E-02 0.  1.
</event>
<event>
 5   0  0.1968318E-05  0.2297307E+04  0.7818609E-02  0.8478984E-01
        1   -1    0    0  501    0  0.00000000000E+00  0.00000000000E+00  0.10136092748E+04  0.10136092748E+04  0.50400001928E-02 0.  1.
       -1   -1    0    0    0  501  0.00000000000E+00  0.00000000000E+00 -0.13016899114E+04  0.13016899115E+04  0.50400001928E-02 0. -1.
    10030    2    1    2    0    0  0.00000000000E+00  0.00000000000E+00 -0.28808063661E+03  0.23152991863E+04  0.22973070907E+04 0.  0.
        3    1    3    3  502    0  0.20214230038E+02  0.88042957109E+03 -0.88727109387E+03  0.12501259332E+04  0.10100000352E+00 0. -1.
       -3    1    3    3    0  502 -0.20214230038E+02 -0.88042957109E+03  0.59919045726E+03  0.10651732531E+04  0.10100000352E+00 0.  1.
</event>
<event>
 5   0  0.4505107E-05  0.2303703E+04  0.7818609E-02  0.8476462E-01
        2   -1    0    0  501    0  0.00000000000E+00  0.00000000000E+00  0.13037565275E+04  0.13037565275E+04  0.25500000920E-02 0. -1.
       -2   -1    0    0    0  501  0.00000000000E+00  0.00000000000E+00 -0.10176457962E+04  0.10176457962E+04  0.25500000920E-02 0.  1.
    10030    2    1    2    0    0  0.00000000000E+00  0.00000000000E+00  0.28611073131E+03  0.23214023237E+04  0.23037034093E+04 0.  0.
        4    1    3    3  502    0 -0.10897603073E+04 -0.23605622820E+03 -0.14805976196E+03  0.11248214864E+04  0.12699999809E+01 0.  1.
       -4    1    3    3    0  502  0.10897603073E+04  0.23605622820E+03  0.43417049327E+03  0.11965808374E+04  0.12699999809E+01 0. -1.
</event>
<event>
 5   0  0.4505107E-05  0.1980471E+04  0.7818609E-02  0.8615806E-01
        2   -1    0    0  501    0  0.00000000000E+00  0.00000000000E+00  0.91902599697E+03  0.91902599698E+03  0.25500000920E-02 0.  1.
       -2   -1    0    0    0  501  0.00000000000E+00  0.00000000000E+00 -0.10669626754E+04  0.10669626754E+04  0.25500000920E-02 0. -1.
    10030    2    1    2    0    0  0.00000000000E+00  0.00000000000E+00 -0.14793667840E+03  0.19859886723E+04  0.19804710919E+04 0.  0.
        4    1    3    3  502    0 -0.18605492427E+03 -0.12334869438E+03 -0.10414014109E+04  0.10650586119E+04  0.12699999809E+01 0. -1.
       -4    1    3    3    0  502  0.18605492427E+03  0.12334869438E+03  0.89346473246E+03  0.92093006049E+03  0.12699999809E+01 0.  1.
</event>
<event>
 5   0  0.2042951E-05  0.2221976E+04  0.7818609E-02  0.8509337E-01
       -1   -1    0    0    0  501  0.00000000000E+00  0.00000000000E+00  0.59325627794E+03  0.59325627796E+03  0.50400001928E-02 0.  1.
        1   -1    0    0  501    0  0.00000000000E+00  0.00000000000E+00 -0.20805415172E+04  0.20805415172E+04  0.50400001928E-02 0. -1.
    10030    2    1    2    0    0  0.00000000000E+00  0.00000000000E+00 -0.14872852392E+04  0.26737977951E+04  0.22219759824E+04 0.  0.
        2    1    3    3  502    0  0.57131510707E+03 -0.90405622934E+03 -0.11057980888E+04  0.15383458748E+04  0.25500000920E-02 0. -1.
       -2    1    3    3    0  502 -0.57131510707E+03  0.90405622934E+03 -0.38148715041E+03  0.11354519203E+04  0.25500000920E-02 0.  1.
</event>
<event>
 5   0  0.1968318E-05  0.2327258E+04  0.7818609E-02  0.8467251E-01
        1   -1    0    0  501    0  0.00000000000E+00  0.00000000000E+00  0.10089873217E+04  0.10089873217E+04  0.50400001928E-02 0. -1.
       -1   -1    0    0    0  501  0.00000000000E+00  0.00000000000E+00 -0.13419714107E+04  0.13419714107E+04  0.50400001928E-02 0.  1.
    10030    2    1    2    0    0  0.00000000000E+00  0.00000000000E+00 -0.33298408900E+03  0.23509587324E+04  0.23272577334E+04 0.  0.
        3    1    3    3  502    0  0.86298921982E+03  0.72765846808E+03  0.11886464807E+03  0.11350621368E+04  0.10100000352E+00 0.  1.
       -3    1    3    3    0  502 -0.86298921982E+03 -0.72765846808E+03 -0.45184873707E+03  0.12158965956E+04  0.10100000352E+00 0. -1.
</event>
<event>
 5   0  0.2043885E-05  0.2301560E+04  0.7818609E-02  0.8477306E-01
        1   -1    0    0  501    0  0.00000000000E+00  0.00000000000E+00  0.12237995283E+04  0.12237995283E+04  0.50400001928E-02 0. -1.
       -1   -1    0    0    0  501  0.00000000000E+00  0.00000000000E+00 -0.10821175014E+04  0.10821175014E+04  0.50400001928E-02 0.  1.
    10030    2    1    2    0    0  0.00000000000E+00  0.00000000000E+00  0.14168202686E+03  0.23059170297E+04  0.23015602428E+04 0.  0.
        5    1    3    3  502    0 -0.78635556461E+03  0.83361180813E+03 -0.34281754467E+02  0.11464994764E+04  0.46999998093E+01 0.  1.
       -5    1    3    3    0  502  0.78635556461E+03 -0.83361180813E+03  0.17596378133E+03  0.11594175533E+04  0.46999998093E+01 0. -1.
</event>
<event>
 5   0  0.4798609E-05  0.2326408E+04  0.7818609E-02  0.8467581E-01
       -2   -1    0    0    0  501  0.00000000000E+00  0.00000000000E+00  0.18681582596E+04  0.18681582596E+04  0.25500000920E-02 0. -1.
        2   -1    0    0  501    0  0.00000000000E+00  0.00000000000E+00 -0.72426599179E+03  0.72426599180E+03  0.25500000920E-02 0.  1.
    10030    2    1    2    0    0  0.00000000000E+00  0.00000000000E+00  0.11438922678E+04  0.25924242514E+04  0.23264079562E+04 0.  0.
        2    1    3    3  502    0  0.29797845407E+03 -0.86100386584E+03 -0.23387707236E+03  0.94064727771E+03  0.25500000920E-02 0.  1.
       -2    1    3    3    0  502 -0.29797845407E+03  0.86100386584E+03  0.13777693401E+04  0.16517769737E+04  0.25500000920E-02 0. -1.
</event>
<event>
 5   0  0.4602447E-05  0.2287930E+04  0.7818609E-02  0.8482695E-01
        2   -1    0    0  501    0  0.00000000000E+00  0.00000000000E+00  0.10463942481E+04  0.10463942481E+04  0.25500000920E-02 0. -1.
       -2   -1    0    0    0  501  0.00000000000E+00  0.00000000000E+00 -0.12506340821E+04  0.12506340821E+04  0.25500000920E-02 0.  1.
    10030    2    1    2    0    0  0.00000000000E+00  0.00000000000E+00 -0.20423983400E+03  0.22970283302E+04  0.22879303398E+04 0.  0.
        3    1    3    3  502    0 -0.35518818130E+03  0.28003729323E+03 -0.11570488175E+04  0.12423129662E+04  0.10100000352E+00 0.  1.
       -3    1    3    3    0  502  0.35518818130E+03 -0.28003729323E+03  0.95280898351E+03  0.10547153640E+04  0.10100000352E+00 0. -1.
</event>
<event>
 5   0  0.4605516E-05  0.2305602E+04  0.7818609E-02  0.8475716E-01
       -2   -1    0    0    0  501  0.00000000000E+00  0.00000000000E+00  0.10492355076E+04  0.10492355076E+04  0.25500000920E-02 0.  1.
        2   -1    0    0  501    0  0.00000000000E+00  0.00000000000E+00 -0.12665884574E+04  0.12665884574E+04  0.25500000920E-02 0. -1.
    10030    2    1    2    0    0  0.00000000000E+00  0.00000000000E+00 -0.21735294981E+03  0.23158239650E+04  0.23056015120E+04 0.  0.
        1    1    3    3  502    0 -0.37885014920E+03  0.18354818898E+02  0.98476638147E+03  0.10552862934E+04  0.50400001928E-02 0.  1.
       -1    1    3    3    0  502  0.37885014920E+03 -0.18354818898E+02 -0.12021193313E+04  0.12605376716E+04  0.50400001928E-02 0. -1.
</event>
<event>
 5   0  0.4798609E-05  0.2279849E+04  0.7818609E-02  0.8485909E-01
        2   -1    0    0  501    0  0.00000000000E+00  0.00000000000E+00  0.14132793475E+04  0.14132793475E+04  0.25500000920E-02 0. -1.
       -2   -1    0    0    0  501  0.00000000000E+00  0.00000000000E+00 -0.91944196858E+03  0.91944196858E+03  0.25500000920E-02 0.  1.
    10030    2    1    2    0    0  0.00000000000E+00  0.00000000000E+00  0.49383737896E+03  0.23327213161E+04  0.22798494209E+04 0.  0.
        2    1    3    3  502    0  0.43285515462E+03  0.42940546915E+03 -0.73857712777E+03  0.95773107681E+03  0.25500000920E-02 0.  1.
       -2    1    3    3    0  502 -0.43285515462E+03 -0.42940546915E+03  0.12324145067E+04  0.13749902393E+04  0.25500000920E-02 0. -1.
</event>
<event>
 5   0  0.4602447E-05  0.2296435E+04  0.7818609E-02  0.8479328E-01
       -2   -1    0    0    0  501  0.00000000000E+00  0.00000000000E+00  0.51693156260E+03  0.51693156260E+03  0.25500000920E-02 0. -1.
        2   -1    0    0  501    0  0.00000000000E+00  0.00000000000E+00 -0.25504412688E+04  0.25504412688E+04  0.25500000920E-02 0.  1.
    10030    2    1    2    0    0  0.00000000000E+00  0.00000000000E+00 -0.20335097062E+04  0.30673728314E+04  0.22964351420E+04 0.  0.
        3    1    3    3  502    0  0.28774540742E+03  0.87003903174E+03 -0.19408487045E+04  0.21463128943E+04  0.10100000352E+00 0.  1.
       -3    1    3    3    0  502 -0.28774540742E+03 -0.87003903174E+03 -0.92661001657E+02  0.92105993707E+03  0.10100000352E+00 0. -1.
</event>
<event>
 5   0  0.1968318E-05  0.2298499E+04  0.7818609E-02  0.8478513E-01
        1   -1    0    0  501    0  0.00000000000E+00  0.00000000000E+00  0.16211855753E+04  0.16211855753E+04  0.50400001928E-02 0. -1.
       -1   -1    0    0    0  501  0.00000000000E+00  0.00000000000E+00 -0.81469639657E+03  0.81469639658E+03  0.50400001928E-02 0.  1.
    10030    2    1    2    0    0  0.00000000000E+00  0.00000000000E+00  0.80648917868E+03  0.24358819718E+04  0.22984986808E+04 0.  0.
        3    1    3    3  502    0  0.56459069358E+03  0.83774184566E+03 -0.17740926793E+03  0.10256939650E+04  0.10100000352E+00 0.  1.
       -3    1    3    3    0  502 -0.56459069358E+03 -0.83774184566E+03  0.98389844661E+03  0.14101880069E+04  0.10100000352E+00 0. -1.
</event>
<event>
 5   0  0.4436695E-05  0.2305327E+04  0.7818609E-02  0.8475824E-01
       -2   -1    0    0    0  501  0.00000000000E+00  0.00000000000E+00  0.58249502955E+03  0.58249502956E+03  0.25500000920E-02 0. -1.
        2   -1    0    0  501    0  0.00000000000E+00  0.00000000000E+00 -0.22809355649E+04  0.22809355649E+04  0.25500000920E-02 0.  1.
    10030    2    1    2    0    0  0.00000000000E+00  0.00000000000E+00 -0.16984405353E+04  0.28634305944E+04  0.23053274208E+04 0.  0.
        5    1    3    3  502    0  0.44952417135E+03 -0.98454996403E+03 -0.13416923276E+04  0.17238245283E+04  0.46999998093E+01 0.  1.
       -5    1    3    3    0  502 -0.44952417135E+03  0.98454996403E+03 -0.35674820769E+03  0.11396060661E+04  0.46999998093E+01 0. -1.
</event>
<event>
 5   0  0.2043885E-05  0.2331108E+04  0.7818609E-02  0.8465756E-01
       -1   -1    0    0    0  501  0.00000000000E+00  0.00000000000E+00  0.65571498452E+03  0.65571498454E+03  0.50400001928E-02 0. -1.
        1   -1    0    0  501    0  0.00000000000E+00  0.00000000000E+00 -0.20718085925E+04  0.20718085925E+04  0.50400001928E-02 0.  1.
    10030    2    1    2    0    0  0.00000000000E+00  0.00000000000E+00 -0.14160936079E+04  0.27275235770E+04  0.23311078389E+04 0.  0.
        5    1    3    3  502    0 -0.58011863533E+03  0.34540046982E+03 -0.18196940094E+04  0.19409140871E+04  0.46999998093E+01 0.  1.
       -5    1    3    3    0  502  0.58011863533E+03 -0.34540046982E+03  0.40360040144E+03  0.78660948993E+03  0.46999998093E+01 0. -1.
</event>
<event>
 5   0  0.1968318E-05  0.2298229E+04  0.7818609E-02  0.8478620E-01
        1   -1    0    0  501    0  0.00000000000E+00  0.00000000000E+00  0.13148671852E+04  0.13148671853E+04  0.50400001928E-02 0. -1.
       -1   -1    0    0    0  501  0.00000000000E+00  0.00000000000E+00 -0.10042570897E+04  0.10042570898E+04  0.50400001928E-02 0.  1.
    10030    2    1    2    0    0  0.00000000000E+00  0.00000000000E+00  0.31061009550E+03  0.23191242750E+04  0.22982294863E+04 0.  0.
        3    1    3    3  502    0  0.41844626177E+03 -0.98812099851E+03 -0.25950933796E+03  0.11040042973E+04  0.10100000352E+00 0.  1.
       -3    1    3    3    0  502 -0.41844626177E+03  0.98812099851E+03  0.57011943346E+03  0.12151199777E+04  0.10100000352E+00 0. -1.
</event>
<event>
 5   0  0.4602447E-05  0.2319262E+04  0.7818609E-02  0.8470365E-01
        2   -1    0    0  501    0  0.00000000000E+00  0.00000000000E+00  0.10020972776E+04  0.10020972776E+04  0.25500000920E-02 0.  1.
       -2   -1    0    0    0  501  0.00000000000E+00  0.00000000000E+00 -0.13419294215E+04  0.13419294215E+04  0.25500000920E-02 0. -1.
    10030    2    1    2    0    0  0.00000000000E+00  0.00000000000E+00 -0.33983214391E+03  0.23440266992E+04  0.23192617964E+04 0.  0.
        3    1    3    3  502    0 -0.24134200117E+03  0.24489846716E+03 -0.12892265144E+04  0.13342886630E+04  0.10100000352E+00 0. -1.
       -3    1    3    3    0  502  0.24134200117E+03 -0.24489846716E+03  0.94939437046E+03  0.10097380361E+04  0.10100000352E+00 0.  1.
</event>
<event>
 5   0  0.2085063E-05  0.2310611E+04  0.7818609E-02  0.8473749E-01
       -1   -1    0    0    0  501  0.00000000000E+00  0.00000000000E+00  0.66379535016E+03  0.66379535018E+03  0.50400001928E-02 0.  1.
        1   -1    0    0  501    0  0.00000000000E+00  0.00000000000E+00 -0.20107559737E+04  0.20107559737E+04  0.50400001928E-02 0. -1.
    10030    2    1    2    0    0  0.00000000000E+00  0.00000000000E+00 -0.13469606236E+04  0.26745513239E+04  0.23106107121E+04 0.  0.
        1    1    3    3  502    0 -0.40143818924E+03 -0.75212528487E+03 -0.15759549602E+04  0.17917809856E+04  0.50400001928E-02 0. -1.
       -1    1    3    3    0  502  0.40143818924E+03  0.75212528487E+03  0.22899433662E+03  0.88277033828E+03  0.50400001928E-02 0.  1.
</event>
<event>
 5   0  0.1968318E-05  0.2312952E+04  0.7818609E-02  0.8472832E-01
       -1   -1    0    0    0  501  0.00000000000E+00  0.00000000000E+00  0.13038544827E+04  0.13038544827E+04  0.50400001928E-02 0.  1.
        1   -1    0    0  501    0  0.00000000000E+00  0.00000000000E+00 -0.10257564944E+04  0.10257564944E+04  0.50400001928E-02 0. -1.
    10030    2    1    2    0    0  0.00000000000E+00  0.00000000000E+00  0.27809798828E+03  0.23296109772E+04  0.23129524020E+04 0.  0.
        3    1    3    3  502    0  0.95719618367E+03 -0.38624368710E+02  0.79157370585E+03  0.12427008159E+04  0.10100000352E+00 0.  1.
       -3    1    3    3    0  502 -0.95719618367E+03  0.38624368710E+02 -0.51347571757E+03  0.10869101612E+04  0.10100000352E+00 0. -1.
</event>
<event>
 5   0  0.2042951E-05  0.2272941E+04  0.7818609E-02  0.8488667E-01
       -1   -1    0    0    0  501  0.00000000000E+00  0.00000000000E+00  0.55010268841E+03  0.55010268843E+03  0.50400001928E-02 0.  1.
        1   -1    0    0  501    0  0.00000000000E+00  0.00000000000E+00 -0.23478625541E+04  0.23478625541E+04  0.50400001928E-02 0. -1.
    10030    2    1    2    0    0  0.00000000000E+00  0.00000000000E+00 -0.17977598657E+04  0.28979652425E+04  0.22729412690E+04 0.  0.
        2    1    3    3  502    0 -0.35402869514E+03 -0.78588593667E+03  0.45480537865E+02  0.86314628063E+03  0.25500000920E-02 0.  1.
       -2    1    3    3    0  502  0.35402869514E+03  0.78588593667E+03 -0.18432404036E+04  0.20348189619E+04  0.25500000920E-02 0. -1.
</event>
<event>
 5   0  0.2043885E-05  0.2225250E+04  0.7818609E-02  0.8507991E-01
        1   -1    0    0  501    0  0.00000000000E+00  0.00000000000E+00  0.17320360686E+04  0.17320360686E+04  0.50400001928E-02 0.  1.
       -1   -1    0    0    0  501  0.00000000000E+00  0.00000000000E+00 -0.71472786869E+03  0.71472786871E+03  0.50400001928E-02 0. -1.
    10030    2    1    2    0    0  0.00000000000E+00  0.00000000000E+00  0.10173081999E+04  0.24467639373E+04  0.22252500514E+04 0.  0.
        5    1    3    3  502    0 -0.38417803767E+03 -0.82361083955E+03 -0.19710069296E+03  0.92994534937E+03  0.46999998093E+01 0. -1.
       -5    1    3    3    0  502  0.38417803767E+03  0.82361083955E+03  0.12144088928E+04  0.15168185879E+04  0.46999998093E+01 0.  1.
</event>
<event>
 5   0  0.4505107E-05  0.2288381E+04  0.7818609E-02  0.8482516E-01
       -2   -1    0    0    0  501  0.00000000000E+00  0.00000000000E+00  0.11770487374E+04  0.11770487374E+04  0.25500000920E-02 0. -1.
        2   -1    0    0  501    0  0.00000000000E+00  0.00000000000E+00 -0.11122496250E+04  0.11122496251E+04  0.25500000920E-02 0.  1.
    10030    2    1    2    0    0  0.00000000000E+00  0.00000000000E+00  0.64799112309E+02  0.22892983624E+04  0.22883811018E+04 0.  0.
        4    1    3    3  502    0  0.43145093836E+03  0.73917512319E+03 -0.72727339700E+03  0.11231464650E+04  0.12699999809E+01 0.  1.
       -4    1    3    3    0  502 -0.43145093836E+03 -0.73917512319E+03  0.79207250930E+03  0.11661518974E+04  0.12699999809E+01 0. -1.
</event>
<event>
 5   0  0.4605516E-05  0.2310528E+04  0.7818609E-02  0.8473782E-01
        2   -1    0    0  501    0  0.00000000000E+00  0.00000000000E+00  0.23291887847E+04  0.23291887847E+04  0.25500000920E-02 0. -1.
       -2   -1    0    0    0  501  0.00000000000E+00  0.00000000000E+00 -0.57300414948E+03  0.57300414949E+03  0.25500000920E-02 0.  1.
    10030    2    1    2    0    0  0.00000000000E+00  0.00000000000E+00  0.17561846353E+04  0.29021929342E+04  0.23105279385E+04 0.  0.
        1    1    3    3  502    0 -0.79088776799E+03 -0.30354996784E+03 -0.10853626833E+03  0.85406449762E+03  0.50400001928E-02 0.  1.
       -1    1    3    3    0  502  0.79088776799E+03  0.30354996784E+03  0.18647209036E+04  0.20481284366E+04  0.50400001928E-02 0. -1.
</event>
<event>
 5   0  0.2031860E-05  0.2316419E+04  0.7818609E-02  0.8471476E-01
        1   -1    0    0  501    0  0.00000000000E+00  0.00000000000E+00  0.19415587971E+04  0.19415587971E+04  0.50400001928E-02 0. -1.
       -1   -1    0    0    0  501  0.00000000000E+00  0.00000000000E+00 -0.69091329451E+03  0.69091329452E+03  0.50400001928E-02 0.  1.
    10030    2    1    2    0    0  0.00000000000E+00  0.00000000000E+00  0.12506455026E+04  0.26324720916E+04  0.23164186021E+04 0.  0.
        4    1    3    3  502    0  0.14116449708E+03 -0.45899301360E+03  0.18230929334E+04  0.18852775548E+04  0.12699999809E+01 0. -1.
       -4    1    3    3    0  502 -0.14116449708E+03  0.45899301360E+03 -0.57244743089E+03  0.74719453679E+03  0.12699999809E+01 0.  1.
</event>
<event>
 5   0  0.4798609E-05  0.2349064E+04  0.7818609E-02  0.8458823E-01
       -2   -1    0    0    0  501  0.00000000000E+00  0.00000000000E+00  0.18920662728E+04  0.18920662728E+04  0.25500000920E-02 0. -1.
        2   -1    0    0  501    0  0.00000000000E+00  0.00000000000E+00 -0.72911064821E+03  0.72911064821E+03  0.25500000920E-02 0.  1.
    10030    2    1    2    0    0  0.00000000000E+00  0.00000000000E+00  0.11629556246E+04  0.26211769211E+04  0.23490642108E+04 0.  0.
        2    1    3    3  502    0  0.40237676621E+03 -0.34096925802E+03  0.17525018634E+04  0.18301447697E+04  0.25500000920E-02 0. -1.
       -2    1    3    3    0  502 -0.40237676621E+03  0.34096925802E+03 -0.58954623873E+03  0.79103215138E+03  0.25500000920E-02 0.  1.
</event>
<event>
 5   0  0.2043885E-05  0.2314431E+04  0.7818609E-02  0.8472253E-01
        1   -1    0    0  501    0  0.00000000000E+00  0.00000000000E+00  0.15341737042E+04  0.15341737043E+04  0.50400001928E-02 0. -1.
       -1   -1    0    0    0  501  0.00000000000E+00  0.00000000000E+00 -0.87287876677E+03  0.87287876679E+03  0.50400001928E-02 0.  1.
    10030    2    1    2    0    0  0.00000000000E+00  0.00000000000E+00  0.66129493747E+03  0.24070524710E+04  0.23144309460E+04 0.  0.
        5    1    3    3  502    0  0.89139803331E+03 -0.58124529138E+03  0.80347203338E+03  0.13334263913E+04  0.46999998093E+01 0. -1.
       -5    1    3    3    0  502 -0.89139803331E+03  0.58124529138E+03 -0.14217709591E+03  0.10736260798E+04  0.46999998093E+01 0.  1.
</event>
<event>
 5   0  0.4798609E-05  0.2262076E+04  0.7818609E-02  0.8493026E-01
       -2   -1    0    0    0  501  0.00000000000E+00  0.00000000000E+00  0.65889060055E+03  0.65889060055E+03  0.25500000920E-02 0.  1.
        2   -1    0    0  501    0  0.00000000000E+00  0.00000000000E+00 -0.19415164999E+04  0.19415164999E+04  0.25500000920E-02 0. -1.
    10030    2    1    2    0    0  0.00000000000E+00  0.00000000000E+00 -0.12826258994E+04  0.26004071005E+04  0.22620760134E+04 0.  0.
        2    1    3    3  502    0  0.13235521315E+03  0.10471470818E+04 -0.11085690938E+04  0.15306731686E+04  0.25500000920E-02 0. -1.
       -2    1    3    3    0  502 -0.13235521315E+03 -0.10471470818E+04 -0.17405680560E+03  0.10697339319E+04  0.25500000920E-02 0.  1.
</event>
<event>
 5   0  0.2031860E-05  0.2198307E+04  0.7818609E-02  0.8519133E-01
       -1   -1    0    0    0  501  0.00000000000E+00  0.00000000000E+00  0.64293949755E+03  0.64293949757E+03  0.50400001928E-02 0.  1.
        1   -1    0    0  501    0  0.00000000000E+00  0.00000000000E+00 -0.18790864328E+04  0.18790864328E+04  0.50400001928E-02 0. -1.
    10030    2    1    2    0    0  0.00000000000E+00  0.00000000000E+00 -0.12361469352E+04  0.25220259303E+04  0.21983074280E+04 0.  0.
        4    1    3    3  502    0  0.96987325506E+03 -0.44254096998E+03 -0.31100103629E+03  0.11105043442E+04  0.12699999809E+01 0. -1.
       -4    1    3    3    0  502 -0.96987325506E+03  0.44254096998E+03 -0.92514589892E+03  0.14115215862E+04  0.12699999809E+01 0.  1.
</event>
<event>
 5   0  0.2031860E-05  0.2302231E+04  0.7818609E-02  0.8477042E-01
       -1   -1    0    0    0  501  0.00000000000E+00  0.00000000000E+00  0.16012308712E+04  0.16012308712E+04  0.50400001928E-02 0. -1.
        1   -1    0    0  501    0  0.00000000000E+00  0.00000000000E+00 -0.82753049830E+03  0.82753049832E+03  0.50400001928E-02 0.  1.
    10030    2    1    2    0    0  0.00000000000E+00  0.00000000000E+00  0.77370037286E+03  0.24287613695E+04  0.23022314225E+04 0.  0.
        4    1    3    3  502    0 -0.46151981309E+03  0.98450414033E+03 -0.11830833318E+02  0.10873778192E+04  0.12699999809E+01 0.  1.
       -4    1    3    3    0  502  0.46151981309E+03 -0.98450414033E+03  0.78553120618E+03  0.13413835503E+04  0.12699999809E+01 0. -1.
</event>
<event>
 5   0  0.2042951E-05  0.2274961E+04  0.7818609E-02  0.8487860E-01
        1   -1    0    0  501    0  0.00000000000E+00  0.00000000000E+00  0.11831560797E+04  0.11831560797E+04  0.50400001928E-02 0. -1.
       -1   -1    0    0    0  501  0.00000000000E+00  0.00000000000E+00 -0.10935682330E+04  0.10935682330E+04  0.50400001928E-02 0.  1.
    10030    2    1    2    0    0  0.00000000000E+00  0.00000000000E+00  0.89587846778E+02  0.22767243127E+04  0.22749610137E+04 0.  0.
        2    1    3    3  502    0 -0.27557468504E+03 -0.13210802114E+02  0.11491645259E+04  0.11818185308E+04  0.25500000920E-02 0. -1.
       -2    1    3    3    0  502  0.27557468504E+03  0.13210802114E+02 -0.10595766791E+04  0.10949057819E+04  0.25500000920E-02 0.  1.
</event>
<event>
 5   0  0.4505107E-05  0.2291772E+04  0.7818609E-02  0.8481172E-01
        2   -1    0    0  501    0  0.00000000000E+00  0.00000000000E+00  0.89964820043E+03  0.89964820043E+03  0.25500000920E-02 0.  1.
       -2   -1    0    0    0  501  0.00000000000E+00  0.00000000000E+00 -0.14595206515E+04  0.14595206515E+04  0.25500000920E-02 0. -1.
    10030    2    1    2    0    0  0.00000000000E+00  0.00000000000E+00 -0.55987245104E+03  0.23591688519E+04  0.22917723513E+04 0.  0.
        4    1    3    3  502    0 -0.81430035804E+03 -0.11242356502E+03  0.54187017774E+03  0.98455524654E+03  0.12699999809E+01 0.  1.
       -4    1    3    3    0  502  0.81430035804E+03  0.11242356502E+03 -0.11017426288E+04  0.13746136054E+04  0.12699999809E+01 0. -1.
</event>
<event>
 5   0  0.1604500E-05  0.2295418E+04  0.7818609E-02  0.8479730E-01
        3   -1    0    0  501    0  0.00000000000E+00  0.00000000000E+00  0.61496022306E+03  0.61496023135E+03  0.10100000352E+00 0. -1.
       -3   -1    0    0    0  501  0.00000000000E+00  0.00000000000E+00 -0.21419856722E+04  0.21419856746E+04  0.10100000352E+00 0.  1.
    10030    2    1    2    0    0  0.00000000000E+00  0.00000000000E+00 -0.15270254491E+04  0.27569459059E+04  0.22954180460E+04 0.  0.
        2    1    3    3  502    0 -0.41667232446E+03 -0.53423241220E+03  0.34915305858E+03  0.76218629910E+03  0.25500000920E-02 0. -1.
       -2    1    3    3    0  502  0.41667232446E+03  0.53423241220E+03 -0.18761785077E+04  0.19947596068E+04  0.25500000920E-02 0.  1.
</event>
<event>
 5   0  0.4436695E-05  0.2283589E+04  0.7818609E-02  0.8484420E-01
        2   -1    0    0  501    0  0.00000000000E+00  0.00000000000E+00  0.12804700195E+04  0.12804700195E+04  0.25500000920E-02 0. -1.
       -2   -1    0    0    0  501  0.00000000000E+00  0.00000000000E+00 -0.10181377775E+04  0.10181377775E+04  0.25500000920E-02 0.  1.
    10030    2    1    2    0    0  0.00000000000E+00  0.00000000000E+00  0.26233224202E+03  0.22986077970E+04  0.22835891923E+04 0.  0.
        5    1    3    3  502    0 -0.32428864512E+03  0.82580483935E+03  0.85461129451E+03  0.12318682205E+04  0.46999998093E+01 0. -1.
       -5    1    3    3    0  502  0.32428864512E+03 -0.82580483935E+03 -0.59227905249E+03  0.10667395765E+04  0.46999998093E+01 0.  1.
</event>
<event>
 5   0  0.4436695E-05  0.2327138E+04  0.7818609E-02  0.8467297E-01
       -2   -1    0    0    0  501  0.00000000000E+00  0.00000000000E+00  0.14518027031E+04  0.14518027031E+04  0.25500000920E-02 0.  1.
        2   -1    0    0  501    0  0.00000000000E+00  0.00000000000E+00 -0.93255991409E+03  0.93255991409E+03  0.25500000920E-02 0. -1.
    10030    2    1    2    0    0  0.00000000000E+00  0.00000000000E+00  0.51924278898E+03  0.23843626172E+04  0.23271381601E+04 0.  0.
        5    1    3    3  502    0 -0.10008274642E+03 -0.89338132298E+03  0.10165183020E+04  0.13570107932E+04  0.46999998093E+01 0.  1.
       -5    1    3    3    0  502  0.10008274642E+03  0.89338132298E+03 -0.49727551306E+03  0.10273518240E+04  0.46999998093E+01 0. -1.
</event>
<event>
 5   0  0.4505107E-05  0.2274345E+04  0.7818609E-02  0.8488106E-01
        2   -1    0    0  501    0  0.00000000000E+00  0.00000000000E+00  0.19585711311E+04  0.19585711311E+04  0.25500000920E-02 0.  1.
       -2   -1    0    0    0  501  0.00000000000E+00  0.00000000000E+00 -0.66025740203E+03  0.66025740203E+03  0.25500000920E-02 0. -1.
    10030    2    1    2    0    0  0.00000000000E+00  0.00000000000E+00  0.12983137290E+04  0.26188285331E+04  0.22743448170E+04 0.  0.
        4    1    3    3  502    0  0.51365921641E+03  0.80522357599E+03  0.13598344009E+04  0.16617406563E+04  0.12699999809E+01 0.  1.
       -4    1    3    3    0  502 -0.51365921641E+03 -0.80522357599E+03 -0.61520671908E+02  0.95708787679E+03  0.12699999809E+01 0. -1.
</event>
<event>
 5   0  0.2031860E-05  0.2304207E+04  0.7818609E-02  0.8476264E-01
       -1   -1    0    0    0  501  0.00000000000E+00  0.00000000000E+00  0.76647576844E+03  0.76647576846E+03  0.50400001928E-02 0. -1.
        1   -1    0    0  501    0  0.00000000000E+00  0.00000000000E+00 -0.17317473250E+04  0.17317473250E+04  0.50400001928E-02 0.  1.
    10030    2    1    2    0    0  0.00000000000E+00  0.00000000000E+00 -0.96527155651E+03  0.24982230934E+04  0.23042069019E+04 0.  0.
        4    1    3    3  502    0  0.11330240031E+04  0.19681526060E+03 -0.55822806580E+03  0.12783191404E+04  0.12699999809E+01 0.  1.
       -4    1    3    3    0  502 -0.11330240031E+04 -0.19681526060E+03 -0.40704349071E+03  0.12199039530E+04  0.12699999809E+01 0. -1.
</event>
<event>
 5   0  0.2042951E-05  0.2270881E+04  0.7818609E-02  0.8489492E-01
       -1   -1    0    0    0  501  0.00000000000E+00  0.00000000000E+00  0.53990464744E+03  0.53990464746E+03  0.50400001928E-02 0.  1.
        1   -1    0    0  501    0  0.00000000000E+00  0.00000000000E+00 -0.23878750931E+04  0.23878750932E+04  0.50400001928E-02 0. -1.
    10030    2    1    2    0    0  0.00000000000E+00  0.00000000000E+00 -0.18479704457E+04  0.29277797406E+04  0.22708807633E+04 0.  0.
        2    1    3    3  502    0 -0.28872944183E+03 -0.68622197089E+03  0.18130364610E+03  0.76624819478E+03  0.25500000920E-02 0.  1.
       -2    1    3    3    0  502  0.28872944183E+03  0.68622197089E+03 -0.20292740918E+04  0.21615315458E+04  0.25500000920E-02 0. -1.
</event>
<event>
 5   0  0.4798609E-05  0.2270859E+04  0.7818609E-02  0.8489500E-01
       -2   -1    0    0    0  501  0.00000000000E+00  0.00000000000E+00  0.11409554002E+04  0.11409554002E+04  0.25500000920E-02 0. -1.
        2   -1    0    0  501    0  0.00000000000E+00  0.00000000000E+00 -0.11299303076E+04  0.11299303076E+04  0.25500000920E-02 0.  1.
    10030    2    1    2    0    0  0.00000000000E+00  0.00000000000E+00  0.11025092600E+02  0.22708857077E+04  0.22708589443E+04 0.  0.
        2    1    3    3  502    0  0.81770833330E+03  0.77596649603E+03  0.14126820667E+03  0.11361019442E+04  0.25500000920E-02 0. -1.
       -2    1    3    3    0  502 -0.81770833330E+03 -0.77596649603E+03 -0.13024311407E+03  0.11347837636E+04  0.25500000920E-02 0.  1.
</event>
<event>
 5   0  0.2042951E-05  0.2292888E+04  0.7818609E-02  0.8480730E-01
       -1   -1    0    0    0  501  0.00000000000E+00  0.00000000000E+00  0.14217306406E+04  0.14217306407E+04  0.50400001928E-02 0. -1.
        1   -1    0    0  501    0  0.00000000000E+00  0.00000000000E+00 -0.92446069687E+03  0.92446069688E+03  0.50400001928E-02 0.  1.
    10030    2    1    2    0    0  0.00000000000E+00  0.00000000000E+00  0.49726994378E+03  0.23461913375E+04  0.22928882213E+04 0.  0.
        2    1    3    3  502    0  0.10916434209E+04 -0.18407898630E+03  0.55349336922E+03  0.12377097161E+04  0.25500000920E-02 0. -1.
       -2    1    3    3    0  502 -0.10916434209E+04  0.18407898630E+03 -0.56223425441E+02  0.11084816215E+04  0.25500000920E-02 0.  1.
</event>
<event>
 5   0  0.4602447E-05  0.2325512E+04  0.7818609E-02  0.8467929E-01
       -2   -1    0    0    0  501  0.00000000000E+00  0.00000000000E+00  0.94705877493E+03  0.94705877493E+03  0.25500000920E-02 0. -1.
        2   -1    0    0  501    0  0.00000000000E+00  0.00000000000E+00 -0.14275796538E+04  0.14275796538E+04  0.25500000920E-02 0.  1.
    10030    2    1    2    0    0  0.00000000000E+00  0.00000000000E+00 -0.48052087888E+03  0.23746384287E+04  0.23255122774E+04 0.  0.
        3    1    3    3  502    0 -0.26619273051E+03 -0.10579081217E+04  0.17070098542E+03  0.11041589561E+04  0.10100000352E+00 0.  1.
       -3    1    3    3    0  502  0.26619273051E+03  0.10579081217E+04 -0.65122186431E+03  0.12704794727E+04  0.10100000352E+00 0. -1.
</event>
<event>
 5   0  0.4436695E-05  0.2288146E+04  0.7818609E-02  0.8482610E-01
       -2   -1    0    0    0  501  0.00000000000E+00  0.00000000000E+00  0.65294075555E+03  0.65294075555E+03  0.25500000920E-02 0.  1.
        2   -1    0    0  501    0  0.00000000000E+00  0.00000000000E+00 -0.20046278720E+04  0.20046278720E+04  0.25500000920E-02 0. -1.
    10030    2    1    2    0    0  0.00000000000E+00  0.00000000000E+00 -0.13516871164E+04  0.26575686275E+04  0.22881461818E+04 0.  0.
        5    1    3    3  502    0  0.87589891344E+02  0.62276979494E+03 -0.17858445476E+04  0.18933507453E+04  0.46999998093E+01 0. -1.
       -5    1    3    3    0  502 -0.87589891344E+02 -0.62276979494E+03  0.43415743114E+03  0.76421788226E+03  0.46999998093E+01 0.  1.
</event>
<event>
 5   0  0.2043885E-05  0.2299135E+04  0.7818609E-02  0.8478262E-01
        1   -1    0    0  501    0  0.00000000000E+00  0.00000000000E+00  0.11654794722E+04  0.11654794723E+04  0.50400001928E-02 0.  1.
       -1   -1    0    0    0  501  0.00000000000E+00  0.00000000000E+00 -0.11338722911E+04  0.11338722912E+04  0.50400001928E-02 0. -1.
    10030    2    1    2    0    0  0.00000000000E+00  0.00000000000E+00  0.31607181092E+02  0.22993517634E+04  0.22991345150E+04 0.  0.
        5    1    3    3  502    0 -0.10040469833E+04 -0.43475582505E+03  0.36848378629E+03  0.11545238684E+04  0.46999998093E+01 0.  1.
       -5    1    3    3    0  502  0.10040469833E+04  0.43475582505E+03 -0.33687660519E+03  0.11448278950E+04  0.46999998093E+01 0. -1.
</event>
<event>
 5   0  0.1968318E-05  0.2299920E+04  0.7818609E-02  0.8477953E-01
        1   -1    0    0  501    0  0.00000000000E+00  0.00000000000E+00  0.10890100388E+04  0.10890100388E+04  0.50400001928E-02 0. -1.
       -1   -1    0    0    0  501  0.00000000000E+00  0.00000000000E+00 -0.12143213928E+04  0.12143213928E+04  0.50400001928E-02 0.  1.
    10030    2    1    2    0    0  0.00000000000E+00  0.00000000000E+00 -0.12531135395E+03  0.23033314316E+04  0.22999201613E+04 0.  0.
        3    1    3    3  502    0  0.84804819310E+03 -0.76857299908E+03  0.49394068071E+02  0.11455697172E+04  0.10100000352E+00 0. -1.
       -3    1    3    3    0  502 -0.84804819310E+03  0.76857299908E+03 -0.17470542202E+03  0.11577617144E+04  0.10100000352E+00 0.  1.
</event>
<event>
 5   0  0.4602447E-05  0.2291797E+04  0.7818609E-02  0.8481162E-01
        2   -1    0    0  501    0  0.00000000000E+00  0.00000000000E+00  0.17641939416E+04  0.17641939416E+04  0.25500000920E-02 0. -1.
       -2   -1    0    0    0  501  0.00000000000E+00  0.00000000000E+00 -0.74429668233E+03  0.74429668233E+03  0.25500000920E-02 0.  1.
    10030    2    1    2    0    0  0.00000000000E+00  0.00000000000E+00  0.10198972593E+04  0.25084906239E+04  0.22917972840E+04 0.  0.
        3    1    3    3  502    0  0.10028275897E+04  0.51139212727E+03  0.27545231305E+03  0.11589042538E+04  0.10100000352E+00 0.  1.
       -3    1    3    3    0  502 -0.10028275897E+04 -0.51139212727E+03  0.74444494622E+03  0.13495863702E+04  0.10100000352E+00 0. -1.
</event>
<event>
 5   0  0.4605516E-05  0.2300194E+04  0.7818609E-02  0.8477844E-01
       -2   -1    0    0    0  501  0.00000000000E+00  0.00000000000E+00  0.60494886217E+03  0.60494886217E+03  0.25500000920E-02 0. -1.
        2   -1    0    0  501    0  0.00000000000E+00  0.00000000000E+00 -0.21865046650E+04  0.21865046650E+04  0.25500000920E-02 0.  1.
    10030    2    1    2    0    0  0.00000000000E+00  0.00000000000E+00 -0.15815558029E+04  0.27914535272E+04  0.23001943477E+04 0.  0.
        1    1    3    3  502    0  0.86344086499E+03 -0.51454054053E+03 -0.11243362116E+03  0.10113967641E+04  0.50400001928E-02 0. -1.
       -1    1    3    3    0  502 -0.86344086499E+03  0.51454054053E+03 -0.14691221817E+04  0.17800567631E+04  0.50400001928E-02 0.  1.
</event>
<event>
 5   0  0.4605516E-05  0.2304499E+04  0.7818609E-02  0.8476149E-01
       -2   -1    0    0    0  501  0.00000000000E+00  0.00000000000E+00  0.79543350272E+03  0.79543350273E+03  0.25500000920E-02 0.  1.
        2   -1    0    0  501    0  0.00000000000E+00  0.00000000000E+00 -0.16691256513E+04  0.16691256513E+04  0.25500000920E-02 0. -1.
    10030    2    1    2    0    0  0.00000000000E+00  0.00000000000E+00 -0.87369214858E+03  0.24645591540E+04  0.23044986121E+04 0.  0.
        1    1    3    3  502    0 -0.54760451907E+03 -0.65405319879E+03 -0.12652581924E+04  0.15259536656E+04  0.50400001928E-02 0. -1.
       -1    1    3    3    0  502  0.54760451907E+03  0.65405319879E+03  0.39156604382E+03  0.93860548840E+03  0.50400001928E-02 0.  1.
</event>
<event>
 5   0  0.4798609E-05  0.2277511E+04  0.7818609E-02  0.8486841E-01
        2   -1    0    0  501    0  0.00000000000E+00  0.00000000000E+00  0.15884586495E+04  0.15884586496E+04  0.25500000920E-02 0. -1.
       -2   -1    0    0    0  501  0.00000000000E+00  0.00000000000E+00 -0.81636617111E+03  0.81636617111E+03  0.25500000920E-02 0.  1.
    10030    2    1    2    0    0  0.00000000000E+00  0.00000000000E+00  0.77209247844E+03  0.24048248207E+04  0.22775108392E+04 0.  0.
        2    1    3    3  502    0  0.50805006173E+03  0.10062778942E+04  0.21561120775E+03  0.11476925801E+04  0.25500000920E-02 0.  1.
       -2    1    3    3    0  502 -0.50805006173E+03 -0.10062778942E+04  0.55648127069E+03  0.12571322405E+04  0.25500000920E-02 0. -1.
</event>
<event>
 5   0  0.2085063E-05  0.2331814E+04  0.7818609E-02  0.8465482E-01
       -1   -1    0    0    0  501  0.00000000000E+00  0.00000000000E+00  0.60313647741E+03  0.60313647743E+03  0.50400001928E-02 0. -1.
        1   -1    0    0  501    0  0.00000000000E+00  0.00000000000E+00 -0.22537836221E+04  0.22537836221E+04  0.50400001928E-02 0.  1.
    10030    2    1    2    0    0  0.00000000000E+00  0.00000000000E+00 -0.16506471447E+04  0.28569200995E+04  0.23318139846E+04 0.  0.
        1    1    3    3  502    0  0.80135917742E+03 -0.73234706395E+02  0.20834891811E+03  0.83123349618E+03  0.50400001928E-02 0. -1.
       -1    1    3    3    0  502 -0.80135917742E+03  0.73234706395E+02 -0.18589960628E+04  0.20256866033E+04  0.50400001928E-02 0.  1.
</event>
<event>
 5   0  0.4605516E-05  0.2286129E+04  0.7818609E-02  0.8483410E-01
        2   -1    0    0  501    0  0.00000000000E+00  0.00000000000E+00  0.12509491655E+04  0.12509491655E+04  0.25500000920E-02 0.  1.
       -2   -1    0    0    0  501  0.00000000000E+00  0.00000000000E+00 -0.10444838140E+04  0.10444838140E+04  0.25500000920E-02 0. -1.
    10030    2    1    2    0    0  0.00000000000E+00  0.00000000000E+00  0.20646535150E+03  0.22954329795E+04  0.22861287413E+04 0.  0.
        1    1    3    3  502    0 -0.26007483585E+03  0.32000833528E+03 -0.96719805744E+03  0.10514353700E+04  0.50400001928E-02 0. -1.
       -1    1    3    3    0  502  0.26007483585E+03 -0.32000833528E+03  0.11736634089E+04  0.12439976095E+04  0.50400001928E-02 0.  1.
</event>
<event>
 5   0  0.4505107E-05  0.2274544E+04  0.7818609E-02  0.8488026E-01
       -2   -1    0    0    0  501  0.00000000000E+00  0.00000000000E+00  0.13615161695E+04  0.13615161695E+04  0.25500000920E-02 0. -1.
        2   -1    0    0  501    0  0.00000000000E+00  0.00000000000E+00 -0.94996098860E+03  0.94996098860E+03  0.25500000920E-02 0.  1.
    10030    2    1    2    0    0  0.00000000000E+00  0.00000000000E+00  0.41155518091E+03  0.23114771581E+04  0.22745436873E+04 0.  0.
        4    1    3    3  502    0  0.20052267839E+03  0.25807911335E+03 -0.90120877685E+03  0.95864124973E+03  0.12699999809E+01 0.  1.
       -4    1    3    3    0  502 -0.20052267839E+03 -0.25807911335E+03  0.13127639578E+04  0.13528359084E+04  0.12699999809E+01 0. -1.
</event>
<event>
 5   0  0.4602447E-05  0.2304670E+04  0.7818609E-02  0.8476082E-01
       -2   -1    0    0    0  501  0.00000000000E+00  0.00000000000E+00  0.12834981634E+04  0.12834981634E+04  0.25500000920E-02 0.  1.
        2   -1    0    0  501    0  0.00000000000E+00  0.00000000000E+00 -0.10345757824E+04  0.10345757824E+04  0.25500000920E-02 0. -1.
    10030    2    1    2    0    0  0.00000000000E+00  0.00000000000E+00  0.24892238101E+03  0.23180739458E+04  0.23046701426E+04 0.  0.
        3    1    3    3  502    0  0.72366528411E+03 -0.63281725866E+03 -0.51462936092E+03  0.10904093340E+04  0.10100000352E+00 0. -1.
       -3    1    3    3    0  502 -0.72366528411E+03  0.63281725866E+03  0.76355174193E+03  0.12276646118E+04  0.10100000352E+00 0.  1.
</event>
<event>
 5   0  0.2043885E-05  0.2348004E+04  0.7818609E-02  0.8459231E-01
       -1   -1    0    0    0  501  0.00000000000E+00  0.00000000000E+00  0.16654746254E+04  0.16654746254E+04  0.50400001928E-02 0. -1.
        1   -1    0    0  501    0  0.00000000000E+00  0.00000000000E+00 -0.82756056277E+03  0.82756056278E+03  0.50400001928E-02 0.  1.
    10030    2    1    2    0    0  0.00000000000E+00  0.00000000000E+00  0.83791406262E+03  0.24930351882E+04  0.23480043597E+04 0.  0.
        5    1    3    3  502    0  0.81158093014E+03 -0.73932263853E+03  0.86057767934E+03  0.13949471682E+04  0.46999998093E+01 0. -1.
       -5    1    3    3    0  502 -0.81158093014E+03  0.73932263853E+03 -0.22663616711E+02  0.10980880199E+04  0.46999998093E+01 0.  1.
</event>
<event>
 5   0  0.2042951E-05  0.2295969E+04  0.7818609E-02  0.8479512E-01
        1   -1    0    0  501    0  0.00000000000E+00  0.00000000000E+00  0.11515149535E+04  0.11515149535E+04  0.50400001928E-02 0.  1.
       -1   -1    0    0    0  501  0.00000000000E+00  0.00000000000E+00 -0.11444652588E+04  0.11444652588E+04  0.50400001928E-02 0. -1.
    10030    2    1    2    0    0  0.00000000000E+00  0.00000000000E+00  0.70496946610E+01  0.22959802123E+04  0.22959693894E+04 0.  0.
        2    1    3    3  502    0 -0.27604891430E+03 -0.83711923929E+02  0.11146818164E+04  0.11514018591E+04  0.25500000920E-02 0.  1.
       -2    1    3    3    0  502  0.27604891430E+03  0.83711923929E+02 -0.11076321218E+04  0.11445783532E+04  0.25500000920E-02 0. -1.
</event>
<event>
 5   0  0.4605516E-05  0.2067968E+04  0.7818609E-02  0.8575486E-01
        2   -1    0    0  501    0  0.00000000000E+00  0.00000000000E+00  0.24805743870E+04  0.24805743870E+04  0.25500000920E-02 0.  1.
       -2   -1    0    0    0  501  0.00000000000E+00  0.00000000000E+00 -0.43099816865E+03  0.43099816865E+03  0.25500000920E-02 0. -1.
    10030    2    1    2    0    0  0.00000000000E+00  0.00000000000E+00  0.20495762184E+04  0.29115725557E+04  0.20679681023E+04 0.  0.
        1    1    3    3  502    0  0.56608248534E+03 -0.22186531214E+03  0.22022908833E+04  0.22846791310E+04  0.50400001928E-02 0.  1.
       -1    1    3    3    0  502 -0.56608248534E+03  0.22186531214E+03 -0.15271466496E+03  0.62689342464E+03  0.50400001928E-02 0. -1.
</event>
<event>
 5   0  0.4505107E-05  0.2286568E+04  0.7818609E-02  0.8483236E-01
        2   -1    0    0  501    0  0.00000000000E+00  0.00000000000E+00  0.20418690666E+04  0.20418690666E+04  0.25500000920E-02 0. -1.
       -2   -1    0    0    0  501  0.00000000000E+00  0.00000000000E+00 -0.64014774994E+03  0.64014774994E+03  0.25500000920E-02 0.  1.
    10030    2    1    2    0    0  0.00000000000E+00  0.00000000000E+00  0.14017213167E+04  0.26820168166E+04  0.22865676361E+04 0.  0.
        4    1    3    3  502    0  0.99938948246E+02 -0.41460377170E+03  0.19450734430E+04  0.19912800889E+04  0.12699999809E+01 0. -1.
       -4    1    3    3    0  502 -0.99938948246E+02  0.41460377170E+03 -0.54335212631E+03  0.69073672767E+03  0.12699999809E+01 0.  1.
</event>
<event>
 5   0  0.4602447E-05  0.2304473E+04  0.7818609E-02  0.8476160E-01
       -2   -1    0    0    0  501  0.00000000000E+00  0.00000000000E+00  0.61755950926E+03  0.61755950927E+03  0.25500000920E-02 0. -1.
        2   -1    0    0  501    0  0.00000000000E+00  0.00000000000E+00 -0.21498310488E+04  0.21498310488E+04  0.25500000920E-02 0.  1.
    10030    2    1    2    0    0  0.00000000000E+00  0.00000000000E+00 -0.15322715396E+04  0.27673905581E+04  0.23044727011E+04 0.  0.
        3    1    3    3  502    0 -0.51664178999E+03  0.10269132397E+04 -0.67173838462E+03  0.13314285593E+04  0.10100000352E+00 0.  1.
       -3    1    3    3    0  502  0.51664178999E+03 -0.10269132397E+04 -0.86053315495E+03  0.14359619988E+04  0.10100000352E+00 0. -1.
</event>
<event>
 5   0  0.2085063E-05  0.2313196E+04  0.7818609E-02  0.8472736E-01
        1   -1    0    0  501    0  0.00000000000E+00  0.00000000000E+00  0.22945831114E+04  0.22945831114E+04  0.50400001928E-02 0. -1.
       -1   -1    0    0    0  501  0.00000000000E+00  0.00000000000E+00 -0.58298996440E+03  0.58298996442E+03  0.50400001928E-02 0.  1.
    10030    2    1    2    0    0  0.00000000000E+00  0.00000000000E+00  0.17115931470E+04  0.28775730759E+04  0.23131959938E+04 0.  0.
        1    1    3    3  502    0  0.97262661674E+03 -0.58204467544E+03  0.56957162606E+03  0.12685386778E+04  0.50400001928E-02 0.  1.
       -1    1    3    3    0  502 -0.97262661674E+03  0.58204467544E+03  0.11420215210E+04  0.16090343981E+04  0.50400001928E-02 0. -1.
</event>
<event>
 5   0  0.4798609E-05  0.2297914E+04  0.7818609E-02  0.8478744E-01
        2   -1    0    0  501    0  0.00000000000E+00  0.00000000000E+00  0.88843198145E+03  0.88843198145E+03  0.25500000920E-02 0.  1.
       -2   -1    0    0    0  501  0.00000000000E+00  0.00000000000E+00 -0.14858784834E+04  0.14858784834E+04  0.25500000920E-02 0. -1.
    10030    2    1    2    0    0  0.00000000000E+00  0.00000000000E+00 -0.59744650199E+03  0.23743104649E+04  0.22979138063E+04 0.  0.
        2    1    3    3  502    0  0.10992091521E+04 -0.54688280835E+02 -0.63961679859E+03  0.12729340978E+04  0.25500000920E-02 0. -1.
       -2    1    3    3    0  502 -0.10992091521E+04  0.54688280835E+02  0.42170296594E+02  0.11013763671E+04  0.25500000920E-02 0.  1.
</event>
<event>
 5   0  0.2085063E-05  0.2368297E+04  0.7818609E-02  0.8451469E-01
        1   -1    0    0  501    0  0.00000000000E+00  0.00000000000E+00  0.17819316501E+04  0.17819316501E+04  0.50400001928E-02 0. -1.
       -1   -1    0    0    0  501  0.00000000000E+00  0.00000000000E+00 -0.78690317943E+03  0.78690317944E+03  0.50400001928E-02 0.  1.
    10030    2    1    2    0    0  0.00000000000E+00  0.00000000000E+00  0.99502847064E+03  0.25688348295E+04  0.23682970092E+04 0.  0.
        1    1    3    3  502    0 -0.10065430076E+04 -0.51577014018E+03  0.11701087164E+03  0.11370308737E+04  0.50400001928E-02 0.  1.
       -1    1    3    3    0  502  0.10065430076E+04  0.51577014018E+03  0.87801759900E+03  0.14318039558E+04  0.50400001928E-02 0. -1.
</event>
<event>
 5   0  0.2042951E-05  0.2302514E+04  0.7818609E-02  0.8476931E-01
       -1   -1    0    0    0  501  0.00000000000E+00  0.00000000000E+00  0.89871106510E+03  0.89871106511E+03  0.50400001928E-02 0. -1.
        1   -1    0    0  501    0  0.00000000000E+00  0.00000000000E+00 -0.14747702373E+04  0.14747702373E+04  0.50400001928E-02 0.  1.
    10030    2    1    2    0    0  0.00000000000E+00  0.00000000000E+00 -0.57605917221E+03  0.23734813024E+04  0.23025136966E+04 0.  0.
        2    1    3    3  502    0 -0.91438463563E+03  0.52819029072E+03  0.18469868714E+03  0.10720064599E+04  0.25500000920E-02 0. -1.
       -2    1    3    3    0  502  0.91438463563E+03 -0.52819029072E+03 -0.76075785935E+03  0.13014748425E+04  0.25500000920E-02 0.  1.
</event>
<event>
 5   0  0.4436695E-05  0.2251254E+04  0.7818609E-02  0.8497393E-01
        2   -1    0    0  501    0  0.00000000000E+00  0.00000000000E+00  0.26083746012E+04  0.26083746012E+04  0.25500000920E-02 0. -1.
       -2   -1    0    0    0  501  0.00000000000E+00  0.00000000000E+00 -0.48575707985E+03  0.48575707985E+03  0.25500000920E-02 0.  1.
    10030    2    1    2    0    0  0.00000000000E+00  0.00000000000E+00  0.21226175213E+04  0.30941316811E+04  0.22512542544E+04 0.  0.
        5    1    3    3  502    0  0.67290660222E+03  0.67063242948E+03  0.18910469538E+04  0.21162778226E+04  0.46999998093E+01 0. -1.
       -5    1    3    3    0  502 -0.67290660222E+03 -0.67063242948E+03  0.23157056753E+03  0.97785385847E+03  0.46999998093E+01 0.  1.
</event>
<event>
 5   0  0.2085063E-05  0.2290486E+04  0.7818609E-02  0.8481682E-01
        1   -1    0    0  501    0  0.00000000000E+00  0.00000000000E+00  0.70608796140E+03  0.70608796142E+03  0.50400001928E-02 0.  1.
       -1   -1    0    0    0  501  0.00000000000E+00  0.00000000000E+00 -0.18575329372E+04  0.18575329372E+04  0.50400001928E-02 0. -1.
    10030    2    1    2    0    0  0.00000000000E+00  0.00000000000E+00 -0.11514449758E+04  0.25636208987E+04  0.22904861012E+04 0.  0.
        1    1    3    3  502    0 -0.21071002445E+03 -0.28183423926E+03  0.64407883317E+03  0.73393923194E+03  0.50400001928E-02 0.  1.
       -1    1    3    3    0  502  0.21071002445E+03  0.28183423926E+03 -0.17955238090E+04  0.18296816667E+04  0.50400001928E-02 0. -1.
</event>
<event>
 5   0  0.4505107E-05  0.2169763E+04  0.7818609E-02  0.8531120E-01
       -2   -1    0    0    0  501  0.00000000000E+00  0.00000000000E+00  0.95397459042E+03  0.95397459042E+03  0.25500000920E-02 0. -1.
        2   -1    0    0  501    0  0.00000000000E+00  0.00000000000E+00 -0.12337516281E+04  0.12337516281E+04  0.25500000920E-02 0.  1.
    10030    2    1    2    0    0  0.00000000000E+00  0.00000000000E+00 -0.27977703766E+03  0.21877262185E+04  0.21697628479E+04 0.  0.
        4    1    3    3  502    0  0.97961039809E+03  0.31723833753E+03  0.20453785509E+03  0.10498161943E+04  0.12699999809E+01 0. -1.
       -4    1    3    3    0  502 -0.97961039809E+03 -0.31723833753E+03 -0.48431489275E+03  0.11379100242E+04  0.12699999809E+01 0.  1.
</event>
<event>
 5   0  0.1604500E-05  0.2317287E+04  0.7818609E-02  0.8471136E-01
       -3   -1    0    0    0  501  0.00000000000E+00  0.00000000000E+00  0.95228509148E+03  0.95228509683E+03  0.10100000352E+00 0.  1.
        3   -1    0    0  501    0  0.00000000000E+00  0.00000000000E+00 -0.14097192667E+04  0.14097192703E+04  0.10100000352E+00 0. -1.
    10030    2    1    2    0    0  0.00000000000E+00  0.00000000000E+00 -0.45743417520E+03  0.23620043671E+04  0.23172869062E+04 0.  0.
        4    1    3    3  502    0 -0.29007531331E+03  0.11214185171E+04 -0.20117982087E+03  0.11756692184E+04  0.12699999809E+01 0.  1.
       -4    1    3    3    0  502  0.29007531331E+03 -0.11214185171E+04 -0.25625435433E+03  0.11863351487E+04  0.12699999809E+01 0. -1.
</event>
<event>
 5   0  0.4602447E-05  0.2310258E+04  0.7818609E-02  0.8473887E-01
       -2   -1    0    0    0  501  0.00000000000E+00  0.00000000000E+00  0.17743435458E+04  0.17743435458E+04  0.25500000920E-02 0.  1.
        2   -1    0    0  501    0  0.00000000000E+00  0.00000000000E+00 -0.75200954394E+03  0.75200954394E+03  0.25500000920E-02 0. -1.
    10030    2    1    2    0    0  0.00000000000E+00  0.00000000000E+00  0.10223340019E+04  0.25263530898E+04  0.23102582372E+04 0.  0.
        3    1    3    3  502    0 -0.22347514956E+03  0.82120532255E+03 -0.34291553866E+03  0.91755675635E+03  0.10100000352E+00 0. -1.
       -3    1    3    3    0  502  0.22347514956E+03 -0.82120532255E+03  0.13652495405E+04  0.16087963334E+04  0.10100000352E+00 0.  1.
</event>
<event>
 5   0  0.4602447E-05  0.2303890E+04  0.7818609E-02  0.8476389E-01
        2   -1    0    0  501    0  0.00000000000E+00  0.00000000000E+00  0.15405855953E+04  0.15405855953E+04  0.25500000920E-02 0. -1.
       -2   -1    0    0    0  501  0.00000000000E+00  0.00000000000E+00 -0.86134628851E+03  0.86134628852E+03  0.25500000920E-02 0.  1.
    10030    2    1    2    0    0  0.00000000000E+00  0.00000000000E+00  0.67923930676E+03  0.24019318838E+04  0.23038903486E+04 0.  0.
        3    1    3    3  502    0  0.20914095738E+02 -0.97796321094E+03  0.97389084841E+03  0.13803306981E+04  0.10100000352E+00 0. -1.
       -3    1    3    3    0  502 -0.20914095738E+02  0.97796321094E+03 -0.29465154166E+03  0.10216011857E+04  0.10100000352E+00 0.  1.
</event>
<event>
 5   0  0.1968318E-05  0.2300222E+04  0.7818609E-02  0.8477833E-01
       -1   -1    0    0    0  501  0.00000000000E+00  0.00000000000E+00  0.53125838179E+03  0.53125838182E+03  0.50400001928E-02 0. -1.
        1   -1    0    0  501    0  0.00000000000E+00  0.00000000000E+00 -0.24898535426E+04  0.24898535426E+04  0.50400001928E-02 0.  1.
    10030    2    1    2    0    0  0.00000000000E+00  0.00000000000E+00 -0.19585951608E+04  0.30211119244E+04  0.23002222188E+04 0.  0.
        3    1    3    3  502    0  0.11103272418E+04  0.77176585866E+02 -0.13598953113E+04  0.17572985168E+04  0.10100000352E+00 0.  1.
       -3    1    3    3    0  502 -0.11103272418E+04 -0.77176585866E+02 -0.59869984955E+03  0.12638134076E+04  0.10100000352E+00 0. -1.
</event>
<event>
 5   0  0.4798609E-05  0.2313143E+04  0.7818609E-02  0.8472757E-01
       -2   -1    0    0    0  501  0.00000000000E+00  0.00000000000E+00  0.11721913108E+04  0.11721913108E+04  0.25500000920E-02 0. -1.
        2   -1    0    0  501    0  0.00000000000E+00  0.00000000000E+00 -0.11411600663E+04  0.11411600663E+04  0.25500000920E-02 0.  1.
    10030    2    1    2    0    0  0.00000000000E+00  0.00000000000E+00  0.31031244442E+02  0.23133513771E+04  0.23131432415E+04 0.  0.
        2    1    3    3  502    0 -0.85523691306E+03  0.66248446307E+03 -0.39359584032E+03  0.11511878764E+04  0.25500000920E-02 0. -1.
       -2    1    3    3    0  502  0.85523691306E+03 -0.66248446307E+03  0.42462708476E+03  0.11621635007E+04  0.25500000920E-02 0.  1.
</event>
<event>
 5   0  0.4505107E-05  0.2280857E+04  0.7818609E-02  0.8485507E-01
       -2   -1    0    0    0  501  0.00000000000E+00  0.00000000000E+00  0.60215588669E+03  0.60215588670E+03  0.25500000920E-02 0. -1.
        2   -1    0    0  501    0  0.00000000000E+00  0.00000000000E+00 -0.21598676113E+04  0.21598676113E+04  0.25500000920E-02 0.  1.
    10030    2    1    2    0    0  0.00000000000E+00  0.00000000000E+00 -0.15577117246E+04  0.27620234980E+04  0.22808568536E+04 0.  0.
        4    1    3    3  502    0  0.16023898359E+03 -0.50695882379E+03  0.44288782863E+03  0.69197906220E+03  0.12699999809E+01 0. -1.
       -4    1    3    3    0  502 -0.16023898359E+03  0.50695882379E+03 -0.20005995532E+04  0.20700444358E+04  0.12699999809E+01 0.  1.
</event>
<event>
 5   0  0.4505107E-05  0.2311765E+04  0.7818609E-02  0.8473297E-01
        2   -1    0    0  501    0  0.00000000000E+00  0.00000000000E+00  0.85389883205E+03  0.85389883206E+03  0.25500000920E-02 0. -1.
       -2   -1    0    0    0  501  0.00000000000E+00  0.00000000000E+00 -0.15646628567E+04  0.15646628567E+04  0.25500000920E-02 0.  1.
    10030    2    1    2    0    0  0.00000000000E+00  0.00000000000E+00 -0.71076402464E+03  0.24185616888E+04  0.23117645087E+04 0.  0.
        4    1    3    3  502    0 -0.10981553921E+04 -0.20533481764E+03 -0.66565406571E+03  0.13004632254E+04  0.12699999809E+01 0. -1.
       -4    1    3    3    0  502  0.10981553921E+04  0.20533481764E+03 -0.45109958923E+02  0.11180984634E+04  0.12699999809E+01 0.  1.
</event>
<event>
 5   0  0.2031860E-05  0.2285168E+04  0.7818609E-02  0.8483792E-01
       -1   -1    0    0    0  501  0.00000000000E+00  0.00000000000E+00  0.14977821863E+04  0.14977821863E+04  0.50400001928E-02 0.  1.
        1   -1    0    0  501    0  0.00000000000E+00  0.00000000000E+00 -0.87162081940E+03  0.87162081941E+03  0.50400001928E-02 0. -1.
    10030    2    1    2    0    0  0.00000000000E+00  0.00000000000E+00  0.62616136686E+03  0.23694030057E+04  0.22851679470E+04 0.  0.
        4    1    3    3  502    0  0.10368292303E+04 -0.44150156655E+03  0.11756135236E+03  0.11330316724E+04  0.12699999809E+01 0. -1.
       -4    1    3    3    0  502 -0.10368292303E+04  0.44150156655E+03  0.50860001450E+03  0.12363713333E+04  0.12699999809E+01 0.  1.
</event>
<event>
 5   0  0.1968318E-05  0.2301233E+04  0.7818609E-02  0.8477435E-01
        1   -1    0    0  501    0  0.00000000000E+00  0.00000000000E+00  0.12595653285E+04  0.12595653286E+04  0.50400001928E-02 0. -1.
       -1   -1    0    0    0  501  0.00000000000E+00  0.00000000000E+00 -0.10510916492E+04  0.10510916492E+04  0.50400001928E-02 0.  1.
    10030    2    1    2    0    0  0.00000000000E+00  0.00000000000E+00  0.20847367938E+03  0.23106569777E+04  0.23012332332E+04 0.  0.
        3    1    3    3  502    0 -0.76792870651E+03 -0.74090136920E+03  0.53642863097E+03  0.11943219932E+04  0.10100000352E+00 0. -1.
       -3    1    3    3    0  502  0.76792870651E+03  0.74090136920E+03 -0.32795495158E+03  0.11163349845E+04  0.10100000352E+00 0.  1.
</event>
<event>
 5   0  0.2085063E-05  0.2303747E+04  0.7818609E-02  0.8476445E-01
       -1   -1    0    0    0  501  0.00000000000E+00  0.00000000000E+00  0.12165934943E+04  0.12165934943E+04  0.50400001928E-02 0. -1.
        1   -1    0    0  501    0  0.00000000000E+00  0.00000000000E+00 -0.10905961278E+04  0.10905961278E+04  0.50400001928E-02 0.  1.
    10030    2    1    2    0    0  0.00000000000E+00  0.00000000000E+00  0.12599736651E+03  0.23071896221E+04  0.23037466475E+04 0.  0.
        1    1    3    3  502    0  0.54342693206E+03  0.95878480191E+03 -0.27251098688E+03  0.11352723747E+04  0.50400001928E-02 0. -1.
       -1    1    3    3    0  502 -0.54342693206E+03 -0.95878480191E+03  0.39850835339E+03  0.11719172473E+04  0.50400001928E-02 0.  1.
</event>
<event>
 5   0  0.2031860E-05  0.2326179E+04  0.7818609E-02  0.8467670E-01
        1   -1    0    0  501    0  0.00000000000E+00  0.00000000000E+00  0.15393681649E+04  0.15393681649E+04  0.50400001928E-02 0. -1.
       -1   -1    0    0    0  501  0.00000000000E+00  0.00000000000E+00 -0.87878697729E+03  0.87878697730E+03  0.50400001928E-02 0.  1.
    10030    2    1    2    0    0  0.00000000000E+00  0.00000000000E+00  0.66058118764E+03  0.24181551422E+04  0.23261785801E+04 0.  0.
        4    1    3    3  502    0  0.65381986919E+03 -0.33023573468E+03  0.12694726465E+04  0.14656392718E+04  0.12699999809E+01 0. -1.
       -4    1    3    3    0  502 -0.65381986919E+03  0.33023573468E+03 -0.60889145891E+03  0.95251587044E+03  0.12699999809E+01 0.  1.
</event>
<event>
 5   0  0.2085063E-05  0.2284399E+04  0.7818609E-02  0.8484098E-01
        1   -1    0    0  501    0  0.00000000000E+00  0.00000000000E+00  0.81186059350E+03  0.81186059351E+03  0.50400001928E-02 0.  1.
       -1   -1    0    0    0  501  0.00000000000E+00  0.00000000000E+00 -0.16069499735E+04  0.16069499735E+04  0.50400001928E-02 0. -1.
    10030    2    1    2    0    0  0.00000000000E+00  0.00000000000E+00 -0.79508938002E+03  0.24188105670E+04  0.22843987036E+04 0.  0.
        1    1    3    3  502    0  0.11316687262E+04 -0.13799465570E+03 -0.32340532330E+03  0.11850348661E+04  0.50400001928E-02 0.  1.
       -1    1    3    3    0  502 -0.11316687262E+04  0.13799465570E+03 -0.47168405672E+03  0.12337757009E+04  0.50400001928E-02 0. -1.
</event>
<event>
 5   0  0.4798609E-05  0.2326816E+04  0.7818609E-02  0.8467423E-01
        2   -1    0    0  501    0  0.00000000000E+00  0.00000000000E+00  0.11388431841E+04  0.11388431841E+04  0.25500000920E-02 0.  1.
       -2   -1    0    0    0  501  0.00000000000E+00  0.00000000000E+00 -0.11885023299E+04  0.11885023299E+04  0.25500000920E-02 0. -1.
    10030    2    1    2    0    0  0.00000000000E+00  0.00000000000E+00 -0.49659145792E+02  0.23273455141E+04  0.23268156590E+04 0.  0.
        2    1    3    3  502    0 -0.12273478932E+03  0.68580671792E+03  0.90711383331E+03  0.11437876505E+04  0.25500000920E-02 0.  1.
       -2    1    3    3    0  502  0.12273478932E+03 -0.68580671792E+03 -0.95677297910E+03  0.11835578636E+04  0.25500000920E-02 0. -1.
</event>
<event>
 5   0  0.2031860E-05  0.2318514E+04  0.7818609E-02  0.8470657E-01
       -1   -1    0    0    0  501  0.00000000000E+00  0.00000000000E+00  0.10872107533E+04  0.10872107534E+04  0.50400001928E-02 0.  1.
        1   -1    0    0  501    0  0.00000000000E+00  0.00000000000E+00 -0.12360775119E+04  0.12360775119E+04  0.50400001928E-02 0. -1.
    10030    2    1    2    0    0  0.00000000000E+00  0.00000000000E+00 -0.14886675855E+03  0.23232882653E+04  0.23185139749E+04 0.  0.
        4    1    3    3  502    0  0.85808734147E+03 -0.99876536544E+01  0.70656973204E+03  0.11116006648E+04  0.12699999809E+01 0.  1.
       -4    1    3    3    0  502 -0.85808734147E+03  0.99876536544E+01 -0.85543649060E+03  0.12116876005E+04  0.12699999809E+01 0. -1.
</event>
<event>
 5   0  0.4505107E-05  0.2289089E+04  0.7818609E-02  0.8482235E-01
       -2   -1    0    0    0  501  0.00000000000E+00  0.00000000000E+00  0.76916523893E+03  0.76916523893E+03  0.25500000920E-02 0. -1.
        2   -1    0    0  501    0  0.00000000000E+00  0.00000000000E+00 -0.17031225358E+04  0.17031225358E+04  0.25500000920E-02 0.  1.
    10030    2    1    2    0    0  0.00000000000E+00  0.00000000000E+00 -0.93395729685E+03  0.24722877747E+04  0.22890894715E+04 0.  0.
        4    1    3    3  502    0  0.68191473784E+02 -0.58828234569E+03 -0.15247778963E+04  0.16357491988E+04  0.12699999809E+01 0.  1.
       -4    1    3    3    0  502 -0.68191473784E+02  0.58828234569E+03  0.59082059946E+03  0.83653857592E+03  0.12699999809E+01 0. -1.
</event>
<event>
 5   0  0.2085063E-05  0.2307373E+04  0.7818609E-02  0.8475020E-01
       -1   -1    0    0    0  501  0.00000000000E+00  0.00000000000E+00  0.84373131761E+03  0.84373131763E+03  0.50400001928E-02 0. -1.
        1   -1    0    0  501    0  0.00000000000E+00  0.00000000000E+00 -0.15775071804E+04  0.15775071804E+04  0.50400001928E-02 0.  1.
    10030    2    1    2    0    0  0.00000000000E+00  0.00000000000E+00 -0.73377586278E+03  0.24212384980E+04  0.23073727153E+04 0.  0.
        1    1    3    3  502    0  0.73076046466E+03  0.75966484793E+03  0.12517791583E+03  0.10614947237E+04  0.50400001928E-02 0. -1.
       -1    1    3    3    0  502 -0.73076046466E+03 -0.75966484793E+03 -0.85895377861E+03  0.13597437743E+04  0.50400001928E-02 0.  1.
</event>
<event>
 5   0  0.1968318E-05  0.2304822E+04  0.7818609E-02  0.8476022E-01
        1   -1    0    0  501    0  0.00000000000E+00  0.00000000000E+00  0.12546955066E+04  0.12546955066E+04  0.50400001928E-02 0. -1.
       -1   -1    0    0    0  501  0.00000000000E+00  0.00000000000E+00 -0.10584649986E+04  0.10584649987E+04  0.50400001928E-02 0.  1.
    10030    2    1    2    0    0  0.00000000000E+00  0.00000000000E+00  0.19623050799E+03  0.23131605053E+04  0.23048221430E+04 0.  0.
        3    1    3    3  502    0  0.93281416535E+03  0.36203538601E+03  0.67188221886E+03  0.12052541699E+04  0.10100000352E+00 0.  1.
       -3    1    3    3    0  502 -0.93281416535E+03 -0.36203538601E+03 -0.47565171087E+03  0.11079063354E+04  0.10100000352E+00 0. -1.
</event>
<event>
 5   0  0.4798609E-05  0.2303653E+04  0.7818609E-02  0.8476482E-01
        2   -1    0    0  501    0  0.00000000000E+00  0.00000000000E+00  0.27784586986E+04  0.27784586986E+04  0.25500000920E-02 0. -1.
       -2   -1    0    0    0  501  0.00000000000E+00  0.00000000000E+00 -0.47749655690E+03  0.47749655691E+03  0.25500000920E-02 0.  1.
    10030    2    1    2    0    0  0.00000000000E+00  0.00000000000E+00  0.23009621417E+04  0.32559552555E+04  0.23036531528E+04 0.  0.
        2    1    3    3  502    0 -0.16019891194E+03  0.27494714943E+03  0.27150987041E+04  0.27336826077E+04  0.25500000920E-02 0. -1.
       -2    1    3    3    0  502  0.16019891194E+03 -0.27494714943E+03 -0.41413656241E+03  0.52227264785E+03  0.25500000920E-02 0.  1.
</event>
<event>
 5   0  0.4602447E-05  0.2322439E+04  0.7818609E-02  0.8469126E-01
        2   -1    0    0  501    0  0.00000000000E+00  0.00000000000E+00  0.16289268441E+04  0.16289268441E+04  0.25500000920E-02 0. -1.
       -2   -1    0    0    0  501  0.00000000000E+00  0.00000000000E+00 -0.82780346507E+03  0.82780346507E+03  0.25500000920E-02 0.  1.
    10030    2    1    2    0    0  0.00000000000E+00  0.00000000000E+00  0.80112337901E+03  0.24567303091E+04  0.23224394811E+04 0.  0.
        3    1    3    3  502    0  0.90420186494E+02  0.11428688283E+04  0.59591934099E+03  0.12920699826E+04  0.10100000352E+00 0.  1.
       -3    1    3    3    0  502 -0.90420186494E+02 -0.11428688283E+04  0.20520403801E+03  0.11646603265E+04  0.10100000352E+00 0. -1.
</event>
<event>
 5   0  0.4436695E-05  0.2302157E+04  0.7818609E-02  0.8477071E-01
       -2   -1    0    0    0  501  0.00000000000E+00  0.00000000000E+00  0.89177965071E+03  0.89177965072E+03  0.25500000920E-02 0. -1.
        2   -1    0    0  501    0  0.00000000000E+00  0.00000000000E+00 -0.14857722926E+04  0.14857722926E+04  0.25500000920E-02 0.  1.
    10030    2    1    2    0    0  0.00000000000E+00  0.00000000000E+00 -0.59399264189E+03  0.23775519433E+04  0.23021568115E+04 0.  0.
        5    1    3    3  502    0  0.73887065582E+03 -0.73701881017E+03 -0.79852670191E+03  0.13140751715E+04  0.46999998093E+01 0. -1.
       -5    1    3    3    0  502 -0.73887065582E+03  0.73701881017E+03  0.20453406002E+03  0.10634767719E+04  0.46999998093E+01 0.  1.
</event>
<event>
 5   0  0.2031860E-05  0.2270253E+04  0.7818609E-02  0.8489743E-01
        1   -1    0    0  501    0  0.00000000000E+00  0.00000000000E+00  0.10017852798E+04  0.10017852798E+04  0.50400001928E-02 0. -1.
       -1   -1    0    0    0  501  0.00000000000E+00  0.00000000000E+00 -0.12862161206E+04  0.12862161206E+04  0.50400001928E-02 0.  1.
    10030    2    1    2    0    0  0.00000000000E+00  0.00000000000E+00 -0.28443084075E+03  0.22880014004E+04  0.22702531809E+04 0.  0.
        4    1    3    3  502    0 -0.49690621432E+02  0.79899663570E+03 -0.95327140038E+03  0.12448263965E+04  0.12699999809E+01 0.  1.
       -4    1    3    3    0  502  0.49690621432E+02 -0.79899663570E+03  0.66884055963E+03  0.10431750039E+04  0.12699999809E+01 0. -1.
</event>
<event>
 5   0  0.2085063E-05  0.2311159E+04  0.7818609E-02  0.8473534E-01
       -1   -1    0    0    0  501  0.00000000000E+00  0.00000000000E+00  0.97416649835E+03  0.97416649836E+03  0.50400001928E-02 0. -1.
        1   -1    0    0  501    0  0.00000000000E+00  0.00000000000E+00 -0.13707755927E+04  0.13707755927E+04  0.50400001928E-02 0.  1.
    10030    2    1    2    0    0  0.00000000000E+00  0.00000000000E+00 -0.39660909432E+03  0.23449420910E+04  0.23111587216E+04 0.  0.
        1    1    3    3  502    0  0.21384294444E+03  0.11052462757E+04  0.66402770465E+02  0.11277000766E+04  0.50400001928E-02 0.  1.
       -1    1    3    3    0  502 -0.21384294444E+03 -0.11052462757E+04 -0.46301186479E+03  0.12172420145E+04  0.50400001928E-02 0. -1.
</event>
<event>
 5   0  0.1968318E-05  0.2182428E+04  0.7818609E-02  0.8525778E-01
       -1   -1    0    0    0  501  0.00000000000E+00  0.00000000000E+00  0.80331836557E+03  0.80331836559E+03  0.50400001928E-02 0.  1.
        1   -1    0    0  501    0  0.00000000000E+00  0.00000000000E+00 -0.14822859612E+04  0.14822859612E+04  0.50400001928E-02 0. -1.
    10030    2    1    2    0    0  0.00000000000E+00  0.00000000000E+00 -0.67896759565E+03  0.22856043268E+04  0.21824275802E+04 0.  0.
        3    1    3    3  502    0  0.86926917545E+03 -0.65963271229E+03 -0.34138943895E+03  0.11433682581E+04  0.10100000352E+00 0.  1.
       -3    1    3    3    0  502 -0.86926917545E+03  0.65963271229E+03 -0.33757815670E+03  0.11422360687E+04  0.10100000352E+00 0. -1.
</event>
<event>
 5   0  0.4602447E-05  0.2299137E+04  0.7818609E-02  0.8478261E-01
        2   -1    0    0  501    0  0.00000000000E+00  0.00000000000E+00  0.19369406268E+04  0.19369406268E+04  0.25500000920E-02 0.  1.
       -2   -1    0    0    0  501  0.00000000000E+00  0.00000000000E+00 -0.68226555837E+03  0.68226555838E+03  0.25500000920E-02 0. -1.
    10030    2    1    2    0    0  0.00000000000E+00  0.00000000000E+00  0.12546750684E+04  0.26192061851E+04  0.22991371236E+04 0.  0.
        3    1    3    3  502    0  0.51844773686E+03  0.10233348734E+04  0.71186641822E+03  0.13500948583E+04  0.10100000352E+00 0.  1.
       -3    1    3    3    0  502 -0.51844773686E+03 -0.10233348734E+04  0.54280865017E+03  0.12691113268E+04  0.10100000352E+00 0. -1.
</event>
<event>
 5   0  0.4798609E-05  0.2305438E+04  0.7818609E-02  0.8475780E-01
       -2   -1    0    0    0  501  0.00000000000E+00  0.00000000000E+00  0.16493787376E+04  0.16493787376E+04  0.25500000920E-02 0. -1.
        2   -1    0    0  501    0  0.00000000000E+00  0.00000000000E+00 -0.80561339070E+03  0.80561339071E+03  0.25500000920E-02 0.  1.
    10030    2    1    2    0    0  0.00000000000E+00  0.00000000000E+00  0.84376534690E+03  0.24549921283E+04  0.23054384376E+04 0.  0.
        2    1    3    3  502    0  0.84037536318E+03  0.78900600208E+03  0.42123058029E+03  0.12272719438E+04  0.25500000920E-02 0.  1.
       -2    1    3    3    0  502 -0.84037536318E+03 -0.78900600208E+03  0.42253476661E+03  0.12277201845E+04  0.25500000920E-02 0. -1.
</event>
<event>
 5   0  0.2042951E-05  0.2313918E+04  0.7818609E-02  0.8472454E-01
        1   -1    0    0  501    0  0.00000000000E+00  0.00000000000E+00  0.13447528203E+04  0.13447528203E+04  0.50400001928E-02 0. -1.
       -1   -1    0    0    0  501  0.00000000000E+00  0.00000000000E+00 -0.99539030991E+03  0.99539030993E+03  0.50400001928E-02 0.  1.
    10030    2    1    2    0    0  0.00000000000E+00  0.00000000000E+00  0.34936251039E+03  0.23401431302E+04  0.23139178262E+04 0.  0.
        2    1    3    3  502    0 -0.42658143921E+03  0.91056530777E+03  0.75340192081E+03  0.12564694020E+04  0.25500000920E-02 0. -1.
       -2    1    3    3    0  502  0.42658143921E+03 -0.91056530777E+03 -0.40403941042E+03  0.10836737282E+04  0.25500000920E-02 0.  1.
</event>
<event>
 5   0  0.2042951E-05  0.2243407E+04  0.7818609E-02  0.8500575E-01
        1   -1    0    0  501    0  0.00000000000E+00  0.00000000000E+00  0.14984344896E+04  0.14984344896E+04  0.50400001928E-02 0.  1.
       -1   -1    0    0    0  501  0.00000000000E+00  0.00000000000E+00 -0.83968867744E+03  0.83968867746E+03  0.50400001928E-02 0. -1.
    10030    2    1    2    0    0  0.00000000000E+00  0.00000000000E+00  0.65874581212E+03  0.23381231670E+04  0.22434067619E+04 0.  0.
        2    1    3    3  502    0  0.43532146343E+03  0.14156015567E+03  0.13966561666E+04  0.14697593346E+04  0.25500000920E-02 0.  1.
       -2    1    3    3    0  502 -0.43532146343E+03 -0.14156015567E+03 -0.73791035444E+03  0.86836383238E+03  0.25500000920E-02 0. -1.
</event>
<event>
 5   0  0.4605516E-05  0.2303104E+04  0.7818609E-02  0.8476698E-01
        2   -1    0    0  501    0  0.00000000000E+00  0.00000000000E+00  0.91791673326E+03  0.91791673326E+03  0.25500000920E-02 0.  1.
       -2   -1    0    0    0  501  0.00000000000E+00  0.00000000000E+00 -0.14446542309E+04  0.14446542309E+04  0.25500000920E-02 0. -1.
    10030    2    1    2    0    0  0.00000000000E+00  0.00000000000E+00 -0.52673749769E+03  0.23625709642E+04  0.23031042463E+04 0.  0.
        1    1    3    3  502    0  0.97048783428E+03  0.12520076620E+03  0.35938983696E+03  0.10424408488E+04  0.50400001928E-02 0.  1.
       -1    1    3    3    0  502 -0.97048783428E+03 -0.12520076620E+03 -0.88612733464E+03  0.13201301154E+04  0.50400001928E-02 0. -1.
</event>
<event>
 5   0  0.1968318E-05  0.2303710E+04  0.7818609E-02  0.8476460E-01
        1   -1    0    0  501    0  0.00000000000E+00  0.00000000000E+00  0.97910349542E+03  0.97910349543E+03  0.50400001928E-02 0. -1.
       -1   -1    0    0    0  501  0.00000000000E+00  0.00000000000E+00 -0.13550864797E+04  0.13550864798E+04  0.50400001928E-02 0.  1.
    10030    2    1    2    0    0  0.00000000000E+00  0.00000000000E+00 -0.37598298432E+03  0.23341899752E+04  0.23037099721E+04 0.  0.
        3    1    3    3  502    0 -0.82489101098E+03  0.37189180748E+03  0.53419492544E+03  0.10507677788E+04  0.10100000352E+00 0. -1.
       -3    1    3    3    0  502  0.82489101098E+03 -0.37189180748E+03 -0.91017790976E+03  0.12834221964E+04  0.10100000352E+00 0.  1.
</event>
<event>
 5   0  0.4605516E-05  0.2301559E+04  0.7818609E-02  0.8477307E-01
       -2   -1    0    0    0  501  0.00000000000E+00  0.00000000000E+00  0.49648827085E+03  0.49648827086E+03  0.25500000920E-02 0.  1.
        2   -1    0    0  501    0  0.00000000000E+00  0.00000000000E+00 -0.26673200298E+04  0.26673200298E+04  0.25500000920E-02 0. -1.
    10030    2    1    2    0    0  0.00000000000E+00  0.00000000000E+00 -0.21708317590E+04  0.31638083007E+04  0.23015586974E+04 0.  0.
        1    1    3    3  502    0 -0.25453232299E+03  0.70727057943E+03  0.11239314227E+03  0.76003328508E+03  0.50400001928E-02 0.  1.
       -1    1    3    3    0  502  0.25453232299E+03 -0.70727057943E+03 -0.22832249012E+04  0.24037750156E+04  0.50400001928E-02 0. -1.
</event>
<event>
 5   0  0.2042951E-05  0.2367825E+04  0.7818609E-02  0.8451649E-01
        1   -1    0    0  501    0  0.00000000000E+00  0.00000000000E+00  0.14660168159E+04  0.14660168159E+04  0.50400001928E-02 0.  1.
       -1   -1    0    0    0  501  0.00000000000E+00  0.00000000000E+00 -0.95609318336E+03  0.95609318337E+03  0.50400001928E-02 0. -1.
    10030    2    1    2    0    0  0.00000000000E+00  0.00000000000E+00  0.50992363254E+03  0.24221099993E+04  0.23678248959E+04 0.  0.
        2    1    3    3  502    0  0.74390387759E+03 -0.49960349829E+03  0.10464264566E+04  0.13776810094E+04  0.25500000920E-02 0.  1.
       -2    1    3    3    0  502 -0.74390387759E+03  0.49960349829E+03 -0.53650282408E+03  0.10444289899E+04  0.25500000920E-02 0. -1.
</event>
<event>
 5   0  0.2031860E-05  0.2303894E+04  0.7818609E-02  0.8476387E-01
       -1   -1    0    0    0  501  0.00000000000E+00  0.00000000000E+00  0.99425761109E+03  0.99425761111E+03  0.50400001928E-02 0.  1.
        1   -1    0    0  501    0  0.00000000000E+00  0.00000000000E+00 -0.13346458037E+04  0.13346458037E+04  0.50400001928E-02 0. -1.
    10030    2    1    2    0    0  0.00000000000E+00  0.00000000000E+00 -0.34038819256E+03  0.23289034148E+04  0.23038938764E+04 0.  0.
        4    1    3    3  502    0 -0.51385416218E+03  0.42430326483E+03  0.77963387801E+03  0.10256266168E+04  0.12699999809E+01 0.  1.
       -4    1    3    3    0  502  0.51385416218E+03 -0.42430326483E+03 -0.11200220706E+04  0.13032767979E+04  0.12699999809E+01 0. -1.
</event>
<event>
 5   0  0.4505107E-05  0.2293720E+04  0.7818609E-02  0.8480401E-01
       -2   -1    0    0    0  501  0.00000000000E+00  0.00000000000E+00  0.70437842702E+03  0.70437842702E+03  0.25500000920E-02 0. -1.
        2   -1    0    0  501    0  0.00000000000E+00  0.00000000000E+00 -0.18673028302E+04  0.18673028302E+04  0.25500000920E-02 0.  1.
    10030    2    1    2    0    0  0.00000000000E+00  0.00000000000E+00 -0.11629244032E+04  0.25716812572E+04  0.22937199744E+04 0.  0.
        4    1    3    3  502    0 -0.26918731769E+03 -0.10411362930E+04 -0.10283345778E+04  0.14879180789E+04  0.12699999809E+01 0.  1.
       -4    1    3    3    0  502  0.26918731769E+03  0.10411362930E+04 -0.13458982537E+03  0.10837631783E+04  0.12699999809E+01 0. -1.
</event>
<event>
 5   0  0.4798609E-05  0.2315920E+04  0.7818609E-02  0.8471671E-01
       -2   -1    0    0    0  501  0.00000000000E+00  0.00000000000E+00  0.11381437283E+04  0.11381437283E+04  0.25500000920E-02 0. -1.
        2   -1    0    0  501    0  0.00000000000E+00  0.00000000000E+00 -0.11781208135E+04  0.11781208135E+04  0.25500000920E-02 0.  1.
    10030    2    1    2    0    0  0.00000000000E+00  0.00000000000E+00 -0.39977085222E+02  0.23162645418E+04  0.23159195280E+04 0.  0.
        2    1    3    3  502    0  0.88925044380E+03  0.35212422609E+03  0.63288201298E+03  0.11468641876E+04  0.25500000920E-02 0. -1.
       -2    1    3    3    0  502 -0.88925044380E+03 -0.35212422609E+03 -0.67285909820E+03  0.11694003542E+04  0.25500000920E-02 0.  1.
</event>
<event>
 5   0  0.2043885E-05  0.2295056E+04  0.7818609E-02  0.8479873E-01
       -1   -1    0    0    0  501  0.00000000000E+00  0.00000000000E+00  0.15280131702E+04  0.15280131702E+04  0.50400001928E-02 0.  1.
        1   -1    0    0  501    0  0.00000000000E+00  0.00000000000E+00 -0.86178624773E+03  0.86178624774E+03  0.50400001928E-02 0. -1.
    10030    2    1    2    0    0  0.00000000000E+00  0.00000000000E+00  0.66622692248E+03  0.23897994180E+04  0.22950561967E+04 0.  0.
        5    1    3    3  502    0  0.61594145854E+03 -0.22744199344E+03 -0.64684518380E+03  0.92170739529E+03  0.46999998093E+01 0. -1.
       -5    1    3    3    0  502 -0.61594145854E+03  0.22744199344E+03  0.13130721063E+04  0.14680920227E+04  0.46999998093E+01 0.  1.
</event>
<event>
 5   0  0.4436695E-05  0.2196551E+04  0.7818609E-02  0.8519865E-01
       -2   -1    0    0    0  501  0.00000000000E+00  0.00000000000E+00  0.97317944938E+03  0.97317944938E+03  0.25500000920E-02 0.  1.
        2   -1    0    0  501    0  0.00000000000E+00  0.00000000000E+00 -0.12394514146E+04  0.12394514146E+04  0.25500000920E-02 0. -1.
    10030    2    1    2    0    0  0.00000000000E+00  0.00000000000E+00 -0.26627196522E+03  0.22126308640E+04  0.21965506097E+04 0.  0.
        5    1    3    3  502    0 -0.21974272962E+02  0.10563146045E+04 -0.43516953389E+03  0.11426626911E+04  0.46999998093E+01 0.  1.
       -5    1    3    3    0  502  0.21974272962E+02 -0.10563146045E+04  0.16889756867E+03  0.10699681729E+04  0.46999998093E+01 0. -1.
</event>
<event>
 5   0  0.4798609E-05  0.2304906E+04  0.7818609E-02  0.8475989E-01
        2   -1    0    0  501    0  0.00000000000E+00  0.00000000000E+00  0.13150649743E+04  0.13150649743E+04  0.25500000920E-02 0. -1.
       -2   -1    0    0    0  501  0.00000000000E+00  0.00000000000E+00 -0.10099485095E+04  0.10099485095E+04  0.25500000920E-02 0.  1.
    10030    2    1    2    0    0  0.00000000000E+00  0.00000000000E+00  0.30511646482E+03  0.23250134838E+04  0.23049059944E+04 0.  0.
        2    1    3    3  502    0 -0.42381439742E+03  0.93668920153E+03  0.67781437775E+03  0.12314372231E+04  0.25500000920E-02 0. -1.
       -2    1    3    3    0  502  0.42381439742E+03 -0.93668920153E+03 -0.37269791293E+03  0.10935762607E+04  0.25500000920E-02 0.  1.
</event>
<event>
 5   0  0.4436695E-05  0.2141496E+04  0.7818609E-02  0.8543181E-01
       -2   -1    0    0    0  501  0.00000000000E+00  0.00000000000E+00  0.56635255336E+03  0.56635255336E+03  0.25500000920E-02 0.  1.
        2   -1    0    0  501    0  0.00000000000E+00  0.00000000000E+00 -0.20243600068E+04  0.20243600068E+04  0.25500000920E-02 0. -1.
    10030    2    1    2    0    0  0.00000000000E+00  0.00000000000E+00 -0.14580074535E+04  0.25907125602E+04  0.21414961674E+04 0.  0.
        5    1    3    3  502    0  0.85401690430E+03 -0.64143924588E+03 -0.82026054139E+03  0.13467140100E+04  0.46999998093E+01 0. -1.
       -5    1    3    3    0  502 -0.85401690430E+03  0.64143924588E+03 -0.63774691208E+03  0.12439985502E+04  0.46999998093E+01 0.  1.
</event>
<event>
 5   0  0.1968318E-05  0.2283040E+04  0.7818609E-02  0.8484638E-01
       -1   -1    0    0    0  501  0.00000000000E+00  0.00000000000E+00  0.15275000945E+04  0.15275000945E+04  0.50400001928E-02 0. -1.
        1   -1    0    0  501    0  0.00000000000E+00  0.00000000000E+00 -0.85307248628E+03  0.85307248629E+03  0.50400001928E-02 0.  1.
    10030    2    1    2    0    0  0.00000000000E+00  0.00000000000E+00  0.67442760823E+03  0.23805725808E+04  0.22830403443E+04 0.  0.
        3    1    3    3  502    0 -0.26887539548E+02  0.10345395018E+04  0.83953383629E+03  0.13325959602E+04  0.10100000352E+00 0. -1.
       -3    1    3    3    0  502  0.26887539548E+02 -0.10345395018E+04 -0.16510622806E+03  0.10479766206E+04  0.10100000352E+00 0.  1.
</event>
<event>
 5   0  0.4605516E-05  0.2300834E+04  0.7818609E-02  0.8477592E-01
       -2   -1    0    0    0  501  0.00000000000E+00  0.00000000000E+00  0.63997026366E+03  0.63997026366E+03  0.25500000920E-02 0.  1.
        2   -1    0    0  501    0  0.00000000000E+00  0.00000000000E+00 -0.20680017001E+04  0.20680017001E+04  0.25500000920E-02 0. -1.
    10030    2    1    2    0    0  0.00000000000E+00  0.00000000000E+00 -0.14280314365E+04  0.27079719638E+04  0.23008342776E+04 0.  0.
        1    1    3    3  502    0 -0.69168082910E+03 -0.54579412255E+03 -0.15845992328E+04  0.18130825469E+04  0.50400001928E-02 0. -1.
       -1    1    3    3    0  502  0.69168082910E+03  0.54579412255E+03  0.15656779628E+03  0.89488941686E+03  0.50400001928E-02 0.  1.
</event>
<event>
 5   0  0.1968318E-05  0.2302340E+04  0.7818609E-02  0.8476999E-01
        1   -1    0    0  501    0  0.00000000000E+00  0.00000000000E+00  0.15791427228E+04  0.15791427228E+04  0.50400001928E-02 0.  1.
       -1   -1    0    0    0  501  0.00000000000E+00  0.00000000000E+00 -0.83918438318E+03  0.83918438319E+03  0.50400001928E-02 0. -1.
    10030    2    1    2    0    0  0.00000000000E+00  0.00000000000E+00  0.73995833960E+03  0.24183271060E+04  0.23023396029E+04 0.  0.
        3    1    3    3  502    0  0.63279895155E+02 -0.98310487841E+02  0.15728903182E+04  0.15772296156E+04  0.10100000352E+00 0.  1.
       -3    1    3    3    0  502 -0.63279895155E+02  0.98310487841E+02 -0.83293197858E+03  0.84109749036E+03  0.10100000352E+00 0. -1.
</event>
<event>
 5   0  0.4798609E-05  0.2296668E+04  0.7818609E-02  0.8479236E-01
       -2   -1    0    0    0  501  0.00000000000E+00  0.00000000000E+00  0.75398873325E+03  0.75398873325E+03  0.25500000920E-02 0.  1.
        2   -1    0    0  501    0  0.00000000000E+00  0.00000000000E+00 -0.17489272557E+04  0.17489272557E+04  0.25500000920E-02 0. -1.
    10030    2    1    2    0    0  0.00000000000E+00  0.00000000000E+00 -0.99493852243E+03  0.25029159889E+04  0.22966684097E+04 0.  0.
        2    1    3    3  502    0 -0.59316173613E+03 -0.25636424886E+03  0.53704478556E+03  0.84022650221E+03  0.25500000920E-02 0.  1.
       -2    1    3    3    0  502  0.59316173613E+03  0.25636424886E+03 -0.15319833080E+04  0.16626894867E+04  0.25500000920E-02 0. -1.
</event>
<event>
 5   0  0.4602447E-05  0.2295615E+04  0.7818609E-02  0.8479652E-01
       -2   -1    0    0    0  501  0.00000000000E+00  0.00000000000E+00  0.98661341961E+03  0.98661341961E+03  0.25500000920E-02 0. -1.
        2   -1    0    0  501    0  0.00000000000E+00  0.00000000000E+00 -0.13353376124E+04  0.13353376124E+04  0.25500000920E-02 0.  1.
    10030    2    1    2    0    0  0.00000000000E+00  0.00000000000E+00 -0.34872419281E+03  0.23219510320E+04  0.22956149574E+04 0.  0.
        3    1    3    3  502    0  0.80842261462E+03 -0.80897801554E+03 -0.75934640143E+02  0.11461931047E+04  0.10100000352E+00 0.  1.
       -3    1    3    3    0  502 -0.80842261462E+03  0.80897801554E+03 -0.27278955266E+03  0.11757579273E+04  0.10100000352E+00 0. -1.
</event>
<event>
 5   0  0.4605516E-05  0.2186939E+04  0.7818609E-02  0.8523884E-01
        2   -1    0    0  501    0  0.00000000000E+00  0.00000000000E+00  0.12928046924E+04  0.12928046924E+04  0.25500000920E-02 0.  1.
       -2   -1    0    0    0  501  0.00000000000E+00  0.00000000000E+00 -0.92486959568E+03  0.92486959568E+03  0.25500000920E-02 0. -1.
    10030    2    1    2    0    0  0.00000000000E+00  0.00000000000E+00  0.36793509670E+03  0.22176742881E+04  0.21869391881E+04 0.  0.
        1    1    3    3  502    0  0.83744636209E+02 -0.10598294330E+04  0.44334375727E+03  0.11518703392E+04  0.50400001928E-02 0.  1.
       -1    1    3    3    0  502 -0.83744636209E+02  0.10598294330E+04 -0.75408660573E+02  0.10658039488E+04  0.50400001928E-02 0. -1.
</event>
<event>
 5   0  0.4436695E-05  0.2245541E+04  0.7818609E-02  0.8499709E-01
        2   -1    0    0  501    0  0.00000000000E+00  0.00000000000E+00  0.22394983306E+04  0.22394983306E+04  0.25500000920E-02 0. -1.
       -2   -1    0    0    0  501  0.00000000000E+00  0.00000000000E+00 -0.56289975661E+03  0.56289975661E+03  0.25500000920E-02 0.  1.
    10030    2    1    2    0    0  0.00000000000E+00  0.00000000000E+00  0.16765985740E+04  0.28023980872E+04  0.22455405276E+04 0.  0.
        5    1    3    3  502    0  0.10157722148E+04 -0.56415009505E+02  0.14310786015E+04  0.17558427889E+04  0.46999998093E+01 0. -1.
       -5    1    3    3    0  502 -0.10157722148E+04  0.56415009505E+02  0.24551997249E+03  0.10465552983E+04  0.46999998093E+01 0.  1.
</event>
<event>
 5   0  0.2031860E-05  0.2368858E+04  0.7818609E-02  0.8451255E-01
       -1   -1    0    0    0  501  0.00000000000E+00  0.00000000000E+00  0.15168435600E+04  0.15168435600E+04  0.50400001928E-02 0. -1.
        1   -1    0    0  501    0  0.00000000000E+00  0.00000000000E+00 -0.92486304627E+03  0.92486304629E+03  0.50400001928E-02 0.  1.
    10030    2    1    2    0    0  0.00000000000E+00  0.00000000000E+00  0.59198051373E+03  0.24417066063E+04  0.23688584218E+04 0.  0.
        4    1    3    3  502    0 -0.36094090299E+03 -0.52768714267E+03  0.13237175827E+04  0.14700210569E+04  0.12699999809E+01 0. -1.
       -4    1    3    3    0  502  0.36094090299E+03  0.52768714267E+03 -0.73173706896E+03  0.97168554944E+03  0.12699999809E+01 0.  1.
</event>
<event>
 5   0  0.2043885E-05  0.2297661E+04  0.7818609E-02  0.8478844E-01
        1   -1    0    0  501    0  0.00000000000E+00  0.00000000000E+00  0.11398699018E+04  0.11398699018E+04  0.50400001928E-02 0. -1.
       -1   -1    0    0    0  501  0.00000000000E+00  0.00000000000E+00 -0.11578611644E+04  0.11578611644E+04  0.50400001928E-02 0.  1.
    10030    2    1    2    0    0  0.00000000000E+00  0.00000000000E+00 -0.17991262662E+02  0.22977310662E+04  0.22976606292E+04 0.  0.
        5    1    3    3  502    0 -0.50973211953E+03 -0.93381196078E+03 -0.44254945058E+03  0.11522602649E+04  0.46999998093E+01 0.  1.
       -5    1    3    3    0  502  0.50973211953E+03  0.93381196078E+03  0.42455818792E+03  0.11454708013E+04  0.46999998093E+01 0. -1.
</event>
<event>
 5   0  0.4505107E-05  0.2327198E+04  0.7818609E-02  0.8467274E-01
       -2   -1    0    0    0  501  0.00000000000E+00  0.00000000000E+00  0.71059686458E+03  0.71059686459E+03  0.25500000920E-02 0.  1.
        2   -1    0    0  501    0  0.00000000000E+00  0.00000000000E+00 -0.19053886066E+04  0.19053886066E+04  0.25500000920E-02 0. -1.
    10030    2    1    2    0    0  0.00000000000E+00  0.00000000000E+00 -0.11947917420E+04  0.26159854712E+04  0.23271984614E+04 0.  0.
        4    1    3    3  502    0 -0.23506166024E+03 -0.17290250251E+03 -0.18635908765E+04  0.18862984460E+04  0.12699999809E+01 0. -1.
       -4    1    3    3    0  502  0.23506166024E+03  0.17290250251E+03  0.66879913450E+03  0.72968702517E+03  0.12699999809E+01 0.  1.
</event>
<event>
 5   0  0.2031860E-05  0.2217865E+04  0.7818609E-02  0.8511029E-01
       -1   -1    0    0    0  501  0.00000000000E+00  0.00000000000E+00  0.10963080168E+04  0.10963080168E+04  0.50400001928E-02 0. -1.
        1   -1    0    0  501    0  0.00000000000E+00  0.00000000000E+00 -0.11217025363E+04  0.11217025363E+04  0.50400001928E-02 0.  1.
    10030    2    1    2    0    0  0.00000000000E+00  0.00000000000E+00 -0.25394519528E+02  0.22180105531E+04  0.22178651744E+04 0.  0.
        4    1    3    3  502    0  0.21653716678E+03 -0.27131971307E+03 -0.10659648235E+04  0.11210643822E+04  0.12699999809E+01 0.  1.
       -4    1    3    3    0  502 -0.21653716678E+03  0.27131971307E+03  0.10405703040E+04  0.10969461708E+04  0.12699999809E+01 0. -1.
</event>
<event>
 5   0  0.2085063E-05  0.2324869E+04  0.7818609E-02  0.8468180E-01
        1   -1    0    0  501    0  0.00000000000E+00  0.00000000000E+00  0.16322782437E+04  0.16322782437E+04  0.50400001928E-02 0. -1.
       -1   -1    0    0    0  501  0.00000000000E+00  0.00000000000E+00 -0.82783304884E+03  0.82783304885E+03  0.50400001928E-02 0.  1.
    10030    2    1    2    0    0  0.00000000000E+00  0.00000000000E+00  0.80444519481E+03  0.24601112925E+04  0.23248689211E+04 0.  0.
        1    1    3    3  502    0  0.74999270582E+03 -0.49566725122E+02 -0.53610095531E+03  0.92322811554E+03  0.50400001928E-02 0.  1.
       -1    1    3    3    0  502 -0.74999270582E+03  0.49566725122E+02  0.13405461501E+04  0.15368831770E+04  0.50400001928E-02 0. -1.
</event>
<event>
 5   0  0.4605516E-05  0.2174236E+04  0.7818609E-02  0.8529229E-01
        2   -1    0    0  501    0  0.00000000000E+00  0.00000000000E+00  0.22087770047E+04  0.22087770047E+04  0.25500000920E-02 0.  1.
       -2   -1    0    0    0  501  0.00000000000E+00  0.00000000000E+00 -0.53505899738E+03  0.53505899738E+03  0.25500000920E-02 0. -1.
    10030    2    1    2    0    0  0.00000000000E+00  0.00000000000E+00  0.16737180074E+04  0.27438360021E+04  0.21742364265E+04 0.  0.
        1    1    3    3  502    0  0.58739238597E+03  0.27779181601E+03 -0.26303753866E+03  0.70098991071E+03  0.50400001928E-02 0. -1.
       -1    1    3    3    0  502 -0.58739238597E+03 -0.27779181601E+03  0.19367555460E+04  0.20428460914E+04  0.50400001928E-02 0.  1.
</event>
<event>
 5   0  0.2043885E-05  0.2298039E+04  0.7818609E-02  0.8478695E-01
        1   -1    0    0  501    0  0.00000000000E+00  0.00000000000E+00  0.12533434251E+04  0.12533434252E+04  0.50400001928E-02 0.  1.
       -1   -1    0    0    0  501  0.00000000000E+00  0.00000000000E+00 -0.10533793426E+04  0.10533793426E+04  0.50400001928E-02 0. -1.
    10030    2    1    2    0    0  0.00000000000E+00  0.00000000000E+00  0.19996408256E+03  0.23067227678E+04  0.22980392279E+04 0.  0.
        5    1    3    3  502    0 -0.25317460860E+03  0.43396570867E+03 -0.93726689160E+03  0.10634448433E+04  0.46999998093E+01 0. -1.
       -5    1    3    3    0  502  0.25317460860E+03 -0.43396570867E+03  0.11372309742E+04  0.12432779244E+04  0.46999998093E+01 0.  1.
</event>
<event>
 5   0  0.4505107E-05  0.2312134E+04  0.7818609E-02  0.8473152E-01
        2   -1    0    0  501    0  0.00000000000E+00  0.00000000000E+00  0.14904220549E+04  0.14904220549E+04  0.25500000920E-02 0. -1.
       -2   -1    0    0    0  501  0.00000000000E+00  0.00000000000E+00 -0.89672008870E+03  0.89672008870E+03  0.25500000920E-02 0.  1.
    10030    2    1    2    0    0  0.00000000000E+00  0.00000000000E+00  0.59370196620E+03  0.23871421436E+04  0.23121344228E+04 0.  0.
        4    1    3    3  502    0 -0.52865551746E+03  0.65747149136E+03  0.11129002422E+04  0.13965292622E+04  0.12699999809E+01 0. -1.
       -4    1    3    3    0  502  0.52865551746E+03 -0.65747149136E+03 -0.51919827602E+03  0.99061288141E+03  0.12699999809E+01 0.  1.
</event>
<event>
 5   0  0.4605516E-05  0.2300995E+04  0.7818609E-02  0.8477529E-01
        2   -1    0    0  501    0  0.00000000000E+00  0.00000000000E+00  0.11056554876E+04  0.11056554876E+04  0.25500000920E-02 0. -1.
       -2   -1    0    0    0  501  0.00000000000E+00  0.00000000000E+00 -0.11971583472E+04  0.11971583472E+04  0.25500000920E-02 0.  1.
    10030    2    1    2    0    0  0.00000000000E+00  0.00000000000E+00 -0.91502859572E+02  0.23028138348E+04  0.23009951726E+04 0.  0.
        1    1    3    3  502    0  0.11179994200E+04  0.62363839018E+02  0.21871629436E+03  0.11408982290E+04  0.50400001928E-02 0.  1.
       -1    1    3    3    0  502 -0.11179994200E+04 -0.62363839018E+02 -0.31021915394E+03  0.11619156058E+04  0.50400001928E-02 0. -1.
</event>
<event>
 5   0  0.4602447E-05  0.2298839E+04  0.7818609E-02  0.8478379E-01
       -2   -1    0    0    0  501  0.00000000000E+00  0.00000000000E+00  0.71539878906E+03  0.71539878907E+03  0.25500000920E-02 0. -1.
        2   -1    0    0  501    0  0.00000000000E+00  0.00000000000E+00 -0.18467530579E+04  0.18467530579E+04  0.25500000920E-02 0.  1.
    10030    2    1    2    0    0  0.00000000000E+00  0.00000000000E+00 -0.11313542688E+04  0.25621518469E+04  0.22988387515E+04 0.  0.
        3    1    3    3  502    0  0.88240682617E+03 -0.49963974893E+03  0.37498222626E+02  0.10147353411E+04  0.10100000352E+00 0. -1.
       -3    1    3    3    0  502 -0.88240682617E+03  0.49963974893E+03 -0.11688524914E+04  0.15474165058E+04  0.10100000352E+00 0.  1.
</event>
<event>
 5   0  0.4798609E-05  0.2298938E+04  0.7818609E-02  0.8478340E-01
        2   -1    0    0  501    0  0.00000000000E+00  0.00000000000E+00  0.22155792527E+04  0.22155792527E+04  0.25500000920E-02 0.  1.
       -2   -1    0    0    0  501  0.00000000000E+00  0.00000000000E+00 -0.59635821741E+03  0.59635821741E+03  0.25500000920E-02 0. -1.
    10030    2    1    2    0    0  0.00000000000E+00  0.00000000000E+00  0.16192210353E+04  0.28119374701E+04  0.22989379232E+04 0.  0.
        2    1    3    3  502    0  0.73600496315E+02  0.83515201189E+03 -0.15223910194E+03  0.85209897324E+03  0.25500000920E-02 0. -1.
       -2    1    3    3    0  502 -0.73600496315E+02 -0.83515201189E+03  0.17714601372E+04  0.19598384969E+04  0.25500000920E-02 0.  1.
</event>
<event>
 5   0  0.4605516E-05  0.2316144E+04  0.7818609E-02  0.8471583E-01
       -2   -1    0    0    0  501  0.00000000000E+00  0.00000000000E+00  0.78189325041E+03  0.78189325042E+03  0.25500000920E-02 0.  1.
        2   -1    0    0  501    0  0.00000000000E+00  0.00000000000E+00 -0.17152356483E+04  0.17152356483E+04  0.25500000920E-02 0. -1.
    10030    2    1    2    0    0  0.00000000000E+00  0.00000000000E+00 -0.93334239792E+03  0.24971288988E+04  0.23161443619E+04 0.  0.
        1    1    3    3  502    0 -0.54961362783E+03  0.23049518642E+03  0.60385657042E+03  0.84843734508E+03  0.50400001928E-02 0.  1.
       -1    1    3    3    0  502  0.54961362783E+03 -0.23049518642E+03 -0.15371989683E+04  0.16486915537E+04  0.50400001928E-02 0. -1.
</event>
<event>
 5   0  0.4436695E-05  0.2272827E+04  0.7818609E-02  0.8488713E-01
       -2   -1    0    0    0  501  0.00000000000E+00  0.00000000000E+00  0.89511467163E+03  0.89511467164E+03  0.25500000920E-02 0.  1.
        2   -1    0    0  501    0  0.00000000000E+00  0.00000000000E+00 -0.14427596629E+04  0.14427596629E+04  0.25500000920E-02 0. -1.
    10030    2    1    2    0    0  0.00000000000E+00  0.00000000000E+00 -0.54764499123E+03  0.23378743345E+04  0.22728267350E+04 0.  0.
        5    1    3    3  502    0  0.96323473299E+03  0.24123123329E+02 -0.89356921090E+03  0.13141122861E+04  0.46999998093E+01 0.  1.
       -5    1    3    3    0  502 -0.96323473299E+03 -0.24123123329E+02  0.34592421967E+03  0.10237620484E+04  0.46999998093E+01 0. -1.
</event>
<event>
 5   0  0.4798609E-05  0.2322724E+04  0.7818609E-02  0.8469015E-01
        2   -1    0    0  501    0  0.00000000000E+00  0.00000000000E+00  0.67213488375E+03  0.67213488375E+03  0.25500000920E-02 0.  1.
       -2   -1    0    0    0  501  0.00000000000E+00  0.00000000000E+00 -0.20066829385E+04  0.20066829385E+04  0.25500000920E-02 0. -1.
    10030    2    1    2    0    0  0.00000000000E+00  0.00000000000E+00 -0.13345480548E+04  0.26788178223E+04  0.23227239213E+04 0.  0.
        2    1    3    3  502    0  0.72137930765E+03 -0.79129991723E+03 -0.14864666397E+03  0.10810363062E+04  0.25500000920E-02 0.  1.
       -2    1    3    3    0  502 -0.72137930765E+03  0.79129991723E+03 -0.11859013908E+04  0.15977815161E+04  0.25500000920E-02 0. -1.
</event>
<event>
 5   0  0.1968318E-05  0.2311567E+04  0.7818609E-02  0.8473374E-01
        1   -1    0    0  501    0  0.00000000000E+00  0.00000000000E+00  0.21377634225E+04  0.21377634225E+04  0.50400001928E-02 0. -1.
       -1   -1    0    0    0  501  0.00000000000E+00  0.00000000000E+00 -0.62487517676E+03  0.62487517678E+03  0.50400001928E-02 0.  1.
    10030    2    1    2    0    0  0.00000000000E+00  0.00000000000E+00  0.15128882458E+04  0.27626385993E+04  0.23115668250E+04 0.  0.
        3    1    3    3  502    0 -0.26801206002E+03 -0.11202606318E+04  0.86995657153E+03  0.14434814838E+04  0.10100000352E+00 0. -1.
       -3    1    3    3    0  502  0.26801206002E+03  0.11202606318E+04  0.64293167422E+03  0.13191571155E+04  0.10100000352E+00 0.  1.
</event>
<event>
 5   0  0.2085063E-05  0.2266716E+04  0.7818609E-02  0.8491161E-01
       -1   -1    0    0    0  501  0.00000000000E+00  0.00000000000E+00  0.11574168542E+04  0.11574168542E+04  0.50400001928E-02 0.  1.
        1   -1    0    0  501    0  0.00000000000E+00  0.00000000000E+00 -0.11097994727E+04  0.11097994728E+04  0.50400001928E-02 0. -1.
    10030    2    1    2    0    0  0.00000000000E+00  0.00000000000E+00  0.47617381491E+02  0.22672163270E+04  0.22667162280E+04 0.  0.
        1    1    3    3  502    0 -0.52053052430E+03  0.96920039672E+03  0.29626405066E+03  0.11393304277E+04  0.50400001928E-02 0. -1.
       -1    1    3    3    0  502  0.52053052430E+03 -0.96920039672E+03 -0.24864666917E+03  0.11278858993E+04  0.50400001928E-02 0.  1.
</event>
<event>
 5   0  0.4505107E-05  0.2302686E+04  0.7818609E-02  0.8476863E-01
       -2   -1    0    0    0  501  0.00000000000E+00  0.00000000000E+00  0.60451121509E+03  0.60451121510E+03  0.25500000920E-02 0. -1.
        2   -1    0    0  501    0  0.00000000000E+00  0.00000000000E+00 -0.21928307605E+04  0.21928307605E+04  0.25500000920E-02 0.  1.
    10030    2    1    2    0    0  0.00000000000E+00  0.00000000000E+00 -0.15883195454E+04  0.27973419756E+04  0.23026860729E+04 0.  0.
        4    1    3    3  502    0  0.55125258371E+03  0.25380125710E+03  0.39443455097E+03  0.72379190176E+03  0.12699999809E+01 0. -1.
       -4    1    3    3    0  502 -0.55125258371E+03 -0.25380125710E+03 -0.19827540964E+04  0.20735500739E+04  0.12699999809E+01 0.  1.
</event>
<event>
 5   0  0.4436695E-05  0.2313935E+04  0.7818609E-02  0.8472447E-01
       -2   -1    0    0    0  501  0.00000000000E+00  0.00000000000E+00  0.11014300258E+04  0.11014300258E+04  0.25500000920E-02 0. -1.
        2   -1    0    0  501    0  0.00000000000E+00  0.00000000000E+00 -0.12153050586E+04  0.12153050586E+04  0.25500000920E-02 0.  1.
    10030    2    1    2    0    0  0.00000000000E+00  0.00000000000E+00 -0.11387503279E+03  0.23167350843E+04  0.23139347285E+04 0.  0.
        5    1    3    3  502    0  0.57056228433E+03 -0.37017178663E+03 -0.99400979553E+03  0.12044276797E+04  0.46999998093E+01 0.  1.
       -5    1    3    3    0  502 -0.57056228433E+03  0.37017178663E+03  0.88013476273E+03  0.11123074047E+04  0.46999998093E+01 0. -1.
</event>
<event>
 5   0  0.4436695E-05  0.2292796E+04  0.7818609E-02  0.8480767E-01
       -2   -1    0    0    0  501  0.00000000000E+00  0.00000000000E+00  0.80868099197E+03  0.80868099198E+03  0.25500000920E-02 0.  1.
        2   -1    0    0  501    0  0.00000000000E+00  0.00000000000E+00 -0.16251508364E+04  0.16251508364E+04  0.25500000920E-02 0. -1.
    10030    2    1    2    0    0  0.00000000000E+00  0.00000000000E+00 -0.81646984443E+03  0.24338318284E+04  0.22927961885E+04 0.  0.
        5    1    3    3  502    0  0.48049886013E+03  0.10250220240E+04 -0.21640578964E+03  0.11525636035E+04  0.46999998093E+01 0.  1.
       -5    1    3    3    0  502 -0.48049886013E+03 -0.10250220240E+04 -0.60006405479E+03  0.12812682249E+04  0.46999998093E+01 0. -1.
</event>
<event>
 5   0  0.2031860E-05  0.2300518E+04  0.7818609E-02  0.8477717E-01
        1   -1    0    0  501    0  0.00000000000E+00  0.00000000000E+00  0.92289192354E+03  0.92289192356E+03  0.50400001928E-02 0. -1.
       -1   -1    0    0    0  501  0.00000000000E+00  0.00000000000E+00 -0.14336406217E+04  0.14336406217E+04  0.50400001928E-02 0.  1.
    10030    2    1    2    0    0  0.00000000000E+00  0.00000000000E+00 -0.51074869817E+03  0.23565325453E+04  0.23005176383E+04 0.  0.
        4    1    3    3  502    0 -0.72891856646E+03  0.70509118393E+03  0.30062902569E+03  0.10577595559E+04  0.12699999809E+01 0. -1.
       -4    1    3    3    0  502  0.72891856646E+03 -0.70509118393E+03 -0.81137772386E+03  0.12987729893E+04  0.12699999809E+01 0.  1.
</event>
<event>
 5   0  0.2043885E-05  0.2298129E+04  0.7818609E-02  0.8478659E-01
       -1   -1    0    0    0  501  0.00000000000E+00  0.00000000000E+00  0.15162451550E+04  0.15162451550E+04  0.50400001928E-02 0. -1.
        1   -1    0    0  501    0  0.00000000000E+00  0.00000000000E+00 -0.87080201338E+03  0.87080201340E+03  0.50400001928E-02 0.  1.
    10030    2    1    2    0    0  0.00000000000E+00  0.00000000000E+00  0.64544314161E+03  0.23870471684E+04  0.22981290945E+04 0.  0.
        5    1    3    3  502    0 -0.35615895007E+03  0.10409214943E+04 -0.21711553070E+02  0.11003909472E+04  0.46999998093E+01 0.  1.
       -5    1    3    3    0  502  0.35615895007E+03 -0.10409214943E+04  0.66715469468E+03  0.12866562212E+04  0.46999998093E+01 0. -1.
</event>
<event>
 5   0  0.4605516E-05  0.2375233E+04  0.7818609E-02  0.8448834E-01
        2   -1    0    0  501    0  0.00000000000E+00  0.00000000000E+00  0.17376815229E+04  0.17376815229E+04  0.25500000920E-02 0. -1.
       -2   -1    0    0    0  501  0.00000000000E+00  0.00000000000E+00 -0.81167544181E+03  0.81167544181E+03  0.25500000920E-02 0.  1.
    10030    2    1    2    0    0  0.00000000000E+00  0.00000000000E+00  0.92600608106E+03  0.25493569647E+04  0.23752333930E+04 0.  0.
        1    1    3    3  502    0  0.14397922417E+03  0.77247693614E+03  0.14187793009E+04  0.16218462747E+04  0.50400001928E-02 0. -1.
       -1    1    3    3    0  502 -0.14397922417E+03 -0.77247693614E+03 -0.49277321987E+03  0.92751069002E+03  0.50400001928E-02 0.  1.
</event>
<event>
 5   0  0.4505107E-05  0.2290494E+04  0.7818609E-02  0.8481679E-01
       -2   -1    0    0    0  501  0.00000000000E+00  0.00000000000E+00  0.11344129047E+04  0.11344129047E+04  0.25500000920E-02 0. -1.
        2   -1    0    0  501    0  0.00000000000E+00  0.00000000000E+00 -0.11561848175E+04  0.11561848175E+04  0.25500000920E-02 0.  1.
    10030    2    1    2    0    0  0.00000000000E+00  0.00000000000E+00 -0.21771912840E+02  0.22905977223E+04  0.22904942499E+04 0.  0.
        4    1    3    3  502    0  0.47123656792E+03 -0.10418356298E+04 -0.74951178978E+02  0.11459077950E+04  0.12699999809E+01 0.  1.
       -4    1    3    3    0  502 -0.47123656792E+03  0.10418356298E+04  0.53179266139E+02  0.11446899273E+04  0.12699999809E+01 0. -1.
</event>
<event>
 5   0  0.4798609E-05  0.2185338E+04  0.7818609E-02  0.8524555E-01
       -2   -1    0    0    0  501  0.00000000000E+00  0.00000000000E+00  0.96765685987E+03  0.96765685987E+03  0.25500000920E-02 0.  1.
        2   -1    0    0  501    0  0.00000000000E+00  0.00000000000E+00 -0.12338320009E+04  0.12338320009E+04  0.25500000920E-02 0. -1.
    10030    2    1    2    0    0  0.00000000000E+00  0.00000000000E+00 -0.26617514104E+03  0.22014888608E+04  0.21853384174E+04 0.  0.
        2    1    3    3  502    0  0.34748312867E+03  0.95222789306E+03 -0.54407754749E+03  0.11504359446E+04  0.25500000920E-02 0. -1.
       -2    1    3    3    0  502 -0.34748312867E+03 -0.95222789306E+03  0.27790240645E+03  0.10510529162E+04  0.25500000920E-02 0.  1.
</event>
<event>
 5   0  0.4798609E-05  0.2293200E+04  0.7818609E-02  0.8480607E-01
        2   -1    0    0  501    0  0.00000000000E+00  0.00000000000E+00  0.12720245546E+04  0.12720245546E+04  0.25500000920E-02 0.  1.
       -2   -1    0    0    0  501  0.00000000000E+00  0.00000000000E+00 -0.10335425804E+04  0.10335425804E+04  0.25500000920E-02 0. -1.
    10030    2    1    2    0    0  0.00000000000E+00  0.00000000000E+00  0.23848197424E+03  0.23055671350E+04  0.22931999830E+04 0.  0.
        2    1    3    3  502    0  0.32647546088E+03  0.99245013653E+03  0.59417402514E+03  0.12019094276E+04  0.25500000920E-02 0.  1.
       -2    1    3    3    0  502 -0.32647546088E+03 -0.99245013653E+03 -0.35569205091E+03  0.11036577074E+04  0.25500000920E-02 0. -1.
</event>
<event>
 5   0  0.2042951E-05  0.2278758E+04  0.7818609E-02  0.8486344E-01
        1   -1    0    0  501    0  0.00000000000E+00  0.00000000000E+00  0.93896942239E+03  0.93896942241E+03  0.50400001928E-02 0.  1.
       -1   -1    0    0    0  501  0.00000000000E+00  0.00000000000E+00 -0.13825636006E+04  0.13825636006E+04  0.50400001928E-02 0. -1.
    10030    2    1    2    0    0  0.00000000000E+00  0.00000000000E+00 -0.44359417816E+03  0.23215330230E+04  0.22787583860E+04 0.  0.
        2    1    3    3  502    0 -0.22221852209E+03 -0.81887172938E+02  0.91361778919E+03  0.94381356495E+03  0.25500000920E-02 0.  1.
       -2    1    3    3    0  502  0.22221852209E+03  0.81887172938E+02 -0.13572119674E+04  0.13777194580E+04  0.25500000920E-02 0. -1.
</event>
<event>
 5   0  0.1968318E-05  0.2302020E+04  0.7818609E-02  0.8477125E-01
        1   -1    0    0  501    0  0.00000000000E+00  0.00000000000E+00  0.14258601275E+04  0.14258601275E+04  0.50400001928E-02 0.  1.
       -1   -1    0    0    0  501  0.00000000000E+00  0.00000000000E+00 -0.92914047787E+03  0.92914047788E+03  0.50400001928E-02 0. -1.
    10030    2    1    2    0    0  0.00000000000E+00  0.00000000000E+00  0.49671964966E+03  0.23550006054E+04  0.23020202956E+04 0.  0.
        3    1    3    3  502    0 -0.45216361601E+03 -0.50888888028E+03 -0.70111936057E+03  0.97723497486E+03  0.10100000352E+00 0. -1.
       -3    1    3    3    0  502  0.45216361601E+03  0.50888888028E+03  0.11978390102E+04  0.13777656306E+04  0.10100000352E+00 0.  1.
</event>
<event>
 5   0  0.4436695E-05  0.2301044E+04  0.7818609E-02  0.8477510E-01
        2   -1    0    0  501    0  0.00000000000E+00  0.00000000000E+00  0.14715829614E+04  0.14715829614E+04  0.25500000920E-02 0. -1.
       -2   -1    0    0    0  501  0.00000000000E+00  0.00000000000E+00 -0.89950832436E+03  0.89950832437E+03  0.25500000920E-02 0.  1.
    10030    2    1    2    0    0  0.00000000000E+00  0.00000000000E+00  0.57207463703E+03  0.23710912858E+04  0.23010442184E+04 0.  0.
        5    1    3    3  502    0 -0.77003342806E+03 -0.84541602175E+03  0.41637615800E+03  0.12169925740E+04  0.46999998093E+01 0. -1.
       -5    1    3    3    0  502  0.77003342806E+03  0.84541602175E+03  0.15569847902E+03  0.11540987118E+04  0.46999998093E+01 0.  1.
</event>
<event>
 5   0  0.4605516E-05  0.2272201E+04  0.7818609E-02  0.8488963E-01
        2   -1    0    0  501    0  0.00000000000E+00  0.00000000000E+00  0.15171625285E+04  0.15171625285E+04  0.25500000920E-02 0. -1.
       -2   -1    0    0    0  501  0.00000000000E+00  0.00000000000E+00 -0.85074855597E+03  0.85074855598E+03  0.25500000920E-02 0.  1.
    10030    2    1    2    0    0  0.00000000000E+00  0.00000000000E+00  0.66641397252E+03  0.23679110845E+04  0.22722005460E+04 0.  0.
        1    1    3    3  502    0  0.94429891887E+03  0.20824651914E+03 -0.28828319288E+03  0.10090462131E+04  0.50400001928E-02 0.  1.
       -1    1    3    3    0  502 -0.94429891887E+03 -0.20824651914E+03  0.95469716540E+03  0.13588648713E+04  0.50400001928E-02 0. -1.
</event>
<event>
 5   0  0.2031860E-05  0.2351059E+04  0.7818609E-02  0.8458057E-01
        1   -1    0    0  501    0  0.00000000000E+00  0.00000000000E+00  0.16038815113E+04  0.16038815113E+04  0.50400001928E-02 0. -1.
       -1   -1    0    0    0  501  0.00000000000E+00  0.00000000000E+00 -0.86157811405E+03  0.86157811406E+03  0.50400001928E-02 0.  1.
    10030    2    1    2    0    0  0.00000000000E+00  0.00000000000E+00  0.74230339722E+03  0.24654596253E+04  0.23510586617E+04 0.  0.
        4    1    3    3  502    0 -0.24096055612E+01 -0.58125067862E+03 -0.70033464858E+03  0.91012548063E+03  0.12699999809E+01 0.  1.
       -4    1    3    3    0  502  0.24096055612E+01  0.58125067862E+03  0.14426380458E+04  0.15553341447E+04  0.12699999809E+01 0. -1.
</event>
<event>
 5   0  0.1968318E-05  0.2304744E+04  0.7818609E-02  0.8476053E-01
       -1   -1    0    0    0  501  0.00000000000E+00  0.00000000000E+00  0.16818493293E+04  0.16818493293E+04  0.50400001928E-02 0. -1.
        1   -1    0    0  501    0  0.00000000000E+00  0.00000000000E+00 -0.78958393165E+03  0.78958393167E+03  0.50400001928E-02 0.  1.
    10030    2    1    2    0    0  0.00000000000E+00  0.00000000000E+00  0.89226539767E+03  0.24714332610E+04  0.23047439822E+04 0.  0.
        3    1    3    3  502    0 -0.65702885833E+03  0.28404621671E+03  0.14145503171E+04  0.15853459508E+04  0.10100000352E+00 0. -1.
       -3    1    3    3    0  502  0.65702885833E+03 -0.28404621671E+03 -0.52228491948E+03  0.88608731015E+03  0.10100000352E+00 0.  1.
</event>
<event>
 5   0  0.4436695E-05  0.2302732E+04  0.7818609E-02  0.8476845E-01
       -2   -1    0    0    0  501  0.00000000000E+00  0.00000000000E+00  0.11456450919E+04  0.11456450919E+04  0.25500000920E-02 0. -1.
        2   -1    0    0  501    0  0.00000000000E+00  0.00000000000E+00 -0.11571152138E+04  0.11571152138E+04  0.25500000920E-02 0.  1.
    10030    2    1    2    0    0  0.00000000000E+00  0.00000000000E+00 -0.11470121893E+02  0.23027603057E+04  0.23027317390E+04 0.  0.
        5    1    3    3  502    0  0.14522435199E+03 -0.11156695985E+04  0.23883393540E+03  0.11501619469E+04  0.46999998093E+01 0. -1.
       -5    1    3    3    0  502 -0.14522435199E+03  0.11156695985E+04 -0.25030405729E+03  0.11525983587E+04  0.46999998093E+01 0.  1.
</event>
<event>
 5   0  0.4436695E-05  0.2307876E+04  0.7818609E-02  0.8474822E-01
        2   -1    0    0  501    0  0.00000000000E+00  0.00000000000E+00  0.10677804803E+04  0.10677804803E+04  0.25500000920E-02 0. -1.
       -2   -1    0    0    0  501  0.00000000000E+00  0.00000000000E+00 -0.12470469517E+04  0.12470469517E+04  0.25500000920E-02 0.  1.
    10030    2    1    2    0    0  0.00000000000E+00  0.00000000000E+00 -0.17926647133E+03  0.23148274320E+04  0.23078755539E+04 0.  0.
        5    1    3    3  502    0 -0.41298404080E+03 -0.10574520006E+04 -0.29711317665E+03  0.11734815215E+04  0.46999998093E+01 0.  1.
       -5    1    3    3    0  502  0.41298404080E+03  0.10574520006E+04  0.11784670532E+03  0.11413459105E+04  0.46999998093E+01 0. -1.
</event>
<event>
 5   0  0.4798609E-05  0.2346895E+04  0.7818609E-02  0.8459657E-01
        2   -1    0    0  501    0  0.00000000000E+00  0.00000000000E+00  0.11796354943E+04  0.11796354943E+04  0.25500000920E-02 0. -1.
       -2   -1    0    0    0  501  0.00000000000E+00  0.00000000000E+00 -0.11672922215E+04  0.11672922215E+04  0.25500000920E-02 0.  1.
    10030    2    1    2    0    0  0.00000000000E+00  0.00000000000E+00  0.12343272832E+02  0.23469277159E+04  0.23468952570E+04 0.  0.
        2    1    3    3  502    0  0.41993319074E+03 -0.64602403273E+02  0.11000158106E+04  0.11792167480E+04  0.25500000920E-02 0. -1.
       -2    1    3    3    0  502 -0.41993319074E+03  0.64602403273E+02 -0.10876725377E+04  0.11677109679E+04  0.25500000920E-02 0.  1.
</event>
<event>
 5   0  0.4505107E-05  0.2279190E+04  0.7818609E-02  0.8486172E-01
       -2   -1    0    0    0  501  0.00000000000E+00  0.00000000000E+00  0.93898493668E+03  0.93898493668E+03  0.25500000920E-02 0.  1.
        2   -1    0    0  501    0  0.00000000000E+00  0.00000000000E+00 -0.13830649589E+04  0.13830649589E+04  0.25500000920E-02 0. -1.
    10030    2    1    2    0    0  0.00000000000E+00  0.00000000000E+00 -0.44408002218E+03  0.23220498955E+04  0.22791903499E+04 0.  0.
        4    1    3    3  502    0 -0.61003649214E+03 -0.85975661294E+03  0.21893840072E+03  0.10766901093E+04  0.12699999809E+01 0.  1.
       -4    1    3    3    0  502  0.61003649214E+03  0.85975661294E+03 -0.66301842289E+03  0.12453597863E+04  0.12699999809E+01 0. -1.
</event>
<event>
 5   0  0.2085063E-05  0.2273517E+04  0.7818609E-02  0.8488437E-01
       -1   -1    0    0    0  501  0.00000000000E+00  0.00000000000E+00  0.10016798209E+04  0.10016798209E+04  0.50400001928E-02 0.  1.
        1   -1    0    0  501    0  0.00000000000E+00  0.00000000000E+00 -0.12900526740E+04  0.12900526741E+04  0.50400001928E-02 0. -1.
    10030    2    1    2    0    0  0.00000000000E+00  0.00000000000E+00 -0.28837285317E+03  0.22917324949E+04  0.22735168629E+04 0.  0.
        1    1    3    3  502    0  0.57041966039E+03  0.92989197948E+03  0.17797090980E+03  0.11053286060E+04  0.50400001928E-02 0.  1.
       -1    1    3    3    0  502 -0.57041966039E+03 -0.92989197948E+03 -0.46634376296E+03  0.11864038890E+04  0.50400001928E-02 0. -1.
</event>
<event>
 5   0  0.2085063E-05  0.2415821E+04  0.7818609E-02  0.8433604E-01
        1   -1    0    0  501    0  0.00000000000E+00  0.00000000000E+00  0.18740008922E+04  0.18740008922E+04  0.50400001928E-02 0.  1.
       -1   -1    0    0    0  501  0.00000000000E+00  0.00000000000E+00 -0.77857364565E+03  0.77857364566E+03  0.50400001928E-02 0. -1.
    10030    2    1    2    0    0  0.00000000000E+00  0.00000000000E+00  0.10954272466E+04  0.26525745379E+04  0.24158209426E+04 0.  0.
        1    1    3    3  502    0 -0.28575798767E+03  0.34499040365E+03 -0.68399314000E+03  0.81763232673E+03  0.50400001928E-02 0. -1.
       -1    1    3    3    0  502  0.28575798767E+03 -0.34499040365E+03  0.17794203866E+04  0.18349422111E+04  0.50400001928E-02 0.  1.
</event>
<event>
 5   0  0.1968318E-05  0.2292656E+04  0.7818609E-02  0.8480823E-01
        1   -1    0    0  501    0  0.00000000000E+00  0.00000000000E+00  0.13982083671E+04  0.13982083671E+04  0.50400001928E-02 0.  1.
       -1   -1    0    0    0  501  0.00000000000E+00  0.00000000000E+00 -0.93982232471E+03  0.93982232472E+03  0.50400001928E-02 0. -1.
    10030    2    1    2    0    0  0.00000000000E+00  0.00000000000E+00  0.45838604237E+03  0.23380306918E+04  0.22926556113E+04 0.  0.
        3    1    3    3  502    0 -0.71020735812E+03 -0.61213020894E+03 -0.44338211742E+03  0.10371526389E+04  0.10100000352E+00 0. -1.
       -3    1    3    3    0  502  0.71020735812E+03  0.61213020894E+03  0.90176815979E+03  0.13008780529E+04  0.10100000352E+00 0.  1.
</event>
<event>
 5   0  0.4605516E-05  0.2383155E+04  0.7818609E-02  0.8445837E-01
       -2   -1    0    0    0  501  0.00000000000E+00  0.00000000000E+00  0.17278745884E+04  0.17278745884E+04  0.25500000920E-02 0.  1.
        2   -1    0    0  501    0  0.00000000000E+00  0.00000000000E+00 -0.82173578631E+03  0.82173578631E+03  0.25500000920E-02 0. -1.
    10030    2    1    2    0    0  0.00000000000E+00  0.00000000000E+00  0.90613880205E+03  0.25496103747E+04  0.23831545342E+04 0.  0.
        1    1    3    3  502    0 -0.98793760339E+02  0.11581763060E+04  0.73353219774E+03  0.13744824655E+04  0.50400001928E-02 0. -1.
       -1    1    3    3    0  502  0.98793760339E+02 -0.11581763060E+04  0.17260660430E+03  0.11751279091E+04  0.50400001928E-02 0.  1.
</event>
<event>
 5   0  0.4505107E-05  0.2305792E+04  0.7818609E-02  0.8475641E-01
       -2   -1    0    0    0  501  0.00000000000E+00  0.00000000000E+00  0.14358111281E+04  0.14358111281E+04  0.25500000920E-02 0.  1.
        2   -1    0    0  501    0  0.00000000000E+00  0.00000000000E+00 -0.92572726763E+03  0.92572726764E+03  0.25500000920E-02 0. -1.
    10030    2    1    2    0    0  0.00000000000E+00  0.00000000000E+00  0.51008386043E+03  0.23615383957E+04  0.23057922824E+04 0.  0.
        4    1    3    3  502    0 -0.11141280978E+04  0.59185747033E+02  0.55255337064E+03  0.12450306066E+04  0.12699999809E+01 0.  1.
       -4    1    3    3    0  502  0.11141280978E+04 -0.59185747033E+02 -0.42469510206E+02  0.11165077891E+04  0.12699999809E+01 0. -1.
</event>
<event>
 5   0  0.2031860E-05  0.2305995E+04  0.7818609E-02  0.8475561E-01
       -1   -1    0    0    0  501  0.00000000000E+00  0.00000000000E+00  0.14337547394E+04  0.14337547394E+04  0.50400001928E-02 0.  1.
        1   -1    0    0  501    0  0.00000000000E+00  0.00000000000E+00 -0.92721778013E+03  0.92721778014E+03  0.50400001928E-02 0. -1.
    10030    2    1    2    0    0  0.00000000000E+00  0.00000000000E+00  0.50653695924E+03  0.23609725195E+04  0.23059946979E+04 0.  0.
        4    1    3    3  502    0 -0.86714536630E+03 -0.11878694459E+03  0.10217292803E+04  0.13453563690E+04  0.12699999809E+01 0.  1.
       -4    1    3    3    0  502  0.86714536630E+03  0.11878694459E+03 -0.51519232110E+03  0.10156161505E+04  0.12699999809E+01 0. -1.
</event>
<event>
 5   0  0.2043885E-05  0.2311664E+04  0.7818609E-02  0.8473336E-01
       -1   -1    0    0    0  501  0.00000000000E+00  0.00000000000E+00  0.87619287899E+03  0.87619287901E+03  0.50400001928E-02 0.  1.
        1   -1    0    0  501    0  0.00000000000E+00  0.00000000000E+00 -0.15247191514E+04  0.15247191514E+04  0.50400001928E-02 0. -1.
    10030    2    1    2    0    0  0.00000000000E+00  0.00000000000E+00 -0.64852627243E+03  0.24009120304E+04  0.23116643900E+04 0.  0.
        5    1    3    3  502    0 -0.20634634051E+03  0.10800368693E+04  0.45672945986E+02  0.11005301265E+04  0.46999998093E+01 0.  1.
       -5    1    3    3    0  502  0.20634634051E+03 -0.10800368693E+04 -0.69419921841E+03  0.13003819040E+04  0.46999998093E+01 0. -1.
</event>
<event>
 5   0  0.4605516E-05  0.2313217E+04  0.7818609E-02  0.8472728E-01
        2   -1    0    0  501    0  0.00000000000E+00  0.00000000000E+00  0.22900179918E+04  0.22900179918E+04  0.25500000920E-02 0.  1.
       -2   -1    0    0    0  501  0.00000000000E+00  0.00000000000E+00 -0.58416281224E+03  0.58416281224E+03  0.25500000920E-02 0. -1.
    10030    2    1    2    0    0  0.00000000000E+00  0.00000000000E+00  0.17058551796E+04  0.28741808040E+04  0.23132171106E+04 0.  0.
        1    1    3    3  502    0  0.16393111200E+02 -0.74445785254E+03  0.19525659073E+04  0.20897367898E+04  0.50400001928E-02 0.  1.
       -1    1    3    3    0  502 -0.16393111200E+02  0.74445785254E+03 -0.24671072772E+03  0.78444401426E+03  0.50400001928E-02 0. -1.
</event>
<event>
 5   0  0.1968318E-05  0.2297190E+04  0.7818609E-02  0.8479030E-01
        1   -1    0    0  501    0  0.00000000000E+00  0.00000000000E+00  0.21743796792E+04  0.21743796792E+04  0.50400001928E-02 0.  1.
       -1   -1    0    0    0  501  0.00000000000E+00  0.00000000000E+00 -0.60673393785E+03  0.60673393787E+03  0.50400001928E-02 0. -1.
    10030    2    1    2    0    0  0.00000000000E+00  0.00000000000E+00  0.15676457414E+04  0.27811136171E+04  0.22971895396E+04 0.  0.
        3    1    3    3  502    0  0.56309738897E+02 -0.25150959113E+03 -0.57127313878E+03  0.62672232321E+03  0.10100000352E+00 0. -1.
       -3    1    3    3    0  502 -0.56309738897E+02  0.25150959113E+03  0.21389188802E+04  0.21543912939E+04  0.10100000352E+00 0.  1.
</event>
<event>
 5   0  0.4798609E-05  0.2358918E+04  0.7818609E-02  0.8455046E-01
        2   -1    0    0  501    0  0.00000000000E+00  0.00000000000E+00  0.15485246549E+04  0.15485246549E+04  0.25500000920E-02 0.  1.
       -2   -1    0    0    0  501  0.00000000000E+00  0.00000000000E+00 -0.89835430575E+03  0.89835430576E+03  0.25500000920E-02 0. -1.
    10030    2    1    2    0    0  0.00000000000E+00  0.00000000000E+00  0.65017034917E+03  0.24468789607E+04  0.23589182193E+04 0.  0.
        2    1    3    3  502    0 -0.45898509285E+03  0.48837850971E+03 -0.68164223282E+03  0.95593776877E+03  0.25500000920E-02 0. -1.
       -2    1    3    3    0  502  0.45898509285E+03 -0.48837850971E+03  0.13318125820E+04  0.14909411919E+04  0.25500000920E-02 0.  1.
</event>
<event>
 5   0  0.4798609E-05  0.2008516E+04  0.7818609E-02  0.8602650E-01
        2   -1    0    0  501    0  0.00000000000E+00  0.00000000000E+00  0.11694177632E+04  0.11694177632E+04  0.25500000920E-02 0. -1.
       -2   -1    0    0    0  501  0.00000000000E+00  0.00000000000E+00 -0.86242377010E+03  0.86242377011E+03  0.25500000920E-02 0.  1.
    10030    2    1    2    0    0  0.00000000000E+00  0.00000000000E+00  0.30699399312E+03  0.20318415333E+04  0.20085155476E+04 0.  0.
        2    1    3    3  502    0  0.32310675871E+02  0.56800446414E+03  0.99067100162E+03  0.11424106462E+04  0.25500000920E-02 0. -1.
       -2    1    3    3    0  502 -0.32310675871E+02 -0.56800446414E+03 -0.68367700850E+03  0.88943088715E+03  0.25500000920E-02 0.  1.
</event>
<event>
 5   0  0.4505107E-05  0.2304242E+04  0.7818609E-02  0.8476251E-01
       -2   -1    0    0    0  501  0.00000000000E+00  0.00000000000E+00  0.60855156505E+03  0.60855156505E+03  0.25500000920E-02 0.  1.
        2   -1    0    0  501    0  0.00000000000E+00  0.00000000000E+00 -0.21812159886E+04  0.21812159886E+04  0.25500000920E-02 0. -1.
    10030    2    1    2    0    0  0.00000000000E+00  0.00000000000E+00 -0.15726644236E+04  0.27897675537E+04  0.23042416571E+04 0.  0.
        4    1    3    3  502    0  0.30772292256E+03  0.78452783670E+03 -0.17374935159E+04  0.19310781068E+04  0.12699999809E+01 0. -1.
       -4    1    3    3    0  502 -0.30772292256E+03 -0.78452783670E+03  0.16482909237E+03  0.85868944690E+03  0.12699999809E+01 0.  1.
</event>
<event>
 5   0  0.4602447E-05  0.2013258E+04  0.7818609E-02  0.8600447E-01
       -2   -1    0    0    0  501  0.00000000000E+00  0.00000000000E+00  0.11046525266E+04  0.11046525266E+04  0.25500000920E-02 0.  1.
        2   -1    0    0  501    0  0.00000000000E+00  0.00000000000E+00 -0.91730411985E+03  0.91730411985E+03  0.25500000920E-02 0. -1.
    10030    2    1    2    0    0  0.00000000000E+00  0.00000000000E+00  0.18734840673E+03  0.20219566464E+04  0.20132583676E+04 0.  0.
        3    1    3    3  502    0 -0.96299979189E+03  0.17984300590E+03  0.32616994638E+03  0.10325206778E+04  0.10100000352E+00 0. -1.
       -3    1    3    3    0  502  0.96299979189E+03 -0.17984300590E+03 -0.13882153965E+03  0.98943596863E+03  0.10100000352E+00 0.  1.
</event>
<event>
 5   0  0.4605516E-05  0.2330364E+04  0.7818609E-02  0.8466044E-01
        2   -1    0    0  501    0  0.00000000000E+00  0.00000000000E+00  0.12314106273E+04  0.12314106273E+04  0.25500000920E-02 0.  1.
       -2   -1    0    0    0  501  0.00000000000E+00  0.00000000000E+00 -0.11025153165E+04  0.11025153165E+04  0.25500000920E-02 0. -1.
    10030    2    1    2    0    0  0.00000000000E+00  0.00000000000E+00  0.12889531077E+03  0.23339259438E+04  0.23303639866E+04 0.  0.
        1    1    3    3  502    0  0.15801399982E+02  0.10447121516E+04  0.58096447257E+03  0.11954885538E+04  0.50400001928E-02 0. -1.
       -1    1    3    3    0  502 -0.15801399982E+02 -0.10447121516E+04 -0.45206916180E+03  0.11384373900E+04  0.50400001928E-02 0.  1.
</event>
<event>
 5   0  0.4436695E-05  0.2324354E+04  0.7818609E-02  0.8468380E-01
        2   -1    0    0  501    0  0.00000000000E+00  0.00000000000E+00  0.18286661387E+04  0.18286661387E+04  0.25500000920E-02 0. -1.
       -2   -1    0    0    0  501  0.00000000000E+00  0.00000000000E+00 -0.73860133234E+03  0.73860133234E+03  0.25500000920E-02 0.  1.
    10030    2    1    2    0    0  0.00000000000E+00  0.00000000000E+00  0.10900648063E+04  0.25672674710E+04  0.23243538856E+04 0.  0.
        5    1    3    3  502    0 -0.10634237367E+04 -0.32188301107E+03  0.92146461082E+03  0.14434672963E+04  0.46999998093E+01 0. -1.
       -5    1    3    3    0  502  0.10634237367E+04  0.32188301107E+03  0.16860019550E+03  0.11238001747E+04  0.46999998093E+01 0.  1.
</event>
<event>
 5   0  0.2031860E-05  0.2283768E+04  0.7818609E-02  0.8484349E-01
        1   -1    0    0  501    0  0.00000000000E+00  0.00000000000E+00  0.24856734830E+04  0.24856734830E+04  0.50400001928E-02 0. -1.
       -1   -1    0    0    0  501  0.00000000000E+00  0.00000000000E+00 -0.52456577002E+03  0.52456577005E+03  0.50400001928E-02 0.  1.
    10030    2    1    2    0    0  0.00000000000E+00  0.00000000000E+00  0.19611077130E+04  0.30102392531E+04  0.22837681359E+04 0.  0.
        4    1    3    3  502    0  0.14125687878E+03  0.13937973606E+03  0.24627695574E+04  0.24707520561E+04  0.12699999809E+01 0. -1.
       -4    1    3    3    0  502 -0.14125687878E+03 -0.13937973606E+03 -0.50166184446E+03  0.53948719699E+03  0.12699999809E+01 0.  1.
</event>
<event>
 5   0  0.2043885E-05  0.2304328E+04  0.7818609E-02  0.8476217E-01
        1   -1    0    0  501    0  0.00000000000E+00  0.00000000000E+00  0.12024499413E+04  0.12024499413E+04  0.50400001928E-02 0.  1.
       -1   -1    0    0    0  501  0.00000000000E+00  0.00000000000E+00 -0.11039810711E+04  0.11039810711E+04  0.50400001928E-02 0. -1.
    10030    2    1    2    0    0  0.00000000000E+00  0.00000000000E+00  0.98468870283E+02  0.23064310124E+04  0.23043280792E+04 0.  0.
        5    1    3    3  502    0 -0.93896472231E+02 -0.13635433397E+03  0.11904726976E+04  0.12019385947E+04  0.46999998093E+01 0.  1.
       -5    1    3    3    0  502  0.93896472231E+02  0.13635433397E+03 -0.10920038273E+04  0.11044924177E+04  0.46999998093E+01 0. -1.
</event>
<event>
 5   0  0.4505107E-05  0.2300576E+04  0.7818609E-02  0.8477694E-01
        2   -1    0    0  501    0  0.00000000000E+00  0.00000000000E+00  0.16657381284E+04  0.16657381284E+04  0.25500000920E-02 0.  1.
       -2   -1    0    0    0  501  0.00000000000E+00  0.00000000000E+00 -0.79433973178E+03  0.79433973178E+03  0.25500000920E-02 0. -1.
    10030    2    1    2    0    0  0.00000000000E+00  0.00000000000E+00  0.87139839666E+03  0.24600778602E+04  0.23005755612E+04 0.  0.
        4    1    3    3  502    0  0.83437936968E+02 -0.10094195030E+04  0.10187258859E+04  0.14365561827E+04  0.12699999809E+01 0.  1.
       -4    1    3    3    0  502 -0.83437936968E+02  0.10094195030E+04 -0.14732748928E+03  0.10235216775E+04  0.12699999809E+01 0. -1.
</event>
<event>
 5   0  0.4798609E-05  0.2279341E+04  0.7818609E-02  0.8486111E-01
        2   -1    0    0  501    0  0.00000000000E+00  0.00000000000E+00  0.15944535342E+04  0.15944535342E+04  0.25500000920E-02 0.  1.
       -2   -1    0    0    0  501  0.00000000000E+00  0.00000000000E+00 -0.81460443058E+03  0.81460443058E+03  0.25500000920E-02 0. -1.
    10030    2    1    2    0    0  0.00000000000E+00  0.00000000000E+00  0.77984910367E+03  0.24090579648E+04  0.22793410568E+04 0.  0.
        2    1    3    3  502    0 -0.23096605982E+03  0.46848308089E+03  0.14605002296E+04  0.15510907900E+04  0.25500000920E-02 0.  1.
       -2    1    3    3    0  502  0.23096605982E+03 -0.46848308089E+03 -0.68065112598E+03  0.85796717488E+03  0.25500000920E-02 0. -1.
</event>
<event>
 5   0  0.2043885E-05  0.2355747E+04  0.7818609E-02  0.8456259E-01
       -1   -1    0    0    0  501  0.00000000000E+00  0.00000000000E+00  0.82349105650E+03  0.82349105652E+03  0.50400001928E-02 0. -1.
        1   -1    0    0  501    0  0.00000000000E+00  0.00000000000E+00 -0.16847619076E+04  0.16847619076E+04  0.50400001928E-02 0.  1.
    10030    2    1    2    0    0  0.00000000000E+00  0.00000000000E+00 -0.86127085111E+03  0.25082529641E+04  0.23557473237E+04 0.  0.
        5    1    3    3  502    0  0.48044014149E+03 -0.30667411091E+02 -0.15752165836E+04  0.16471468043E+04  0.46999998093E+01 0.  1.
       -5    1    3    3    0  502 -0.48044014149E+03  0.30667411091E+02  0.71394573246E+03  0.86110615987E+03  0.46999998093E+01 0. -1.
</event>
<event>
 5   0  0.2042951E-05  0.2219199E+04  0.7818609E-02  0.8510479E-01
        1   -1    0    0  501    0  0.00000000000E+00  0.00000000000E+00  0.11811941247E+04  0.11811941247E+04  0.50400001928E-02 0.  1.
       -1   -1    0    0    0  501  0.00000000000E+00  0.00000000000E+00 -0.10423443100E+04  0.10423443100E+04  0.50400001928E-02 0. -1.
    10030    2    1    2    0    0  0.00000000000E+00  0.00000000000E+00  0.13884981470E+03  0.22235384347E+04  0.22191989319E+04 0.  0.
        2    1    3    3  502    0  0.47318875607E+03  0.89250480214E+03 -0.39053545148E+03  0.10830467947E+04  0.25500000920E-02 0. -1.
       -2    1    3    3    0  502 -0.47318875607E+03 -0.89250480214E+03  0.52938526618E+03  0.11404916399E+04  0.25500000920E-02 0.  1.
</event>
<event>
 5   0  0.4436695E-05  0.2287089E+04  0.7818609E-02  0.8483029E-01
       -2   -1    0    0    0  501  0.00000000000E+00  0.00000000000E+00  0.16801025029E+04  0.16801025030E+04  0.25500000920E-02 0. -1.
        2   -1    0    0  501    0  0.00000000000E+00  0.00000000000E+00 -0.77834187886E+03  0.77834187887E+03  0.25500000920E-02 0.  1.
    10030    2    1    2    0    0  0.00000000000E+00  0.00000000000E+00  0.90176062409E+03  0.24584443818E+04  0.22870891009E+04 0.  0.
        5    1    3    3  502    0 -0.35270346201E+03 -0.10877787815E+04  0.45421763799E+03  0.12304463264E+04  0.46999998093E+01 0.  1.
       -5    1    3    3    0  502  0.35270346201E+03  0.10877787815E+04  0.44754298610E+03  0.12279980554E+04  0.46999998093E+01 0. -1.
</event>
<event>
 5   0  0.2042951E-05  0.2257536E+04  0.7818609E-02  0.8494855E-01
       -1   -1    0    0    0  501  0.00000000000E+00  0.00000000000E+00  0.85503441399E+03  0.85503441400E+03  0.50400001928E-02 0. -1.
        1   -1    0    0  501    0  0.00000000000E+00  0.00000000000E+00 -0.14901352503E+04  0.14901352503E+04  0.50400001928E-02 0.  1.
    10030    2    1    2    0    0  0.00000000000E+00  0.00000000000E+00 -0.63510083627E+03  0.23451696643E+04  0.22575357543E+04 0.  0.
        2    1    3    3  502    0  0.68045657088E+02 -0.10401172942E+04  0.13244230860E+03  0.10507212581E+04  0.25500000920E-02 0. -1.
       -2    1    3    3    0  502 -0.68045657088E+02  0.10401172942E+04 -0.76754314487E+03  0.12944484062E+04  0.25500000920E-02 0.  1.
</event>
<event>
 5   0  0.1968318E-05  0.2298675E+04  0.7818609E-02  0.8478444E-01
       -1   -1    0    0    0  501  0.00000000000E+00  0.00000000000E+00  0.88922971186E+03  0.88922971187E+03  0.50400001928E-02 0.  1.
        1   -1    0    0  501    0  0.00000000000E+00  0.00000000000E+00 -0.14855289830E+04  0.14855289830E+04  0.50400001928E-02 0. -1.
    10030    2    1    2    0    0  0.00000000000E+00  0.00000000000E+00 -0.59629927111E+03  0.23747586948E+04  0.22986748439E+04 0.  0.
        3    1    3    3  502    0  0.60563376216E+03 -0.15143847450E+03 -0.12951038970E+04  0.14377134554E+04  0.10100000352E+00 0. -1.
       -3    1    3    3    0  502 -0.60563376216E+03  0.15143847450E+03  0.69880462592E+03  0.93704523948E+03  0.10100000352E+00 0.  1.
</event>
<event>
 5   0  0.2085063E-05  0.2312190E+04  0.7818609E-02  0.8473130E-01
       -1   -1    0    0    0  501  0.00000000000E+00  0.00000000000E+00  0.16509306414E+04  0.16509306415E+04  0.50400001928E-02 0.  1.
        1   -1    0    0  501    0  0.00000000000E+00  0.00000000000E+00 -0.80957690284E+03  0.80957690286E+03  0.50400001928E-02 0. -1.
    10030    2    1    2    0    0  0.00000000000E+00  0.00000000000E+00  0.84135373860E+03  0.24605075443E+04  0.23121897115E+04 0.  0.
        1    1    3    3  502    0  0.20860791643E+03 -0.11295744545E+04  0.55983041220E+03  0.12778363751E+04  0.50400001928E-02 0. -1.
       -1    1    3    3    0  502 -0.20860791643E+03  0.11295744545E+04  0.28152332640E+03  0.11826711692E+04  0.50400001928E-02 0.  1.
</event>
<event>
 5   0  0.4605516E-05  0.2384570E+04  0.7818609E-02  0.8445303E-01
        2   -1    0    0  501    0  0.00000000000E+00  0.00000000000E+00  0.11581366529E+04  0.11581366529E+04  0.25500000920E-02 0.  1.
       -2   -1    0    0    0  501  0.00000000000E+00  0.00000000000E+00 -0.12274398673E+04  0.12274398673E+04  0.25500000920E-02 0. -1.
    10030    2    1    2    0    0  0.00000000000E+00  0.00000000000E+00 -0.69303214471E+02  0.23855765202E+04  0.23845696463E+04 0.  0.
        1    1    3    3  502    0 -0.66202914201E+03 -0.74665640108E+03 -0.68743362582E+03  0.12117521843E+04  0.50400001928E-02 0.  1.
       -1    1    3    3    0  502  0.66202914201E+03  0.74665640108E+03  0.61813041135E+03  0.11738243359E+04  0.50400001928E-02 0. -1.
</event>
<event>
 5   0  0.4602447E-05  0.2300238E+04  0.7818609E-02  0.8477827E-01
        2   -1    0    0  501    0  0.00000000000E+00  0.00000000000E+00  0.99299890558E+03  0.99299890559E+03  0.25500000920E-02 0.  1.
       -2   -1    0    0    0  501  0.00000000000E+00  0.00000000000E+00 -0.13320996160E+04  0.13320996160E+04  0.25500000920E-02 0. -1.
    10030    2    1    2    0    0  0.00000000000E+00  0.00000000000E+00 -0.33910071037E+03  0.23250985215E+04  0.23002377797E+04 0.  0.
        3    1    3    3  502    0  0.30136715237E+03 -0.41352225846E+03 -0.12107073369E+04  0.13143953305E+04  0.10100000352E+00 0. -1.
       -3    1    3    3    0  502 -0.30136715237E+03  0.41352225846E+03  0.87160662658E+03  0.10107031911E+04  0.10100000352E+00 0.  1.
</event>
<event>
 5   0  0.4436695E-05  0.2295618E+04  0.7818609E-02  0.8479651E-01
        2   -1    0    0  501    0  0.00000000000E+00  0.00000000000E+00  0.13742753028E+04  0.13742753028E+04  0.25500000920E-02 0.  1.
       -2   -1    0    0    0  501  0.00000000000E+00  0.00000000000E+00 -0.95866193147E+03  0.95866193147E+03  0.25500000920E-02 0. -1.
    10030    2    1    2    0    0  0.00000000000E+00  0.00000000000E+00  0.41561337133E+03  0.23329372343E+04  0.22956179265E+04 0.  0.
        5    1    3    3  502    0 -0.85123556675E+03 -0.58414967512E+03  0.71756911235E+03  0.12572829252E+04  0.46999998093E+01 0.  1.
       -5    1    3    3    0  502  0.85123556675E+03  0.58414967512E+03 -0.30195574103E+03  0.10756543090E+04  0.46999998093E+01 0. -1.
</event>
<event>
 5   0  0.4505107E-05  0.2274636E+04  0.7818609E-02  0.8487990E-01
       -2   -1    0    0    0  501  0.00000000000E+00  0.00000000000E+00  0.11713574349E+04  0.11713574349E+04  0.25500000920E-02 0.  1.
        2   -1    0    0  501    0  0.00000000000E+00  0.00000000000E+00 -0.11042675299E+04  0.11042675299E+04  0.25500000920E-02 0. -1.
    10030    2    1    2    0    0  0.00000000000E+00  0.00000000000E+00  0.67089904924E+02  0.22756249648E+04  0.22746357786E+04 0.  0.
        4    1    3    3  502    0 -0.10228726689E+04  0.49585110533E+03  0.70351616421E+02  0.11388976153E+04  0.12699999809E+01 0.  1.
       -4    1    3    3    0  502  0.10228726689E+04 -0.49585110533E+03 -0.32617114972E+01  0.11367273495E+04  0.12699999809E+01 0. -1.
</event>
<event>
 5   0  0.4605516E-05  0.2317623E+04  0.7818609E-02  0.8471005E-01
       -2   -1    0    0    0  501  0.00000000000E+00  0.00000000000E+00  0.10092459101E+04  0.10092459101E+04  0.25500000920E-02 0.  1.
        2   -1    0    0  501    0  0.00000000000E+00  0.00000000000E+00 -0.13305419477E+04  0.13305419477E+04  0.25500000920E-02 0. -1.
    10030    2    1    2    0    0  0.00000000000E+00  0.00000000000E+00 -0.32129603760E+03  0.23397878578E+04  0.23176229365E+04 0.  0.
        1    1    3    3  502    0 -0.51827052406E+03 -0.24534618899E+03 -0.11772765686E+04  0.13094957837E+04  0.50400001928E-02 0. -1.
       -1    1    3    3    0  502  0.51827052406E+03  0.24534618899E+03  0.85598053096E+03  0.10302920741E+04  0.50400001928E-02 0.  1.
</event>
<event>
 5   0  0.2042951E-05  0.2298819E+04  0.7818609E-02  0.8478387E-01
        1   -1    0    0  501    0  0.00000000000E+00  0.00000000000E+00  0.71007291225E+03  0.71007291227E+03  0.50400001928E-02 0. -1.
       -1   -1    0    0    0  501  0.00000000000E+00  0.00000000000E+00 -0.18605732440E+04  0.18605732440E+04  0.50400001928E-02 0.  1.
    10030    2    1    2    0    0  0.00000000000E+00  0.00000000000E+00 -0.11505003317E+04  0.25706461563E+04  0.22988194029E+04 0.  0.
        2    1    3    3  502    0  0.51724216797E+03 -0.50458737893E+03 -0.15748114299E+04  0.17326796943E+04  0.25500000920E-02 0.  1.
       -2    1    3    3    0  502 -0.51724216797E+03  0.50458737893E+03  0.42431109818E+03  0.83796646194E+03  0.25500000920E-02 0. -1.
</event>
<event>
 5   0  0.1968318E-05  0.2301092E+04  0.7818609E-02  0.8477491E-01
       -1   -1    0    0    0  501  0.00000000000E+00  0.00000000000E+00  0.52416527504E+03  0.52416527507E+03  0.50400001928E-02 0.  1.
        1   -1    0    0  501    0  0.00000000000E+00  0.00000000000E+00 -0.25254556903E+04  0.25254556903E+04  0.50400001928E-02 0. -1.
    10030    2    1    2    0    0  0.00000000000E+00  0.00000000000E+00 -0.20012904152E+04  0.30496209653E+04  0.23010920682E+04 0.  0.
        3    1    3    3  502    0  0.34922115924E+03  0.87486242183E+03 -0.12513251656E+03  0.95026198076E+03  0.10100000352E+00 0. -1.
       -3    1    3    3    0  502 -0.34922115924E+03 -0.87486242183E+03 -0.18761578987E+04  0.20993589846E+04  0.10100000352E+00 0.  1.
</event>
<event>
 5   0  0.4602447E-05  0.2329104E+04  0.7818609E-02  0.8466534E-01
        2   -1    0    0  501    0  0.00000000000E+00  0.00000000000E+00  0.21512606983E+04  0.21512606983E+04  0.25500000920E-02 0. -1.
       -2   -1    0    0    0  501  0.00000000000E+00  0.00000000000E+00 -0.63041220478E+03  0.63041220479E+03  0.25500000920E-02 0.  1.
    10030    2    1    2    0    0  0.00000000000E+00  0.00000000000E+00  0.15208484935E+04  0.27816729031E+04  0.23291036901E+04 0.  0.
        3    1    3    3  502    0 -0.35926258560E+03  0.92388516458E+03  0.30479135719E+02  0.99174714049E+03  0.10100000352E+00 0.  1.
       -3    1    3    3    0  502  0.35926258560E+03 -0.92388516458E+03  0.14903693578E+04  0.17899257626E+04  0.10100000352E+00 0. -1.
</event>
<event>
 5   0  0.4602447E-05  0.2259470E+04  0.7818609E-02  0.8494075E-01
       -2   -1    0    0    0  501  0.00000000000E+00  0.00000000000E+00  0.13315263313E+04  0.13315263313E+04  0.25500000920E-02 0. -1.
        2   -1    0    0  501    0  0.00000000000E+00  0.00000000000E+00 -0.95852465739E+03  0.95852465739E+03  0.25500000920E-02 0.  1.
    10030    2    1    2    0    0  0.00000000000E+00  0.00000000000E+00  0.37300167394E+03  0.22900509887E+04  0.22594696905E+04 0.  0.
        3    1    3    3  502    0  0.32302701902E+03 -0.22111840822E+03  0.12605899292E+04  0.13199722669E+04  0.10100000352E+00 0. -1.
       -3    1    3    3    0  502 -0.32302701902E+03  0.22111840822E+03 -0.88758825528E+03  0.97007872184E+03  0.10100000352E+00 0.  1.
</event>
<event>
 5   0  0.2042951E-05  0.2299194E+04  0.7818609E-02  0.8478239E-01
        1   -1    0    0  501    0  0.00000000000E+00  0.00000000000E+00  0.98402069236E+03  0.98402069238E+03  0.50400001928E-02 0.  1.
       -1   -1    0    0    0  501  0.00000000000E+00  0.00000000000E+00 -0.13430336337E+04  0.13430336337E+04  0.50400001928E-02 0. -1.
    10030    2    1    2    0    0  0.00000000000E+00  0.00000000000E+00 -0.35901294137E+03  0.23270543261E+04  0.22991936727E+04 0.  0.
        2    1    3    3  502    0  0.11114024429E+04  0.29222149021E+03 -0.14808031573E+03  0.11586788034E+04  0.25500000920E-02 0. -1.
       -2    1    3    3    0  502 -0.11114024429E+04 -0.29222149021E+03 -0.21093262565E+03  0.11683755227E+04  0.25500000920E-02 0.  1.
</event>
<event>
 5   0  0.2085063E-05  0.2290593E+04  0.7818609E-02  0.8481639E-01
       -1   -1    0    0    0  501  0.00000000000E+00  0.00000000000E+00  0.15619567371E+04  0.15619567371E+04  0.50400001928E-02 0. -1.
        1   -1    0    0  501    0  0.00000000000E+00  0.00000000000E+00 -0.83978272867E+03  0.83978272868E+03  0.50400001928E-02 0.  1.
    10030    2    1    2    0    0  0.00000000000E+00  0.00000000000E+00  0.72217400841E+03  0.24017394658E+04  0.22905931902E+04 0.  0.
        1    1    3    3  502    0 -0.23093534863E+02 -0.11214905461E+04  0.11872181116E+03  0.11279934507E+04  0.50400001928E-02 0. -1.
       -1    1    3    3    0  502  0.23093534863E+02  0.11214905461E+04  0.60345219725E+03  0.12737460150E+04  0.50400001928E-02 0.  1.
</event>
<event>
 5   0  0.4436695E-05  0.2322116E+04  0.7818609E-02  0.8469252E-01
        2   -1    0    0  501    0  0.00000000000E+00  0.00000000000E+00  0.76820029763E+03  0.76820029763E+03  0.25500000920E-02 0.  1.
       -2   -1    0    0    0  501  0.00000000000E+00  0.00000000000E+00 -0.17548239094E+04  0.17548239094E+04  0.25500000920E-02 0. -1.
    10030    2    1    2    0    0  0.00000000000E+00  0.00000000000E+00 -0.98662361173E+03  0.25230242070E+04  0.23221164910E+04 0.  0.
        5    1    3    3  502    0  0.58964253003E+03 -0.32787785500E+03  0.53334937788E+03  0.86003828397E+03  0.46999998093E+01 0.  1.
       -5    1    3    3    0  502 -0.58964253003E+03  0.32787785500E+03 -0.15199729896E+04  0.16629859230E+04  0.46999998093E+01 0. -1.
</event>
<event>
 5   0  0.2031860E-05  0.2296090E+04  0.7818609E-02  0.8479464E-01
        1   -1    0    0  501    0  0.00000000000E+00  0.00000000000E+00  0.18895864359E+04  0.18895864359E+04  0.50400001928E-02 0.  1.
       -1   -1    0    0    0  501  0.00000000000E+00  0.00000000000E+00 -0.69751085917E+03  0.69751085919E+03  0.50400001928E-02 0. -1.
    10030    2    1    2    0    0  0.00000000000E+00  0.00000000000E+00  0.11920755767E+04  0.25870972951E+04  0.22960897704E+04 0.  0.
        4    1    3    3  502    0  0.43424991133E+03 -0.88462004062E+03  0.12596485659E+04  0.15993253966E+04  0.12699999809E+01 0.  1.
       -4    1    3    3    0  502 -0.43424991133E+03  0.88462004062E+03 -0.67572989133E+02  0.98777189852E+03  0.12699999809E+01 0. -1.
</event>
<event>
 5   0  0.2085063E-05  0.2663879E+04  0.7818609E-02  0.8346821E-01
       -1   -1    0    0    0  501  0.00000000000E+00  0.00000000000E+00  0.10543651002E+04  0.10543651002E+04  0.50400001928E-02 0.  1.
        1   -1    0    0  501    0  0.00000000000E+00  0.00000000000E+00 -0.16825892464E+04  0.16825892464E+04  0.50400001928E-02 0. -1.
    10030    2    1    2    0    0  0.00000000000E+00  0.00000000000E+00 -0.62822414616E+03  0.27369543466E+04  0.26638794112E+04 0.  0.
        1    1    3    3  502    0 -0.31693322403E+03  0.10335052227E+03  0.10108110472E+04  0.10643622373E+04  0.50400001928E-02 0.  1.
       -1    1    3    3    0  502  0.31693322403E+03 -0.10335052227E+03 -0.16390351934E+04  0.16725921093E+04  0.50400001928E-02 0. -1.
</event>
<event>
 5   0  0.4505107E-05  0.2282455E+04  0.7818609E-02  0.8484871E-01
       -2   -1    0    0    0  501  0.00000000000E+00  0.00000000000E+00  0.53741591099E+03  0.53741591100E+03  0.25500000920E-02 0.  1.
        2   -1    0    0  501    0  0.00000000000E+00  0.00000000000E+00 -0.24234483399E+04  0.24234483399E+04  0.25500000920E-02 0. -1.
    10030    2    1    2    0    0  0.00000000000E+00  0.00000000000E+00 -0.18860324289E+04  0.29608642509E+04  0.22824545536E+04 0.  0.
        4    1    3    3  502    0  0.49807292165E+03 -0.28938769588E+03  0.33498474121E+03  0.66636196136E+03  0.12699999809E+01 0.  1.
       -4    1    3    3    0  502 -0.49807292165E+03  0.28938769588E+03 -0.22210171701E+04  0.22945022895E+04  0.12699999809E+01 0. -1.
</event>
<event>
 5   0  0.1968318E-05  0.2331304E+04  0.7818609E-02  0.8465680E-01
        1   -1    0    0  501    0  0.00000000000E+00  0.00000000000E+00  0.15587324725E+04  0.15587324725E+04  0.50400001928E-02 0.  1.
       -1   -1    0    0    0  501  0.00000000000E+00  0.00000000000E+00 -0.87169852713E+03  0.87169852715E+03  0.50400001928E-02 0. -1.
    10030    2    1    2    0    0  0.00000000000E+00  0.00000000000E+00  0.68703394537E+03  0.24304309997E+04  0.23313041848E+04 0.  0.
        3    1    3    3  502    0 -0.44121778122E+03  0.98445185472E+03 -0.11676023219E+03  0.10851043944E+04  0.10100000352E+00 0. -1.
       -3    1    3    3    0  502  0.44121778122E+03 -0.98445185472E+03  0.80379417756E+03  0.13453266053E+04  0.10100000352E+00 0.  1.
</event>
<event>
 5   0  0.2085063E-05  0.2381119E+04  0.7818609E-02  0.8446606E-01
        1   -1    0    0  501    0  0.00000000000E+00  0.00000000000E+00  0.24149772182E+04  0.24149772182E+04  0.50400001928E-02 0.  1.
       -1   -1    0    0    0  501  0.00000000000E+00  0.00000000000E+00 -0.58693393283E+03  0.58693393285E+03  0.50400001928E-02 0. -1.
    10030    2    1    2    0    0  0.00000000000E+00  0.00000000000E+00  0.18280432854E+04  0.30019111511E+04  0.23811191288E+04 0.  0.
        1    1    3    3  502    0 -0.67520587081E+03 -0.94732886607E+03  0.12332018814E+04  0.16953235175E+04  0.50400001928E-02 0.  1.
       -1    1    3    3    0  502  0.67520587081E+03  0.94732886607E+03  0.59484140396E+03  0.13065876336E+04  0.50400001928E-02 0. -1.
</event>
<event>
 5   0  0.2085063E-05  0.2306261E+04  0.7818609E-02  0.8475457E-01
       -1   -1    0    0    0  501  0.00000000000E+00  0.00000000000E+00  0.11718115472E+04  0.11718115472E+04  0.50400001928E-02 0. -1.
        1   -1    0    0  501    0  0.00000000000E+00  0.00000000000E+00 -0.11347472110E+04  0.11347472110E+04  0.50400001928E-02 0.  1.
    10030    2    1    2    0    0  0.00000000000E+00  0.00000000000E+00  0.37064336169E+02  0.23065587582E+04  0.23062609436E+04 0.  0.
        1    1    3    3  502    0  0.10545579588E+04  0.39507422779E+03  0.26662417544E+03  0.11572659957E+04  0.50400001928E-02 0. -1.
       -1    1    3    3    0  502 -0.10545579588E+04 -0.39507422779E+03 -0.22955983927E+03  0.11492927624E+04  0.50400001928E-02 0.  1.
</event>
<event>
 5   0  0.2043885E-05  0.2324096E+04  0.7818609E-02  0.8468480E-01
        1   -1    0    0  501    0  0.00000000000E+00  0.00000000000E+00  0.15576906506E+04  0.15576906506E+04  0.50400001928E-02 0.  1.
       -1   -1    0    0    0  501  0.00000000000E+00  0.00000000000E+00 -0.86689619927E+03  0.86689619928E+03  0.50400001928E-02 0. -1.
    10030    2    1    2    0    0  0.00000000000E+00  0.00000000000E+00  0.69079445131E+03  0.24245868499E+04  0.23240964736E+04 0.  0.
        5    1    3    3  502    0  0.40327541651E+03 -0.64975971534E+03 -0.56737101672E+03  0.95223458761E+03  0.46999998093E+01 0. -1.
       -5    1    3    3    0  502 -0.40327541651E+03  0.64975971534E+03  0.12581654680E+04  0.14723522623E+04  0.46999998093E+01 0.  1.
</event>
<event>
 5   0  0.2043885E-05  0.2301124E+04  0.7818609E-02  0.8477478E-01
       -1   -1    0    0    0  501  0.00000000000E+00  0.00000000000E+00  0.11800590480E+04  0.11800590481E+04  0.50400001928E-02 0.  1.
        1   -1    0    0  501    0  0.00000000000E+00  0.00000000000E+00 -0.11218026583E+04  0.11218026583E+04  0.50400001928E-02 0. -1.
    10030    2    1    2    0    0  0.00000000000E+00  0.00000000000E+00  0.58256389746E+02  0.23018617064E+04  0.23011244009E+04 0.  0.
        5    1    3    3  502    0  0.26169006106E+03  0.79904188581E+02  0.11470304149E+04  0.11792231469E+04  0.46999998093E+01 0.  1.
       -5    1    3    3    0  502 -0.26169006106E+03 -0.79904188581E+02 -0.10887740252E+04  0.11226385595E+04  0.46999998093E+01 0. -1.
</event>
<event>
 5   0  0.2042951E-05  0.2227408E+04  0.7818609E-02  0.8507106E-01
        1   -1    0    0  501    0  0.00000000000E+00  0.00000000000E+00  0.10385358027E+04  0.10385358027E+04  0.50400001928E-02 0.  1.
       -1   -1    0    0    0  501  0.00000000000E+00  0.00000000000E+00 -0.11943123159E+04  0.11943123159E+04  0.50400001928E-02 0. -1.
    10030    2    1    2    0    0  0.00000000000E+00  0.00000000000E+00 -0.15577651322E+03  0.22328481187E+04  0.22274075512E+04 0.  0.
        2    1    3    3  502    0 -0.38811922321E+03  0.84012251580E+03  0.54321671109E+03  0.10730921527E+04  0.25500000920E-02 0. -1.
       -2    1    3    3    0  502  0.38811922321E+03 -0.84012251580E+03 -0.69899322431E+03  0.11597559660E+04  0.25500000920E-02 0.  1.
</event>
<event>
 5   0  0.2042951E-05  0.2250304E+04  0.7818609E-02  0.8497777E-01
       -1   -1    0    0    0  501  0.00000000000E+00  0.00000000000E+00  0.11886526786E+04  0.11886526786E+04  0.50400001928E-02 0. -1.
        1   -1    0    0  501    0  0.00000000000E+00  0.00000000000E+00 -0.10650437051E+04  0.10650437051E+04  0.50400001928E-02 0.  1.
    10030    2    1    2    0    0  0.00000000000E+00  0.00000000000E+00  0.12360897351E+03  0.22536963837E+04  0.22503040265E+04 0.  0.
        2    1    3    3  502    0 -0.64915048473E+03 -0.46151414069E+03  0.85771971310E+03  0.11705019266E+04  0.25500000920E-02 0. -1.
       -2    1    3    3    0  502  0.64915048473E+03  0.46151414069E+03 -0.73411073959E+03  0.10831944571E+04  0.25500000920E-02 0.  1.
</event>
<event>
 5   0  0.2042951E-05  0.2295483E+04  0.7818609E-02  0.8479704E-01
       -1   -1    0    0    0  501  0.00000000000E+00  0.00000000000E+00  0.89914263048E+03  0.89914263050E+03  0.50400001928E-02 0.  1.
        1   -1    0    0  501    0  0.00000000000E+00  0.00000000000E+00 -0.14650742899E+04  0.14650742900E+04  0.50400001928E-02 0. -1.
    10030    2    1    2    0    0  0.00000000000E+00  0.00000000000E+00 -0.56593165946E+03  0.23642169205E+04  0.22954831744E+04 0.  0.
        2    1    3    3  502    0 -0.55804801321E+03  0.10029267215E+04 -0.27721683282E+03  0.11807323008E+04  0.25500000920E-02 0.  1.
       -2    1    3    3    0  502  0.55804801321E+03 -0.10029267215E+04 -0.28871482665E+03  0.11834846196E+04  0.25500000920E-02 0. -1.
</event>
<event>
 5   0  0.4436695E-05  0.2289792E+04  0.7818609E-02  0.8481957E-01
       -2   -1    0    0    0  501  0.00000000000E+00  0.00000000000E+00  0.62949250968E+03  0.62949250969E+03  0.25500000920E-02 0. -1.
        2   -1    0    0  501    0  0.00000000000E+00  0.00000000000E+00 -0.20822911467E+04  0.20822911467E+04  0.25500000920E-02 0.  1.
    10030    2    1    2    0    0  0.00000000000E+00  0.00000000000E+00 -0.14527986371E+04  0.27117836564E+04  0.22897918507E+04 0.  0.
        5    1    3    3  502    0  0.28206235349E+03  0.11073844497E+04 -0.80934292855E+03  0.14003276604E+04  0.46999998093E+01 0.  1.
       -5    1    3    3    0  502 -0.28206235349E+03 -0.11073844497E+04 -0.64345570850E+03  0.13114559960E+04  0.46999998093E+01 0. -1.
</event>
<event>
 5   0  0.2085063E-05  0.2323941E+04  0.7818609E-02  0.8468541E-01
       -1   -1    0    0    0  501  0.00000000000E+00  0.00000000000E+00  0.80432847684E+03  0.80432847685E+03  0.50400001928E-02 0.  1.
        1   -1    0    0  501    0  0.00000000000E+00  0.00000000000E+00 -0.16786364981E+04  0.16786364981E+04  0.50400001928E-02 0. -1.
    10030    2    1    2    0    0  0.00000000000E+00  0.00000000000E+00 -0.87430802128E+03  0.24829649750E+04  0.23239407374E+04 0.  0.
        1    1    3    3  502    0 -0.10207541410E+04 -0.47531702767E+03 -0.13062510459E+03  0.11335467397E+04  0.50400001928E-02 0. -1.
       -1    1    3    3    0  502  0.10207541410E+04  0.47531702767E+03 -0.74368291669E+03  0.13494182353E+04  0.50400001928E-02 0.  1.
</event>
<event>
 5   0  0.1604500E-05  0.2278012E+04  0.7818609E-02  0.8486641E-01
        3   -1    0    0  501    0  0.00000000000E+00  0.00000000000E+00  0.13118901805E+04  0.13118901844E+04  0.10100000352E+00 0. -1.
       -3   -1    0    0    0  501  0.00000000000E+00  0.00000000000E+00 -0.98890487517E+03  0.98890488033E+03  0.10100000352E+00 0.  1.
    10030    2    1    2    0    0  0.00000000000E+00  0.00000000000E+00  0.32298530535E+03  0.23007950647E+04  0.22780119452E+04 0.  0.
        1    1    3    3  502    0  0.23418729182E+03 -0.64626362145E+03 -0.75579444101E+03  0.10216288921E+04  0.50400001928E-02 0.  1.
       -1    1    3    3    0  502 -0.23418729182E+03  0.64626362145E+03  0.10787797464E+04  0.12791661726E+04  0.50400001928E-02 0. -1.
</event>
<event>
 5   0  0.4602447E-05  0.2305417E+04  0.7818609E-02  0.8475788E-01
        2   -1    0    0  501    0  0.00000000000E+00  0.00000000000E+00  0.24251036083E+04  0.24251036083E+04  0.25500000920E-02 0. -1.
       -2   -1    0    0    0  501  0.00000000000E+00  0.00000000000E+00 -0.54790929369E+03  0.54790929369E+03  0.25500000920E-02 0.  1.
    10030    2    1    2    0    0  0.00000000000E+00  0.00000000000E+00  0.18771943146E+04  0.29730129020E+04  0.23054169299E+04 0.  0.
        3    1    3    3  502    0  0.11511425500E+03  0.47149572996E+03 -0.40972171794E+03  0.63516250789E+03  0.10100000352E+00 0.  1.
       -3    1    3    3    0  502 -0.11511425500E+03 -0.47149572996E+03  0.22869160326E+04  0.23378503941E+04  0.10100000352E+00 0. -1.
</event>
<event>
 5   0  0.2031860E-05  0.2297898E+04  0.7818609E-02  0.8478750E-01
        1   -1    0    0  501    0  0.00000000000E+00  0.00000000000E+00  0.11433725630E+04  0.11433725630E+04  0.50400001928E-02 0. -1.
       -1   -1    0    0    0  501  0.00000000000E+00  0.00000000000E+00 -0.11545531093E+04  0.11545531093E+04  0.50400001928E-02 0.  1.
    10030    2    1    2    0    0  0.00000000000E+00  0.00000000000E+00 -0.11180546344E+02  0.22979256724E+04  0.22978984727E+04 0.  0.
        4    1    3    3  502    0 -0.10079778390E+03 -0.97898552427E+03 -0.59847998164E+03  0.11518475382E+04  0.12699999809E+01 0. -1.
       -4    1    3    3    0  502  0.10079778390E+03  0.97898552427E+03  0.58729943529E+03  0.11460781341E+04  0.12699999809E+01 0.  1.
</event>
<event>
 5   0  0.4505107E-05  0.2298317E+04  0.7818609E-02  0.8478585E-01
       -2   -1    0    0    0  501  0.00000000000E+00  0.00000000000E+00  0.65824522322E+03  0.65824522323E+03  0.25500000920E-02 0. -1.
        2   -1    0    0  501    0  0.00000000000E+00  0.00000000000E+00 -0.20061900097E+04  0.20061900097E+04  0.25500000920E-02 0.  1.
    10030    2    1    2    0    0  0.00000000000E+00  0.00000000000E+00 -0.13479447864E+04  0.26644352329E+04  0.22983167673E+04 0.  0.
        4    1    3    3  502    0 -0.10495220673E+04  0.39145506346E+03 -0.37652760943E+03  0.11817395186E+04  0.12699999809E+01 0.  1.
       -4    1    3    3    0  502  0.10495220673E+04 -0.39145506346E+03 -0.97141717701E+03  0.14826957142E+04  0.12699999809E+01 0. -1.
</event>
<event>
 5   0  0.4605516E-05  0.2314363E+04  0.7818609E-02  0.8472279E-01
       -2   -1    0    0    0  501  0.00000000000E+00  0.00000000000E+00  0.15927162309E+04  0.15927162309E+04  0.25500000920E-02 0. -1.
        2   -1    0    0  501    0  0.00000000000E+00  0.00000000000E+00 -0.84074573044E+03  0.84074573044E+03  0.25500000920E-02 0.  1.
    10030    2    1    2    0    0  0.00000000000E+00  0.00000000000E+00  0.75197050045E+03  0.24334619613E+04  0.23143632999E+04 0.  0.
        1    1    3    3  502    0  0.40202652647E+03  0.24081980158E+03  0.14884732947E+04  0.15605038462E+04  0.50400001928E-02 0. -1.
       -1    1    3    3    0  502 -0.40202652647E+03 -0.24081980158E+03 -0.73650279427E+03  0.87295811515E+03  0.50400001928E-02 0.  1.
</event>
<event>
 5   0  0.1968318E-05  0.2248758E+04  0.7818609E-02  0.8498404E-01
       -1   -1    0    0    0  501  0.00000000000E+00  0.00000000000E+00  0.11283248029E+04  0.11283248029E+04  0.50400001928E-02 0. -1.
        1   -1    0    0  501    0  0.00000000000E+00  0.00000000000E+00 -0.11204472015E+04  0.11204472015E+04  0.50400001928E-02 0.  1.
    10030    2    1    2    0    0  0.00000000000E+00  0.00000000000E+00  0.78776014287E+01  0.22487720044E+04  0.22487582065E+04 0.  0.
        3    1    3    3  502    0  0.43588892307E+03 -0.82746481954E+03  0.62806695818E+03  0.11265723656E+04  0.10100000352E+00 0. -1.
       -3    1    3    3    0  502 -0.43588892307E+03  0.82746481954E+03 -0.62018935675E+03  0.11221996388E+04  0.10100000352E+00 0.  1.
</event>
<event>
 5   0  0.4602447E-05  0.2238205E+04  0.7818609E-02  0.8502693E-01
       -2   -1    0    0    0  501  0.00000000000E+00  0.00000000000E+00  0.12314139533E+04  0.12314139533E+04  0.25500000920E-02 0.  1.
        2   -1    0    0  501    0  0.00000000000E+00  0.00000000000E+00 -0.10170345038E+04  0.10170345038E+04  0.25500000920E-02 0. -1.
    10030    2    1    2    0    0  0.00000000000E+00  0.00000000000E+00  0.21437944953E+03  0.22484484571E+04  0.22382050656E+04 0.  0.
        3    1    3    3  502    0  0.81675863284E+03  0.56342705876E+03 -0.41271701213E+03  0.10746534591E+04  0.10100000352E+00 0. -1.
       -3    1    3    3    0  502 -0.81675863284E+03 -0.56342705876E+03  0.62709646166E+03  0.11737949980E+04  0.10100000352E+00 0.  1.
</event>
<event>
 5   0  0.2031860E-05  0.2317587E+04  0.7818609E-02  0.8471019E-01
       -1   -1    0    0    0  501  0.00000000000E+00  0.00000000000E+00  0.12014301292E+04  0.12014301292E+04  0.50400001928E-02 0.  1.
        1   -1    0    0  501    0  0.00000000000E+00  0.00000000000E+00 -0.11176696871E+04  0.11176696871E+04  0.50400001928E-02 0. -1.
    10030    2    1    2    0    0  0.00000000000E+00  0.00000000000E+00  0.83760442105E+02  0.23190998164E+04  0.23175867075E+04 0.  0.
        4    1    3    3  502    0  0.49808853366E+03  0.10032108278E+04  0.33918743045E+03  0.11702879468E+04  0.12699999809E+01 0.  1.
       -4    1    3    3    0  502 -0.49808853366E+03 -0.10032108278E+04 -0.25542698835E+03  0.11488118696E+04  0.12699999809E+01 0. -1.
</event>
<event>
 5   0  0.4798609E-05  0.2312344E+04  0.7818609E-02  0.8473070E-01
       -2   -1    0    0    0  501  0.00000000000E+00  0.00000000000E+00  0.89855355691E+03  0.89855355691E+03  0.25500000920E-02 0.  1.
        2   -1    0    0  501    0  0.00000000000E+00  0.00000000000E+00 -0.14876501915E+04  0.14876501915E+04  0.25500000920E-02 0. -1.
    10030    2    1    2    0    0  0.00000000000E+00  0.00000000000E+00 -0.58909663458E+03  0.23862037484E+04  0.23123437210E+04 0.  0.
        2    1    3    3  502    0 -0.65470514932E+03  0.18506203965E+03 -0.12592048912E+04  0.14312525106E+04  0.25500000920E-02 0. -1.
       -2    1    3    3    0  502  0.65470514932E+03 -0.18506203965E+03  0.67010825659E+03  0.95495123783E+03  0.25500000920E-02 0.  1.
</event>
<event>
 5   0  0.2031860E-05  0.2314232E+04  0.7818609E-02  0.8472331E-01
        1   -1    0    0  501    0  0.00000000000E+00  0.00000000000E+00  0.17266199524E+04  0.17266199524E+04  0.50400001928E-02 0. -1.
       -1   -1    0    0    0  501  0.00000000000E+00  0.00000000000E+00 -0.77545599101E+03  0.77545599102E+03  0.50400001928E-02 0.  1.
    10030    2    1    2    0    0  0.00000000000E+00  0.00000000000E+00  0.95116396136E+03  0.25020759434E+04  0.23142323015E+04 0.  0.
        4    1    3    3  502    0 -0.10766530715E+04  0.61618983138E+02  0.22086808710E+02  0.10786418199E+04  0.12699999809E+01 0.  1.
       -4    1    3    3    0  502  0.10766530715E+04 -0.61618983138E+02  0.92907715265E+03  0.14234341235E+04  0.12699999809E+01 0. -1.
</event>
<event>
 5   0  0.2031860E-05  0.2310510E+04  0.7818609E-02  0.8473789E-01
        1   -1    0    0  501    0  0.00000000000E+00  0.00000000000E+00  0.85622908191E+03  0.85622908192E+03  0.50400001928E-02 0.  1.
       -1   -1    0    0    0  501  0.00000000000E+00  0.00000000000E+00 -0.15587110346E+04  0.15587110346E+04  0.50400001928E-02 0. -1.
    10030    2    1    2    0    0  0.00000000000E+00  0.00000000000E+00 -0.70248195272E+03  0.24149401166E+04  0.23105096565E+04 0.  0.
        4    1    3    3  502    0  0.13149292806E+03 -0.21107388660E+03  0.82792099057E+03  0.86446362287E+03  0.12699999809E+01 0.  1.
       -4    1    3    3    0  502 -0.13149292806E+03  0.21107388660E+03 -0.15304029433E+04  0.15504764937E+04  0.12699999809E+01 0. -1.
</event>
<event>
 5   0  0.2042951E-05  0.2298273E+04  0.7818609E-02  0.8478602E-01
       -1   -1    0    0    0  501  0.00000000000E+00  0.00000000000E+00  0.10811130409E+04  0.10811130409E+04  0.50400001928E-02 0.  1.
        1   -1    0    0  501    0  0.00000000000E+00  0.00000000000E+00 -0.12214400784E+04  0.12214400784E+04  0.50400001928E-02 0. -1.
    10030    2    1    2    0    0  0.00000000000E+00  0.00000000000E+00 -0.14032703754E+03  0.23025531194E+04  0.22982730886E+04 0.  0.
        2    1    3    3  502    0 -0.70117129208E+02 -0.38856706874E+03  0.10110190446E+04  0.10853848567E+04  0.25500000920E-02 0.  1.
       -2    1    3    3    0  502  0.70117129208E+02  0.38856706874E+03 -0.11513460821E+04  0.12171682626E+04  0.25500000920E-02 0. -1.
</event>
<event>
 5   0  0.4798609E-05  0.2303401E+04  0.7818609E-02  0.8476581E-01
        2   -1    0    0  501    0  0.00000000000E+00  0.00000000000E+00  0.29332516692E+04  0.29332516692E+04  0.25500000920E-02 0. -1.
       -2   -1    0    0    0  501  0.00000000000E+00  0.00000000000E+00 -0.45219938367E+03  0.45219938368E+03  0.25500000920E-02 0.  1.
    10030    2    1    2    0    0  0.00000000000E+00  0.00000000000E+00  0.24810522855E+04  0.33854510529E+04  0.23034014821E+04 0.  0.
        2    1    3    3  502    0 -0.11416942493E+04  0.91769473048E+02  0.14176748074E+04  0.18225502064E+04  0.25500000920E-02 0. -1.
       -2    1    3    3    0  502  0.11416942493E+04 -0.91769473048E+02  0.10633774781E+04  0.15629008465E+04  0.25500000920E-02 0.  1.
</event>
<event>
 5   0  0.4605516E-05  0.2265844E+04  0.7818609E-02  0.8491511E-01
        2   -1    0    0  501    0  0.00000000000E+00  0.00000000000E+00  0.99173100991E+03  0.99173100991E+03  0.25500000920E-02 0. -1.
       -2   -1    0    0    0  501  0.00000000000E+00  0.00000000000E+00 -0.12942145006E+04  0.12942145006E+04  0.25500000920E-02 0.  1.
    10030    2    1    2    0    0  0.00000000000E+00  0.00000000000E+00 -0.30248349073E+03  0.22859455106E+04  0.22658443493E+04 0.  0.
        1    1    3    3  502    0 -0.41493908533E+03 -0.41623796595E+03  0.82589805604E+03  0.10136745473E+04  0.50400001928E-02 0. -1.
       -1    1    3    3    0  502  0.41493908533E+03  0.41623796595E+03 -0.11283815468E+04  0.12722709633E+04  0.50400001928E-02 0.  1.
</event>
<event>
 5   0  0.4436695E-05  0.2282836E+04  0.7818609E-02  0.8484720E-01
       -2   -1    0    0    0  501  0.00000000000E+00  0.00000000000E+00  0.48386267800E+03  0.48386267801E+03  0.25500000920E-02 0. -1.
        2   -1    0    0  501    0  0.00000000000E+00  0.00000000000E+00 -0.26925718572E+04  0.26925718572E+04  0.25500000920E-02 0.  1.
    10030    2    1    2    0    0  0.00000000000E+00  0.00000000000E+00 -0.22087091792E+04  0.31764345352E+04  0.22828359815E+04 0.  0.
        5    1    3    3  502    0  0.85866375154E+03 -0.41814555501E+03 -0.19740492085E+04  0.21929526924E+04  0.46999998093E+01 0.  1.
       -5    1    3    3    0  502 -0.85866375154E+03  0.41814555501E+03 -0.23465997071E+03  0.98348184286E+03  0.46999998093E+01 0. -1.
</event>
<event>
 5   0  0.4605516E-05  0.2299588E+04  0.7818609E-02  0.8478083E-01
       -2   -1    0    0    0  501  0.00000000000E+00  0.00000000000E+00  0.15198183803E+04  0.15198183803E+04  0.25500000920E-02 0. -1.
        2   -1    0    0  501    0  0.00000000000E+00  0.00000000000E+00 -0.86985838616E+03  0.86985838617E+03  0.25500000920E-02 0.  1.
    10030    2    1    2    0    0  0.00000000000E+00  0.00000000000E+00  0.64995999416E+03  0.23896767665E+04  0.22995884533E+04 0.  0.
        1    1    3    3  502    0  0.52325691018E+03 -0.42333664548E+03 -0.64374987465E+03  0.93135686533E+03  0.50400001928E-02 0.  1.
       -1    1    3    3    0  502 -0.52325691018E+03  0.42333664548E+03  0.12937098688E+04  0.14583199012E+04  0.50400001928E-02 0. -1.
</event>
<event>
 5   0  0.2085063E-05  0.2291361E+04  0.7818609E-02  0.8481335E-01
       -1   -1    0    0    0  501  0.00000000000E+00  0.00000000000E+00  0.96355001736E+03  0.96355001738E+03  0.50400001928E-02 0. -1.
        1   -1    0    0  501    0  0.00000000000E+00  0.00000000000E+00 -0.13622377810E+04  0.13622377810E+04  0.50400001928E-02 0.  1.
    10030    2    1    2    0    0  0.00000000000E+00  0.00000000000E+00 -0.39868776360E+03  0.23257877983E+04  0.22913613748E+04 0.  0.
        1    1    3    3  502    0  0.15580336584E+03  0.61550354680E+03  0.76864301573E+03  0.99696107777E+03  0.50400001928E-02 0. -1.
       -1    1    3    3    0  502 -0.15580336584E+03 -0.61550354680E+03 -0.11673307793E+04  0.13288267206E+04  0.50400001928E-02 0.  1.
</event>
<event>
 5   0  0.4436695E-05  0.2304470E+04  0.7818609E-02  0.8476161E-01
        2   -1    0    0  501    0  0.00000000000E+00  0.00000000000E+00  0.20369361017E+04  0.20369361017E+04  0.25500000920E-02 0. -1.
       -2   -1    0    0    0  501  0.00000000000E+00  0.00000000000E+00 -0.65178562992E+03  0.65178562993E+03  0.25500000920E-02 0.  1.
    10030    2    1    2    0    0  0.00000000000E+00  0.00000000000E+00  0.13851504718E+04  0.26887217316E+04  0.23044701605E+04 0.  0.
        5    1    3    3  502    0 -0.10927499505E+04  0.19892847170E+03  0.33495678100E+03  0.11601263407E+04  0.46999998093E+01 0.  1.
       -5    1    3    3    0  502  0.10927499505E+04 -0.19892847170E+03  0.10501936908E+04  0.15285953910E+04  0.46999998093E+01 0. -1.
</event>
<event>
 5   0  0.1604500E-05  0.2307977E+04  0.7818609E-02  0.8474783E-01
        3   -1    0    0  501    0  0.00000000000E+00  0.00000000000E+00  0.77694897466E+03  0.77694898122E+03  0.10100000352E+00 0.  1.
       -3   -1    0    0    0  501  0.00000000000E+00  0.00000000000E+00 -0.17139982628E+04  0.17139982658E+04  0.10100000352E+00 0. -1.
    10030    2    1    2    0    0  0.00000000000E+00  0.00000000000E+00 -0.93704928814E+03  0.24909472470E+04  0.23079767804E+04 0.  0.
        5    1    3    3  502    0  0.95148030211E+03  0.22782258792E+03  0.19190956217E+03  0.99703022367E+03  0.46999998093E+01 0.  1.
       -5    1    3    3    0  502 -0.95148030211E+03 -0.22782258792E+03 -0.11289588503E+04  0.14939170233E+04  0.46999998093E+01 0. -1.
</event>
<event>
 5   0  0.4505107E-05  0.2316233E+04  0.7818609E-02  0.8471548E-01
        2   -1    0    0  501    0  0.00000000000E+00  0.00000000000E+00  0.25423109465E+04  0.25423109465E+04  0.25500000920E-02 0. -1.
       -2   -1    0    0    0  501  0.00000000000E+00  0.00000000000E+00 -0.52756467404E+03  0.52756467405E+03  0.25500000920E-02 0.  1.
    10030    2    1    2    0    0  0.00000000000E+00  0.00000000000E+00  0.20147462724E+04  0.30698756205E+04  0.23162326703E+04 0.  0.
        4    1    3    3  502    0 -0.42594228957E+02 -0.74681509153E+03  0.21791756515E+04  0.23039868017E+04  0.12699999809E+01 0. -1.
       -4    1    3    3    0  502  0.42594228957E+02  0.74681509153E+03 -0.16442937905E+03  0.76588881887E+03  0.12699999809E+01 0.  1.
</event>
<event>
 5   0  0.4505107E-05  0.2292139E+04  0.7818609E-02  0.8481027E-01
        2   -1    0    0  501    0  0.00000000000E+00  0.00000000000E+00  0.11020825313E+04  0.11020825314E+04  0.25500000920E-02 0. -1.
       -2   -1    0    0    0  501  0.00000000000E+00  0.00000000000E+00 -0.11918124125E+04  0.11918124125E+04  0.25500000920E-02 0.  1.
    10030    2    1    2    0    0  0.00000000000E+00  0.00000000000E+00 -0.89729881181E+02  0.22938949439E+04  0.22921392981E+04 0.  0.
        4    1    3    3  502    0  0.36372881270E+03 -0.88452754400E+03  0.58711411822E+03  0.11222264593E+04  0.12699999809E+01 0. -1.
       -4    1    3    3    0  502 -0.36372881270E+03  0.88452754400E+03 -0.67684399940E+03  0.11716684846E+04  0.12699999809E+01 0.  1.
</event>
<event>
 5   0  0.2042951E-05  0.2307226E+04  0.7818609E-02  0.8475077E-01
        1   -1    0    0  501    0  0.00000000000E+00  0.00000000000E+00  0.14756719882E+04  0.14756719882E+04  0.50400001928E-02 0.  1.
       -1   -1    0    0    0  501  0.00000000000E+00  0.00000000000E+00 -0.90184218208E+03  0.90184218209E+03  0.50400001928E-02 0. -1.
    10030    2    1    2    0    0  0.00000000000E+00  0.00000000000E+00  0.57382980611E+03  0.23775141703E+04  0.23072262532E+04 0.  0.
        2    1    3    3  502    0  0.76810949518E+03 -0.57009378621E+03  0.95140386334E+03  0.13491361803E+04  0.25500000920E-02 0. -1.
       -2    1    3    3    0  502 -0.76810949518E+03  0.57009378621E+03 -0.37757405724E+03  0.10283779900E+04  0.25500000920E-02 0.  1.
</event>
<event>
 5   0  0.1968318E-05  0.2296513E+04  0.7818609E-02  0.8479297E-01
       -1   -1    0    0    0  501  0.00000000000E+00  0.00000000000E+00  0.11462363285E+04  0.11462363285E+04  0.50400001928E-02 0.  1.
        1   -1    0    0  501    0  0.00000000000E+00  0.00000000000E+00 -0.11502801804E+04  0.11502801804E+04  0.50400001928E-02 0. -1.
    10030    2    1    2    0    0  0.00000000000E+00  0.00000000000E+00 -0.40438519065E+01  0.22965165089E+04  0.22965129485E+04 0.  0.
        3    1    3    3  502    0  0.23039353666E+03  0.63679662636E+03 -0.92933226326E+03  0.11498911213E+04  0.10100000352E+00 0. -1.
       -3    1    3    3    0  502 -0.23039353666E+03 -0.63679662636E+03  0.92528841135E+03  0.11466253876E+04  0.10100000352E+00 0.  1.
</event>
<event>
 5   0  0.2043885E-05  0.2280583E+04  0.7818609E-02  0.8485616E-01
        1   -1    0    0  501    0  0.00000000000E+00  0.00000000000E+00  0.15354775781E+04  0.15354775781E+04  0.50400001928E-02 0. -1.
       -1   -1    0    0    0  501  0.00000000000E+00  0.00000000000E+00 -0.84681471847E+03  0.84681471849E+03  0.50400001928E-02 0.  1.
    10030    2    1    2    0    0  0.00000000000E+00  0.00000000000E+00  0.68866285960E+03  0.23822922966E+04  0.22805832702E+04 0.  0.
        5    1    3    3  502    0  0.10088981020E+04 -0.76070411023E+01  0.89935572475E+03  0.13515901957E+04  0.46999998093E+01 0. -1.
       -5    1    3    3    0  502 -0.10088981020E+04  0.76070411023E+01 -0.21069286515E+03  0.10307021009E+04  0.46999998093E+01 0.  1.
</event>
<event>
 5   0  0.4505107E-05  0.2289827E+04  0.7818609E-02  0.8481943E-01
        2   -1    0    0  501    0  0.00000000000E+00  0.00000000000E+00  0.10713194550E+04  0.10713194550E+04  0.25500000920E-02 0.  1.
       -2   -1    0    0    0  501  0.00000000000E+00  0.00000000000E+00 -0.12235633793E+04  0.12235633793E+04  0.25500000920E-02 0. -1.
    10030    2    1    2    0    0  0.00000000000E+00  0.00000000000E+00 -0.15224392430E+03  0.22948828344E+04  0.22898272885E+04 0.  0.
        4    1    3    3  502    0 -0.99935508585E+03 -0.39649661712E+03  0.31832733680E+03  0.11212734106E+04  0.12699999809E+01 0.  1.
       -4    1    3    3    0  502  0.99935508585E+03  0.39649661712E+03 -0.47057126110E+03  0.11736094238E+04  0.12699999809E+01 0. -1.
</event>
<event>
 5   0  0.4436695E-05  0.2304907E+04  0.7818609E-02  0.8475989E-01
        2   -1    0    0  501    0  0.00000000000E+00  0.00000000000E+00  0.15346426012E+04  0.15346426012E+04  0.25500000920E-02 0.  1.
       -2   -1    0    0    0  501  0.00000000000E+00  0.00000000000E+00 -0.86544507705E+03  0.86544507705E+03  0.25500000920E-02 0. -1.
    10030    2    1    2    0    0  0.00000000000E+00  0.00000000000E+00  0.66919752411E+03  0.24000876782E+04  0.23049068391E+04 0.  0.
        5    1    3    3  502    0 -0.23390124578E+02 -0.29200286224E+03 -0.82601956686E+03  0.87643778121E+03  0.46999998093E+01 0. -1.
       -5    1    3    3    0  502  0.23390124578E+02  0.29200286224E+03  0.14952170910E+04  0.15236498970E+04  0.46999998093E+01 0.  1.
</event>
<event>
 5   0  0.4605516E-05  0.2333728E+04  0.7818609E-02  0.8464740E-01
        2   -1    0    0  501    0  0.00000000000E+00  0.00000000000E+00  0.12464506792E+04  0.12464506792E+04  0.25500000920E-02 0. -1.
       -2   -1    0    0    0  501  0.00000000000E+00  0.00000000000E+00 -0.10923588721E+04  0.10923588721E+04  0.25500000920E-02 0.  1.
    10030    2    1    2    0    0  0.00000000000E+00  0.00000000000E+00  0.15409180711E+03  0.23388095514E+04  0.23337278831E+04 0.  0.
        1    1    3    3  502    0  0.93894196605E+03  0.23698254365E+03  0.72946169163E+03  0.12123890057E+04  0.50400001928E-02 0. -1.
       -1    1    3    3    0  502 -0.93894196605E+03 -0.23698254365E+03 -0.57536988452E+03  0.11264205456E+04  0.50400001928E-02 0.  1.
</event>
<event>
 5   0  0.4605516E-05  0.2294424E+04  0.7818609E-02  0.8480123E-01
       -2   -1    0    0    0  501  0.00000000000E+00  0.00000000000E+00  0.12296350249E+04  0.12296350249E+04  0.25500000920E-02 0.  1.
        2   -1    0    0  501    0  0.00000000000E+00  0.00000000000E+00 -0.10703136393E+04  0.10703136393E+04  0.25500000920E-02 0. -1.
    10030    2    1    2    0    0  0.00000000000E+00  0.00000000000E+00  0.15932138561E+03  0.22999486642E+04  0.22944237957E+04 0.  0.
        1    1    3    3  502    0  0.64623990553E+03  0.82791831271E+03 -0.38299199827E+03  0.11179255873E+04  0.50400001928E-02 0. -1.
       -1    1    3    3    0  502 -0.64623990553E+03 -0.82791831271E+03  0.54231338388E+03  0.11820230769E+04  0.50400001928E-02 0.  1.
</event>
<event>
 5   0  0.2043885E-05  0.2251784E+04  0.7818609E-02  0.8497179E-01
        1   -1    0    0  501    0  0.00000000000E+00  0.00000000000E+00  0.10627443427E+04  0.10627443427E+04  0.50400001928E-02 0. -1.
       -1   -1    0    0    0  501  0.00000000000E+00  0.00000000000E+00 -0.11927914314E+04  0.11927914314E+04  0.50400001928E-02 0.  1.
    10030    2    1    2    0    0  0.00000000000E+00  0.00000000000E+00 -0.13004708875E+03  0.22555357741E+04  0.22517836004E+04 0.  0.
        5    1    3    3  502    0  0.70179115581E+02 -0.18351686831E+03 -0.11754765762E+04  0.11917931114E+04  0.46999998093E+01 0.  1.
       -5    1    3    3    0  502 -0.70179115581E+02  0.18351686831E+03  0.10454294874E+04  0.10637426627E+04  0.46999998093E+01 0. -1.
</event>
<event>
 5   0  0.1604500E-05  0.2330673E+04  0.7818609E-02  0.8465924E-01
        3   -1    0    0  501    0  0.00000000000E+00  0.00000000000E+00  0.13827757641E+04  0.13827757678E+04  0.10100000352E+00 0.  1.
       -3   -1    0    0    0  501  0.00000000000E+00  0.00000000000E+00 -0.98208956195E+03  0.98208956714E+03  0.10100000352E+00 0. -1.
    10030    2    1    2    0    0  0.00000000000E+00  0.00000000000E+00  0.40068620215E+03  0.23648653349E+04  0.23306734262E+04 0.  0.
        2    1    3    3  502    0  0.38947832509E+03  0.10976196007E+04  0.24025850303E+03  0.11891956533E+04  0.25500000920E-02 0.  1.
       -2    1    3    3    0  502 -0.38947832509E+03 -0.10976196007E+04  0.16042769912E+03  0.11756696816E+04  0.25500000920E-02 0. -1.
</event>
<event>
 5   0  0.4505107E-05  0.2158293E+04  0.7818609E-02  0.8535991E-01
        2   -1    0    0  501    0  0.00000000000E+00  0.00000000000E+00  0.12111218344E+04  0.12111218344E+04  0.25500000920E-02 0.  1.
       -2   -1    0    0    0  501  0.00000000000E+00  0.00000000000E+00 -0.96155247320E+03  0.96155247320E+03  0.25500000920E-02 0. -1.
    10030    2    1    2    0    0  0.00000000000E+00  0.00000000000E+00  0.24956936120E+03  0.21726743076E+04  0.21582930248E+04 0.  0.
        4    1    3    3  502    0  0.45440365500E+01 -0.10535379377E+04  0.35999246950E+03  0.11133548515E+04  0.12699999809E+01 0.  1.
       -4    1    3    3    0  502 -0.45440365500E+01  0.10535379377E+04 -0.11042310831E+03  0.10593194561E+04  0.12699999809E+01 0. -1.
</event>
<event>
 5   0  0.2031860E-05  0.2302651E+04  0.7818609E-02  0.8476876E-01
        1   -1    0    0  501    0  0.00000000000E+00  0.00000000000E+00  0.14450869156E+04  0.14450869156E+04  0.50400001928E-02 0.  1.
       -1   -1    0    0    0  501  0.00000000000E+00  0.00000000000E+00 -0.91728097306E+03  0.91728097307E+03  0.50400001928E-02 0. -1.
    10030    2    1    2    0    0  0.00000000000E+00  0.00000000000E+00  0.52780594255E+03  0.23623678887E+04  0.23026512824E+04 0.  0.
        4    1    3    3  502    0 -0.36171792877E+03  0.10340742212E+04 -0.99398969840E+02  0.11000141467E+04  0.12699999809E+01 0. -1.
       -4    1    3    3    0  502  0.36171792877E+03 -0.10340742212E+04  0.62720491238E+03  0.12623537420E+04  0.12699999809E+01 0.  1.
</event>
<event>
 5   0  0.4505107E-05  0.2291493E+04  0.7818609E-02  0.8481283E-01
        2   -1    0    0  501    0  0.00000000000E+00  0.00000000000E+00  0.21639011145E+04  0.21639011145E+04  0.25500000920E-02 0. -1.
       -2   -1    0    0    0  501  0.00000000000E+00  0.00000000000E+00 -0.60665204102E+03  0.60665204103E+03  0.25500000920E-02 0.  1.
    10030    2    1    2    0    0  0.00000000000E+00  0.00000000000E+00  0.15572490735E+04  0.27705531555E+04  0.22914929873E+04 0.  0.
        4    1    3    3  502    0  0.52724554928E+03 -0.57102990857E+03  0.17964424680E+04  0.19573630679E+04  0.12699999809E+01 0. -1.
       -4    1    3    3    0  502 -0.52724554928E+03  0.57102990857E+03 -0.23919339456E+03  0.81319008763E+03  0.12699999809E+01 0.  1.
</event>
<event>
 5   0  0.1968318E-05  0.2280003E+04  0.7818609E-02  0.8485848E-01
       -1   -1    0    0    0  501  0.00000000000E+00  0.00000000000E+00  0.10391939123E+04  0.10391939123E+04  0.50400001928E-02 0. -1.
        1   -1    0    0  501    0  0.00000000000E+00  0.00000000000E+00 -0.12505877832E+04  0.12505877832E+04  0.50400001928E-02 0.  1.
    10030    2    1    2    0    0  0.00000000000E+00  0.00000000000E+00 -0.21139387088E+03  0.22897816956E+04  0.22800028168E+04 0.  0.
        3    1    3    3  502    0  0.44617071626E+02  0.93278913691E+03  0.55095520125E+03  0.10842683713E+04  0.10100000352E+00 0. -1.
       -3    1    3    3    0  502 -0.44617071626E+02 -0.93278913691E+03 -0.76234907213E+03  0.12055133243E+04  0.10100000352E+00 0.  1.
</event>
<event>
 5   0  0.2031860E-05  0.2301313E+04  0.7818609E-02  0.8477403E-01
        1   -1    0    0  501    0  0.00000000000E+00  0.00000000000E+00  0.73418283528E+03  0.73418283530E+03  0.50400001928E-02 0.  1.
       -1   -1    0    0    0  501  0.00000000000E+00  0.00000000000E+00 -0.18033800751E+04  0.18033800751E+04  0.50400001928E-02 0. -1.
    10030    2    1    2    0    0  0.00000000000E+00  0.00000000000E+00 -0.10691972398E+04  0.25375629104E+04  0.23013132743E+04 0.  0.
        4    1    3    3  502    0 -0.27195324269E+03  0.80090032955E+03  0.32562294296E+03  0.90632875821E+03  0.12699999809E+01 0.  1.
       -4    1    3    3    0  502  0.27195324269E+03 -0.80090032955E+03 -0.13948201828E+04  0.16312341522E+04  0.12699999809E+01 0. -1.
</event>
<event>
 5   0  0.2042951E-05  0.2295583E+04  0.7818609E-02  0.8479665E-01
       -1   -1    0    0    0  501  0.00000000000E+00  0.00000000000E+00  0.83742098660E+03  0.83742098662E+03  0.50400001928E-02 0.  1.
        1   -1    0    0  501    0  0.00000000000E+00  0.00000000000E+00 -0.15731940686E+04  0.15731940686E+04  0.50400001928E-02 0. -1.
    10030    2    1    2    0    0  0.00000000000E+00  0.00000000000E+00 -0.73577308196E+03  0.24106150552E+04  0.22955833499E+04 0.  0.
        2    1    3    3  502    0  0.51344612098E+03  0.46106932096E+03 -0.13310234283E+04  0.14992782279E+04  0.25500000920E-02 0. -1.
       -2    1    3    3    0  502 -0.51344612098E+03 -0.46106932096E+03  0.59525034638E+03  0.91133682728E+03  0.25500000920E-02 0.  1.
</event>
<event>
 5   0  0.4605516E-05  0.2304957E+04  0.7818609E-02  0.8475969E-01
        2   -1    0    0  501    0  0.00000000000E+00  0.00000000000E+00  0.84939395625E+03  0.84939395625E+03  0.25500000920E-02 0.  1.
       -2   -1    0    0    0  501  0.00000000000E+00  0.00000000000E+00 -0.15637111778E+04  0.15637111778E+04  0.25500000920E-02 0. -1.
    10030    2    1    2    0    0  0.00000000000E+00  0.00000000000E+00 -0.71431722160E+03  0.24131051341E+04  0.23049571135E+04 0.  0.
        1    1    3    3  502    0  0.45417852396E+02  0.11259108575E+04 -0.10401007291E+03  0.11316166027E+04  0.50400001928E-02 0.  1.
       -1    1    3    3    0  502 -0.45417852396E+02 -0.11259108575E+04 -0.61030714869E+03  0.12814885314E+04  0.50400001928E-02 0. -1.
</event>
<event>
 5   0  0.2085063E-05  0.2295295E+04  0.7818609E-02  0.8479779E-01
       -1   -1    0    0    0  501  0.00000000000E+00  0.00000000000E+00  0.10071118633E+04  0.10071118634E+04  0.50400001928E-02 0.  1.
        1   -1    0    0  501    0  0.00000000000E+00  0.00000000000E+00 -0.13077939593E+04  0.13077939593E+04  0.50400001928E-02 0. -1.
    10030    2    1    2    0    0  0.00000000000E+00  0.00000000000E+00 -0.30068209599E+03  0.23149058227E+04  0.22952950236E+04 0.  0.
        1    1    3    3  502    0 -0.42834018774E+03  0.94741094492E+03 -0.64032319005E+03  0.12210964756E+04  0.50400001928E-02 0. -1.
       -1    1    3    3    0  502  0.42834018774E+03 -0.94741094492E+03  0.33964109406E+03  0.10938093471E+04  0.50400001928E-02 0.  1.
</event>
<event>
 5   0  0.4605516E-05  0.2226050E+04  0.7818609E-02  0.8507663E-01
        2   -1    0    0  501    0  0.00000000000E+00  0.00000000000E+00  0.12270154290E+04  0.12270154290E+04  0.25500000920E-02 0. -1.
       -2   -1    0    0    0  501  0.00000000000E+00  0.00000000000E+00 -0.10096244501E+04  0.10096244501E+04  0.25500000920E-02 0.  1.
    10030    2    1    2    0    0  0.00000000000E+00  0.00000000000E+00  0.21739097888E+03  0.22366398791E+04  0.22260501143E+04 0.  0.
        1    1    3    3  502    0  0.10018815956E+04  0.29068135033E+03  0.49856510460E+03  0.11562134503E+04  0.50400001928E-02 0. -1.
       -1    1    3    3    0  502 -0.10018815956E+04 -0.29068135033E+03 -0.28117412572E+03  0.10804264288E+04  0.50400001928E-02 0.  1.
</event>
<event>
 5   0  0.4798609E-05  0.2303286E+04  0.7818609E-02  0.8476627E-01
       -2   -1    0    0    0  501  0.00000000000E+00  0.00000000000E+00  0.71695820371E+03  0.71695820371E+03  0.25500000920E-02 0.  1.
        2   -1    0    0  501    0  0.00000000000E+00  0.00000000000E+00 -0.18498733041E+04  0.18498733041E+04  0.25500000920E-02 0. -1.
    10030    2    1    2    0    0  0.00000000000E+00  0.00000000000E+00 -0.11329151004E+04  0.25668315078E+04  0.23032862099E+04 0.  0.
        2    1    3    3  502    0 -0.40004510730E+03 -0.46277539455E+03 -0.16538523316E+04  0.17633560866E+04  0.25500000920E-02 0. -1.
       -2    1    3    3    0  502  0.40004510730E+03  0.46277539455E+03  0.52093723114E+03  0.80347542120E+03  0.25500000920E-02 0.  1.
</event>
<event>
 5   0  0.4505107E-05  0.2281400E+04  0.7818609E-02  0.8485291E-01
        2   -1    0    0  501    0  0.00000000000E+00  0.00000000000E+00  0.10822219556E+04  0.10822219556E+04  0.25500000920E-02 0.  1.
       -2   -1    0    0    0  501  0.00000000000E+00  0.00000000000E+00 -0.12023377049E+04  0.12023377049E+04  0.25500000920E-02 0. -1.
    10030    2    1    2    0    0  0.00000000000E+00  0.00000000000E+00 -0.12011574927E+03  0.22845596605E+04  0.22813998003E+04 0.  0.
        4    1    3    3  502    0 -0.40134757117E+03  0.96399712449E+03 -0.51984992622E+03  0.11664544087E+04  0.12699999809E+01 0. -1.
       -4    1    3    3    0  502  0.40134757117E+03 -0.96399712449E+03  0.39973417696E+03  0.11181052518E+04  0.12699999809E+01 0.  1.
</event>
<event>
 5   0  0.2031860E-05  0.2311065E+04  0.7818609E-02  0.8473571E-01
        1   -1    0    0  501    0  0.00000000000E+00  0.00000000000E+00  0.13018562848E+04  0.13018562848E+04  0.50400001928E-02 0. -1.
       -1   -1    0    0    0  501  0.00000000000E+00  0.00000000000E+00 -0.10256551618E+04  0.10256551618E+04  0.50400001928E-02 0.  1.
    10030    2    1    2    0    0  0.00000000000E+00  0.00000000000E+00  0.27620112300E+03  0.23275114467E+04  0.23110652250E+04 0.  0.
        4    1    3    3  502    0 -0.22047880347E+03 -0.54521548952E+03  0.11398564009E+04  0.12826320830E+04  0.12699999809E+01 0. -1.
       -4    1    3    3    0  502  0.22047880347E+03  0.54521548952E+03 -0.86365527787E+03  0.10448793637E+04  0.12699999809E+01 0.  1.
</event>
<event>
 5   0  0.2085063E-05  0.2302856E+04  0.7818609E-02  0.8476796E-01
        1   -1    0    0  501    0  0.00000000000E+00  0.00000000000E+00  0.11352640166E+04  0.11352640166E+04  0.50400001928E-02 0.  1.
       -1   -1    0    0    0  501  0.00000000000E+00  0.00000000000E+00 -0.11678221428E+04  0.11678221428E+04  0.50400001928E-02 0. -1.
    10030    2    1    2    0    0  0.00000000000E+00  0.00000000000E+00 -0.32558126272E+02  0.23030861594E+04  0.23028560151E+04 0.  0.
        1    1    3    3  502    0 -0.67933586157E+03 -0.28940503947E+03 -0.89984569088E+03  0.11640338299E+04  0.50400001928E-02 0. -1.
       -1    1    3    3    0  502  0.67933586157E+03  0.28940503947E+03  0.86728756461E+03  0.11390523295E+04  0.50400001928E-02 0.  1.
</event>
<event>
 5   0  0.4505107E-05  0.2287749E+04  0.7818609E-02  0.8482767E-01
       -2   -1    0    0    0  501  0.00000000000E+00  0.00000000000E+00  0.57662818844E+03  0.57662818845E+03  0.25500000920E-02 0.  1.
        2   -1    0    0  501    0  0.00000000000E+00  0.00000000000E+00 -0.22691385309E+04  0.22691385309E+04  0.25500000920E-02 0. -1.
    10030    2    1    2    0    0  0.00000000000E+00  0.00000000000E+00 -0.16925103424E+04  0.28457667193E+04  0.22877493223E+04 0.  0.
        4    1    3    3  502    0  0.41621802964E+03 -0.63162183601E+02 -0.21692694639E+04  0.22097417336E+04  0.12699999809E+01 0. -1.
       -4    1    3    3    0  502 -0.41621802964E+03  0.63162183601E+02  0.47675912144E+03  0.63602498568E+03  0.12699999809E+01 0.  1.
</event>
<event>
 5   0  0.4436695E-05  0.2317045E+04  0.7818609E-02  0.8471231E-01
        2   -1    0    0  501    0  0.00000000000E+00  0.00000000000E+00  0.85068001160E+03  0.85068001160E+03  0.25500000920E-02 0.  1.
       -2   -1    0    0    0  501  0.00000000000E+00  0.00000000000E+00 -0.15777658787E+04  0.15777658787E+04  0.25500000920E-02 0. -1.
    10030    2    1    2    0    0  0.00000000000E+00  0.00000000000E+00 -0.72708586712E+03  0.24284458903E+04  0.23170445796E+04 0.  0.
        5    1    3    3  502    0  0.22700619958E+01  0.27684985086E+03 -0.15425740196E+04  0.15672293032E+04  0.46999998093E+01 0. -1.
       -5    1    3    3    0  502 -0.22700619958E+01 -0.27684985086E+03  0.81548815244E+03  0.86121658708E+03  0.46999998093E+01 0.  1.
</event>
<event>
 5   0  0.2042951E-05  0.2340758E+04  0.7818609E-02  0.8462022E-01
        1   -1    0    0  501    0  0.00000000000E+00  0.00000000000E+00  0.26248670703E+04  0.26248670704E+04  0.50400001928E-02 0.  1.
       -1   -1    0    0    0  501  0.00000000000E+00  0.00000000000E+00 -0.52184982982E+03  0.52184982984E+03  0.50400001928E-02 0. -1.
    10030    2    1    2    0    0  0.00000000000E+00  0.00000000000E+00  0.21030172405E+04  0.31467169002E+04  0.23407575133E+04 0.  0.
        2    1    3    3  502    0 -0.91636783510E+03 -0.54953237264E+03  0.40950733796E+03  0.11442954591E+04  0.25500000920E-02 0. -1.
       -2    1    3    3    0  502  0.91636783510E+03  0.54953237264E+03  0.16935099026E+04  0.20024214411E+04  0.25500000920E-02 0.  1.
</event>
<event>
 5   0  0.1968318E-05  0.2305476E+04  0.7818609E-02  0.8475765E-01
       -1   -1    0    0    0  501  0.00000000000E+00  0.00000000000E+00  0.68075512963E+03  0.68075512965E+03  0.50400001928E-02 0. -1.
        1   -1    0    0  501    0  0.00000000000E+00  0.00000000000E+00 -0.19519573245E+04  0.19519573245E+04  0.50400001928E-02 0.  1.
    10030    2    1    2    0    0  0.00000000000E+00  0.00000000000E+00 -0.12712021949E+04  0.26327124541E+04  0.23054760563E+04 0.  0.
        3    1    3    3  502    0 -0.95048663197E+03 -0.37344745146E+02 -0.13791650127E+04  0.16753852124E+04  0.10100000352E+00 0.  1.
       -3    1    3    3    0  502  0.95048663197E+03  0.37344745146E+02  0.10796281783E+03  0.95732724174E+03  0.10100000352E+00 0. -1.
</event>
<event>
 5   0  0.4798609E-05  0.2330950E+04  0.7818609E-02  0.8465817E-01
        2   -1    0    0  501    0  0.00000000000E+00  0.00000000000E+00  0.18346377353E+04  0.18346377353E+04  0.25500000920E-02 0.  1.
       -2   -1    0    0    0  501  0.00000000000E+00  0.00000000000E+00 -0.74038185103E+03  0.74038185103E+03  0.25500000920E-02 0. -1.
    10030    2    1    2    0    0  0.00000000000E+00  0.00000000000E+00  0.10942558843E+04  0.25750195864E+04  0.23309504349E+04 0.  0.
        2    1    3    3  502    0 -0.36570630522E+03  0.80328728100E+03 -0.29369994199E+03  0.93019955570E+03  0.25500000920E-02 0. -1.
       -2    1    3    3    0  502  0.36570630522E+03 -0.80328728100E+03  0.13879558263E+04  0.16448200307E+04  0.25500000920E-02 0.  1.
</event>
<event>
 5   0  0.4505107E-05  0.2299813E+04  0.7818609E-02  0.8477995E-01
        2   -1    0    0  501    0  0.00000000000E+00  0.00000000000E+00  0.16039623080E+04  0.16039623080E+04  0.25500000920E-02 0. -1.
       -2   -1    0    0    0  501  0.00000000000E+00  0.00000000000E+00 -0.82438653164E+03  0.82438653165E+03  0.25500000920E-02 0.  1.
    10030    2    1    2    0    0  0.00000000000E+00  0.00000000000E+00  0.77957577631E+03  0.24283488396E+04  0.22998129697E+04 0.  0.
        4    1    3    3  502    0 -0.20407759348E+03 -0.14868651679E+03  0.15743285984E+04  0.15944489622E+04  0.12699999809E+01 0. -1.
       -4    1    3    3    0  502  0.20407759348E+03  0.14868651679E+03 -0.79475282208E+03  0.83389987741E+03  0.12699999809E+01 0.  1.
</event>
<event>
 5   0  0.2085063E-05  0.2332175E+04  0.7818609E-02  0.8465342E-01
       -1   -1    0    0    0  501  0.00000000000E+00  0.00000000000E+00  0.15882622832E+04  0.15882622832E+04  0.50400001928E-02 0. -1.
        1   -1    0    0  501    0  0.00000000000E+00  0.00000000000E+00 -0.85613078226E+03  0.85613078227E+03  0.50400001928E-02 0.  1.
    10030    2    1    2    0    0  0.00000000000E+00  0.00000000000E+00  0.73213150098E+03  0.24443930655E+04  0.23321751487E+04 0.  0.
        1    1    3    3  502    0 -0.22907409708E+03  0.94750016290E+03  0.10368024464E+04  0.14230919906E+04  0.50400001928E-02 0. -1.
       -1    1    3    3    0  502  0.22907409708E+03 -0.94750016290E+03 -0.30467094547E+03  0.10213010749E+04  0.50400001928E-02 0.  1.
</event>
<event>
 5   0  0.2085063E-05  0.2266382E+04  0.7818609E-02  0.8491295E-01
       -1   -1    0    0    0  501  0.00000000000E+00  0.00000000000E+00  0.94148649721E+03  0.94148649723E+03  0.50400001928E-02 0. -1.
        1   -1    0    0  501    0  0.00000000000E+00  0.00000000000E+00 -0.13639298654E+04  0.13639298654E+04  0.50400001928E-02 0.  1.
    10030    2    1    2    0    0  0.00000000000E+00  0.00000000000E+00 -0.42244336816E+03  0.23054163626E+04  0.22663817431E+04 0.  0.
        1    1    3    3  502    0 -0.28386854393E+03 -0.75904897791E+03  0.59449679055E+03  0.10050687216E+04  0.50400001928E-02 0. -1.
       -1    1    3    3    0  502  0.28386854393E+03  0.75904897791E+03 -0.10169401587E+04  0.13003476410E+04  0.50400001928E-02 0.  1.
</event>
<event>
 5   0  0.4602447E-05  0.2323705E+04  0.7818609E-02  0.8468633E-01
        2   -1    0    0  501    0  0.00000000000E+00  0.00000000000E+00  0.92938413600E+03  0.92938413600E+03  0.25500000920E-02 0. -1.
       -2   -1    0    0    0  501  0.00000000000E+00  0.00000000000E+00 -0.14524690858E+04  0.14524690858E+04  0.25500000920E-02 0.  1.
    10030    2    1    2    0    0  0.00000000000E+00  0.00000000000E+00 -0.52308494982E+03  0.23818532218E+04  0.23237054257E+04 0.  0.
        3    1    3    3  502    0  0.33654303897E+03  0.14429949366E+03  0.86869118041E+03  0.94271307304E+03  0.10100000352E+00 0. -1.
       -3    1    3    3    0  502 -0.33654303897E+03 -0.14429949366E+03 -0.13917761302E+04  0.14391401488E+04  0.10100000352E+00 0.  1.
</event>
<event>
 5   0  0.2031860E-05  0.2260858E+04  0.7818609E-02  0.8493516E-01
        1   -1    0    0  501    0  0.00000000000E+00  0.00000000000E+00  0.11257019848E+04  0.11257019848E+04  0.50400001928E-02 0. -1.
       -1   -1    0    0    0  501  0.00000000000E+00  0.00000000000E+00 -0.11351754248E+04  0.11351754248E+04  0.50400001928E-02 0.  1.
    10030    2    1    2    0    0  0.00000000000E+00  0.00000000000E+00 -0.94734400236E+01  0.22608774096E+04  0.22608575619E+04 0.  0.
        4    1    3    3  502    0 -0.97094683614E+03 -0.46292424447E+03  0.34287387052E+03  0.11289821605E+04  0.12699999809E+01 0. -1.
       -4    1    3    3    0  502  0.97094683614E+03  0.46292424447E+03 -0.35234731055E+03  0.11318952491E+04  0.12699999809E+01 0.  1.
</event>
<event>
 5   0  0.2085063E-05  0.2225324E+04  0.7818609E-02  0.8507961E-01
        1   -1    0    0  501    0  0.00000000000E+00  0.00000000000E+00  0.13455333116E+04  0.13455333116E+04  0.50400001928E-02 0. -1.
       -1   -1    0    0    0  501  0.00000000000E+00  0.00000000000E+00 -0.92009373874E+03  0.92009373875E+03  0.50400001928E-02 0.  1.
    10030    2    1    2    0    0  0.00000000000E+00  0.00000000000E+00  0.42543957286E+03  0.22656270504E+04  0.22253240441E+04 0.  0.
        1    1    3    3  502    0  0.40349380851E+03 -0.10293721103E+04  0.85547238014E+02  0.11089330570E+04  0.50400001928E-02 0.  1.
       -1    1    3    3    0  502 -0.40349380851E+03  0.10293721103E+04  0.33989233485E+03  0.11566939934E+04  0.50400001928E-02 0. -1.
</event>
<event>
 5   0  0.2085063E-05  0.2307194E+04  0.7818609E-02  0.8475090E-01
        1   -1    0    0  501    0  0.00000000000E+00  0.00000000000E+00  0.11403893711E+04  0.11403893711E+04  0.50400001928E-02 0.  1.
       -1   -1    0    0    0  501  0.00000000000E+00  0.00000000000E+00 -0.11669579381E+04  0.11669579381E+04  0.50400001928E-02 0. -1.
    10030    2    1    2    0    0  0.00000000000E+00  0.00000000000E+00 -0.26568566955E+02  0.23073473092E+04  0.23071943387E+04 0.  0.
        1    1    3    3  502    0 -0.66579667060E+03  0.36110130095E+03  0.85689240606E+03  0.11436537727E+04  0.50400001928E-02 0.  1.
       -1    1    3    3    0  502  0.66579667060E+03 -0.36110130095E+03 -0.88346097301E+03  0.11636935365E+04  0.50400001928E-02 0. -1.
</event>
<event>
 5   0  0.1968318E-05  0.2301893E+04  0.7818609E-02  0.8477175E-01
       -1   -1    0    0    0  501  0.00000000000E+00  0.00000000000E+00  0.10601547671E+04  0.10601547672E+04  0.50400001928E-02 0. -1.
        1   -1    0    0  501    0  0.00000000000E+00  0.00000000000E+00 -0.12495138986E+04  0.12495138986E+04  0.50400001928E-02 0.  1.
    10030    2    1    2    0    0  0.00000000000E+00  0.00000000000E+00 -0.18935913144E+03  0.23096686657E+04  0.23018932349E+04 0.  0.
        3    1    3    3  502    0  0.36879592293E+03  0.67981099107E+02 -0.11864940163E+04  0.12443471877E+04  0.10100000352E+00 0.  1.
       -3    1    3    3    0  502 -0.36879592293E+03 -0.67981099107E+02  0.99713488490E+03  0.10653214780E+04  0.10100000352E+00 0. -1.
</event>
<event>
 5   0  0.4436695E-05  0.2313582E+04  0.7818609E-02  0.8472585E-01
       -2   -1    0    0    0  501  0.00000000000E+00  0.00000000000E+00  0.73697152193E+03  0.73697152194E+03  0.25500000920E-02 0. -1.
        2   -1    0    0  501    0  0.00000000000E+00  0.00000000000E+00 -0.18157622334E+04  0.18157622334E+04  0.25500000920E-02 0.  1.
    10030    2    1    2    0    0  0.00000000000E+00  0.00000000000E+00 -0.10787907115E+04  0.25527337554E+04  0.23135816879E+04 0.  0.
        5    1    3    3  502    0  0.53300512189E+03 -0.32423387824E+03 -0.16142152313E+04  0.17305880419E+04  0.46999998093E+01 0.  1.
       -5    1    3    3    0  502 -0.53300512189E+03  0.32423387824E+03  0.53542451982E+03  0.82214571347E+03  0.46999998093E+01 0. -1.
</event>
<event>
 5   0  0.2031860E-05  0.2295272E+04  0.7818609E-02  0.8479788E-01
        1   -1    0    0  501    0  0.00000000000E+00  0.00000000000E+00  0.11530973773E+04  0.11530973773E+04  0.50400001928E-02 0.  1.
       -1   -1    0    0    0  501  0.00000000000E+00  0.00000000000E+00 -0.11422003944E+04  0.11422003944E+04  0.50400001928E-02 0. -1.
    10030    2    1    2    0    0  0.00000000000E+00  0.00000000000E+00  0.10896982880E+02  0.22952977717E+04  0.22952719047E+04 0.  0.
        4    1    3    3  502    0 -0.60503596310E+03 -0.67672662718E+03  0.70762392142E+03  0.11509824810E+04  0.12699999809E+01 0.  1.
       -4    1    3    3    0  502  0.60503596310E+03  0.67672662718E+03 -0.69672693854E+03  0.11443152906E+04  0.12699999809E+01 0. -1.
</event>
<event>
 5   0  0.2085063E-05  0.2266908E+04  0.7818609E-02  0.8491084E-01
       -1   -1    0    0    0  501  0.00000000000E+00  0.00000000000E+00  0.10127936062E+04  0.10127936062E+04  0.50400001928E-02 0.  1.
        1   -1    0    0  501    0  0.00000000000E+00  0.00000000000E+00 -0.12684895164E+04  0.12684895165E+04  0.50400001928E-02 0. -1.
    10030    2    1    2    0    0  0.00000000000E+00  0.00000000000E+00 -0.25569591024E+03  0.22812831227E+04  0.22669080897E+04 0.  0.
        1    1    3    3  502    0 -0.32557586463E+03  0.15467237049E+03  0.95358027188E+03  0.10194304884E+04  0.50400001928E-02 0.  1.
       -1    1    3    3    0  502  0.32557586463E+03 -0.15467237049E+03 -0.12092761821E+04  0.12618526342E+04  0.50400001928E-02 0. -1.
</event>
<event>
 5   0  0.2085063E-05  0.2308676E+04  0.7818609E-02  0.8474508E-01
       -1   -1    0    0    0  501  0.00000000000E+00  0.00000000000E+00  0.85735522824E+03  0.85735522825E+03  0.50400001928E-02 0. -1.
        1   -1    0    0  501    0  0.00000000000E+00  0.00000000000E+00 -0.15541932991E+04  0.15541932991E+04  0.50400001928E-02 0.  1.
    10030    2    1    2    0    0  0.00000000000E+00  0.00000000000E+00 -0.69683807084E+03  0.24115485273E+04  0.23086755950E+04 0.  0.
        1    1    3    3  502    0  0.10395492476E+04 -0.20429316870E+03  0.13036917377E+03  0.10674242167E+04  0.50400001928E-02 0. -1.
       -1    1    3    3    0  502 -0.10395492476E+04  0.20429316870E+03 -0.82720724462E+03  0.13441243106E+04  0.50400001928E-02 0.  1.
</event>
<event>
 5   0  0.4436695E-05  0.2296010E+04  0.7818609E-02  0.8479496E-01
        2   -1    0    0  501    0  0.00000000000E+00  0.00000000000E+00  0.87286391785E+03  0.87286391785E+03  0.25500000920E-02 0. -1.
       -2   -1    0    0    0  501  0.00000000000E+00  0.00000000000E+00 -0.15098748049E+04  0.15098748049E+04  0.25500000920E-02 0.  1.
    10030    2    1    2    0    0  0.00000000000E+00  0.00000000000E+00 -0.63701088705E+03  0.23827387227E+04  0.22960097889E+04 0.  0.
        5    1    3    3  502    0  0.34430327534E+02  0.29978685510E+03  0.83095984761E+03  0.88406671936E+03  0.46999998093E+01 0. -1.
       -5    1    3    3    0  502 -0.34430327534E+02 -0.29978685510E+03 -0.14679707347E+04  0.14986720034E+04  0.46999998093E+01 0.  1.
</event>
<event>
 5   0  0.4505107E-05  0.2276082E+04  0.7818609E-02  0.8487412E-01
        2   -1    0    0  501    0  0.00000000000E+00  0.00000000000E+00  0.13569368499E+04  0.13569368499E+04  0.25500000920E-02 0.  1.
       -2   -1    0    0    0  501  0.00000000000E+00  0.00000000000E+00 -0.95445688456E+03  0.95445688456E+03  0.25500000920E-02 0. -1.
    10030    2    1    2    0    0  0.00000000000E+00  0.00000000000E+00  0.40247996538E+03  0.23113937345E+04  0.22760823521E+04 0.  0.
        4    1    3    3  502    0 -0.92663155031E+03 -0.21745752646E+02 -0.46932021253E+03  0.10389330982E+04  0.12699999809E+01 0. -1.
       -4    1    3    3    0  502  0.92663155031E+03  0.21745752646E+02  0.87180017791E+03  0.12724606363E+04  0.12699999809E+01 0.  1.
</event>
<event>
 5   0  0.2043885E-05  0.2256691E+04  0.7818609E-02  0.8495196E-01
        1   -1    0    0  501    0  0.00000000000E+00  0.00000000000E+00  0.16830427492E+04  0.16830427492E+04  0.50400001928E-02 0.  1.
       -1   -1    0    0    0  501  0.00000000000E+00  0.00000000000E+00 -0.75646564001E+03  0.75646564002E+03  0.50400001928E-02 0. -1.
    10030    2    1    2    0    0  0.00000000000E+00  0.00000000000E+00  0.92657710916E+03  0.24395083892E+04  0.22566913927E+04 0.  0.
        5    1    3    3  502    0  0.11166669618E+04  0.33068943954E+02  0.29201306385E+03  0.11547001248E+04  0.46999998093E+01 0. -1.
       -5    1    3    3    0  502 -0.11166669618E+04 -0.33068943954E+02  0.63456404531E+03  0.12848082644E+04  0.46999998093E+01 0.  1.
</event>
<event>
 5   0  0.4505107E-05  0.2254401E+04  0.7818609E-02  0.8496120E-01
        2   -1    0    0  501    0  0.00000000000E+00  0.00000000000E+00  0.12716023557E+04  0.12716023557E+04  0.25500000920E-02 0. -1.
       -2   -1    0    0    0  501  0.00000000000E+00  0.00000000000E+00 -0.99919682292E+03  0.99919682292E+03  0.25500000920E-02 0.  1.
    10030    2    1    2    0    0  0.00000000000E+00  0.00000000000E+00  0.27240553277E+03  0.22707991786E+04  0.22544010591E+04 0.  0.
        4    1    3    3  502    0 -0.41241400684E+03  0.39933097878E+03  0.11133252895E+04  0.12526154065E+04  0.12699999809E+01 0. -1.
       -4    1    3    3    0  502  0.41241400684E+03 -0.39933097878E+03 -0.84091975668E+03  0.10181837721E+04  0.12699999809E+01 0.  1.
</event>
<event>
 5   0  0.1968318E-05  0.2349114E+04  0.7818609E-02  0.8458804E-01
        1   -1    0    0  501    0  0.00000000000E+00  0.00000000000E+00  0.16893808062E+04  0.16893808062E+04  0.50400001928E-02 0. -1.
       -1   -1    0    0    0  501  0.00000000000E+00  0.00000000000E+00 -0.81662151364E+03  0.81662151366E+03  0.50400001928E-02 0.  1.
    10030    2    1    2    0    0  0.00000000000E+00  0.00000000000E+00  0.87275929255E+03  0.25060023199E+04  0.23491144809E+04 0.  0.
        3    1    3    3  502    0 -0.71050235292E+03 -0.93075175515E+03  0.53457193371E+03  0.12871983475E+04  0.10100000352E+00 0.  1.
       -3    1    3    3    0  502  0.71050235292E+03  0.93075175515E+03  0.33818735884E+03  0.12188039724E+04  0.10100000352E+00 0. -1.
</event>
<event>
 5   0  0.4798609E-05  0.2265656E+04  0.7818609E-02  0.8491587E-01
        2   -1    0    0  501    0  0.00000000000E+00  0.00000000000E+00  0.15635922027E+04  0.15635922027E+04  0.25500000920E-02 0. -1.
       -2   -1    0    0    0  501  0.00000000000E+00  0.00000000000E+00 -0.82073812184E+03  0.82073812184E+03  0.25500000920E-02 0.  1.
    10030    2    1    2    0    0  0.00000000000E+00  0.00000000000E+00  0.74285408089E+03  0.23843303246E+04  0.22656563974E+04 0.  0.
        2    1    3    3  502    0 -0.12777554745E+03 -0.10555203049E+03 -0.80791052382E+03  0.82473464591E+03  0.25500000920E-02 0.  1.
       -2    1    3    3    0  502  0.12777554745E+03  0.10555203049E+03  0.15507646047E+04  0.15595956787E+04  0.25500000920E-02 0. -1.
</event>
<event>
 5   0  0.4605516E-05  0.2282780E+04  0.7818609E-02  0.8484742E-01
       -2   -1    0    0    0  501  0.00000000000E+00  0.00000000000E+00  0.11545164220E+04  0.11545164220E+04  0.25500000920E-02 0. -1.
        2   -1    0    0  501    0  0.00000000000E+00  0.00000000000E+00 -0.11284124037E+04  0.11284124037E+04  0.25500000920E-02 0.  1.
    10030    2    1    2    0    0  0.00000000000E+00  0.00000000000E+00  0.26104018294E+02  0.22829288257E+04  0.22827795784E+04 0.  0.
        1    1    3    3  502    0  0.69066767544E+03  0.39292296926E+03 -0.80636738449E+03  0.11320948090E+04  0.50400001928E-02 0.  1.
       -1    1    3    3    0  502 -0.69066767544E+03 -0.39292296926E+03  0.83247140279E+03  0.11508340168E+04  0.50400001928E-02 0. -1.
</event>
<event>
 5   0  0.2031860E-05  0.2228978E+04  0.7818609E-02  0.8506463E-01
        1   -1    0    0  501    0  0.00000000000E+00  0.00000000000E+00  0.64941516377E+03  0.64941516379E+03  0.50400001928E-02 0.  1.
       -1   -1    0    0    0  501  0.00000000000E+00  0.00000000000E+00 -0.19126222851E+04  0.19126222851E+04  0.50400001928E-02 0. -1.
    10030    2    1    2    0    0  0.00000000000E+00  0.00000000000E+00 -0.12632071214E+04  0.25620374489E+04  0.22289781646E+04 0.  0.
        4    1    3    3  502    0  0.84102321622E+03 -0.68584193607E+03 -0.92326049971E+03  0.14248195586E+04  0.12699999809E+01 0. -1.
       -4    1    3    3    0  502 -0.84102321622E+03  0.68584193607E+03 -0.33994662165E+03  0.11372178903E+04  0.12699999809E+01 0.  1.
</event>
<event>
 5   0  0.4605516E-05  0.2305222E+04  0.7818609E-02  0.8475865E-01
       -2   -1    0    0    0  501  0.00000000000E+00  0.00000000000E+00  0.11260372599E+04  0.11260372599E+04  0.25500000920E-02 0. -1.
        2   -1    0    0  501    0  0.00000000000E+00  0.00000000000E+00 -0.11798115716E+04  0.11798115716E+04  0.25500000920E-02 0.  1.
    10030    2    1    2    0    0  0.00000000000E+00  0.00000000000E+00 -0.53774311651E+02  0.23058488315E+04  0.23052217154E+04 0.  0.
        1    1    3    3  502    0 -0.64459410603E+03  0.89566732892E+03  0.30605510790E+03  0.11451599254E+04  0.50400001928E-02 0.  1.
       -1    1    3    3    0  502  0.64459410603E+03 -0.89566732892E+03 -0.35982941955E+03  0.11606889061E+04  0.50400001928E-02 0. -1.
</event>
<event>
 5   0  0.2042951E-05  0.2284859E+04  0.7818609E-02  0.8483915E-01
       -1   -1    0    0    0  501  0.00000000000E+00  0.00000000000E+00  0.99082164356E+03  0.99082164357E+03  0.50400001928E-02 0.  1.
        1   -1    0    0  501    0  0.00000000000E+00  0.00000000000E+00 -0.13172354756E+04  0.13172354756E+04  0.50400001928E-02 0. -1.
    10030    2    1    2    0    0  0.00000000000E+00  0.00000000000E+00 -0.32641383208E+03  0.23080571192E+04  0.22848592245E+04 0.  0.
        2    1    3    3  502    0  0.36015180988E+03 -0.65095536328E+01  0.93195614711E+03  0.99914661617E+03  0.25500000920E-02 0.  1.
       -2    1    3    3    0  502 -0.36015180988E+03  0.65095536328E+01 -0.12583699792E+04  0.13089105031E+04  0.25500000920E-02 0. -1.
</event>
<event>
 5   0  0.4505107E-05  0.2360327E+04  0.7818609E-02  0.8454508E-01
        2   -1    0    0  501    0  0.00000000000E+00  0.00000000000E+00  0.13316020194E+04  0.13316020194E+04  0.25500000920E-02 0. -1.
       -2   -1    0    0    0  501  0.00000000000E+00  0.00000000000E+00 -0.10459471251E+04  0.10459471251E+04  0.25500000920E-02 0.  1.
    10030    2    1    2    0    0  0.00000000000E+00  0.00000000000E+00  0.28565489428E+03  0.23775491445E+04  0.23603265062E+04 0.  0.
        4    1    3    3  502    0 -0.27212333818E+03  0.34956485788E+02  0.12990314860E+04  0.13276887744E+04  0.12699999809E+01 0. -1.
       -4    1    3    3    0  502  0.27212333818E+03 -0.34956485788E+02 -0.10133765917E+04  0.10498603701E+04  0.12699999809E+01 0.  1.
</event>
<event>
 5   0  0.4602447E-05  0.2323663E+04  0.7818609E-02  0.8468649E-01
        2   -1    0    0  501    0  0.00000000000E+00  0.00000000000E+00  0.81650420582E+03  0.81650420582E+03  0.25500000920E-02 0. -1.
       -2   -1    0    0    0  501  0.00000000000E+00  0.00000000000E+00 -0.16532095782E+04  0.16532095782E+04  0.25500000920E-02 0.  1.
    10030    2    1    2    0    0  0.00000000000E+00  0.00000000000E+00 -0.83670537237E+03  0.24697137840E+04  0.23236631199E+04 0.  0.
        3    1    3    3  502    0  0.35523982060E+03  0.26081652770E+03 -0.15609237861E+04  0.16219444095E+04  0.10100000352E+00 0.  1.
       -3    1    3    3    0  502 -0.35523982060E+03 -0.26081652770E+03  0.72421841378E+03  0.84776937448E+03  0.10100000352E+00 0. -1.
</event>
<event>
 5   0  0.2042951E-05  0.2295912E+04  0.7818609E-02  0.8479535E-01
       -1   -1    0    0    0  501  0.00000000000E+00  0.00000000000E+00  0.79751018598E+03  0.79751018599E+03  0.50400001928E-02 0. -1.
        1   -1    0    0  501    0  0.00000000000E+00  0.00000000000E+00 -0.16523967956E+04  0.16523967956E+04  0.50400001928E-02 0.  1.
    10030    2    1    2    0    0  0.00000000000E+00  0.00000000000E+00 -0.85488660962E+03  0.24499069816E+04  0.22959122595E+04 0.  0.
        2    1    3    3  502    0 -0.51519431901E+03 -0.39638355456E+03  0.58220112605E+03  0.87264154144E+03  0.25500000920E-02 0. -1.
       -2    1    3    3    0  502  0.51519431901E+03  0.39638355456E+03 -0.14370877357E+04  0.15772654402E+04  0.25500000920E-02 0.  1.
</event>
<event>
 5   0  0.2031860E-05  0.2272474E+04  0.7818609E-02  0.8488854E-01
        1   -1    0    0  501    0  0.00000000000E+00  0.00000000000E+00  0.20754744742E+04  0.20754744742E+04  0.50400001928E-02 0.  1.
       -1   -1    0    0    0  501  0.00000000000E+00  0.00000000000E+00 -0.62204292092E+03  0.62204292094E+03  0.50400001928E-02 0. -1.
    10030    2    1    2    0    0  0.00000000000E+00  0.00000000000E+00  0.14534315533E+04  0.26975173952E+04  0.22724737220E+04 0.  0.
        4    1    3    3  502    0  0.89623808268E+03  0.61429525975E+03  0.33224818583E+03  0.11362182171E+04  0.12699999809E+01 0. -1.
       -4    1    3    3    0  502 -0.89623808268E+03 -0.61429525975E+03  0.11211833675E+04  0.15612991781E+04  0.12699999809E+01 0.  1.
</event>
<event>
 5   0  0.1968318E-05  0.2236314E+04  0.7818609E-02  0.8503464E-01
       -1   -1    0    0    0  501  0.00000000000E+00  0.00000000000E+00  0.13547630784E+04  0.13547630784E+04  0.50400001928E-02 0. -1.
        1   -1    0    0  501    0  0.00000000000E+00  0.00000000000E+00 -0.92287386297E+03  0.92287386298E+03  0.50400001928E-02 0.  1.
    10030    2    1    2    0    0  0.00000000000E+00  0.00000000000E+00  0.43188921539E+03  0.22776369413E+04  0.22363143210E+04 0.  0.
        3    1    3    3  502    0  0.14107897075E+03  0.56732875645E+03 -0.75482587894E+03  0.95473939460E+03  0.10100000352E+00 0.  1.
       -3    1    3    3    0  502 -0.14107897075E+03 -0.56732875645E+03  0.11867150943E+04  0.13228975467E+04  0.10100000352E+00 0. -1.
</event>
<event>
 5   0  0.1968318E-05  0.2285044E+04  0.7818609E-02  0.8483841E-01
       -1   -1    0    0    0  501  0.00000000000E+00  0.00000000000E+00  0.16227210073E+04  0.16227210073E+04  0.50400001928E-02 0. -1.
        1   -1    0    0  501    0  0.00000000000E+00  0.00000000000E+00 -0.80442453712E+03  0.80442453714E+03  0.50400001928E-02 0.  1.
    10030    2    1    2    0    0  0.00000000000E+00  0.00000000000E+00  0.81829647016E+03  0.24271455444E+04  0.22850440654E+04 0.  0.
        3    1    3    3  502    0 -0.63859303876E+03  0.16698664995E+03  0.13997035396E+04  0.15475321061E+04  0.10100000352E+00 0. -1.
       -3    1    3    3    0  502  0.63859303876E+03 -0.16698664995E+03 -0.58140706940E+03  0.87961343837E+03  0.10100000352E+00 0.  1.
</event>
<event>
 5   0  0.4605516E-05  0.2308756E+04  0.7818609E-02  0.8474477E-01
       -2   -1    0    0    0  501  0.00000000000E+00  0.00000000000E+00  0.90425811003E+03  0.90425811003E+03  0.25500000920E-02 0. -1.
        2   -1    0    0  501    0  0.00000000000E+00  0.00000000000E+00 -0.14736811297E+04  0.14736811297E+04  0.25500000920E-02 0.  1.
    10030    2    1    2    0    0  0.00000000000E+00  0.00000000000E+00 -0.56942301968E+03  0.23779392397E+04  0.23087556069E+04 0.  0.
        1    1    3    3  502    0 -0.24688105687E+03 -0.66517266921E+03 -0.12225931440E+04  0.14135554223E+04  0.50400001928E-02 0.  1.
       -1    1    3    3    0  502  0.24688105687E+03  0.66517266921E+03  0.65317012429E+03  0.96438381747E+03  0.50400001928E-02 0. -1.
</event>
<event>
 5   0  0.4436695E-05  0.2298949E+04  0.7818609E-02  0.8478336E-01
       -2   -1    0    0    0  501  0.00000000000E+00  0.00000000000E+00  0.80679268061E+03  0.80679268061E+03  0.25500000920E-02 0. -1.
        2   -1    0    0  501    0  0.00000000000E+00  0.00000000000E+00 -0.16377091568E+04  0.16377091568E+04  0.25500000920E-02 0.  1.
    10030    2    1    2    0    0  0.00000000000E+00  0.00000000000E+00 -0.83091647618E+03  0.24445018374E+04  0.22989491170E+04 0.  0.
        5    1    3    3  502    0 -0.99913481013E+03 -0.35374605309E+03 -0.88843884980E+03  0.13830228916E+04  0.46999998093E+01 0.  1.
       -5    1    3    3    0  502  0.99913481013E+03  0.35374605309E+03  0.57522373622E+02  0.10614789458E+04  0.46999998093E+01 0. -1.
</event>
<event>
 5   0  0.4798609E-05  0.2297474E+04  0.7818609E-02  0.8478918E-01
       -2   -1    0    0    0  501  0.00000000000E+00  0.00000000000E+00  0.10346927211E+04  0.10346927211E+04  0.25500000920E-02 0. -1.
        2   -1    0    0  501    0  0.00000000000E+00  0.00000000000E+00 -0.12753513725E+04  0.12753513725E+04  0.25500000920E-02 0.  1.
    10030    2    1    2    0    0  0.00000000000E+00  0.00000000000E+00 -0.24065865143E+03  0.23100440936E+04  0.22974740755E+04 0.  0.
        2    1    3    3  502    0  0.85332633218E+03 -0.26259991908E+03  0.60644781394E+03  0.10793069525E+04  0.25500000920E-02 0. -1.
       -2    1    3    3    0  502 -0.85332633218E+03  0.26259991908E+03 -0.84710646536E+03  0.12307371410E+04  0.25500000920E-02 0.  1.
</event>
<event>
 5   0  0.2085063E-05  0.2281286E+04  0.7818609E-02  0.8485337E-01
        1   -1    0    0  501    0  0.00000000000E+00  0.00000000000E+00  0.19101241453E+04  0.19101241453E+04  0.50400001928E-02 0. -1.
       -1   -1    0    0    0  501  0.00000000000E+00  0.00000000000E+00 -0.68114219244E+03  0.68114219246E+03  0.50400001928E-02 0.  1.
    10030    2    1    2    0    0  0.00000000000E+00  0.00000000000E+00  0.12289819529E+04  0.25912663378E+04  0.22812857324E+04 0.  0.
        1    1    3    3  502    0 -0.12066795794E+02  0.11322872740E+04  0.77042567576E+03  0.13695896467E+04  0.50400001928E-02 0. -1.
       -1    1    3    3    0  502  0.12066795794E+02 -0.11322872740E+04  0.45855627711E+03  0.12216766911E+04  0.50400001928E-02 0.  1.
</event>
<event>
 5   0  0.4798609E-05  0.2319876E+04  0.7818609E-02  0.8470125E-01
        2   -1    0    0  501    0  0.00000000000E+00  0.00000000000E+00  0.22067789974E+04  0.22067789974E+04  0.25500000920E-02 0.  1.
       -2   -1    0    0    0  501  0.00000000000E+00  0.00000000000E+00 -0.60969232581E+03  0.60969232582E+03  0.25500000920E-02 0. -1.
    10030    2    1    2    0    0  0.00000000000E+00  0.00000000000E+00  0.15970866716E+04  0.28164713232E+04  0.23198760480E+04 0.  0.
        2    1    3    3  502    0  0.77433228406E+03  0.53427278659E+03  0.16223339736E+04  0.18753680755E+04  0.25500000920E-02 0.  1.
       -2    1    3    3    0  502 -0.77433228406E+03 -0.53427278659E+03 -0.25247302013E+02  0.94110324774E+03  0.25500000920E-02 0. -1.
</event>
<event>
 5   0  0.2085063E-05  0.2023575E+04  0.7818609E-02  0.8595677E-01
        1   -1    0    0  501    0  0.00000000000E+00  0.00000000000E+00  0.69857902769E+03  0.69857902770E+03  0.50400001928E-02 0. -1.
       -1   -1    0    0    0  501  0.00000000000E+00  0.00000000000E+00 -0.14654232870E+04  0.14654232870E+04  0.50400001928E-02 0.  1.
    10030    2    1    2    0    0  0.00000000000E+00  0.00000000000E+00 -0.76684425929E+03  0.21640023147E+04  0.20235750295E+04 0.  0.
        1    1    3    3  502    0 -0.48216468861E+03 -0.86185790355E+03 -0.14807698210E+03  0.99860333742E+03  0.50400001928E-02 0. -1.
       -1    1    3    3    0  502  0.48216468861E+03  0.86185790355E+03 -0.61876727719E+03  0.11653989773E+04  0.50400001928E-02 0.  1.
</event>
<event>
 5   0  0.2043885E-05  0.2304391E+04  0.7818609E-02  0.8476192E-01
       -1   -1    0    0    0  501  0.00000000000E+00  0.00000000000E+00  0.74044211215E+03  0.74044211217E+03  0.50400001928E-02 0. -1.
        1   -1    0    0  501    0  0.00000000000E+00  0.00000000000E+00 -0.17929209030E+04  0.17929209030E+04  0.50400001928E-02 0.  1.
    10030    2    1    2    0    0  0.00000000000E+00  0.00000000000E+00 -0.10524787908E+04  0.25333630151E+04  0.23043907137E+04 0.  0.
        5    1    3    3  502    0  0.70917771863E+03  0.61128419318E+03  0.21199824846E+03  0.95998268150E+03  0.46999998093E+01 0. -1.
       -5    1    3    3    0  502 -0.70917771863E+03 -0.61128419318E+03 -0.12644770393E+04  0.15733803336E+04  0.46999998093E+01 0.  1.
</event>
<event>
 5   0  0.4505107E-05  0.2307568E+04  0.7818609E-02  0.8474943E-01
        2   -1    0    0  501    0  0.00000000000E+00  0.00000000000E+00  0.15010059847E+04  0.15010059848E+04  0.25500000920E-02 0. -1.
       -2   -1    0    0    0  501  0.00000000000E+00  0.00000000000E+00 -0.88688371062E+03  0.88688371062E+03  0.25500000920E-02 0.  1.
    10030    2    1    2    0    0  0.00000000000E+00  0.00000000000E+00  0.61412227413E+03  0.23878896954E+04  0.23075682069E+04 0.  0.
        4    1    3    3  502    0 -0.57477833896E+03  0.97001438646E+03  0.56036319347E+03  0.12590895800E+04  0.12699999809E+01 0. -1.
       -4    1    3    3    0  502  0.57477833896E+03 -0.97001438646E+03  0.53759080662E+02  0.11288001154E+04  0.12699999809E+01 0.  1.
</event>
<event>
 5   0  0.1968318E-05  0.2298948E+04  0.7818609E-02  0.8478336E-01
       -1   -1    0    0    0  501  0.00000000000E+00  0.00000000000E+00  0.11650388295E+04  0.11650388295E+04  0.50400001928E-02 0. -1.
        1   -1    0    0  501    0  0.00000000000E+00  0.00000000000E+00 -0.11341175325E+04  0.11341175326E+04  0.50400001928E-02 0.  1.
    10030    2    1    2    0    0  0.00000000000E+00  0.00000000000E+00  0.30921296977E+02  0.22991563621E+04  0.22989484228E+04 0.  0.
        3    1    3    3  502    0 -0.53610293046E+03 -0.97803547544E+03 -0.26264939989E+03  0.11458378859E+04  0.10100000352E+00 0. -1.
       -3    1    3    3    0  502  0.53610293046E+03  0.97803547544E+03  0.29357069687E+03  0.11533184762E+04  0.10100000352E+00 0.  1.
</event>
<event>
 5   0  0.1604500E-05  0.2132993E+04  0.7818609E-02  0.8546847E-01
        3   -1    0    0  501    0  0.00000000000E+00  0.00000000000E+00  0.12634067513E+04  0.12634067554E+04  0.10100000352E+00 0. -1.
       -3   -1    0    0    0  501  0.00000000000E+00  0.00000000000E+00 -0.90027586751E+03  0.90027587317E+03  0.10100000352E+00 0.  1.
    10030    2    1    2    0    0  0.00000000000E+00  0.00000000000E+00  0.36313088384E+03  0.21636826286E+04  0.21329928454E+04 0.  0.
        1    1    3    3  502    0 -0.81599307847E+03  0.25248871529E+03 -0.46623028831E+03  0.97312174841E+03  0.50400001928E-02 0.  1.
       -1    1    3    3    0  502  0.81599307847E+03 -0.25248871529E+03  0.82936117214E+03  0.11905608802E+04  0.50400001928E-02 0. -1.
</event>
<event>
 5   0  0.2085063E-05  0.2290278E+04  0.7818609E-02  0.8481764E-01
       -1   -1    0    0    0  501  0.00000000000E+00  0.00000000000E+00  0.93963666002E+03  0.93963666003E+03  0.50400001928E-02 0.  1.
        1   -1    0    0  501    0  0.00000000000E+00  0.00000000000E+00 -0.13955852495E+04  0.13955852495E+04  0.50400001928E-02 0. -1.
    10030    2    1    2    0    0  0.00000000000E+00  0.00000000000E+00 -0.45594858947E+03  0.23352219095E+04  0.22902777671E+04 0.  0.
        1    1    3    3  502    0  0.96666118119E+03  0.78923229957E+02  0.39280865471E+03  0.10464040112E+04  0.50400001928E-02 0.  1.
       -1    1    3    3    0  502 -0.96666118119E+03 -0.78923229957E+02 -0.84875724418E+03  0.12888178983E+04  0.50400001928E-02 0. -1.
</event>
<event>
 5   0  0.2042951E-05  0.2306350E+04  0.7818609E-02  0.8475422E-01
        1   -1    0    0  501    0  0.00000000000E+00  0.00000000000E+00  0.18670117482E+04  0.18670117482E+04  0.50400001928E-02 0.  1.
       -1   -1    0    0    0  501  0.00000000000E+00  0.00000000000E+00 -0.71226792303E+03  0.71226792304E+03  0.50400001928E-02 0. -1.
    10030    2    1    2    0    0  0.00000000000E+00  0.00000000000E+00  0.11547438251E+04  0.25792796712E+04  0.23063499996E+04 0.  0.
        2    1    3    3  502    0 -0.22344998733E+03 -0.98212242621E+03 -0.50610898265E+02  0.10084918542E+04  0.25500000920E-02 0. -1.
       -2    1    3    3    0  502  0.22344998733E+03  0.98212242621E+03  0.12053547234E+04  0.15707878170E+04  0.25500000920E-02 0.  1.
</event>
<event>
 5   0  0.2031860E-05  0.2273418E+04  0.7818609E-02  0.8488476E-01
       -1   -1    0    0    0  501  0.00000000000E+00  0.00000000000E+00  0.19364252162E+04  0.19364252162E+04  0.50400001928E-02 0. -1.
        1   -1    0    0  501    0  0.00000000000E+00  0.00000000000E+00 -0.66726427074E+03  0.66726427076E+03  0.50400001928E-02 0.  1.
    10030    2    1    2    0    0  0.00000000000E+00  0.00000000000E+00  0.12691609454E+04  0.26036894869E+04  0.22734180080E+04 0.  0.
        4    1    3    3  502    0 -0.53214393098E+03  0.97968370598E+03  0.88848162581E+03  0.14256081297E+04  0.12699999809E+01 0.  1.
       -4    1    3    3    0  502  0.53214393098E+03 -0.97968370598E+03  0.38067931960E+03  0.11780813573E+04  0.12699999809E+01 0. -1.
</event>
<event>
 5   0  0.2043885E-05  0.2299966E+04  0.7818609E-02  0.8477934E-01
        1   -1    0    0  501    0  0.00000000000E+00  0.00000000000E+00  0.16736022741E+04  0.16736022741E+04  0.50400001928E-02 0.  1.
       -1   -1    0    0    0  501  0.00000000000E+00  0.00000000000E+00 -0.79018860637E+03  0.79018860639E+03  0.50400001928E-02 0. -1.
    10030    2    1    2    0    0  0.00000000000E+00  0.00000000000E+00  0.88341366777E+03  0.24637908805E+04  0.22999664768E+04 0.  0.
        5    1    3    3  502    0  0.53385028697E+03  0.15984649667E+03 -0.63587308319E+03  0.84551978056E+03  0.46999998093E+01 0. -1.
       -5    1    3    3    0  502 -0.53385028697E+03 -0.15984649667E+03  0.15192867510E+04  0.16182711000E+04  0.46999998093E+01 0.  1.
</event>
<event>
 5   0  0.4605516E-05  0.2301001E+04  0.7818609E-02  0.8477527E-01
       -2   -1    0    0    0  501  0.00000000000E+00  0.00000000000E+00  0.12760815848E+04  0.12760815848E+04  0.25500000920E-02 0.  1.
        2   -1    0    0  501    0  0.00000000000E+00  0.00000000000E+00 -0.10372780056E+04  0.10372780056E+04  0.25500000920E-02 0. -1.
    10030    2    1    2    0    0  0.00000000000E+00  0.00000000000E+00  0.23880357927E+03  0.23133595904E+04  0.23010009659E+04 0.  0.
        1    1    3    3  502    0  0.49642306481E+03 -0.57143782589E+03  0.99046991434E+03  0.12465984515E+04  0.50400001928E-02 0.  1.
       -1    1    3    3    0  502 -0.49642306481E+03  0.57143782589E+03 -0.75166633506E+03  0.10667611389E+04  0.50400001928E-02 0. -1.
</event>
<event>
 5   0  0.2042951E-05  0.2301781E+04  0.7818609E-02  0.8477219E-01
        1   -1    0    0  501    0  0.00000000000E+00  0.00000000000E+00  0.69535202404E+03  0.69535202406E+03  0.50400001928E-02 0.  1.
       -1   -1    0    0    0  501  0.00000000000E+00  0.00000000000E+00 -0.19048607320E+04  0.19048607320E+04  0.50400001928E-02 0. -1.
    10030    2    1    2    0    0  0.00000000000E+00  0.00000000000E+00 -0.12095087079E+04  0.26002127560E+04  0.23017808458E+04 0.  0.
        2    1    3    3  502    0 -0.30830841682E+03 -0.10630850786E+04 -0.96080967927E+03  0.14657282163E+04  0.25500000920E-02 0. -1.
       -2    1    3    3    0  502  0.30830841682E+03  0.10630850786E+04 -0.24869902866E+03  0.11344845398E+04  0.25500000920E-02 0.  1.
</event>
<event>
 5   0  0.4602447E-05  0.2296899E+04  0.7818609E-02  0.8479145E-01
       -2   -1    0    0    0  501  0.00000000000E+00  0.00000000000E+00  0.96509671007E+03  0.96509671007E+03  0.25500000920E-02 0. -1.
        2   -1    0    0  501    0  0.00000000000E+00  0.00000000000E+00 -0.13666364571E+04  0.13666364571E+04  0.25500000920E-02 0.  1.
    10030    2    1    2    0    0  0.00000000000E+00  0.00000000000E+00 -0.40153974707E+03  0.23317331672E+04  0.22968990824E+04 0.  0.
        3    1    3    3  502    0 -0.50877479085E+03 -0.78547201235E+03  0.47499678987E+03  0.10494951313E+04  0.10100000352E+00 0. -1.
       -3    1    3    3    0  502  0.50877479085E+03  0.78547201235E+03 -0.87653653694E+03  0.12822380359E+04  0.10100000352E+00 0.  1.
</event>
<event>
 5   0  0.2031860E-05  0.2368719E+04  0.7818609E-02  0.8451309E-01
       -1   -1    0    0    0  501  0.00000000000E+00  0.00000000000E+00  0.10107209789E+04  0.10107209790E+04  0.50400001928E-02 0.  1.
        1   -1    0    0  501    0  0.00000000000E+00  0.00000000000E+00 -0.13878280790E+04  0.13878280790E+04  0.50400001928E-02 0. -1.
    10030    2    1    2    0    0  0.00000000000E+00  0.00000000000E+00 -0.37710710007E+03  0.23985490580E+04  0.23687186027E+04 0.  0.
        4    1    3    3  502    0  0.72169304265E+03 -0.93814692436E+03 -0.14625619395E+03  0.11926244114E+04  0.12699999809E+01 0. -1.
       -4    1    3    3    0  502 -0.72169304265E+03  0.93814692436E+03 -0.23085090612E+03  0.12059246466E+04  0.12699999809E+01 0.  1.
</event>
<event>
 5   0  0.4605516E-05  0.2292408E+04  0.7818609E-02  0.8480920E-01
       -2   -1    0    0    0  501  0.00000000000E+00  0.00000000000E+00  0.48919310810E+03  0.48919310811E+03  0.25500000920E-02 0.  1.
        2   -1    0    0  501    0  0.00000000000E+00  0.00000000000E+00 -0.26856143685E+04  0.26856143685E+04  0.25500000920E-02 0. -1.
    10030    2    1    2    0    0  0.00000000000E+00  0.00000000000E+00 -0.21964212604E+04  0.31748074766E+04  0.22924083756E+04 0.  0.
        1    1    3    3  502    0 -0.36791650791E+03 -0.30922612316E+03  0.34290779024E+03  0.59039741249E+03  0.50400001928E-02 0.  1.
       -1    1    3    3    0  502  0.36791650791E+03  0.30922612316E+03 -0.25393290507E+04  0.25844100642E+04  0.50400001928E-02 0. -1.
</event>
<event>
 5   0  0.1968318E-05  0.2297014E+04  0.7818609E-02  0.8479099E-01
        1   -1    0    0  501    0  0.00000000000E+00  0.00000000000E+00  0.12671838410E+04  0.12671838410E+04  0.50400001928E-02 0. -1.
       -1   -1    0    0    0  501  0.00000000000E+00  0.00000000000E+00 -0.10409448712E+04  0.10409448712E+04  0.50400001928E-02 0.  1.
    10030    2    1    2    0    0  0.00000000000E+00  0.00000000000E+00  0.22623896974E+03  0.23081287122E+04  0.22970141664E+04 0.  0.
        3    1    3    3  502    0  0.90545872078E+03 -0.68908753343E+03 -0.43749275877E+02  0.11386883389E+04  0.10100000352E+00 0.  1.
       -3    1    3    3    0  502 -0.90545872078E+03  0.68908753343E+03  0.26998824561E+03  0.11694403733E+04  0.10100000352E+00 0. -1.
</event>
<event>
 5   0  0.4505107E-05  0.2286138E+04  0.7818609E-02  0.8483407E-01
        2   -1    0    0  501    0  0.00000000000E+00  0.00000000000E+00  0.10959316601E+04  0.10959316601E+04  0.25500000920E-02 0. -1.
       -2   -1    0    0    0  501  0.00000000000E+00  0.00000000000E+00 -0.11922339664E+04  0.11922339664E+04  0.25500000920E-02 0.  1.
    10030    2    1    2    0    0  0.00000000000E+00  0.00000000000E+00 -0.96302306279E+02  0.22881656264E+04  0.22861381848E+04 0.  0.
        4    1    3    3  502    0  0.22868081577E+01 -0.74850751906E+03 -0.91282505274E+03  0.11804744493E+04  0.12699999809E+01 0.  1.
       -4    1    3    3    0  502 -0.22868081577E+01  0.74850751906E+03  0.81652274646E+03  0.11076911772E+04  0.12699999809E+01 0. -1.
</event>
<event>
 5   0  0.4505107E-05  0.2319319E+04  0.7818609E-02  0.8470343E-01
        2   -1    0    0  501    0  0.00000000000E+00  0.00000000000E+00  0.14291347668E+04  0.14291347668E+04  0.25500000920E-02 0. -1.
       -2   -1    0    0    0  501  0.00000000000E+00  0.00000000000E+00 -0.94099563898E+03  0.94099563898E+03  0.25500000920E-02 0.  1.
    10030    2    1    2    0    0  0.00000000000E+00  0.00000000000E+00  0.48813912782E+03  0.23701304058E+04  0.23193185060E+04 0.  0.
        4    1    3    3  502    0  0.30910759246E+03  0.16871172093E+03  0.13731725175E+04  0.14176090872E+04  0.12699999809E+01 0. -1.
       -4    1    3    3    0  502 -0.30910759246E+03 -0.16871172093E+03 -0.88503338969E+03  0.95252131853E+03  0.12699999809E+01 0.  1.
</event>
<event>
 5   0  0.4436695E-05  0.2279336E+04  0.7818609E-02  0.8486113E-01
        2   -1    0    0  501    0  0.00000000000E+00  0.00000000000E+00  0.10584086801E+04  0.10584086801E+04  0.25500000920E-02 0.  1.
       -2   -1    0    0    0  501  0.00000000000E+00  0.00000000000E+00 -0.12271659513E+04  0.12271659513E+04  0.25500000920E-02 0. -1.
    10030    2    1    2    0    0  0.00000000000E+00  0.00000000000E+00 -0.16875727114E+03  0.22855746314E+04  0.22793359513E+04 0.  0.
        5    1    3    3  502    0  0.32354475245E+03  0.10408810721E+04  0.24925775500E+03  0.11181530001E+04  0.46999998093E+01 0. -1.
       -5    1    3    3    0  502 -0.32354475245E+03 -0.10408810721E+04 -0.41801502615E+03  0.11674216313E+04  0.46999998093E+01 0.  1.
</event>
<event>
 5   0  0.4798609E-05  0.2298897E+04  0.7818609E-02  0.8478356E-01
        2   -1    0    0  501    0  0.00000000000E+00  0.00000000000E+00  0.10739001592E+04  0.10739001592E+04  0.25500000920E-02 0. -1.
       -2   -1    0    0    0  501  0.00000000000E+00  0.00000000000E+00 -0.12303119910E+04  0.12303119910E+04  0.25500000920E-02 0.  1.
    10030    2    1    2    0    0  0.00000000000E+00  0.00000000000E+00 -0.15641183179E+03  0.23042121502E+04  0.22988973383E+04 0.  0.
        2    1    3    3  502    0 -0.91718654128E+03  0.46394637090E+03  0.43752700233E+03  0.11170976969E+04  0.25500000920E-02 0. -1.
       -2    1    3    3    0  502  0.91718654128E+03 -0.46394637090E+03 -0.59393883413E+03  0.11871144533E+04  0.25500000920E-02 0.  1.
</event>
<event>
 5   0  0.4602447E-05  0.2263012E+04  0.7818609E-02  0.8492649E-01
        2   -1    0    0  501    0  0.00000000000E+00  0.00000000000E+00  0.28064228409E+04  0.28064228409E+04  0.25500000920E-02 0. -1.
       -2   -1    0    0    0  501  0.00000000000E+00  0.00000000000E+00 -0.45620565672E+03  0.45620565672E+03  0.25500000920E-02 0.  1.
    10030    2    1    2    0    0  0.00000000000E+00  0.00000000000E+00  0.23502171842E+04  0.32626284976E+04  0.22630121300E+04 0.  0.
        3    1    3    3  502    0 -0.45807908307E+03 -0.50744279414E+03  0.24750337782E+04  0.25677084821E+04  0.10100000352E+00 0. -1.
       -3    1    3    3    0  502  0.45807908307E+03  0.50744279414E+03 -0.12481659399E+03  0.69492001554E+03  0.10100000352E+00 0.  1.
</event>
<event>
 5   0  0.4602447E-05  0.2282796E+04  0.7818609E-02  0.8484736E-01
       -2   -1    0    0    0  501  0.00000000000E+00  0.00000000000E+00  0.68805423328E+03  0.68805423329E+03  0.25500000920E-02 0. -1.
        2   -1    0    0  501    0  0.00000000000E+00  0.00000000000E+00 -0.18934396048E+04  0.18934396048E+04  0.25500000920E-02 0.  1.
    10030    2    1    2    0    0  0.00000000000E+00  0.00000000000E+00 -0.12053853715E+04  0.25814938381E+04  0.22827957732E+04 0.  0.
        3    1    3    3  502    0  0.43401465842E+03 -0.22463734247E+02  0.59082871761E+03  0.73345206171E+03  0.10100000352E+00 0. -1.
       -3    1    3    3    0  502 -0.43401465842E+03  0.22463734247E+02 -0.17962140891E+04  0.18480417764E+04  0.10100000352E+00 0.  1.
</event>
<event>
 5   0  0.4798609E-05  0.2042642E+04  0.7818609E-02  0.8586939E-01
        2   -1    0    0  501    0  0.00000000000E+00  0.00000000000E+00  0.11241150602E+04  0.11241150602E+04  0.25500000920E-02 0.  1.
       -2   -1    0    0    0  501  0.00000000000E+00  0.00000000000E+00 -0.92792716385E+03  0.92792716386E+03  0.25500000920E-02 0. -1.
    10030    2    1    2    0    0  0.00000000000E+00  0.00000000000E+00  0.19618789639E+03  0.20520422241E+04  0.20426423081E+04 0.  0.
        2    1    3    3  502    0  0.53078546671E+03 -0.29837454079E+03  0.92182845017E+03  0.11047752123E+04  0.25500000920E-02 0.  1.
       -2    1    3    3    0  502 -0.53078546671E+03  0.29837454079E+03 -0.72564055378E+03  0.94726701175E+03  0.25500000920E-02 0. -1.
</event>
<event>
 5   0  0.1604500E-05  0.2298184E+04  0.7818609E-02  0.8478638E-01
       -3   -1    0    0    0  501  0.00000000000E+00  0.00000000000E+00  0.21630940708E+04  0.21630940731E+04  0.10100000352E+00 0.  1.
        3   -1    0    0  501    0  0.00000000000E+00  0.00000000000E+00 -0.61042738805E+03  0.61042739640E+03  0.10100000352E+00 0. -1.
    10030    2    1    2    0    0  0.00000000000E+00  0.00000000000E+00  0.15526666827E+04  0.27735214695E+04  0.22981835249E+04 0.  0.
        5    1    3    3  502    0 -0.92938804772E+03  0.38611119588E+03  0.14456038959E+04  0.17614303031E+04  0.46999998093E+01 0.  1.
       -5    1    3    3    0  502  0.92938804772E+03 -0.38611119588E+03  0.10706278680E+03  0.10120911664E+04  0.46999998093E+01 0. -1.
</event>
<event>
 5   0  0.4436695E-05  0.2298020E+04  0.7818609E-02  0.8478702E-01
       -2   -1    0    0    0  501  0.00000000000E+00  0.00000000000E+00  0.11794629634E+04  0.11794629634E+04  0.25500000920E-02 0.  1.
        2   -1    0    0  501    0  0.00000000000E+00  0.00000000000E+00 -0.11193429140E+04  0.11193429140E+04  0.25500000920E-02 0. -1.
    10030    2    1    2    0    0  0.00000000000E+00  0.00000000000E+00  0.60120049346E+02  0.22988058774E+04  0.22980195912E+04 0.  0.
        5    1    3    3  502    0  0.41254613727E+03  0.97815854200E+03  0.46977039885E+03  0.11609025654E+04  0.46999998093E+01 0.  1.
       -5    1    3    3    0  502 -0.41254613727E+03 -0.97815854200E+03 -0.40965034951E+03  0.11379033120E+04  0.46999998093E+01 0. -1.
</event>
<event>
 5   0  0.4602447E-05  0.2336424E+04  0.7818609E-02  0.8463697E-01
        2   -1    0    0  501    0  0.00000000000E+00  0.00000000000E+00  0.10711111470E+04  0.10711111470E+04  0.25500000920E-02 0. -1.
       -2   -1    0    0    0  501  0.00000000000E+00  0.00000000000E+00 -0.12741154153E+04  0.12741154153E+04  0.25500000920E-02 0.  1.
    10030    2    1    2    0    0  0.00000000000E+00  0.00000000000E+00 -0.20300426833E+03  0.23452265623E+04  0.23364239545E+04 0.  0.
        3    1    3    3  502    0  0.13205795342E+03  0.11488432745E+04  0.64769291025E+02  0.11582207233E+04  0.10100000352E+00 0. -1.
       -3    1    3    3    0  502 -0.13205795342E+03 -0.11488432745E+04 -0.26777355936E+03  0.11870058390E+04  0.10100000352E+00 0.  1.
</event>
<event>
 5   0  0.2031860E-05  0.2311373E+04  0.7818609E-02  0.8473450E-01
        1   -1    0    0  501    0  0.00000000000E+00  0.00000000000E+00  0.98418001253E+03  0.98418001255E+03  0.50400001928E-02 0.  1.
       -1   -1    0    0    0  501  0.00000000000E+00  0.00000000000E+00 -0.13570799557E+04  0.13570799557E+04  0.50400001928E-02 0. -1.
    10030    2    1    2    0    0  0.00000000000E+00  0.00000000000E+00 -0.37289994319E+03  0.23412599683E+04  0.23113727245E+04 0.  0.
        4    1    3    3  502    0  0.46749716217E+03  0.85100591488E+03  0.44842776771E+03  0.10695109815E+04  0.12699999809E+01 0.  1.
       -4    1    3    3    0  502 -0.46749716217E+03 -0.85100591488E+03 -0.82132771090E+03  0.12717489868E+04  0.12699999809E+01 0. -1.
</event>
<event>
 5   0  0.4605516E-05  0.2259948E+04  0.7818609E-02  0.8493882E-01
        2   -1    0    0  501    0  0.00000000000E+00  0.00000000000E+00  0.11138166581E+04  0.11138166581E+04  0.25500000920E-02 0.  1.
       -2   -1    0    0    0  501  0.00000000000E+00  0.00000000000E+00 -0.11463662284E+04  0.11463662284E+04  0.25500000920E-02 0. -1.
    10030    2    1    2    0    0  0.00000000000E+00  0.00000000000E+00 -0.32549570329E+02  0.22601828865E+04  0.22599484963E+04 0.  0.
        1    1    3    3  502    0 -0.55589175567E+03  0.17025480713E+01 -0.10001569044E+04  0.11442606242E+04  0.50400001928E-02 0. -1.
       -1    1    3    3    0  502  0.55589175567E+03 -0.17025480713E+01  0.96760733402E+03  0.11159222623E+04  0.50400001928E-02 0.  1.
</event>
<event>
 5   0  0.4798609E-05  0.2308840E+04  0.7818609E-02  0.8474444E-01
        2   -1    0    0  501    0  0.00000000000E+00  0.00000000000E+00  0.17808639901E+04  0.17808639901E+04  0.25500000920E-02 0. -1.
       -2   -1    0    0    0  501  0.00000000000E+00  0.00000000000E+00 -0.74833631560E+03  0.74833631560E+03  0.25500000920E-02 0.  1.
    10030    2    1    2    0    0  0.00000000000E+00  0.00000000000E+00  0.10325276745E+04  0.25292003058E+04  0.23088397060E+04 0.  0.
        2    1    3    3  502    0  0.86577339770E+03 -0.56117666577E+03  0.10835742425E+04  0.14962005098E+04  0.25500000920E-02 0. -1.
       -2    1    3    3    0  502 -0.86577339770E+03  0.56117666577E+03 -0.51046567977E+02  0.10329997960E+04  0.25500000920E-02 0.  1.
</event>
<event>
 5   0  0.2042951E-05  0.2313374E+04  0.7818609E-02  0.8472667E-01
        1   -1    0    0  501    0  0.00000000000E+00  0.00000000000E+00  0.10233859026E+04  0.10233859026E+04  0.50400001928E-02 0. -1.
       -1   -1    0    0    0  501  0.00000000000E+00  0.00000000000E+00 -0.13073511831E+04  0.13073511832E+04  0.50400001928E-02 0.  1.
    10030    2    1    2    0    0  0.00000000000E+00  0.00000000000E+00 -0.28396528057E+03  0.23307370857E+04  0.23133739607E+04 0.  0.
        2    1    3    3  502    0 -0.12327730886E+03  0.20096818867E+03 -0.12828861432E+04  0.13043704858E+04  0.25500000920E-02 0.  1.
       -2    1    3    3    0  502  0.12327730886E+03 -0.20096818867E+03  0.99892086262E+03  0.10263666000E+04  0.25500000920E-02 0. -1.
</event>
<event>
 5   0  0.4436695E-05  0.2273528E+04  0.7818609E-02  0.8488432E-01
        2   -1    0    0  501    0  0.00000000000E+00  0.00000000000E+00  0.11654514712E+04  0.11654514712E+04  0.25500000920E-02 0.  1.
       -2   -1    0    0    0  501  0.00000000000E+00  0.00000000000E+00 -0.11087825441E+04  0.11087825441E+04  0.25500000920E-02 0. -1.
    10030    2    1    2    0    0  0.00000000000E+00  0.00000000000E+00  0.56668927121E+02  0.22742340154E+04  0.22735278730E+04 0.  0.
        5    1    3    3  502    0 -0.56365869099E+03  0.62403044687E+03  0.79348055558E+03  0.11561827713E+04  0.46999998093E+01 0.  1.
       -5    1    3    3    0  502  0.56365869099E+03 -0.62403044687E+03 -0.73681162846E+03  0.11180512441E+04  0.46999998093E+01 0. -1.
</event>
<event>
 5   0  0.1968318E-05  0.2297215E+04  0.7818609E-02  0.8479020E-01
       -1   -1    0    0    0  501  0.00000000000E+00  0.00000000000E+00  0.92738618463E+03  0.92738618464E+03  0.50400001928E-02 0.  1.
        1   -1    0    0  501    0  0.00000000000E+00  0.00000000000E+00 -0.14225997909E+04  0.14225997909E+04  0.50400001928E-02 0. -1.
    10030    2    1    2    0    0  0.00000000000E+00  0.00000000000E+00 -0.49521360624E+03  0.23499859755E+04  0.22972151770E+04 0.  0.
        3    1    3    3  502    0  0.70024128202E+03  0.38984839533E+03 -0.10892953839E+04  0.13523624026E+04  0.10100000352E+00 0. -1.
       -3    1    3    3    0  502 -0.70024128202E+03 -0.38984839533E+03  0.59408177770E+03  0.99762357289E+03  0.10100000352E+00 0.  1.
</event>
<event>
 5   0  0.1968318E-05  0.2236188E+04  0.7818609E-02  0.8503515E-01
       -1   -1    0    0    0  501  0.00000000000E+00  0.00000000000E+00  0.48842823854E+03  0.48842823857E+03  0.50400001928E-02 0.  1.
        1   -1    0    0  501    0  0.00000000000E+00  0.00000000000E+00 -0.25595042011E+04  0.25595042011E+04  0.50400001928E-02 0. -1.
    10030    2    1    2    0    0  0.00000000000E+00  0.00000000000E+00 -0.20710759626E+04  0.30479324397E+04  0.22361879425E+04 0.  0.
        3    1    3    3  502    0 -0.78184444721E+03  0.79148945789E+03 -0.11873022876E+04  0.16270903582E+04  0.10100000352E+00 0. -1.
       -3    1    3    3    0  502  0.78184444721E+03 -0.79148945789E+03 -0.88377367498E+03  0.14208420814E+04  0.10100000352E+00 0.  1.
</event>
<event>
 5   0  0.2031860E-05  0.2250490E+04  0.7818609E-02  0.8497702E-01
       -1   -1    0    0    0  501  0.00000000000E+00  0.00000000000E+00  0.71454008378E+03  0.71454008380E+03  0.50400001928E-02 0. -1.
        1   -1    0    0  501    0  0.00000000000E+00  0.00000000000E+00 -0.17720164429E+04  0.17720164429E+04  0.50400001928E-02 0.  1.
    10030    2    1    2    0    0  0.00000000000E+00  0.00000000000E+00 -0.10574763591E+04  0.24865565267E+04  0.22504904155E+04 0.  0.
        4    1    3    3  502    0  0.32441713340E+03 -0.10578475549E+04 -0.75487018555E+03  0.13394471008E+04  0.12699999809E+01 0. -1.
       -4    1    3    3    0  502 -0.32441713340E+03  0.10578475549E+04 -0.30260617358E+03  0.11471094259E+04  0.12699999809E+01 0.  1.
</event>
<event>
 5   0  0.4505107E-05  0.2312251E+04  0.7818609E-02  0.8473106E-01
        2   -1    0    0  501    0  0.00000000000E+00  0.00000000000E+00  0.23919877260E+04  0.23919877260E+04  0.25500000920E-02 0. -1.
       -2   -1    0    0    0  501  0.00000000000E+00  0.00000000000E+00 -0.55879323782E+03  0.55879323782E+03  0.25500000920E-02 0.  1.
    10030    2    1    2    0    0  0.00000000000E+00  0.00000000000E+00  0.18331944882E+04  0.29507809638E+04  0.23122513412E+04 0.  0.
        4    1    3    3  502    0  0.12194893810E+03  0.33372860514E+02 -0.54994339129E+03  0.56429127040E+03  0.12699999809E+01 0.  1.
       -4    1    3    3    0  502 -0.12194893810E+03 -0.33372860514E+02  0.23831378795E+04  0.23864896934E+04  0.12699999809E+01 0. -1.
</event>
<event>
 5   0  0.4798609E-05  0.2355642E+04  0.7818609E-02  0.8456300E-01
        2   -1    0    0  501    0  0.00000000000E+00  0.00000000000E+00  0.18837788171E+04  0.18837788171E+04  0.25500000920E-02 0. -1.
       -2   -1    0    0    0  501  0.00000000000E+00  0.00000000000E+00 -0.73642554145E+03  0.73642554145E+03  0.25500000920E-02 0.  1.
    10030    2    1    2    0    0  0.00000000000E+00  0.00000000000E+00  0.11473532756E+04  0.26202043585E+04  0.23556424477E+04 0.  0.
        2    1    3    3  502    0  0.30719412677E+03  0.62967451732E+03 -0.47944329502E+03  0.84895471165E+03  0.25500000920E-02 0.  1.
       -2    1    3    3    0  502 -0.30719412677E+03 -0.62967451732E+03  0.16267965707E+04  0.17712496469E+04  0.25500000920E-02 0. -1.
</event>
<event>
 5   0  0.4505107E-05  0.2363942E+04  0.7818609E-02  0.8453128E-01
       -2   -1    0    0    0  501  0.00000000000E+00  0.00000000000E+00  0.11685516114E+04  0.11685516114E+04  0.25500000920E-02 0. -1.
        2   -1    0    0  501    0  0.00000000000E+00  0.00000000000E+00 -0.11955446991E+04  0.11955446991E+04  0.25500000920E-02 0.  1.
    10030    2    1    2    0    0  0.00000000000E+00  0.00000000000E+00 -0.26993087672E+02  0.23640963105E+04  0.23639422028E+04 0.  0.
        4    1    3    3  502    0  0.11328378684E+04  0.29478921532E+03  0.15031814594E+03  0.11801777305E+04  0.12699999809E+01 0. -1.
       -4    1    3    3    0  502 -0.11328378684E+04 -0.29478921532E+03 -0.17731123361E+03  0.11839185800E+04  0.12699999809E+01 0.  1.
</event>
<event>
 5   0  0.4605516E-05  0.2294699E+04  0.7818609E-02  0.8480014E-01
        2   -1    0    0  501    0  0.00000000000E+00  0.00000000000E+00  0.13959291778E+04  0.13959291778E+04  0.25500000920E-02 0.  1.
       -2   -1    0    0    0  501  0.00000000000E+00  0.00000000000E+00 -0.94303534128E+03  0.94303534128E+03  0.25500000920E-02 0. -1.
    10030    2    1    2    0    0  0.00000000000E+00  0.00000000000E+00  0.45289383653E+03  0.23389645191E+04  0.22946987154E+04 0.  0.
        1    1    3    3  502    0 -0.93639788920E+02 -0.11723278510E+03 -0.93299256305E+03  0.94497992502E+03  0.50400001928E-02 0. -1.
       -1    1    3    3    0  502  0.93639788920E+02  0.11723278510E+03  0.13858863996E+04  0.13939845941E+04  0.50400001928E-02 0.  1.
</event>
<event>
 5   0  0.4602447E-05  0.2312089E+04  0.7818609E-02  0.8473170E-01
        2   -1    0    0  501    0  0.00000000000E+00  0.00000000000E+00  0.22463123339E+04  0.22463123339E+04  0.25500000920E-02 0.  1.
       -2   -1    0    0    0  501  0.00000000000E+00  0.00000000000E+00 -0.59494797808E+03  0.59494797808E+03  0.25500000920E-02 0. -1.
    10030    2    1    2    0    0  0.00000000000E+00  0.00000000000E+00  0.16513643558E+04  0.28412603120E+04  0.23120890824E+04 0.  0.
        3    1    3    3  502    0  0.11269437012E+04 -0.20170718033E+03  0.10228809358E+04  0.15352437303E+04  0.10100000352E+00 0.  1.
       -3    1    3    3    0  502 -0.11269437012E+04  0.20170718033E+03  0.62848342002E+03  0.13060165817E+04  0.10100000352E+00 0. -1.
</event>
<event>
 5   0  0.2085063E-05  0.1966842E+04  0.7818609E-02  0.8622282E-01
       -1   -1    0    0    0  501  0.00000000000E+00  0.00000000000E+00  0.11941947372E+04  0.11941947373E+04  0.50400001928E-02 0.  1.
        1   -1    0    0  501    0  0.00000000000E+00  0.00000000000E+00 -0.80984856741E+03  0.80984856743E+03  0.50400001928E-02 0. -1.
    10030    2    1    2    0    0  0.00000000000E+00  0.00000000000E+00  0.38434616983E+03  0.20040433047E+04  0.19668420345E+04 0.  0.
        1    1    3    3  502    0  0.82151265378E+03  0.38015609311E+03  0.58377987774E+03  0.10771261027E+04  0.50400001928E-02 0.  1.
       -1    1    3    3    0  502 -0.82151265378E+03 -0.38015609311E+03 -0.19943370791E+03  0.92691720198E+03  0.50400001928E-02 0. -1.
</event>
<event>
 5   0  0.4798609E-05  0.2275007E+04  0.7818609E-02  0.8487841E-01
        2   -1    0    0  501    0  0.00000000000E+00  0.00000000000E+00  0.20516893685E+04  0.20516893685E+04  0.25500000920E-02 0. -1.
       -2   -1    0    0    0  501  0.00000000000E+00  0.00000000000E+00 -0.63065786289E+03  0.63065786289E+03  0.25500000920E-02 0.  1.
    10030    2    1    2    0    0  0.00000000000E+00  0.00000000000E+00  0.14210315056E+04  0.26823472314E+04  0.22750068417E+04 0.  0.
        2    1    3    3  502    0 -0.47133895745E+03  0.80732003981E+03  0.14746166624E+04  0.17459726116E+04  0.25500000920E-02 0. -1.
       -2    1    3    3    0  502  0.47133895745E+03 -0.80732003981E+03 -0.53585156810E+02  0.93637461976E+03  0.25500000920E-02 0.  1.
</event>
<event>
 5   0  0.2042951E-05  0.2287674E+04  0.7818609E-02  0.8482797E-01
        1   -1    0    0  501    0  0.00000000000E+00  0.00000000000E+00  0.24144457400E+04  0.24144457400E+04  0.50400001928E-02 0. -1.
       -1   -1    0    0    0  501  0.00000000000E+00  0.00000000000E+00 -0.54188944342E+03  0.54188944344E+03  0.50400001928E-02 0.  1.
    10030    2    1    2    0    0  0.00000000000E+00  0.00000000000E+00  0.18725562966E+04  0.29563351835E+04  0.22876736291E+04 0.  0.
        2    1    3    3  502    0 -0.11359773777E+04 -0.95675886369E+02  0.10572586159E+04  0.15547971761E+04  0.25500000920E-02 0.  1.
       -2    1    3    3    0  502  0.11359773777E+04  0.95675886369E+02  0.81529768072E+03  0.14015380074E+04  0.25500000920E-02 0. -1.
</event>
<event>
 5   0  0.4505107E-05  0.2297710E+04  0.7818609E-02  0.8478824E-01
        2   -1    0    0  501    0  0.00000000000E+00  0.00000000000E+00  0.17947817734E+04  0.17947817735E+04  0.25500000920E-02 0.  1.
       -2   -1    0    0    0  501  0.00000000000E+00  0.00000000000E+00 -0.73539210347E+03  0.73539210348E+03  0.25500000920E-02 0. -1.
    10030    2    1    2    0    0  0.00000000000E+00  0.00000000000E+00  0.10593896700E+04  0.25301738769E+04  0.22977104636E+04 0.  0.
        4    1    3    3  502    0  0.10967572222E+03 -0.22109671519E+03 -0.70585433305E+03  0.74775963645E+03  0.12699999809E+01 0. -1.
       -4    1    3    3    0  502 -0.10967572222E+03  0.22109671519E+03  0.17652440030E+04  0.17824142405E+04  0.12699999809E+01 0.  1.
</event>
<event>
 5   0  0.4505107E-05  0.2286701E+04  0.7818609E-02  0.8483183E-01
        2   -1    0    0  501    0  0.00000000000E+00  0.00000000000E+00  0.12909740885E+04  0.12909740885E+04  0.25500000920E-02 0. -1.
       -2   -1    0    0    0  501  0.00000000000E+00  0.00000000000E+00 -0.10126074145E+04  0.10126074145E+04  0.25500000920E-02 0.  1.
    10030    2    1    2    0    0  0.00000000000E+00  0.00000000000E+00  0.27836667395E+03  0.23035815030E+04  0.22867006223E+04 0.  0.
        4    1    3    3  502    0 -0.33431575554E+03 -0.65706289789E+03  0.10195625574E+04  0.12581764970E+04  0.12699999809E+01 0. -1.
       -4    1    3    3    0  502  0.33431575554E+03  0.65706289789E+03 -0.74119588345E+03  0.10454050061E+04  0.12699999809E+01 0.  1.
</event>
<event>
 5   0  0.2085063E-05  0.2287117E+04  0.7818609E-02  0.8483018E-01
        1   -1    0    0  501    0  0.00000000000E+00  0.00000000000E+00  0.19694223174E+04  0.19694223174E+04  0.50400001928E-02 0. -1.
       -1   -1    0    0    0  501  0.00000000000E+00  0.00000000000E+00 -0.66401521545E+03  0.66401521547E+03  0.50400001928E-02 0.  1.
    10030    2    1    2    0    0  0.00000000000E+00  0.00000000000E+00  0.13054071020E+04  0.26334375329E+04  0.22871172987E+04 0.  0.
        1    1    3    3  502    0 -0.46205370468E+03 -0.89973274975E+03  0.12670859898E+04  0.16212709682E+04  0.50400001928E-02 0. -1.
       -1    1    3    3    0  502  0.46205370468E+03  0.89973274975E+03  0.38321112223E+02  0.10121665647E+04  0.50400001928E-02 0.  1.
</event>
<event>
 5   0  0.1968318E-05  0.2284533E+04  0.7818609E-02  0.8484045E-01
        1   -1    0    0  501    0  0.00000000000E+00  0.00000000000E+00  0.76934795495E+03  0.76934795497E+03  0.50400001928E-02 0. -1.
       -1   -1    0    0    0  501  0.00000000000E+00  0.00000000000E+00 -0.16959457197E+04  0.16959457197E+04  0.50400001928E-02 0.  1.
    10030    2    1    2    0    0  0.00000000000E+00  0.00000000000E+00 -0.92659776471E+03  0.24652936746E+04  0.22845326622E+04 0.  0.
        3    1    3    3  502    0 -0.39797886941E+03  0.41974119275E+03  0.59962578802E+03  0.83313921120E+03  0.10100000352E+00 0. -1.
       -3    1    3    3    0  502  0.39797886941E+03 -0.41974119275E+03 -0.15262235527E+04  0.16321544634E+04  0.10100000352E+00 0.  1.
</event>
<event>
 5   0  0.4602447E-05  0.2272553E+04  0.7818609E-02  0.8488822E-01
        2   -1    0    0  501    0  0.00000000000E+00  0.00000000000E+00  0.22433399490E+04  0.22433399490E+04  0.25500000920E-02 0.  1.
       -2   -1    0    0    0  501  0.00000000000E+00  0.00000000000E+00 -0.57553643369E+03  0.57553643369E+03  0.25500000920E-02 0. -1.
    10030    2    1    2    0    0  0.00000000000E+00  0.00000000000E+00  0.16678035153E+04  0.28188763827E+04  0.22725526386E+04 0.  0.
        3    1    3    3  502    0  0.65404005204E+03  0.89368286384E+03  0.51842409578E+03  0.12227841200E+04  0.10100000352E+00 0. -1.
       -3    1    3    3    0  502 -0.65404005204E+03 -0.89368286384E+03  0.11493794195E+04  0.15960922627E+04  0.10100000352E+00 0.  1.
</event>
<event>
 5   0  0.2043885E-05  0.2196425E+04  0.7818609E-02  0.8519918E-01
       -1   -1    0    0    0  501  0.00000000000E+00  0.00000000000E+00  0.16890958887E+04  0.16890958887E+04  0.50400001928E-02 0. -1.
        1   -1    0    0  501    0  0.00000000000E+00  0.00000000000E+00 -0.71403314687E+03  0.71403314689E+03  0.50400001928E-02 0.  1.
    10030    2    1    2    0    0  0.00000000000E+00  0.00000000000E+00  0.97506274183E+03  0.24031290356E+04  0.21964247793E+04 0.  0.
        5    1    3    3  502    0  0.30159911986E+03  0.47951457951E+03 -0.54183436655E+03  0.78390231013E+03  0.46999998093E+01 0.  1.
       -5    1    3    3    0  502 -0.30159911986E+03 -0.47951457951E+03  0.15168971084E+04  0.16192267255E+04  0.46999998093E+01 0. -1.
</event>
<event>
 5   0  0.2031860E-05  0.2333112E+04  0.7818609E-02  0.8464979E-01
        1   -1    0    0  501    0  0.00000000000E+00  0.00000000000E+00  0.68313233518E+03  0.68313233520E+03  0.50400001928E-02 0. -1.
       -1   -1    0    0    0  501  0.00000000000E+00  0.00000000000E+00 -0.19920781757E+04  0.19920781757E+04  0.50400001928E-02 0.  1.
    10030    2    1    2    0    0  0.00000000000E+00  0.00000000000E+00 -0.13089458405E+04  0.26752105109E+04  0.23331120985E+04 0.  0.
        4    1    3    3  502    0 -0.44392090201E+02  0.11087305461E+04 -0.24169128290E+03  0.11356365487E+04  0.12699999809E+01 0. -1.
       -4    1    3    3    0  502  0.44392090201E+02 -0.11087305461E+04 -0.10672545576E+04  0.15395739622E+04  0.12699999809E+01 0.  1.
</event>
<event>
 5   0  0.4505107E-05  0.2297186E+04  0.7818609E-02  0.8479031E-01
       -2   -1    0    0    0  501  0.00000000000E+00  0.00000000000E+00  0.77876038581E+03  0.77876038581E+03  0.25500000920E-02 0. -1.
        2   -1    0    0  501    0  0.00000000000E+00  0.00000000000E+00 -0.16940589115E+04  0.16940589115E+04  0.25500000920E-02 0.  1.
    10030    2    1    2    0    0  0.00000000000E+00  0.00000000000E+00 -0.91529852572E+03  0.24728192973E+04  0.22971860800E+04 0.  0.
        4    1    3    3  502    0  0.16000048193E+03 -0.80100412632E+03 -0.13268875569E+04  0.15581527416E+04  0.12699999809E+01 0.  1.
       -4    1    3    3    0  502 -0.16000048193E+03  0.80100412632E+03  0.41158903123E+03  0.91466655571E+03  0.12699999809E+01 0. -1.
</event>
<event>
 5   0  0.4605516E-05  0.2434584E+04  0.7818609E-02  0.8426668E-01
        2   -1    0    0  501    0  0.00000000000E+00  0.00000000000E+00  0.12682803505E+04  0.12682803505E+04  0.25500000920E-02 0. -1.
       -2   -1    0    0    0  501  0.00000000000E+00  0.00000000000E+00 -0.11683539980E+04  0.11683539980E+04  0.25500000920E-02 0.  1.
    10030    2    1    2    0    0  0.00000000000E+00  0.00000000000E+00  0.99926352536E+02  0.24366343485E+04  0.24345844968E+04 0.  0.
        1    1    3    3  502    0  0.45019848667E+03 -0.33429880729E+03 -0.10313936817E+04  0.11739707393E+04  0.50400001928E-02 0.  1.
       -1    1    3    3    0  502 -0.45019848667E+03  0.33429880729E+03  0.11313200343E+04  0.12626636092E+04  0.50400001928E-02 0. -1.
</event>
<event>
 5   0  0.2042951E-05  0.2281501E+04  0.7818609E-02  0.8485251E-01
        1   -1    0    0  501    0  0.00000000000E+00  0.00000000000E+00  0.11552653421E+04  0.11552653421E+04  0.50400001928E-02 0. -1.
       -1   -1    0    0    0  501  0.00000000000E+00  0.00000000000E+00 -0.11264180959E+04  0.11264180959E+04  0.50400001928E-02 0.  1.
    10030    2    1    2    0    0  0.00000000000E+00  0.00000000000E+00  0.28847246199E+02  0.22816834381E+04  0.22815010734E+04 0.  0.
        2    1    3    3  502    0  0.62218370359E+03 -0.88115349276E+03  0.38562407178E+03  0.11455347937E+04  0.25500000920E-02 0. -1.
       -2    1    3    3    0  502 -0.62218370359E+03  0.88115349276E+03 -0.35677682558E+03  0.11361486444E+04  0.25500000920E-02 0.  1.
</event>
<event>
 5   0  0.4798609E-05  0.2254403E+04  0.7818609E-02  0.8496119E-01
       -2   -1    0    0    0  501  0.00000000000E+00  0.00000000000E+00  0.83946485687E+03  0.83946485687E+03  0.25500000920E-02 0.  1.
        2   -1    0    0  501    0  0.00000000000E+00  0.00000000000E+00 -0.15135639488E+04  0.15135639488E+04  0.25500000920E-02 0. -1.
    10030    2    1    2    0    0  0.00000000000E+00  0.00000000000E+00 -0.67409909195E+03  0.23530288057E+04  0.22544034632E+04 0.  0.
        2    1    3    3  502    0  0.44479431910E+03 -0.85258267122E+03  0.27676343200E+03  0.10006683741E+04  0.25500000920E-02 0.  1.
       -2    1    3    3    0  502 -0.44479431910E+03  0.85258267122E+03 -0.95086252395E+03  0.13523604316E+04  0.25500000920E-02 0. -1.
</event>
<event>
 5   0  0.4605516E-05  0.2336402E+04  0.7818609E-02  0.8463705E-01
       -2   -1    0    0    0  501  0.00000000000E+00  0.00000000000E+00  0.11012082686E+04  0.11012082686E+04  0.25500000920E-02 0. -1.
        2   -1    0    0  501    0  0.00000000000E+00  0.00000000000E+00 -0.12392692522E+04  0.12392692522E+04  0.25500000920E-02 0.  1.
    10030    2    1    2    0    0  0.00000000000E+00  0.00000000000E+00 -0.13806098360E+03  0.23404775209E+04  0.23364019754E+04 0.  0.
        1    1    3    3  502    0  0.22899249590E+03 -0.10249948713E+04  0.44337080862E+03  0.11400130365E+04  0.50400001928E-02 0. -1.
       -1    1    3    3    0  502 -0.22899249590E+03  0.10249948713E+04 -0.58143179222E+03  0.12004644844E+04  0.50400001928E-02 0.  1.
</event>
<event>
 5   0  0.4602447E-05  0.2220601E+04  0.7818609E-02  0.8509902E-01
       -2   -1    0    0    0  501  0.00000000000E+00  0.00000000000E+00  0.88736797472E+03  0.88736797473E+03  0.25500000920E-02 0. -1.
        2   -1    0    0  501    0  0.00000000000E+00  0.00000000000E+00 -0.13892405897E+04  0.13892405898E+04  0.25500000920E-02 0.  1.
    10030    2    1    2    0    0  0.00000000000E+00  0.00000000000E+00 -0.50187261503E+03  0.22766085645E+04  0.22206013677E+04 0.  0.
        3    1    3    3  502    0  0.43092886762E+03 -0.79653524548E+03 -0.90947624391E+03  0.12834777500E+04  0.10100000352E+00 0.  1.
       -3    1    3    3    0  502 -0.43092886762E+03  0.79653524548E+03  0.40760362888E+03  0.99313081451E+03  0.10100000352E+00 0. -1.
</event>
<event>
 5   0  0.4798609E-05  0.2306557E+04  0.7818609E-02  0.8475340E-01
       -2   -1    0    0    0  501  0.00000000000E+00  0.00000000000E+00  0.79910192035E+03  0.79910192036E+03  0.25500000920E-02 0.  1.
        2   -1    0    0  501    0  0.00000000000E+00  0.00000000000E+00 -0.16644327561E+04  0.16644327561E+04  0.25500000920E-02 0. -1.
    10030    2    1    2    0    0  0.00000000000E+00  0.00000000000E+00 -0.86533083570E+03  0.24635346764E+04  0.23065570981E+04 0.  0.
        2    1    3    3  502    0 -0.10639031917E+04  0.44514928060E+03 -0.43065916477E+03  0.12310626302E+04  0.25500000920E-02 0. -1.
       -2    1    3    3    0  502  0.10639031917E+04 -0.44514928060E+03 -0.43467167094E+03  0.12324720462E+04  0.25500000920E-02 0.  1.
</event>
<event>
 5   0  0.2043885E-05  0.2333189E+04  0.7818609E-02  0.8464949E-01
        1   -1    0    0  501    0  0.00000000000E+00  0.00000000000E+00  0.18415455426E+04  0.18415455426E+04  0.50400001928E-02 0. -1.
       -1   -1    0    0    0  501  0.00000000000E+00  0.00000000000E+00 -0.73902230862E+03  0.73902230863E+03  0.50400001928E-02 0.  1.
    10030    2    1    2    0    0  0.00000000000E+00  0.00000000000E+00  0.11025232340E+04  0.25805678512E+04  0.23331894380E+04 0.  0.
        5    1    3    3  502    0 -0.46163172261E+03  0.24340597447E+03  0.17052292495E+04  0.17833056943E+04  0.46999998093E+01 0. -1.
       -5    1    3    3    0  502  0.46163172261E+03 -0.24340597447E+03 -0.60270601557E+03  0.79726215696E+03  0.46999998093E+01 0.  1.
</event>
<event>
 5   0  0.4505107E-05  0.2339745E+04  0.7818609E-02  0.8462413E-01
        2   -1    0    0  501    0  0.00000000000E+00  0.00000000000E+00  0.24831947248E+04  0.24831947248E+04  0.25500000920E-02 0. -1.
       -2   -1    0    0    0  501  0.00000000000E+00  0.00000000000E+00 -0.55114541753E+03  0.55114541754E+03  0.25500000920E-02 0.  1.
    10030    2    1    2    0    0  0.00000000000E+00  0.00000000000E+00  0.19320493073E+04  0.30343401424E+04  0.23397447668E+04 0.  0.
        4    1    3    3  502    0  0.11540133793E+04  0.14870141918E+03  0.80856976851E+03  0.14169141383E+04  0.12699999809E+01 0.  1.
       -4    1    3    3    0  502 -0.11540133793E+04 -0.14870141918E+03  0.11234795388E+04  0.16174260041E+04  0.12699999809E+01 0. -1.
</event>
<event>
 5   0  0.1968318E-05  0.2299441E+04  0.7818609E-02  0.8478142E-01
       -1   -1    0    0    0  501  0.00000000000E+00  0.00000000000E+00  0.77822975114E+03  0.77822975116E+03  0.50400001928E-02 0.  1.
        1   -1    0    0  501    0  0.00000000000E+00  0.00000000000E+00 -0.16985436798E+04  0.16985436798E+04  0.50400001928E-02 0. -1.
    10030    2    1    2    0    0  0.00000000000E+00  0.00000000000E+00 -0.92031392863E+03  0.24767734309E+04  0.22994409975E+04 0.  0.
        3    1    3    3  502    0  0.45990980421E+03 -0.90139384167E+03 -0.10479815435E+04  0.14568092571E+04  0.10100000352E+00 0. -1.
       -3    1    3    3    0  502 -0.45990980421E+03  0.90139384167E+03  0.12766761491E+03  0.10199641738E+04  0.10100000352E+00 0.  1.
</event>
<event>
 5   0  0.1968318E-05  0.2296695E+04  0.7818609E-02  0.8479225E-01
        1   -1    0    0  501    0  0.00000000000E+00  0.00000000000E+00  0.12894212938E+04  0.12894212938E+04  0.50400001928E-02 0.  1.
       -1   -1    0    0    0  501  0.00000000000E+00  0.00000000000E+00 -0.10227084013E+04  0.10227084013E+04  0.50400001928E-02 0. -1.
    10030    2    1    2    0    0  0.00000000000E+00  0.00000000000E+00  0.26671289249E+03  0.23121296951E+04  0.22966950081E+04 0.  0.
        3    1    3    3  502    0 -0.98424445676E+03  0.14307461793E+03  0.71123015834E+03  0.12227247627E+04  0.10100000352E+00 0.  1.
       -3    1    3    3    0  502  0.98424445676E+03 -0.14307461793E+03 -0.44451726585E+03  0.10894049324E+04  0.10100000352E+00 0. -1.
</event>
<event>
 5   0  0.4602447E-05  0.2304379E+04  0.7818609E-02  0.8476196E-01
        2   -1    0    0  501    0  0.00000000000E+00  0.00000000000E+00  0.11340004523E+04  0.11340004523E+04  0.25500000920E-02 0. -1.
       -2   -1    0    0    0  501  0.00000000000E+00  0.00000000000E+00 -0.11706707168E+04  0.11706707168E+04  0.25500000920E-02 0.  1.
    10030    2    1    2    0    0  0.00000000000E+00  0.00000000000E+00 -0.36670264571E+02  0.23046711691E+04  0.23043794152E+04 0.  0.
        3    1    3    3  502    0  0.49983255485E+03  0.93488114562E+03 -0.46973003456E+03  0.11595178545E+04  0.10100000352E+00 0.  1.
       -3    1    3    3    0  502 -0.49983255485E+03 -0.93488114562E+03  0.43305976999E+03  0.11451533146E+04  0.10100000352E+00 0. -1.
</event>
<event>
 5   0  0.1604500E-05  0.2320081E+04  0.7818609E-02  0.8470045E-01
       -3   -1    0    0    0  501  0.00000000000E+00  0.00000000000E+00  0.18527786355E+04  0.18527786382E+04  0.10100000352E+00 0. -1.
        3   -1    0    0  501    0  0.00000000000E+00  0.00000000000E+00 -0.72631108772E+03  0.72631109474E+03  0.10100000352E+00 0.  1.
    10030    2    1    2    0    0  0.00000000000E+00  0.00000000000E+00  0.11264675478E+04  0.25790897330E+04  0.23200807561E+04 0.  0.
        1    1    3    3  502    0 -0.18593175728E+03  0.85034164672E+03  0.14156811474E+04  0.16618678183E+04  0.50400001928E-02 0. -1.
       -1    1    3    3    0  502  0.18593175728E+03 -0.85034164672E+03 -0.28921359962E+03  0.91722191466E+03  0.50400001928E-02 0.  1.
</event>
<event>
 5   0  0.1968318E-05  0.2340297E+04  0.7818609E-02  0.8462200E-01
       -1   -1    0    0    0  501  0.00000000000E+00  0.00000000000E+00  0.91326702075E+03  0.91326702076E+03  0.50400001928E-02 0. -1.
        1   -1    0    0  501    0  0.00000000000E+00  0.00000000000E+00 -0.14992847945E+04  0.14992847945E+04  0.50400001928E-02 0.  1.
    10030    2    1    2    0    0  0.00000000000E+00  0.00000000000E+00 -0.58601777378E+03  0.24125518153E+04  0.23402968680E+04 0.  0.
        3    1    3    3  502    0  0.28914323481E+03  0.44001098053E+02 -0.14609978191E+04  0.14899847464E+04  0.10100000352E+00 0.  1.
       -3    1    3    3    0  502 -0.28914323481E+03 -0.44001098053E+02  0.87498004528E+03  0.92256706895E+03  0.10100000352E+00 0. -1.
</event>
<event>
 5   0  0.2031860E-05  0.2329948E+04  0.7818609E-02  0.8466206E-01
        1   -1    0    0  501    0  0.00000000000E+00  0.00000000000E+00  0.10315275440E+04  0.10315275440E+04  0.50400001928E-02 0. -1.
       -1   -1    0    0    0  501  0.00000000000E+00  0.00000000000E+00 -0.13156838626E+04  0.13156838626E+04  0.50400001928E-02 0.  1.
    10030    2    1    2    0    0  0.00000000000E+00  0.00000000000E+00 -0.28415631854E+03  0.23472114066E+04  0.23299477620E+04 0.  0.
        4    1    3    3  502    0  0.21739355948E+03  0.40457395047E+03  0.93647234323E+03  0.10430350443E+04  0.12699999809E+01 0. -1.
       -4    1    3    3    0  502 -0.21739355948E+03 -0.40457395047E+03 -0.12206286618E+04  0.13041763623E+04  0.12699999809E+01 0.  1.
</event>
<event>
 5   0  0.2043885E-05  0.2332633E+04  0.7818609E-02  0.8465164E-01
        1   -1    0    0  501    0  0.00000000000E+00  0.00000000000E+00  0.14580828981E+04  0.14580828981E+04  0.50400001928E-02 0. -1.
       -1   -1    0    0    0  501  0.00000000000E+00  0.00000000000E+00 -0.93293370284E+03  0.93293370286E+03  0.50400001928E-02 0.  1.
    10030    2    1    2    0    0  0.00000000000E+00  0.00000000000E+00  0.52514919521E+03  0.23910166009E+04  0.23326334278E+04 0.  0.
        5    1    3    3  502    0  0.20439362585E+02 -0.74415653859E+03  0.11828689343E+04  0.13976364790E+04  0.46999998093E+01 0. -1.
       -5    1    3    3    0  502 -0.20439362585E+02  0.74415653859E+03 -0.65771973913E+03  0.99338012197E+03  0.46999998093E+01 0.  1.
</event>
<event>
 5   0  0.2031860E-05  0.2280690E+04  0.7818609E-02  0.8485574E-01
        1   -1    0    0  501    0  0.00000000000E+00  0.00000000000E+00  0.16175825031E+04  0.16175825031E+04  0.50400001928E-02 0.  1.
       -1   -1    0    0    0  501  0.00000000000E+00  0.00000000000E+00 -0.80390773793E+03  0.80390773795E+03  0.50400001928E-02 0. -1.
    10030    2    1    2    0    0  0.00000000000E+00  0.00000000000E+00  0.81367476519E+03  0.24214902411E+04  0.22806903262E+04 0.  0.
        4    1    3    3  502    0 -0.79056499651E+03  0.79564903079E+03  0.62529471026E+03  0.12841516583E+04  0.12699999809E+01 0.  1.
       -4    1    3    3    0  502  0.79056499651E+03 -0.79564903079E+03  0.18838005493E+03  0.11373385828E+04  0.12699999809E+01 0. -1.
</event>
<event>
 5   0  0.4602447E-05  0.2275961E+04  0.7818609E-02  0.8487460E-01
       -2   -1    0    0    0  501  0.00000000000E+00  0.00000000000E+00  0.67523211696E+03  0.67523211697E+03  0.25500000920E-02 0. -1.
        2   -1    0    0  501    0  0.00000000000E+00  0.00000000000E+00 -0.19178590751E+04  0.19178590751E+04  0.25500000920E-02 0.  1.
    10030    2    1    2    0    0  0.00000000000E+00  0.00000000000E+00 -0.12426269582E+04  0.25930911921E+04  0.22759613734E+04 0.  0.
        3    1    3    3  502    0 -0.88978543443E+03  0.50919183199E+03 -0.58515158733E+02  0.10268488083E+04  0.10100000352E+00 0. -1.
       -3    1    3    3    0  502  0.88978543443E+03 -0.50919183199E+03 -0.11841117994E+04  0.15662423838E+04  0.10100000352E+00 0.  1.
</event>
<event>
 5   0  0.2085063E-05  0.2327857E+04  0.7818609E-02  0.8467018E-01
       -1   -1    0    0    0  501  0.00000000000E+00  0.00000000000E+00  0.90986941616E+03  0.90986941618E+03  0.50400001928E-02 0. -1.
        1   -1    0    0  501    0  0.00000000000E+00  0.00000000000E+00 -0.14889279429E+04  0.14889279429E+04  0.50400001928E-02 0.  1.
    10030    2    1    2    0    0  0.00000000000E+00  0.00000000000E+00 -0.57905852677E+03  0.23987973591E+04  0.23278573824E+04 0.  0.
        1    1    3    3  502    0  0.23519963753E+03 -0.57638440117E+03 -0.13029588385E+04  0.14440358660E+04  0.50400001928E-02 0.  1.
       -1    1    3    3    0  502 -0.23519963753E+03  0.57638440117E+03  0.72390031173E+03  0.95476149313E+03  0.50400001928E-02 0. -1.
</event>
<event>
 5   0  0.4602447E-05  0.2243459E+04  0.7818609E-02  0.8500554E-01
        2   -1    0    0  501    0  0.00000000000E+00  0.00000000000E+00  0.12658362927E+04  0.12658362927E+04  0.25500000920E-02 0.  1.
       -2   -1    0    0    0  501  0.00000000000E+00  0.00000000000E+00 -0.99402822913E+03  0.99402822914E+03  0.25500000920E-02 0. -1.
    10030    2    1    2    0    0  0.00000000000E+00  0.00000000000E+00  0.27180806355E+03  0.22598645218E+04  0.22434589440E+04 0.  0.
        3    1    3    3  502    0  0.66892445174E+02  0.11144131772E+04  0.24572268172E+03  0.11431408379E+04  0.10100000352E+00 0.  1.
       -3    1    3    3    0  502 -0.66892445174E+02 -0.11144131772E+04  0.26085381836E+02  0.11167236839E+04  0.10100000352E+00 0. -1.
</event>
<event>
 5   0  0.4505107E-05  0.2275628E+04  0.7818609E-02  0.8487593E-01
        2   -1    0    0  501    0  0.00000000000E+00  0.00000000000E+00  0.14286082389E+04  0.14286082389E+04  0.25500000920E-02 0. -1.
       -2   -1    0    0    0  501  0.00000000000E+00  0.00000000000E+00 -0.90621097666E+03  0.90621097666E+03  0.25500000920E-02 0.  1.
    10030    2    1    2    0    0  0.00000000000E+00  0.00000000000E+00  0.52239726224E+03  0.23348192156E+04  0.22756277968E+04 0.  0.
        4    1    3    3  502    0  0.16024238805E+03  0.46469060327E+03 -0.79165261020E+03  0.93184250162E+03  0.12699999809E+01 0.  1.
       -4    1    3    3    0  502 -0.16024238805E+03 -0.46469060327E+03  0.13140498724E+04  0.14029767139E+04  0.12699999809E+01 0. -1.
</event>
<event>
 5   0  0.2031860E-05  0.2289789E+04  0.7818609E-02  0.8481958E-01
        1   -1    0    0  501    0  0.00000000000E+00  0.00000000000E+00  0.13864835740E+04  0.13864835740E+04  0.50400001928E-02 0. -1.
       -1   -1    0    0    0  501  0.00000000000E+00  0.00000000000E+00 -0.94540163965E+03  0.94540163966E+03  0.50400001928E-02 0.  1.
    10030    2    1    2    0    0  0.00000000000E+00  0.00000000000E+00  0.44108193433E+03  0.23318852136E+04  0.22897893739E+04 0.  0.
        4    1    3    3  502    0 -0.60535574184E+03 -0.88514681470E+03  0.62896478399E+03  0.12431969957E+04  0.12699999809E+01 0. -1.
       -4    1    3    3    0  502  0.60535574184E+03  0.88514681470E+03 -0.18788284966E+03  0.10886882179E+04  0.12699999809E+01 0.  1.
</event>
<event>
 5   0  0.2085063E-05  0.2373250E+04  0.7818609E-02  0.8449587E-01
       -1   -1    0    0    0  501  0.00000000000E+00  0.00000000000E+00  0.81624068071E+03  0.81624068073E+03  0.50400001928E-02 0.  1.
        1   -1    0    0  501    0  0.00000000000E+00  0.00000000000E+00 -0.17250784978E+04  0.17250784978E+04  0.50400001928E-02 0. -1.
    10030    2    1    2    0    0  0.00000000000E+00  0.00000000000E+00 -0.90883781708E+03  0.25413191785E+04  0.23732503006E+04 0.  0.
        1    1    3    3  502    0  0.47766593148E+03  0.10810720790E+04 -0.56773182233E+03  0.13111830552E+04  0.50400001928E-02 0. -1.
       -1    1    3    3    0  502 -0.47766593148E+03 -0.10810720790E+04 -0.34110599475E+03  0.12301361233E+04  0.50400001928E-02 0.  1.
</event>
<event>
 5   0  0.4798609E-05  0.2315118E+04  0.7818609E-02  0.8471984E-01
       -2   -1    0    0    0  501  0.00000000000E+00  0.00000000000E+00  0.15971988765E+04  0.15971988765E+04  0.25500000920E-02 0. -1.
        2   -1    0    0  501    0  0.00000000000E+00  0.00000000000E+00 -0.83893295066E+03  0.83893295066E+03  0.25500000920E-02 0.  1.
    10030    2    1    2    0    0  0.00000000000E+00  0.00000000000E+00  0.75826592582E+03  0.24361318271E+04  0.23151179376E+04 0.  0.
        2    1    3    3  502    0 -0.73007453478E+03  0.50269196235E+03 -0.40425074345E+03  0.97423133748E+03  0.25500000920E-02 0.  1.
       -2    1    3    3    0  502  0.73007453478E+03 -0.50269196235E+03  0.11625166693E+04  0.14619004897E+04  0.25500000920E-02 0. -1.
</event>
<event>
 5   0  0.4602447E-05  0.2308854E+04  0.7818609E-02  0.8474438E-01
        2   -1    0    0  501    0  0.00000000000E+00  0.00000000000E+00  0.18045262208E+04  0.18045262208E+04  0.25500000920E-02 0.  1.
       -2   -1    0    0    0  501  0.00000000000E+00  0.00000000000E+00 -0.73853298846E+03  0.73853298846E+03  0.25500000920E-02 0. -1.
    10030    2    1    2    0    0  0.00000000000E+00  0.00000000000E+00  0.10659932323E+04  0.25430592092E+04  0.23088543848E+04 0.  0.
        3    1    3    3  502    0 -0.86485348670E+03 -0.68159244007E+03  0.91480379408E+03  0.14315745875E+04  0.10100000352E+00 0.  1.
       -3    1    3    3    0  502  0.86485348670E+03  0.68159244007E+03  0.15118943824E+03  0.11114846217E+04  0.10100000352E+00 0. -1.
</event>
<event>
 5   0  0.2031860E-05  0.2343939E+04  0.7818609E-02  0.8460795E-01
       -1   -1    0    0    0  501  0.00000000000E+00  0.00000000000E+00  0.13040459841E+04  0.13040459841E+04  0.50400001928E-02 0. -1.
        1   -1    0    0  501    0  0.00000000000E+00  0.00000000000E+00 -0.10532696439E+04  0.10532696439E+04  0.50400001928E-02 0.  1.
    10030    2    1    2    0    0  0.00000000000E+00  0.00000000000E+00  0.25077634024E+03  0.23573156280E+04  0.23439386078E+04 0.  0.
        4    1    3    3  502    0  0.66319044195E+03  0.25923023201E+03 -0.81077794957E+03  0.10790664353E+04  0.12699999809E+01 0.  1.
       -4    1    3    3    0  502 -0.66319044195E+03 -0.25923023201E+03  0.10615542898E+04  0.12782491927E+04  0.12699999809E+01 0. -1.
</event>
<event>
 5   0  0.2042951E-05  0.2272310E+04  0.7818609E-02  0.8488920E-01
       -1   -1    0    0    0  501  0.00000000000E+00  0.00000000000E+00  0.14405871036E+04  0.14405871037E+04  0.50400001928E-02 0. -1.
        1   -1    0    0  501    0  0.00000000000E+00  0.00000000000E+00 -0.89605689566E+03  0.89605689568E+03  0.50400001928E-02 0.  1.
    10030    2    1    2    0    0  0.00000000000E+00  0.00000000000E+00  0.54453020799E+03  0.23366439993E+04  0.22723098451E+04 0.  0.
        2    1    3    3  502    0  0.27503900944E+03  0.10663220371E+04 -0.15219188630E+02  0.11013268212E+04  0.25500000920E-02 0.  1.
       -2    1    3    3    0  502 -0.27503900944E+03 -0.10663220371E+04  0.55974939662E+03  0.12353171781E+04  0.25500000920E-02 0. -1.
</event>
<event>
 5   0  0.2085063E-05  0.2317758E+04  0.7818609E-02  0.8470952E-01
       -1   -1    0    0    0  501  0.00000000000E+00  0.00000000000E+00  0.10860005306E+04  0.10860005306E+04  0.50400001928E-02 0.  1.
        1   -1    0    0  501    0  0.00000000000E+00  0.00000000000E+00 -0.12366485618E+04  0.12366485618E+04  0.50400001928E-02 0. -1.
    10030    2    1    2    0    0  0.00000000000E+00  0.00000000000E+00 -0.15064803121E+03  0.23226490923E+04  0.23177583948E+04 0.  0.
        1    1    3    3  502    0 -0.54876269994E+03 -0.69261600087E+03 -0.82666842913E+03  0.12100570719E+04  0.50400001928E-02 0. -1.
       -1    1    3    3    0  502  0.54876269994E+03  0.69261600087E+03  0.67602039792E+03  0.11125920204E+04  0.50400001928E-02 0.  1.
</event>
<event>
 5   0  0.4798609E-05  0.2302697E+04  0.7818609E-02  0.8476858E-01
       -2   -1    0    0    0  501  0.00000000000E+00  0.00000000000E+00  0.64856875820E+03  0.64856875820E+03  0.25500000920E-02 0.  1.
        2   -1    0    0  501    0  0.00000000000E+00  0.00000000000E+00 -0.20438907934E+04  0.20438907934E+04  0.25500000920E-02 0. -1.
    10030    2    1    2    0    0  0.00000000000E+00  0.00000000000E+00 -0.13953220352E+04  0.26924595516E+04  0.23026972999E+04 0.  0.
        2    1    3    3  502    0 -0.28692536074E+03  0.11019503579E+04 -0.89672088171E+03  0.14493892140E+04  0.25500000920E-02 0.  1.
       -2    1    3    3    0  502  0.28692536074E+03 -0.11019503579E+04 -0.49860115346E+03  0.12430703376E+04  0.25500000920E-02 0. -1.
</event>
<event>
 5   0  0.2043885E-05  0.2195413E+04  0.7818609E-02  0.8520340E-01
       -1   -1    0    0    0  501  0.00000000000E+00  0.00000000000E+00  0.76514214817E+03  0.76514214819E+03  0.50400001928E-02 0. -1.
        1   -1    0    0  501    0  0.00000000000E+00  0.00000000000E+00 -0.15748183529E+04  0.15748183529E+04  0.50400001928E-02 0.  1.
    10030    2    1    2    0    0  0.00000000000E+00  0.00000000000E+00 -0.80967620476E+03  0.23399605011E+04  0.21954133074E+04 0.  0.
        5    1    3    3  502    0  0.69307372942E+03 -0.51392860683E+03 -0.11280908217E+04  0.14202411061E+04  0.46999998093E+01 0.  1.
       -5    1    3    3    0  502 -0.69307372942E+03  0.51392860683E+03  0.31841461697E+03  0.91971939505E+03  0.46999998093E+01 0. -1.
</event>
<event>
 5   0  0.1968318E-05  0.2329822E+04  0.7818609E-02  0.8466255E-01
       -1   -1    0    0    0  501  0.00000000000E+00  0.00000000000E+00  0.12226184959E+04  0.12226184959E+04  0.50400001928E-02 0. -1.
        1   -1    0    0  501    0  0.00000000000E+00  0.00000000000E+00 -0.11099271035E+04  0.11099271035E+04  0.50400001928E-02 0.  1.
    10030    2    1    2    0    0  0.00000000000E+00  0.00000000000E+00  0.11269139245E+03  0.23325455994E+04  0.23298218008E+04 0.  0.
        3    1    3    3  502    0  0.76255056743E+03  0.78006476369E+02  0.93455364280E+03  0.12087013278E+04  0.10100000352E+00 0. -1.
       -3    1    3    3    0  502 -0.76255056743E+03 -0.78006476369E+02 -0.82186225035E+03  0.11238442717E+04  0.10100000352E+00 0.  1.
</event>
<event>
 5   0  0.4602447E-05  0.2322507E+04  0.7818609E-02  0.8469100E-01
        2   -1    0    0  501    0  0.00000000000E+00  0.00000000000E+00  0.10167737366E+04  0.10167737366E+04  0.25500000920E-02 0. -1.
       -2   -1    0    0    0  501  0.00000000000E+00  0.00000000000E+00 -0.13262630272E+04  0.13262630272E+04  0.25500000920E-02 0.  1.
    10030    2    1    2    0    0  0.00000000000E+00  0.00000000000E+00 -0.30948929063E+03  0.23430367637E+04  0.23225067611E+04 0.  0.
        3    1    3    3  502    0  0.56323177842E+03  0.79730507517E+03 -0.78925902149E+03  0.12553307263E+04  0.10100000352E+00 0.  1.
       -3    1    3    3    0  502 -0.56323177842E+03 -0.79730507517E+03  0.47976973086E+03  0.10877060375E+04  0.10100000352E+00 0. -1.
</event>
<event>
 5   0  0.4602447E-05  0.2292091E+04  0.7818609E-02  0.8481046E-01
       -2   -1    0    0    0  501  0.00000000000E+00  0.00000000000E+00  0.12842796828E+04  0.12842796828E+04  0.25500000920E-02 0. -1.
        2   -1    0    0  501    0  0.00000000000E+00  0.00000000000E+00 -0.10226905431E+04  0.10226905431E+04  0.25500000920E-02 0.  1.
    10030    2    1    2    0    0  0.00000000000E+00  0.00000000000E+00  0.26158913969E+03  0.23069702259E+04  0.22920913475E+04 0.  0.
        3    1    3    3  502    0  0.78374796323E+03 -0.33531701402E+03 -0.64015570509E+03  0.10660664645E+04  0.10100000352E+00 0.  1.
       -3    1    3    3    0  502 -0.78374796323E+03  0.33531701402E+03  0.90174484478E+03  0.12409037614E+04  0.10100000352E+00 0. -1.
</event>
<event>
 5   0  0.2085063E-05  0.2259956E+04  0.7818609E-02  0.8493879E-01
        1   -1    0    0  501    0  0.00000000000E+00  0.00000000000E+00  0.20352876381E+04  0.20352876381E+04  0.50400001928E-02 0. -1.
       -1   -1    0    0    0  501  0.00000000000E+00  0.00000000000E+00 -0.62735645390E+03  0.62735645392E+03  0.50400001928E-02 0.  1.
    10030    2    1    2    0    0  0.00000000000E+00  0.00000000000E+00  0.14079311842E+04  0.26626440920E+04  0.22599564910E+04 0.  0.
        1    1    3    3  502    0 -0.93179869649E+03 -0.56239789734E+03  0.34600196678E+03  0.11420409654E+04  0.50400001928E-02 0.  1.
       -1    1    3    3    0  502  0.93179869649E+03  0.56239789734E+03  0.10619292174E+04  0.15206031265E+04  0.50400001928E-02 0. -1.
</event>
<event>
 5   0  0.4605516E-05  0.2300599E+04  0.7818609E-02  0.8477685E-01
       -2   -1    0    0    0  501  0.00000000000E+00  0.00000000000E+00  0.61758307452E+03  0.61758307453E+03  0.25500000920E-02 0. -1.
        2   -1    0    0  501    0  0.00000000000E+00  0.00000000000E+00 -0.21425281070E+04  0.21425281070E+04  0.25500000920E-02 0.  1.
    10030    2    1    2    0    0  0.00000000000E+00  0.00000000000E+00 -0.15249450325E+04  0.27601111815E+04  0.23005991355E+04 0.  0.
        1    1    3    3  502    0  0.10235696490E+04  0.11237012999E+03 -0.14736102140E+03  0.10402101437E+04  0.50400001928E-02 0. -1.
       -1    1    3    3    0  502 -0.10235696490E+04 -0.11237012999E+03 -0.13775840111E+04  0.17199010378E+04  0.50400001928E-02 0.  1.
</event>
<event>
 5   0  0.2042951E-05  0.2277031E+04  0.7818609E-02  0.8487033E-01
        1   -1    0    0  501    0  0.00000000000E+00  0.00000000000E+00  0.15185214634E+04  0.15185214634E+04  0.50400001928E-02 0. -1.
       -1   -1    0    0    0  501  0.00000000000E+00  0.00000000000E+00 -0.85360526676E+03  0.85360526678E+03  0.50400001928E-02 0.  1.
    10030    2    1    2    0    0  0.00000000000E+00  0.00000000000E+00  0.66491619664E+03  0.23721267302E+04  0.22770313295E+04 0.  0.
        2    1    3    3  502    0 -0.10064574982E+04 -0.12024205550E+02  0.88676665205E+03  0.13414381731E+04  0.25500000920E-02 0. -1.
       -2    1    3    3    0  502  0.10064574982E+04  0.12024205550E+02 -0.22185045540E+03  0.10306885571E+04  0.25500000920E-02 0.  1.
</event>
<event>
 5   0  0.2085063E-05  0.2296265E+04  0.7818609E-02  0.8479395E-01
        1   -1    0    0  501    0  0.00000000000E+00  0.00000000000E+00  0.13575558493E+04  0.13575558493E+04  0.50400001928E-02 0. -1.
       -1   -1    0    0    0  501  0.00000000000E+00  0.00000000000E+00 -0.97101577449E+03  0.97101577450E+03  0.50400001928E-02 0.  1.
    10030    2    1    2    0    0  0.00000000000E+00  0.00000000000E+00  0.38654007483E+03  0.23285716238E+04  0.22962649189E+04 0.  0.
        1    1    3    3  502    0 -0.91964038059E+03 -0.11487939859E+03 -0.49396105765E+03  0.10502062808E+04  0.50400001928E-02 0. -1.
       -1    1    3    3    0  502  0.91964038059E+03  0.11487939859E+03  0.88050113248E+03  0.12783653430E+04  0.50400001928E-02 0.  1.
</event>
<event>
 5   0  0.1604500E-05  0.2283767E+04  0.7818609E-02  0.8484349E-01
        4   -1    0    0  501    0  0.00000000000E+00  0.00000000000E+00  0.91047331031E+03  0.91047419605E+03  0.12699999809E+01 0. -1.
       -4   -1    0    0    0  501  0.00000000000E+00  0.00000000000E+00 -0.14321082233E+04  0.14321087865E+04  0.12699999809E+01 0.  1.
    10030    2    1    2    0    0  0.00000000000E+00  0.00000000000E+00 -0.52163491302E+03  0.23425829825E+04  0.22837670738E+04 0.  0.
        4    1    3    3  502    0 -0.89311648869E+03  0.10563967554E+03 -0.98255731576E+03  0.13320049906E+04  0.12699999809E+01 0.  1.
       -4    1    3    3    0  502  0.89311648869E+03 -0.10563967554E+03  0.46092240273E+03  0.10105779919E+04  0.12699999809E+01 0. -1.
</event>
<event>
 5   0  0.4605516E-05  0.2307271E+04  0.7818609E-02  0.8475060E-01
       -2   -1    0    0    0  501  0.00000000000E+00  0.00000000000E+00  0.86149087496E+03  0.86149087497E+03  0.25500000920E-02 0. -1.
        2   -1    0    0  501    0  0.00000000000E+00  0.00000000000E+00 -0.15448510816E+04  0.15448510816E+04  0.25500000920E-02 0.  1.
    10030    2    1    2    0    0  0.00000000000E+00  0.00000000000E+00 -0.68336020659E+03  0.24063419565E+04  0.23072712107E+04 0.  0.
        1    1    3    3  502    0 -0.10779238204E+03 -0.48683272829E+03 -0.14266619073E+04  0.15112873653E+04  0.50400001928E-02 0.  1.
       -1    1    3    3    0  502  0.10779238204E+03  0.48683272829E+03  0.74330170068E+03  0.89505459119E+03  0.50400001928E-02 0. -1.
</event>
<event>
 5   0  0.2042951E-05  0.2302485E+04  0.7818609E-02  0.8476942E-01
        1   -1    0    0  501    0  0.00000000000E+00  0.00000000000E+00  0.12648680601E+04  0.12648680601E+04  0.50400001928E-02 0. -1.
       -1   -1    0    0    0  501  0.00000000000E+00  0.00000000000E+00 -0.10478242856E+04  0.10478242857E+04  0.50400001928E-02 0.  1.
    10030    2    1    2    0    0  0.00000000000E+00  0.00000000000E+00  0.21704377446E+03  0.23126923458E+04  0.23024851544E+04 0.  0.
        2    1    3    3  502    0  0.14597671344E+03  0.93391614471E+02 -0.10346484514E+04  0.10490608240E+04  0.25500000920E-02 0.  1.
       -2    1    3    3    0  502 -0.14597671344E+03 -0.93391614471E+02  0.12516922258E+04  0.12636315217E+04  0.25500000920E-02 0. -1.
</event>
<event>
 5   0  0.2042951E-05  0.2278522E+04  0.7818609E-02  0.8486438E-01
       -1   -1    0    0    0  501  0.00000000000E+00  0.00000000000E+00  0.11740766775E+04  0.11740766775E+04  0.50400001928E-02 0.  1.
        1   -1    0    0  501    0  0.00000000000E+00  0.00000000000E+00 -0.11054776720E+04  0.11054776720E+04  0.50400001928E-02 0. -1.
    10030    2    1    2    0    0  0.00000000000E+00  0.00000000000E+00  0.68599005549E+02  0.22795543495E+04  0.22785219351E+04 0.  0.
        2    1    3    3  502    0 -0.51445148661E+03  0.21459610332E+03  0.10283309677E+04  0.11696907278E+04  0.25500000920E-02 0.  1.
       -2    1    3    3    0  502  0.51445148661E+03 -0.21459610332E+03 -0.95973196214E+03  0.11098636217E+04  0.25500000920E-02 0. -1.
</event>
<event>
 5   0  0.4798609E-05  0.2278937E+04  0.7818609E-02  0.8486273E-01
        2   -1    0    0  501    0  0.00000000000E+00  0.00000000000E+00  0.12581715298E+04  0.12581715298E+04  0.25500000920E-02 0.  1.
       -2   -1    0    0    0  501  0.00000000000E+00  0.00000000000E+00 -0.10319645295E+04  0.10319645295E+04  0.25500000920E-02 0. -1.
    10030    2    1    2    0    0  0.00000000000E+00  0.00000000000E+00  0.22620700023E+03  0.22901360593E+04  0.22789369371E+04 0.  0.
        2    1    3    3  502    0 -0.80796339736E+03 -0.48681589518E+03 -0.52925115553E+03  0.10816197820E+04  0.25500000920E-02 0. -1.
       -2    1    3    3    0  502  0.80796339736E+03  0.48681589518E+03  0.75545815576E+03  0.12085162773E+04  0.25500000920E-02 0.  1.
</event>
<event>
 5   0  0.1968318E-05  0.2272967E+04  0.7818609E-02  0.8488657E-01
       -1   -1    0    0    0  501  0.00000000000E+00  0.00000000000E+00  0.81191064811E+03  0.81191064812E+03  0.50400001928E-02 0. -1.
        1   -1    0    0  501    0  0.00000000000E+00  0.00000000000E+00 -0.15908085957E+04  0.15908085957E+04  0.50400001928E-02 0.  1.
    10030    2    1    2    0    0  0.00000000000E+00  0.00000000000E+00 -0.77889794763E+03  0.24027192439E+04  0.22729667292E+04 0.  0.
        3    1    3    3  502    0  0.10894764708E+04 -0.18943844460E+03 -0.11228190158E+03  0.11115093973E+04  0.10100000352E+00 0. -1.
       -3    1    3    3    0  502 -0.10894764708E+04  0.18943844460E+03 -0.66661604604E+03  0.12912098465E+04  0.10100000352E+00 0.  1.
</event>
<event>
 5   0  0.4436695E-05  0.2375314E+04  0.7818609E-02  0.8448804E-01
        2   -1    0    0  501    0  0.00000000000E+00  0.00000000000E+00  0.19783136753E+04  0.19783136753E+04  0.25500000920E-02 0.  1.
       -2   -1    0    0    0  501  0.00000000000E+00  0.00000000000E+00 -0.71299583042E+03  0.71299583042E+03  0.25500000920E-02 0. -1.
    10030    2    1    2    0    0  0.00000000000E+00  0.00000000000E+00  0.12653178449E+04  0.26913095057E+04  0.23753142123E+04 0.  0.
        5    1    3    3  502    0 -0.19643627376E+03 -0.16920406985E+03 -0.68053082271E+03  0.72825923788E+03  0.46999998093E+01 0. -1.
       -5    1    3    3    0  502  0.19643627376E+03  0.16920406985E+03  0.19458486676E+04  0.19630502678E+04  0.46999998093E+01 0.  1.
</event>
<event>
 5   0  0.1968318E-05  0.2319890E+04  0.7818609E-02  0.8470120E-01
        1   -1    0    0  501    0  0.00000000000E+00  0.00000000000E+00  0.14619525233E+04  0.14619525233E+04  0.50400001928E-02 0. -1.
       -1   -1    0    0    0  501  0.00000000000E+00  0.00000000000E+00 -0.92032578813E+03  0.92032578815E+03  0.50400001928E-02 0.  1.
    10030    2    1    2    0    0  0.00000000000E+00  0.00000000000E+00  0.54162673520E+03  0.23822783115E+04  0.23198901769E+04 0.  0.
        3    1    3    3  502    0 -0.19309041776E+03 -0.83220143732E+03  0.10765345228E+04  0.13743251910E+04  0.10100000352E+00 0. -1.
       -3    1    3    3    0  502  0.19309041776E+03  0.83220143732E+03 -0.53490778756E+03  0.10079531205E+04  0.10100000352E+00 0.  1.
</event>
<event>
 5   0  0.4798609E-05  0.2309286E+04  0.7818609E-02  0.8474269E-01
        2   -1    0    0  501    0  0.00000000000E+00  0.00000000000E+00  0.11827501020E+04  0.11827501020E+04  0.25500000920E-02 0. -1.
       -2   -1    0    0    0  501  0.00000000000E+00  0.00000000000E+00 -0.11272041780E+04  0.11272041780E+04  0.25500000920E-02 0.  1.
    10030    2    1    2    0    0  0.00000000000E+00  0.00000000000E+00  0.55545924006E+02  0.23099542800E+04  0.23092863456E+04 0.  0.
        2    1    3    3  502    0  0.42719390162E+03  0.70193294562E+03 -0.78363141160E+03  0.11354658423E+04  0.25500000920E-02 0.  1.
       -2    1    3    3    0  502 -0.42719390162E+03 -0.70193294562E+03  0.83917733561E+03  0.11744884377E+04  0.25500000920E-02 0. -1.
</event>
<event>
 5   0  0.4798609E-05  0.2040316E+04  0.7818609E-02  0.8588000E-01
       -2   -1    0    0    0  501  0.00000000000E+00  0.00000000000E+00  0.72984065100E+03  0.72984065100E+03  0.25500000920E-02 0.  1.
        2   -1    0    0  501    0  0.00000000000E+00  0.00000000000E+00 -0.14259577292E+04  0.14259577292E+04  0.25500000920E-02 0. -1.
    10030    2    1    2    0    0  0.00000000000E+00  0.00000000000E+00 -0.69611707823E+03  0.21557983802E+04  0.20403155809E+04 0.  0.
        2    1    3    3  502    0  0.67155601604E+03  0.75963305626E+03 -0.22902296790E+03  0.10394620641E+04  0.25500000920E-02 0.  1.
       -2    1    3    3    0  502 -0.67155601604E+03 -0.75963305626E+03 -0.46709411034E+03  0.11163363162E+04  0.25500000920E-02 0. -1.
</event>
<event>
 5   0  0.2085063E-05  0.2210347E+04  0.7818609E-02  0.8514134E-01
        1   -1    0    0  501    0  0.00000000000E+00  0.00000000000E+00  0.12531569168E+04  0.12531569169E+04  0.50400001928E-02 0. -1.
       -1   -1    0    0    0  501  0.00000000000E+00  0.00000000000E+00 -0.97466536660E+03  0.97466536662E+03  0.50400001928E-02 0.  1.
    10030    2    1    2    0    0  0.00000000000E+00  0.00000000000E+00  0.27849155024E+03  0.22278222835E+04  0.22103471635E+04 0.  0.
        1    1    3    3  502    0  0.31769463578E+03  0.27319100016E+02  0.12057858572E+04  0.12472352417E+04  0.50400001928E-02 0. -1.
       -1    1    3    3    0  502 -0.31769463578E+03 -0.27319100016E+02 -0.92729430691E+03  0.98058704176E+03  0.50400001928E-02 0.  1.
</event>
<event>
 5   0  0.4602447E-05  0.2443796E+04  0.7818609E-02  0.8423287E-01
       -2   -1    0    0    0  501  0.00000000000E+00  0.00000000000E+00  0.10623916978E+04  0.10623916978E+04  0.25500000920E-02 0.  1.
        2   -1    0    0  501    0  0.00000000000E+00  0.00000000000E+00 -0.14053518638E+04  0.14053518638E+04  0.25500000920E-02 0. -1.
    10030    2    1    2    0    0  0.00000000000E+00  0.00000000000E+00 -0.34296016591E+03  0.24677435616E+04  0.24437955337E+04 0.  0.
        3    1    3    3  502    0  0.22843593420E+03 -0.12000174534E+04 -0.20020666685E+03  0.12378641219E+04  0.10100000352E+00 0.  1.
       -3    1    3    3    0  502 -0.22843593420E+03  0.12000174534E+04 -0.14275349906E+03  0.12298794397E+04  0.10100000352E+00 0. -1.
</event>
<event>
 5   0  0.4798609E-05  0.2279602E+04  0.7818609E-02  0.8486007E-01
        2   -1    0    0  501    0  0.00000000000E+00  0.00000000000E+00  0.15828407228E+04  0.15828407228E+04  0.25500000920E-02 0.  1.
       -2   -1    0    0    0  501  0.00000000000E+00  0.00000000000E+00 -0.82076884356E+03  0.82076884357E+03  0.25500000920E-02 0. -1.
    10030    2    1    2    0    0  0.00000000000E+00  0.00000000000E+00  0.76207187927E+03  0.24036095664E+04  0.22796020263E+04 0.  0.
        2    1    3    3  502    0 -0.57925058953E+03 -0.88686715802E+03 -0.62666472646E+02  0.10611275551E+04  0.25500000920E-02 0. -1.
       -2    1    3    3    0  502  0.57925058953E+03  0.88686715802E+03  0.82473835192E+03  0.13424820113E+04  0.25500000920E-02 0.  1.
</event>
<event>
 5   0  0.1968318E-05  0.2265187E+04  0.7818609E-02  0.8491775E-01
       -1   -1    0    0    0  501  0.00000000000E+00  0.00000000000E+00  0.91071935336E+03  0.91071935338E+03  0.50400001928E-02 0. -1.
        1   -1    0    0  501    0  0.00000000000E+00  0.00000000000E+00 -0.14085218708E+04  0.14085218708E+04  0.50400001928E-02 0.  1.
    10030    2    1    2    0    0  0.00000000000E+00  0.00000000000E+00 -0.49780251740E+03  0.23192412242E+04  0.22651870805E+04 0.  0.
        3    1    3    3  502    0 -0.63667062584E+03  0.44285229437E+03 -0.10940072729E+04  0.13410143787E+04  0.10100000352E+00 0.  1.
       -3    1    3    3    0  502  0.63667062584E+03 -0.44285229437E+03  0.59620475554E+03  0.97822684545E+03  0.10100000352E+00 0. -1.
</event>
<event>
 5   0  0.1968318E-05  0.1893551E+04  0.7818609E-02  0.8658073E-01
       -1   -1    0    0    0  501  0.00000000000E+00  0.00000000000E+00  0.36704814099E+03  0.36704814102E+03  0.50400001928E-02 0.  1.
        1   -1    0    0  501    0  0.00000000000E+00  0.00000000000E+00 -0.24421422504E+04  0.24421422504E+04  0.50400001928E-02 0. -1.
    10030    2    1    2    0    0  0.00000000000E+00  0.00000000000E+00 -0.20750941094E+04  0.28091903914E+04  0.18935509215E+04 0.  0.
        3    1    3    3  502    0 -0.22564874140E+03  0.47927042231E+02  0.32471796786E+03  0.39831661367E+03  0.10100000352E+00 0.  1.
       -3    1    3    3    0  502  0.22564874140E+03 -0.47927042231E+02 -0.23998120773E+04  0.24108737777E+04  0.10100000352E+00 0. -1.
</event>
<event>
 5   0  0.2031860E-05  0.2283374E+04  0.7818609E-02  0.8484505E-01
        1   -1    0    0  501    0  0.00000000000E+00  0.00000000000E+00  0.19880944808E+04  0.19880944808E+04  0.50400001928E-02 0.  1.
       -1   -1    0    0    0  501  0.00000000000E+00  0.00000000000E+00 -0.65562739622E+03  0.65562739624E+03  0.50400001928E-02 0. -1.
    10030    2    1    2    0    0  0.00000000000E+00  0.00000000000E+00  0.13324670846E+04  0.26437218770E+04  0.22833740017E+04 0.  0.
        4    1    3    3  502    0 -0.14667477183E+03 -0.48806595845E+03 -0.51662253945E+03  0.72568748760E+03  0.12699999809E+01 0. -1.
       -4    1    3    3    0  502  0.14667477183E+03  0.48806595845E+03  0.18490896240E+04  0.19180343894E+04  0.12699999809E+01 0.  1.
</event>
<event>
 5   0  0.4602447E-05  0.2293518E+04  0.7818609E-02  0.8480481E-01
       -2   -1    0    0    0  501  0.00000000000E+00  0.00000000000E+00  0.85709695366E+03  0.85709695366E+03  0.25500000920E-02 0. -1.
        2   -1    0    0  501    0  0.00000000000E+00  0.00000000000E+00 -0.15343146817E+04  0.15343146817E+04  0.25500000920E-02 0.  1.
    10030    2    1    2    0    0  0.00000000000E+00  0.00000000000E+00 -0.67721772800E+03  0.23914116353E+04  0.22935182054E+04 0.  0.
        3    1    3    3  502    0  0.99650381912E+03  0.55141467533E+03 -0.19880217455E+03  0.11561143198E+04  0.10100000352E+00 0.  1.
       -3    1    3    3    0  502 -0.99650381912E+03 -0.55141467533E+03 -0.47841555344E+03  0.12352973155E+04  0.10100000352E+00 0. -1.
</event>
<event>
 5   0  0.4798609E-05  0.2470050E+04  0.7818609E-02  0.8413734E-01
        2   -1    0    0  501    0  0.00000000000E+00  0.00000000000E+00  0.13939915805E+04  0.13939915805E+04  0.25500000920E-02 0. -1.
       -2   -1    0    0    0  501  0.00000000000E+00  0.00000000000E+00 -0.10941863863E+04  0.10941863863E+04  0.25500000920E-02 0.  1.
    10030    2    1    2    0    0  0.00000000000E+00  0.00000000000E+00  0.29980519420E+03  0.24881779667E+04  0.24700498861E+04 0.  0.
        2    1    3    3  502    0 -0.11789848318E+04 -0.23037504031E+03  0.43872750990E+03  0.12788900347E+04  0.25500000920E-02 0.  1.
       -2    1    3    3    0  502  0.11789848318E+04  0.23037504031E+03 -0.13892231570E+03  0.12092879321E+04  0.25500000920E-02 0. -1.
</event>
<event>
 5   0  0.4505107E-05  0.2307129E+04  0.7818609E-02  0.8475116E-01
       -2   -1    0    0    0  501  0.00000000000E+00  0.00000000000E+00  0.92644073789E+03  0.92644073790E+03  0.25500000920E-02 0. -1.
        2   -1    0    0  501    0  0.00000000000E+00  0.00000000000E+00 -0.14363693878E+04  0.14363693878E+04  0.25500000920E-02 0.  1.
    10030    2    1    2    0    0  0.00000000000E+00  0.00000000000E+00 -0.50992864990E+03  0.23628101257E+04  0.23071290519E+04 0.  0.
        4    1    3    3  502    0  0.22546335450E+03 -0.36699663374E+03  0.84099785245E+03  0.94488055019E+03  0.12699999809E+01 0. -1.
       -4    1    3    3    0  502 -0.22546335450E+03  0.36699663374E+03 -0.13509265024E+04  0.14179295755E+04  0.12699999809E+01 0.  1.
</event>
<event>
 5   0  0.2042951E-05  0.2292853E+04  0.7818609E-02  0.8480745E-01
       -1   -1    0    0    0  501  0.00000000000E+00  0.00000000000E+00  0.12900111440E+04  0.12900111441E+04  0.50400001928E-02 0.  1.
        1   -1    0    0  501    0  0.00000000000E+00  0.00000000000E+00 -0.10188231176E+04  0.10188231176E+04  0.50400001928E-02 0. -1.
    10030    2    1    2    0    0  0.00000000000E+00  0.00000000000E+00  0.27118802648E+03  0.23088342616E+04  0.22928525251E+04 0.  0.
        2    1    3    3  502    0 -0.77962086551E+03  0.59642446281E+03 -0.46078605008E+03  0.10843683035E+04  0.25500000920E-02 0. -1.
       -2    1    3    3    0  502  0.77962086551E+03 -0.59642446281E+03  0.73197407656E+03  0.12244659581E+04  0.25500000920E-02 0.  1.
</event>
<event>
 5   0  0.1604500E-05  0.2286831E+04  0.7818609E-02  0.8483131E-01
       -3   -1    0    0    0  501  0.00000000000E+00  0.00000000000E+00  0.62672604599E+03  0.62672605413E+03  0.10100000352E+00 0.  1.
        3   -1    0    0  501    0  0.00000000000E+00  0.00000000000E+00 -0.20860781375E+04  0.20860781400E+04  0.10100000352E+00 0. -1.
    10030    2    1    2    0    0  0.00000000000E+00  0.00000000000E+00 -0.14593520916E+04  0.27128041941E+04  0.22868314473E+04 0.  0.
        3    1    3    3  502    0  0.65906843874E+02  0.71738715050E+02 -0.20811462436E+04  0.20834250293E+04  0.10100000352E+00 0. -1.
       -3    1    3    3    0  502 -0.65906843874E+02 -0.71738715050E+02  0.62179415207E+03  0.62937916478E+03  0.10100000352E+00 0.  1.
</event>
<event>
 5   0  0.4605516E-05  0.2500983E+04  0.7818609E-02  0.8402635E-01
       -2   -1    0    0    0  501  0.00000000000E+00  0.00000000000E+00  0.12928695198E+04  0.12928695198E+04  0.25500000920E-02 0.  1.
        2   -1    0    0  501    0  0.00000000000E+00  0.00000000000E+00 -0.12095023585E+04  0.12095023585E+04  0.25500000920E-02 0. -1.
    10030    2    1    2    0    0  0.00000000000E+00  0.00000000000E+00  0.83367161294E+02  0.25023718782E+04  0.25009827935E+04 0.  0.
        1    1    3    3  502    0 -0.24955122592E+03  0.11561864484E+03 -0.11788649511E+04  0.12105230516E+04  0.50400001928E-02 0. -1.
       -1    1    3    3    0  502  0.24955122592E+03 -0.11561864484E+03  0.12622321124E+04  0.12918488267E+04  0.50400001928E-02 0.  1.
</event>
<event>
 5   0  0.4798609E-05  0.2325198E+04  0.7818609E-02  0.8468052E-01
       -2   -1    0    0    0  501  0.00000000000E+00  0.00000000000E+00  0.13392617868E+04  0.13392617868E+04  0.25500000920E-02 0. -1.
        2   -1    0    0  501    0  0.00000000000E+00  0.00000000000E+00 -0.10092398222E+04  0.10092398222E+04  0.25500000920E-02 0.  1.
    10030    2    1    2    0    0  0.00000000000E+00  0.00000000000E+00  0.33002196464E+03  0.23485016090E+04  0.23251979078E+04 0.  0.
        2    1    3    3  502    0 -0.32306338162E+03 -0.57046603978E+03  0.11347558864E+04  0.13105237018E+04  0.25500000920E-02 0. -1.
       -2    1    3    3    0  502  0.32306338162E+03  0.57046603978E+03 -0.80473392180E+03  0.10379779073E+04  0.25500000920E-02 0.  1.
</event>
<event>
 5   0  0.2085063E-05  0.2271766E+04  0.7818609E-02  0.8489137E-01
       -1   -1    0    0    0  501  0.00000000000E+00  0.00000000000E+00  0.12563421673E+04  0.12563421673E+04  0.50400001928E-02 0. -1.
        1   -1    0    0  501    0  0.00000000000E+00  0.00000000000E+00 -0.10269736641E+04  0.10269736641E+04  0.50400001928E-02 0.  1.
    10030    2    1    2    0    0  0.00000000000E+00  0.00000000000E+00  0.22936850320E+03  0.22833158313E+04  0.22717661137E+04 0.  0.
        1    1    3    3  502    0 -0.51978043723E+03 -0.21583422634E+03  0.11063483582E+04  0.12412746698E+04  0.50400001928E-02 0. -1.
       -1    1    3    3    0  502  0.51978043723E+03  0.21583422634E+03 -0.87697985502E+03  0.10420411615E+04  0.50400001928E-02 0.  1.
</event>
<event>
 5   0  0.1968318E-05  0.2313704E+04  0.7818609E-02  0.8472538E-01
        1   -1    0    0  501    0  0.00000000000E+00  0.00000000000E+00  0.21855463033E+04  0.21855463033E+04  0.50400001928E-02 0. -1.
       -1   -1    0    0    0  501  0.00000000000E+00  0.00000000000E+00 -0.61234393923E+03  0.61234393926E+03  0.50400001928E-02 0.  1.
    10030    2    1    2    0    0  0.00000000000E+00  0.00000000000E+00  0.15732023640E+04  0.27978902425E+04  0.23137035530E+04 0.  0.
        3    1    3    3  502    0  0.94090485463E+02 -0.75391443166E+03  0.18415566559E+04  0.19921272341E+04  0.10100000352E+00 0. -1.
       -3    1    3    3    0  502 -0.94090485463E+02  0.75391443166E+03 -0.26835429181E+03  0.80576300849E+03  0.10100000352E+00 0.  1.
</event>
<event>
 5   0  0.2031860E-05  0.2131469E+04  0.7818609E-02  0.8547506E-01
       -1   -1    0    0    0  501  0.00000000000E+00  0.00000000000E+00  0.71273601885E+03  0.71273601887E+03  0.50400001928E-02 0. -1.
        1   -1    0    0  501    0  0.00000000000E+00  0.00000000000E+00 -0.15935636703E+04  0.15935636703E+04  0.50400001928E-02 0.  1.
    10030    2    1    2    0    0  0.00000000000E+00  0.00000000000E+00 -0.88082765148E+03  0.23062996892E+04  0.21314691893E+04 0.  0.
        4    1    3    3  502    0 -0.96270740570E+03 -0.26665644516E+02 -0.93421501671E+03  0.13417436104E+04  0.12699999809E+01 0.  1.
       -4    1    3    3    0  502  0.96270740570E+03  0.26665644516E+02  0.53387365225E+02  0.96455607886E+03  0.12699999809E+01 0. -1.
</event>
<event>
 5   0  0.1968318E-05  0.2306852E+04  0.7818609E-02  0.8475224E-01
        1   -1    0    0  501    0  0.00000000000E+00  0.00000000000E+00  0.10653750131E+04  0.10653750131E+04  0.50400001928E-02 0. -1.
       -1   -1    0    0    0  501  0.00000000000E+00  0.00000000000E+00 -0.12487541323E+04  0.12487541323E+04  0.50400001928E-02 0.  1.
    10030    2    1    2    0    0  0.00000000000E+00  0.00000000000E+00 -0.18337911921E+03  0.23141291453E+04  0.23068519241E+04 0.  0.
        3    1    3    3  502    0  0.94004016097E+03  0.30708387996E+03  0.50382903850E+03  0.11098737423E+04  0.10100000352E+00 0. -1.
       -3    1    3    3    0  502 -0.94004016097E+03 -0.30708387996E+03 -0.68720815771E+03  0.12042554031E+04  0.10100000352E+00 0.  1.
</event>
<event>
 5   0  0.4602447E-05  0.2336313E+04  0.7818609E-02  0.8463739E-01
        2   -1    0    0  501    0  0.00000000000E+00  0.00000000000E+00  0.12140210467E+04  0.12140210467E+04  0.25500000920E-02 0. -1.
       -2   -1    0    0    0  501  0.00000000000E+00  0.00000000000E+00 -0.11240246632E+04  0.11240246632E+04  0.25500000920E-02 0.  1.
    10030    2    1    2    0    0  0.00000000000E+00  0.00000000000E+00  0.89996383451E+02  0.23380457099E+04  0.23363129912E+04 0.  0.
        3    1    3    3  502    0 -0.87673267215E+03 -0.77165930512E+03  0.66724345400E+02  0.11698591411E+04  0.10100000352E+00 0.  1.
       -3    1    3    3    0  502  0.87673267215E+03  0.77165930512E+03  0.23272038051E+02  0.11681865688E+04  0.10100000352E+00 0. -1.
</event>
<event>
 5   0  0.2042951E-05  0.2297924E+04  0.7818609E-02  0.8478740E-01
        1   -1    0    0  501    0  0.00000000000E+00  0.00000000000E+00  0.14658221079E+04  0.14658221079E+04  0.50400001928E-02 0. -1.
       -1   -1    0    0    0  501  0.00000000000E+00  0.00000000000E+00 -0.90059591064E+03  0.90059591065E+03  0.50400001928E-02 0.  1.
    10030    2    1    2    0    0  0.00000000000E+00  0.00000000000E+00  0.56522619722E+03  0.23664180185E+04  0.22979237551E+04 0.  0.
        2    1    3    3  502    0  0.15460728466E+02  0.20442238810E+03 -0.88160906273E+03  0.90513097747E+03  0.25500000920E-02 0.  1.
       -2    1    3    3    0  502 -0.15460728466E+02 -0.20442238810E+03  0.14468352600E+04  0.14612870410E+04  0.25500000920E-02 0. -1.
</event>
<event>
 5   0  0.4605516E-05  0.2288897E+04  0.7818609E-02  0.8482312E-01
       -2   -1    0    0    0  501  0.00000000000E+00  0.00000000000E+00  0.14568940442E+04  0.14568940442E+04  0.25500000920E-02 0.  1.
        2   -1    0    0  501    0  0.00000000000E+00  0.00000000000E+00 -0.89901020185E+03  0.89901020186E+03  0.25500000920E-02 0. -1.
    10030    2    1    2    0    0  0.00000000000E+00  0.00000000000E+00  0.55788384230E+03  0.23559042460E+04  0.22888972093E+04 0.  0.
        1    1    3    3  502    0  0.67622490460E+03 -0.24903950799E+03 -0.63616489803E+03  0.96125260762E+03  0.50400001928E-02 0. -1.
       -1    1    3    3    0  502 -0.67622490460E+03  0.24903950799E+03  0.11940487403E+04  0.13946516384E+04  0.50400001928E-02 0.  1.
</event>
<event>
 5   0  0.2042951E-05  0.2292312E+04  0.7818609E-02  0.8480959E-01
       -1   -1    0    0    0  501  0.00000000000E+00  0.00000000000E+00  0.68369107171E+03  0.68369107173E+03  0.50400001928E-02 0. -1.
        1   -1    0    0  501    0  0.00000000000E+00  0.00000000000E+00 -0.19214434131E+04  0.19214434131E+04  0.50400001928E-02 0.  1.
    10030    2    1    2    0    0  0.00000000000E+00  0.00000000000E+00 -0.12377523414E+04  0.26051344849E+04  0.22923121135E+04 0.  0.
        2    1    3    3  502    0 -0.91675790874E+03  0.38297814477E+03 -0.12683108673E+04  0.16111268661E+04  0.25500000920E-02 0.  1.
       -2    1    3    3    0  502  0.91675790874E+03 -0.38297814477E+03  0.30558525895E+02  0.99400761874E+03  0.25500000920E-02 0. -1.
</event>
<event>
 5   0  0.1968318E-05  0.2303611E+04  0.7818609E-02  0.8476499E-01
       -1   -1    0    0    0  501  0.00000000000E+00  0.00000000000E+00  0.43819340446E+03  0.43819340449E+03  0.50400001928E-02 0.  1.
        1   -1    0    0  501    0  0.00000000000E+00  0.00000000000E+00 -0.30275585406E+04  0.30275585406E+04  0.50400001928E-02 0. -1.
    10030    2    1    2    0    0  0.00000000000E+00  0.00000000000E+00 -0.25893651361E+04  0.34657519451E+04  0.23036112382E+04 0.  0.
        3    1    3    3  502    0  0.57047302678E+01  0.10757756713E+03 -0.30199623580E+04  0.30218832093E+04  0.10100000352E+00 0. -1.
       -3    1    3    3    0  502 -0.57047302678E+01 -0.10757756713E+03  0.43059722187E+03  0.44386873575E+03  0.10100000352E+00 0.  1.
</event>
<event>
 5   0  0.4605516E-05  0.2355000E+04  0.7818609E-02  0.8456546E-01
        2   -1    0    0  501    0  0.00000000000E+00  0.00000000000E+00  0.93251679632E+03  0.93251679632E+03  0.25500000920E-02 0.  1.
       -2   -1    0    0    0  501  0.00000000000E+00  0.00000000000E+00 -0.14868435550E+04  0.14868435550E+04  0.25500000920E-02 0. -1.
    10030    2    1    2    0    0  0.00000000000E+00  0.00000000000E+00 -0.55432675865E+03  0.24193603513E+04  0.23550002875E+04 0.  0.
        1    1    3    3  502    0 -0.79585774817E+03  0.68254068886E+03  0.27344596233E+03  0.10835238999E+04  0.50400001928E-02 0.  1.
       -1    1    3    3    0  502  0.79585774817E+03 -0.68254068886E+03 -0.82777272098E+03  0.13358364514E+04  0.50400001928E-02 0. -1.
</event>
<event>
 5   0  0.2031860E-05  0.2292560E+04  0.7818609E-02  0.8480860E-01
       -1   -1    0    0    0  501  0.00000000000E+00  0.00000000000E+00  0.11208859552E+04  0.11208859552E+04  0.50400001928E-02 0.  1.
        1   -1    0    0  501    0  0.00000000000E+00  0.00000000000E+00 -0.11722491396E+04  0.11722491396E+04  0.50400001928E-02 0. -1.
    10030    2    1    2    0    0  0.00000000000E+00  0.00000000000E+00 -0.51363184439E+02  0.22931350948E+04  0.22925597890E+04 0.  0.
        4    1    3    3  502    0  0.31836726706E+03 -0.51232243507E+03  0.94930605204E+03  0.11247291174E+04  0.12699999809E+01 0.  1.
       -4    1    3    3    0  502 -0.31836726706E+03  0.51232243507E+03 -0.10006692365E+04  0.11684059774E+04  0.12699999809E+01 0. -1.
</event>
<event>
 5   0  0.4798609E-05  0.2305277E+04  0.7818609E-02  0.8475843E-01
       -2   -1    0    0    0  501  0.00000000000E+00  0.00000000000E+00  0.67457007772E+03  0.67457007772E+03  0.25500000920E-02 0. -1.
        2   -1    0    0  501    0  0.00000000000E+00  0.00000000000E+00 -0.19695150085E+04  0.19695150085E+04  0.25500000920E-02 0.  1.
    10030    2    1    2    0    0  0.00000000000E+00  0.00000000000E+00 -0.12949449308E+04  0.26440850862E+04  0.23052773303E+04 0.  0.
        2    1    3    3  502    0  0.15046618130E+03  0.10827420680E+04 -0.22823092366E+03  0.11167183226E+04  0.25500000920E-02 0. -1.
       -2    1    3    3    0  502 -0.15046618130E+03 -0.10827420680E+04 -0.10667140071E+04  0.15273667636E+04  0.25500000920E-02 0.  1.
</event>
<event>
 5   0  0.2043885E-05  0.2298112E+04  0.7818609E-02  0.8478666E-01
       -1   -1    0    0    0  501  0.00000000000E+00  0.00000000000E+00  0.13536625200E+04  0.13536625200E+04  0.50400001928E-02 0. -1.
        1   -1    0    0  501    0  0.00000000000E+00  0.00000000000E+00 -0.97537552360E+03  0.97537552361E+03  0.50400001928E-02 0.  1.
    10030    2    1    2    0    0  0.00000000000E+00  0.00000000000E+00  0.37828699639E+03  0.23290380436E+04  0.22981116502E+04 0.  0.
        5    1    3    3  502    0  0.19112369639E+03 -0.18711648742E+03  0.13216639467E+04  0.13484652480E+04  0.46999998093E+01 0. -1.
       -5    1    3    3    0  502 -0.19112369639E+03  0.18711648742E+03 -0.94337695027E+03  0.98057279560E+03  0.46999998093E+01 0.  1.
</event>
<event>
 5   0  0.4602447E-05  0.2287002E+04  0.7818609E-02  0.8483064E-01
       -2   -1    0    0    0  501  0.00000000000E+00  0.00000000000E+00  0.18653284708E+04  0.18653284708E+04  0.25500000920E-02 0. -1.
        2   -1    0    0  501    0  0.00000000000E+00  0.00000000000E+00 -0.70099954912E+03  0.70099954912E+03  0.25500000920E-02 0.  1.
    10030    2    1    2    0    0  0.00000000000E+00  0.00000000000E+00  0.11643289217E+04  0.25663280200E+04  0.22870018951E+04 0.  0.
        3    1    3    3  502    0  0.56697401819E+03  0.94707941008E+03  0.24706917230E+03  0.11311331188E+04  0.10100000352E+00 0.  1.
       -3    1    3    3    0  502 -0.56697401819E+03 -0.94707941008E+03  0.91725974942E+03  0.14351949012E+04  0.10100000352E+00 0. -1.
</event>
<event>
 5   0  0.2042951E-05  0.2292178E+04  0.7818609E-02  0.8481012E-01
       -1   -1    0    0    0  501  0.00000000000E+00  0.00000000000E+00  0.14867197662E+04  0.14867197662E+04  0.50400001928E-02 0. -1.
        1   -1    0    0  501    0  0.00000000000E+00  0.00000000000E+00 -0.88350170450E+03  0.88350170451E+03  0.50400001928E-02 0.  1.
    10030    2    1    2    0    0  0.00000000000E+00  0.00000000000E+00  0.60321806174E+03  0.23702214708E+04  0.22921775216E+04 0.  0.
        2    1    3    3  502    0  0.36936436769E+03  0.94991320541E+03  0.84362606870E+03  0.13230533163E+04  0.25500000920E-02 0. -1.
       -2    1    3    3    0  502 -0.36936436769E+03 -0.94991320541E+03 -0.24040800696E+03  0.10471681545E+04  0.25500000920E-02 0.  1.
</event>
<event>
 5   0  0.4798609E-05  0.2322791E+04  0.7818609E-02  0.8468989E-01
       -2   -1    0    0    0  501  0.00000000000E+00  0.00000000000E+00  0.95917263955E+03  0.95917263955E+03  0.25500000920E-02 0. -1.
        2   -1    0    0  501    0  0.00000000000E+00  0.00000000000E+00 -0.14062532715E+04  0.14062532715E+04  0.25500000920E-02 0.  1.
    10030    2    1    2    0    0  0.00000000000E+00  0.00000000000E+00 -0.44708063194E+03  0.23654259110E+04  0.23227911334E+04 0.  0.
        2    1    3    3  502    0 -0.10285155581E+04  0.29273849220E+03 -0.68495692712E+03  0.12699236473E+04  0.25500000920E-02 0.  1.
       -2    1    3    3    0  502  0.10285155581E+04 -0.29273849220E+03  0.23787629517E+03  0.10955022637E+04  0.25500000920E-02 0. -1.
</event>
<event>
 5   0  0.4605516E-05  0.2259942E+04  0.7818609E-02  0.8493885E-01
        2   -1    0    0  501    0  0.00000000000E+00  0.00000000000E+00  0.18765631908E+04  0.18765631908E+04  0.25500000920E-02 0. -1.
       -2   -1    0    0    0  501  0.00000000000E+00  0.00000000000E+00 -0.68041126171E+03  0.68041126172E+03  0.25500000920E-02 0.  1.
    10030    2    1    2    0    0  0.00000000000E+00  0.00000000000E+00  0.11961519291E+04  0.25569744525E+04  0.22599422367E+04 0.  0.
        1    1    3    3  502    0 -0.14227603945E+03 -0.68640802564E+03  0.16008071657E+04  0.17475645999E+04  0.50400001928E-02 0. -1.
       -1    1    3    3    0  502  0.14227603945E+03  0.68640802564E+03 -0.40465523657E+03  0.80940985265E+03  0.50400001928E-02 0.  1.
</event>
<event>
 5   0  0.1968318E-05  0.2308662E+04  0.7818609E-02  0.8474513E-01
       -1   -1    0    0    0  501  0.00000000000E+00  0.00000000000E+00  0.10965278541E+04  0.10965278541E+04  0.50400001928E-02 0. -1.
        1   -1    0    0  501    0  0.00000000000E+00  0.00000000000E+00 -0.12151816717E+04  0.12151816717E+04  0.50400001928E-02 0.  1.
    10030    2    1    2    0    0  0.00000000000E+00  0.00000000000E+00 -0.11865381765E+03  0.23117095258E+04  0.23086624273E+04 0.  0.
        3    1    3    3  502    0  0.10900179827E+04  0.34892699283E+03  0.91175467881E+02  0.11481298817E+04  0.10100000352E+00 0.  1.
       -3    1    3    3    0  502 -0.10900179827E+04 -0.34892699283E+03 -0.20982928553E+03  0.11635796441E+04  0.10100000352E+00 0. -1.
</event>
<event>
 5   0  0.2031860E-05  0.2323954E+04  0.7818609E-02  0.8468536E-01
       -1   -1    0    0    0  501  0.00000000000E+00  0.00000000000E+00  0.18848856325E+04  0.18848856325E+04  0.50400001928E-02 0. -1.
        1   -1    0    0  501    0  0.00000000000E+00  0.00000000000E+00 -0.71632488738E+03  0.71632488740E+03  0.50400001928E-02 0.  1.
    10030    2    1    2    0    0  0.00000000000E+00  0.00000000000E+00  0.11685607451E+04  0.26012105199E+04  0.23239539483E+04 0.  0.
        4    1    3    3  502    0  0.18466321891E+03  0.90456225583E+03  0.13740485620E+04  0.16553985752E+04  0.12699999809E+01 0. -1.
       -4    1    3    3    0  502 -0.18466321891E+03 -0.90456225583E+03 -0.20548781684E+03  0.94581194477E+03  0.12699999809E+01 0.  1.
</event>
<event>
 5   0  0.4798609E-05  0.2305031E+04  0.7818609E-02  0.8475940E-01
        2   -1    0    0  501    0  0.00000000000E+00  0.00000000000E+00  0.13048313457E+04  0.13048313457E+04  0.25500000920E-02 0.  1.
       -2   -1    0    0    0  501  0.00000000000E+00  0.00000000000E+00 -0.10179798170E+04  0.10179798170E+04  0.25500000920E-02 0. -1.
    10030    2    1    2    0    0  0.00000000000E+00  0.00000000000E+00  0.28685152865E+03  0.23228111627E+04  0.23050309972E+04 0.  0.
        2    1    3    3  502    0  0.27543842466E+03  0.10129051015E+04  0.62296290130E+03  0.12206251869E+04  0.25500000920E-02 0.  1.
       -2    1    3    3    0  502 -0.27543842466E+03 -0.10129051015E+04 -0.33611137265E+03  0.11021859758E+04  0.25500000920E-02 0. -1.
</event>
<event>
 5   0  0.4505107E-05  0.2303949E+04  0.7818609E-02  0.8476366E-01
        2   -1    0    0  501    0  0.00000000000E+00  0.00000000000E+00  0.21814839983E+04  0.21814839983E+04  0.25500000920E-02 0. -1.
       -2   -1    0    0    0  501  0.00000000000E+00  0.00000000000E+00 -0.60832224152E+03  0.60832224152E+03  0.25500000920E-02 0.  1.
    10030    2    1    2    0    0  0.00000000000E+00  0.00000000000E+00  0.15731617568E+04  0.27898062398E+04  0.23039489887E+04 0.  0.
        4    1    3    3  502    0  0.81466938211E+03  0.16125501004E+03 -0.18011890778E+03  0.84978456932E+03  0.12699999809E+01 0.  1.
       -4    1    3    3    0  502 -0.81466938211E+03 -0.16125501004E+03  0.17532806646E+04  0.19400216705E+04  0.12699999809E+01 0. -1.
</event>
<event>
 5   0  0.4602447E-05  0.2299396E+04  0.7818609E-02  0.8478159E-01
        2   -1    0    0  501    0  0.00000000000E+00  0.00000000000E+00  0.12733875781E+04  0.12733875781E+04  0.25500000920E-02 0. -1.
       -2   -1    0    0    0  501  0.00000000000E+00  0.00000000000E+00 -0.10380233557E+04  0.10380233557E+04  0.25500000920E-02 0.  1.
    10030    2    1    2    0    0  0.00000000000E+00  0.00000000000E+00  0.23536422246E+03  0.23114109338E+04  0.22993964834E+04 0.  0.
        3    1    3    3  502    0 -0.11405301557E+04 -0.14325795248E+03  0.13957109863E+03  0.11579343585E+04  0.10100000352E+00 0.  1.
       -3    1    3    3    0  502  0.11405301557E+04  0.14325795248E+03  0.95793123824E+02  0.11534765753E+04  0.10100000352E+00 0. -1.
</event>
<event>
 5   0  0.4436695E-05  0.2301270E+04  0.7818609E-02  0.8477421E-01
       -2   -1    0    0    0  501  0.00000000000E+00  0.00000000000E+00  0.65268047153E+03  0.65268047154E+03  0.25500000920E-02 0.  1.
        2   -1    0    0  501    0  0.00000000000E+00  0.00000000000E+00 -0.20284979697E+04  0.20284979697E+04  0.25500000920E-02 0. -1.
    10030    2    1    2    0    0  0.00000000000E+00  0.00000000000E+00 -0.13758174982E+04  0.26811784413E+04  0.23012700940E+04 0.  0.
        5    1    3    3  502    0  0.41055497376E+03 -0.97743561210E+03 -0.12089553329E+04  0.16079585968E+04  0.46999998093E+01 0. -1.
       -5    1    3    3    0  502 -0.41055497376E+03  0.97743561210E+03 -0.16686216533E+03  0.10732198444E+04  0.46999998093E+01 0.  1.
</event>
<event>
 5   0  0.2031860E-05  0.2328053E+04  0.7818609E-02  0.8466942E-01
        1   -1    0    0  501    0  0.00000000000E+00  0.00000000000E+00  0.25308565571E+04  0.25308565571E+04  0.50400001928E-02 0.  1.
       -1   -1    0    0    0  501  0.00000000000E+00  0.00000000000E+00 -0.53537525396E+03  0.53537525398E+03  0.50400001928E-02 0. -1.
    10030    2    1    2    0    0  0.00000000000E+00  0.00000000000E+00  0.19954813031E+04  0.30662318111E+04  0.23280532400E+04 0.  0.
        4    1    3    3  502    0  0.14159333217E+03  0.54981289383E+03  0.23361253719E+04  0.24041269218E+04  0.12699999809E+01 0.  1.
       -4    1    3    3    0  502 -0.14159333217E+03 -0.54981289383E+03 -0.34064406877E+03  0.66210488929E+03  0.12699999809E+01 0. -1.
</event>
<event>
 5   0  0.2043885E-05  0.2267430E+04  0.7818609E-02  0.8490875E-01
        1   -1    0    0  501    0  0.00000000000E+00  0.00000000000E+00  0.15447850742E+04  0.15447850742E+04  0.50400001928E-02 0. -1.
       -1   -1    0    0    0  501  0.00000000000E+00  0.00000000000E+00 -0.83203107635E+03  0.83203107637E+03  0.50400001928E-02 0.  1.
    10030    2    1    2    0    0  0.00000000000E+00  0.00000000000E+00  0.71275399782E+03  0.23768161505E+04  0.22674295473E+04 0.  0.
        5    1    3    3  502    0  0.11309712359E+04  0.77902471945E+02  0.34478140264E+03  0.11849308153E+04  0.46999998093E+01 0. -1.
       -5    1    3    3    0  502 -0.11309712359E+04 -0.77902471945E+02  0.36797259517E+03  0.11918853352E+04  0.46999998093E+01 0.  1.
</event>
<event>
 5   0  0.2085063E-05  0.2303508E+04  0.7818609E-02  0.8476539E-01
        1   -1    0    0  501    0  0.00000000000E+00  0.00000000000E+00  0.97511123212E+03  0.97511123214E+03  0.50400001928E-02 0. -1.
       -1   -1    0    0    0  501  0.00000000000E+00  0.00000000000E+00 -0.13603956813E+04  0.13603956814E+04  0.50400001928E-02 0.  1.
    10030    2    1    2    0    0  0.00000000000E+00  0.00000000000E+00 -0.38528444922E+03  0.23355069135E+04  0.23035078546E+04 0.  0.
        1    1    3    3  502    0 -0.34291732592E+02  0.91484262832E+03 -0.90122407659E+03  0.12846469530E+04  0.50400001928E-02 0.  1.
       -1    1    3    3    0  502  0.34291732592E+02 -0.91484262832E+03  0.51593962737E+03  0.10508599605E+04  0.50400001928E-02 0. -1.
</event>
<event>
 5   0  0.4505107E-05  0.2286167E+04  0.7818609E-02  0.8483395E-01
       -2   -1    0    0    0  501  0.00000000000E+00  0.00000000000E+00  0.67739752990E+03  0.67739752991E+03  0.25500000920E-02 0. -1.
        2   -1    0    0  501    0  0.00000000000E+00  0.00000000000E+00 -0.19289120929E+04  0.19289120929E+04  0.25500000920E-02 0.  1.
    10030    2    1    2    0    0  0.00000000000E+00  0.00000000000E+00 -0.12515145630E+04  0.26063096228E+04  0.22861673492E+04 0.  0.
        4    1    3    3  502    0 -0.81313837724E+03 -0.91304809615E+02  0.28420742424E+03  0.86620209056E+03  0.12699999809E+01 0. -1.
       -4    1    3    3    0  502  0.81313837724E+03  0.91304809615E+02 -0.15357219872E+04  0.17401075322E+04  0.12699999809E+01 0.  1.
</event>
<event>
 5   0  0.4505107E-05  0.2250440E+04  0.7818609E-02  0.8497722E-01
        2   -1    0    0  501    0  0.00000000000E+00  0.00000000000E+00  0.12251927355E+04  0.12251927355E+04  0.25500000920E-02 0. -1.
       -2   -1    0    0    0  501  0.00000000000E+00  0.00000000000E+00 -0.10334049591E+04  0.10334049591E+04  0.25500000920E-02 0.  1.
    10030    2    1    2    0    0  0.00000000000E+00  0.00000000000E+00  0.19178777645E+03  0.22585976946E+04  0.22504401780E+04 0.  0.
        4    1    3    3  502    0  0.94475570847E+02  0.94528759423E+03 -0.50930468640E+03  0.10779086908E+04  0.12699999809E+01 0.  1.
       -4    1    3    3    0  502 -0.94475570847E+02 -0.94528759423E+03  0.70109246285E+03  0.11806890038E+04  0.12699999809E+01 0. -1.
</event>
<event>
 5   0  0.1604500E-05  0.2297160E+04  0.7818609E-02  0.8479042E-01
       -3   -1    0    0    0  501  0.00000000000E+00  0.00000000000E+00  0.10517933789E+04  0.10517933837E+04  0.10100000352E+00 0.  1.
        3   -1    0    0  501    0  0.00000000000E+00  0.00000000000E+00 -0.12542724518E+04  0.12542724559E+04  0.10100000352E+00 0. -1.
    10030    2    1    2    0    0  0.00000000000E+00  0.00000000000E+00 -0.20247907295E+03  0.23060658396E+04  0.22971595246E+04 0.  0.
        2    1    3    3  502    0 -0.75354457496E+03  0.47139620232E+03  0.62903649085E+03  0.10889126287E+04  0.25500000920E-02 0.  1.
       -2    1    3    3    0  502  0.75354457496E+03 -0.47139620232E+03 -0.83151556380E+03  0.12171532109E+04  0.25500000920E-02 0. -1.
</event>
<event>
 5   0  0.4798609E-05  0.2288314E+04  0.7818609E-02  0.8482543E-01
       -2   -1    0    0    0  501  0.00000000000E+00  0.00000000000E+00  0.10719952392E+04  0.10719952392E+04  0.25500000920E-02 0. -1.
        2   -1    0    0  501    0  0.00000000000E+00  0.00000000000E+00 -0.12211765733E+04  0.12211765733E+04  0.25500000920E-02 0.  1.
    10030    2    1    2    0    0  0.00000000000E+00  0.00000000000E+00 -0.14918133410E+03  0.22931718125E+04  0.22883142029E+04 0.  0.
        2    1    3    3  502    0  0.41563411540E+03 -0.87008979700E+03  0.54257989641E+03  0.11064361331E+04  0.25500000920E-02 0. -1.
       -2    1    3    3    0  502 -0.41563411540E+03  0.87008979700E+03 -0.69176123051E+03  0.11867356794E+04  0.25500000920E-02 0.  1.
</event>
<event>
 5   0  0.2042951E-05  0.2301715E+04  0.7818609E-02  0.8477245E-01
       -1   -1    0    0    0  501  0.00000000000E+00  0.00000000000E+00  0.97757916539E+03  0.97757916541E+03  0.50400001928E-02 0.  1.
        1   -1    0    0  501    0  0.00000000000E+00  0.00000000000E+00 -0.13548494099E+04  0.13548494099E+04  0.50400001928E-02 0. -1.
    10030    2    1    2    0    0  0.00000000000E+00  0.00000000000E+00 -0.37727024449E+03  0.23324285753E+04  0.23017146264E+04 0.  0.
        2    1    3    3  502    0 -0.92760019306E+03  0.50873340092E+03 -0.64769308606E+03  0.12404668980E+04  0.25500000920E-02 0. -1.
       -2    1    3    3    0  502  0.92760019306E+03 -0.50873340092E+03  0.27042284157E+03  0.10919616773E+04  0.25500000920E-02 0.  1.
</event>
<event>
 5   0  0.1968318E-05  0.2283509E+04  0.7818609E-02  0.8484452E-01
       -1   -1    0    0    0  501  0.00000000000E+00  0.00000000000E+00  0.11131207426E+04  0.11131207426E+04  0.50400001928E-02 0.  1.
        1   -1    0    0  501    0  0.00000000000E+00  0.00000000000E+00 -0.11711248538E+04  0.11711248538E+04  0.50400001928E-02 0. -1.
    10030    2    1    2    0    0  0.00000000000E+00  0.00000000000E+00 -0.58004111219E+02  0.22842455964E+04  0.22835090251E+04 0.  0.
        3    1    3    3  502    0 -0.63094374586E+03 -0.25391264340E+02  0.92255060982E+03  0.11179599119E+04  0.10100000352E+00 0.  1.
       -3    1    3    3    0  502  0.63094374586E+03  0.25391264340E+02 -0.98055472104E+03  0.11662856845E+04  0.10100000352E+00 0. -1.
</event>
<event>
 5   0  0.4436695E-05  0.2014668E+04  0.7818609E-02  0.8599793E-01
       -2   -1    0    0    0  501  0.00000000000E+00  0.00000000000E+00  0.88612052610E+03  0.88612052611E+03  0.25500000920E-02 0. -1.
        2   -1    0    0  501    0  0.00000000000E+00  0.00000000000E+00 -0.11451288127E+04  0.11451288127E+04  0.25500000920E-02 0.  1.
    10030    2    1    2    0    0  0.00000000000E+00  0.00000000000E+00 -0.25900828662E+03  0.20312493388E+04  0.20146683558E+04 0.  0.
        5    1    3    3  502    0 -0.91903228285E+03 -0.35261942850E+03 -0.34513168321E+03  0.10431197280E+04  0.46999998093E+01 0.  1.
       -5    1    3    3    0  502  0.91903228285E+03  0.35261942850E+03  0.86123396591E+02  0.98812961079E+03  0.46999998093E+01 0. -1.
</event>
<event>
 5   0  0.4605516E-05  0.2276708E+04  0.7818609E-02  0.8487162E-01
        2   -1    0    0  501    0  0.00000000000E+00  0.00000000000E+00  0.91306073336E+03  0.91306073337E+03  0.25500000920E-02 0.  1.
       -2   -1    0    0    0  501  0.00000000000E+00  0.00000000000E+00 -0.14192369319E+04  0.14192369319E+04  0.25500000920E-02 0. -1.
    10030    2    1    2    0    0  0.00000000000E+00  0.00000000000E+00 -0.50617619854E+03  0.23322976653E+04  0.22767077229E+04 0.  0.
        1    1    3    3  502    0  0.85538538360E+03 -0.31494076995E+03 -0.95163045689E+03  0.13177527726E+04  0.50400001928E-02 0. -1.
       -1    1    3    3    0  502 -0.85538538360E+03  0.31494076995E+03  0.44545425835E+03  0.10145448927E+04  0.50400001928E-02 0.  1.
</event>
<event>
 5   0  0.2031860E-05  0.2350912E+04  0.7818609E-02  0.8458113E-01
       -1   -1    0    0    0  501  0.00000000000E+00  0.00000000000E+00  0.81094890463E+03  0.81094890465E+03  0.50400001928E-02 0.  1.
        1   -1    0    0  501    0  0.00000000000E+00  0.00000000000E+00 -0.17038030514E+04  0.17038030514E+04  0.50400001928E-02 0. -1.
    10030    2    1    2    0    0  0.00000000000E+00  0.00000000000E+00 -0.89285414674E+03  0.25147519560E+04  0.23509123491E+04 0.  0.
        4    1    3    3  502    0 -0.94937926914E+03 -0.38503625098E+03  0.17003638677E+03  0.10385027188E+04  0.12699999809E+01 0.  1.
       -4    1    3    3    0  502  0.94937926914E+03  0.38503625098E+03 -0.10628905335E+04  0.14762492372E+04  0.12699999809E+01 0. -1.
</event>
<event>
 5   0  0.2031860E-05  0.2342299E+04  0.7818609E-02  0.8461427E-01
        1   -1    0    0  501    0  0.00000000000E+00  0.00000000000E+00  0.20539225841E+04  0.20539225842E+04  0.50400001928E-02 0. -1.
       -1   -1    0    0    0  501  0.00000000000E+00  0.00000000000E+00 -0.66779107780E+03  0.66779107782E+03  0.50400001928E-02 0.  1.
    10030    2    1    2    0    0  0.00000000000E+00  0.00000000000E+00  0.13861315063E+04  0.27217136620E+04  0.23422990212E+04 0.  0.
        4    1    3    3  502    0  0.32076638832E+03  0.66743409441E+03  0.17473573570E+04  0.18977931110E+04  0.12699999809E+01 0. -1.
       -4    1    3    3    0  502 -0.32076638832E+03 -0.66743409441E+03 -0.36122585064E+03  0.82392055098E+03  0.12699999809E+01 0.  1.
</event>
<event>
 5   0  0.2043885E-05  0.2284542E+04  0.7818609E-02  0.8484041E-01
        1   -1    0    0  501    0  0.00000000000E+00  0.00000000000E+00  0.11419234985E+04  0.11419234985E+04  0.50400001928E-02 0.  1.
       -1   -1    0    0    0  501  0.00000000000E+00  0.00000000000E+00 -0.11426184697E+04  0.11426184697E+04  0.50400001928E-02 0. -1.
    10030    2    1    2    0    0  0.00000000000E+00  0.00000000000E+00 -0.69497118691E+00  0.22845419682E+04  0.22845418625E+04 0.  0.
        5    1    3    3  502    0  0.16152607481E+02 -0.31723082616E+03  0.10968601511E+04  0.11419372071E+04  0.46999998093E+01 0.  1.
       -5    1    3    3    0  502 -0.16152607481E+02  0.31723082616E+03 -0.10975551223E+04  0.11426047612E+04  0.46999998093E+01 0. -1.
</event>
<event>
 5   0  0.4505107E-05  0.2297152E+04  0.7818609E-02  0.8479045E-01
        2   -1    0    0  501    0  0.00000000000E+00  0.00000000000E+00  0.98461284057E+03  0.98461284057E+03  0.25500000920E-02 0. -1.
       -2   -1    0    0    0  501  0.00000000000E+00  0.00000000000E+00 -0.13398435695E+04  0.13398435695E+04  0.25500000920E-02 0.  1.
    10030    2    1    2    0    0  0.00000000000E+00  0.00000000000E+00 -0.35523072889E+03  0.23244564100E+04  0.22971523091E+04 0.  0.
        4    1    3    3  502    0 -0.93836315857E+02 -0.28741374708E+03 -0.12988534580E+04  0.13335793319E+04  0.12699999809E+01 0.  1.
       -4    1    3    3    0  502  0.93836315857E+02  0.28741374708E+03  0.94362272911E+03  0.99087707814E+03  0.12699999809E+01 0. -1.
</event>
<event>
 5   0  0.2043885E-05  0.2210190E+04  0.7818609E-02  0.8514199E-01
       -1   -1    0    0    0  501  0.00000000000E+00  0.00000000000E+00  0.56825913959E+03  0.56825913961E+03  0.50400001928E-02 0.  1.
        1   -1    0    0  501    0  0.00000000000E+00  0.00000000000E+00 -0.21490803766E+04  0.21490803766E+04  0.50400001928E-02 0. -1.
    10030    2    1    2    0    0  0.00000000000E+00  0.00000000000E+00 -0.15808212370E+04  0.27173395162E+04  0.22101896441E+04 0.  0.
        5    1    3    3  502    0  0.12649088272E+03 -0.68983392898E+03  0.25956661427E+03  0.74784203561E+03  0.46999998093E+01 0.  1.
       -5    1    3    3    0  502 -0.12649088272E+03  0.68983392898E+03 -0.18403878513E+04  0.19694974806E+04  0.46999998093E+01 0. -1.
</event>
<event>
 5   0  0.4602447E-05  0.2330176E+04  0.7818609E-02  0.8466117E-01
        2   -1    0    0  501    0  0.00000000000E+00  0.00000000000E+00  0.25104772131E+04  0.25104772131E+04  0.25500000920E-02 0. -1.
       -2   -1    0    0    0  501  0.00000000000E+00  0.00000000000E+00 -0.54070615463E+03  0.54070615463E+03  0.25500000920E-02 0.  1.
    10030    2    1    2    0    0  0.00000000000E+00  0.00000000000E+00  0.19697710585E+04  0.30511833677E+04  0.23301763712E+04 0.  0.
        3    1    3    3  502    0  0.82188180457E+03 -0.30787098505E+03  0.19882445265E+04  0.21733362721E+04  0.10100000352E+00 0. -1.
       -3    1    3    3    0  502 -0.82188180457E+03  0.30787098505E+03 -0.18473468049E+02  0.87784709565E+03  0.10100000352E+00 0.  1.
</event>
<event>
 5   0  0.4602447E-05  0.2276261E+04  0.7818609E-02  0.8487340E-01
       -2   -1    0    0    0  501  0.00000000000E+00  0.00000000000E+00  0.85346725289E+03  0.85346725290E+03  0.25500000920E-02 0.  1.
        2   -1    0    0  501    0  0.00000000000E+00  0.00000000000E+00 -0.15177395117E+04  0.15177395117E+04  0.25500000920E-02 0. -1.
    10030    2    1    2    0    0  0.00000000000E+00  0.00000000000E+00 -0.66427225879E+03  0.23712067646E+04  0.22762609443E+04 0.  0.
        3    1    3    3  502    0 -0.36830228385E+03  0.59703536668E+03  0.60148548247E+03  0.92405768066E+03  0.10100000352E+00 0.  1.
       -3    1    3    3    0  502  0.36830228385E+03 -0.59703536668E+03 -0.12657577413E+04  0.14471490839E+04  0.10100000352E+00 0. -1.
</event>
<event>
 5   0  0.1604500E-05  0.2044272E+04  0.7818609E-02  0.8586197E-01
       -3   -1    0    0    0  501  0.00000000000E+00  0.00000000000E+00  0.49843799784E+03  0.49843800807E+03  0.10100000352E+00 0.  1.
        3   -1    0    0  501    0  0.00000000000E+00  0.00000000000E+00 -0.20960717656E+04  0.20960717680E+04  0.10100000352E+00 0. -1.
    10030    2    1    2    0    0  0.00000000000E+00  0.00000000000E+00 -0.15976337678E+04  0.25945097761E+04  0.20442718318E+04 0.  0.
        1    1    3    3  502    0  0.65981364537E+03  0.29239620851E+03 -0.17174581278E+04  0.18629310267E+04  0.50400001928E-02 0. -1.
       -1    1    3    3    0  502 -0.65981364537E+03 -0.29239620851E+03  0.11982436003E+03  0.73157874945E+03  0.50400001928E-02 0.  1.
</event>
<event>
 5   0  0.2043885E-05  0.2297986E+04  0.7818609E-02  0.8478715E-01
        1   -1    0    0  501    0  0.00000000000E+00  0.00000000000E+00  0.12596564839E+04  0.12596564839E+04  0.50400001928E-02 0. -1.
       -1   -1    0    0    0  501  0.00000000000E+00  0.00000000000E+00 -0.10480519184E+04  0.10480519184E+04  0.50400001928E-02 0.  1.
    10030    2    1    2    0    0  0.00000000000E+00  0.00000000000E+00  0.21160456546E+03  0.23077084023E+04  0.22979864181E+04 0.  0.
        5    1    3    3  502    0  0.65508230614E+03 -0.46637991598E+03  0.92995710261E+03  0.12294248072E+04  0.46999998093E+01 0. -1.
       -5    1    3    3    0  502 -0.65508230614E+03  0.46637991598E+03 -0.71835253715E+03  0.10782835951E+04  0.46999998093E+01 0.  1.
</event>
<event>
 5   0  0.4602447E-05  0.2331268E+04  0.7818609E-02  0.8465694E-01
        2   -1    0    0  501    0  0.00000000000E+00  0.00000000000E+00  0.21355700734E+04  0.21355700734E+04  0.25500000920E-02 0. -1.
       -2   -1    0    0    0  501  0.00000000000E+00  0.00000000000E+00 -0.63622453632E+03  0.63622453633E+03  0.25500000920E-02 0.  1.
    10030    2    1    2    0    0  0.00000000000E+00  0.00000000000E+00  0.14993455371E+04  0.27717946097E+04  0.23312675348E+04 0.  0.
        3    1    3    3  502    0 -0.47698593377E+03 -0.10633620718E+04  0.72451857198E+03  0.13722906573E+04  0.10100000352E+00 0.  1.
       -3    1    3    3    0  502  0.47698593377E+03  0.10633620718E+04  0.77482696509E+03  0.13995039524E+04  0.10100000352E+00 0. -1.
</event>
<event>
 5   0  0.1604500E-05  0.2287204E+04  0.7818609E-02  0.8482984E-01
       -3   -1    0    0    0  501  0.00000000000E+00  0.00000000000E+00  0.19405714941E+04  0.19405714967E+04  0.10100000352E+00 0.  1.
        3   -1    0    0  501    0  0.00000000000E+00  0.00000000000E+00 -0.67393811078E+03  0.67393811834E+03  0.10100000352E+00 0. -1.
    10030    2    1    2    0    0  0.00000000000E+00  0.00000000000E+00  0.12666333833E+04  0.26145096150E+04  0.22872036200E+04 0.  0.
        5    1    3    3  502    0  0.10047303410E+04  0.49978290366E+03  0.38147833140E+03  0.11852484196E+04  0.46999998093E+01 0.  1.
       -5    1    3    3    0  502 -0.10047303410E+04 -0.49978290366E+03  0.88515505189E+03  0.14292611954E+04  0.46999998093E+01 0. -1.
</event>
<event>
 5   0  0.4798609E-05  0.2282598E+04  0.7818609E-02  0.8484814E-01
        2   -1    0    0  501    0  0.00000000000E+00  0.00000000000E+00  0.18188423002E+04  0.18188423002E+04  0.25500000920E-02 0.  1.
       -2   -1    0    0    0  501  0.00000000000E+00  0.00000000000E+00 -0.71615001310E+03  0.71615001310E+03  0.25500000920E-02 0. -1.
    10030    2    1    2    0    0  0.00000000000E+00  0.00000000000E+00  0.11026922871E+04  0.25349923133E+04  0.22825984641E+04 0.  0.
        2    1    3    3  502    0 -0.34207934121E+03 -0.10529836526E+04  0.85905923685E+03  0.14013477872E+04  0.25500000920E-02 0.  1.
       -2    1    3    3    0  502  0.34207934121E+03  0.10529836526E+04  0.24363305025E+03  0.11336445261E+04  0.25500000920E-02 0. -1.
</event>
<event>
 5   0  0.4605516E-05  0.2308486E+04  0.7818609E-02  0.8474583E-01
       -2   -1    0    0    0  501  0.00000000000E+00  0.00000000000E+00  0.10081292323E+04  0.10081292323E+04  0.25500000920E-02 0.  1.
        2   -1    0    0  501    0  0.00000000000E+00  0.00000000000E+00 -0.13215340572E+04  0.13215340572E+04  0.25500000920E-02 0. -1.
    10030    2    1    2    0    0  0.00000000000E+00  0.00000000000E+00 -0.31340482489E+03  0.23296632896E+04  0.23084861833E+04 0.  0.
        1    1    3    3  502    0 -0.42834002972E+03 -0.10205045115E+04 -0.48738578618E+03  0.12093178009E+04  0.50400001928E-02 0. -1.
       -1    1    3    3    0  502  0.42834002972E+03  0.10205045115E+04  0.17398096129E+03  0.11203454886E+04  0.50400001928E-02 0.  1.
</event>
<event>
 5   0  0.2085063E-05  0.2280968E+04  0.7818609E-02  0.8485463E-01
        1   -1    0    0  501    0  0.00000000000E+00  0.00000000000E+00  0.95934780645E+03  0.95934780646E+03  0.50400001928E-02 0.  1.
       -1   -1    0    0    0  501  0.00000000000E+00  0.00000000000E+00 -0.13558210321E+04  0.13558210321E+04  0.50400001928E-02 0. -1.
    10030    2    1    2    0    0  0.00000000000E+00  0.00000000000E+00 -0.39647322569E+03  0.23151688386E+04  0.22809681569E+04 0.  0.
        1    1    3    3  502    0  0.42117262824E+03  0.86782682973E+03 -0.81579527564E+03  0.12633414902E+04  0.50400001928E-02 0. -1.
       -1    1    3    3    0  502 -0.42117262824E+03 -0.86782682973E+03  0.41932204996E+03  0.10518273484E+04  0.50400001928E-02 0.  1.
</event>
<event>
 5   0  0.4505107E-05  0.2270456E+04  0.7818609E-02  0.8489662E-01
        2   -1    0    0  501    0  0.00000000000E+00  0.00000000000E+00  0.12310939626E+04  0.12310939626E+04  0.25500000920E-02 0. -1.
       -2   -1    0    0    0  501  0.00000000000E+00  0.00000000000E+00 -0.10468275800E+04  0.10468275800E+04  0.25500000920E-02 0.  1.
    10030    2    1    2    0    0  0.00000000000E+00  0.00000000000E+00  0.18426638257E+03  0.22779215426E+04  0.22704564419E+04 0.  0.
        4    1    3    3  502    0  0.57588726625E+03  0.34625817036E+03 -0.82586190711E+03  0.10647020083E+04  0.12699999809E+01 0.  1.
       -4    1    3    3    0  502 -0.57588726625E+03 -0.34625817036E+03  0.10101282897E+04  0.12132195343E+04  0.12699999809E+01 0. -1.
</event>
<event>
 5   0  0.4505107E-05  0.2359360E+04  0.7818609E-02  0.8454877E-01
       -2   -1    0    0    0  501  0.00000000000E+00  0.00000000000E+00  0.75311730273E+03  0.75311730274E+03  0.25500000920E-02 0.  1.
        2   -1    0    0  501    0  0.00000000000E+00  0.00000000000E+00 -0.18478459612E+04  0.18478459612E+04  0.25500000920E-02 0. -1.
    10030    2    1    2    0    0  0.00000000000E+00  0.00000000000E+00 -0.10947286585E+04  0.26009632639E+04  0.23593598845E+04 0.  0.
        4    1    3    3  502    0 -0.91024205572E+03  0.74408626109E+03 -0.65446307116E+03  0.13455588015E+04  0.12699999809E+01 0.  1.
       -4    1    3    3    0  502  0.91024205572E+03 -0.74408626109E+03 -0.44026558729E+03  0.12554044624E+04  0.12699999809E+01 0. -1.
</event>
<event>
 5   0  0.4436695E-05  0.2270044E+04  0.7818609E-02  0.8489827E-01
        2   -1    0    0  501    0  0.00000000000E+00  0.00000000000E+00  0.10455850161E+04  0.10455850161E+04  0.25500000920E-02 0.  1.
       -2   -1    0    0    0  501  0.00000000000E+00  0.00000000000E+00 -0.12321089588E+04  0.12321089588E+04  0.25500000920E-02 0. -1.
    10030    2    1    2    0    0  0.00000000000E+00  0.00000000000E+00 -0.18652394268E+03  0.22776939748E+04  0.22700437577E+04 0.  0.
        5    1    3    3  502    0  0.52223469403E+03  0.36198674995E+03  0.85038029503E+03  0.10615706378E+04  0.46999998093E+01 0.  1.
       -5    1    3    3    0  502 -0.52223469403E+03 -0.36198674995E+03 -0.10369042377E+04  0.12161233371E+04  0.46999998093E+01 0. -1.
</event>
<event>
 5   0  0.2031860E-05  0.2306639E+04  0.7818609E-02  0.8475308E-01
       -1   -1    0    0    0  501  0.00000000000E+00  0.00000000000E+00  0.13085392624E+04  0.13085392624E+04  0.50400001928E-02 0.  1.
        1   -1    0    0  501    0  0.00000000000E+00  0.00000000000E+00 -0.10165118320E+04  0.10165118321E+04  0.50400001928E-02 0. -1.
    10030    2    1    2    0    0  0.00000000000E+00  0.00000000000E+00  0.29202743033E+03  0.23250510944E+04  0.23066388039E+04 0.  0.
        4    1    3    3  502    0  0.80440349028E+03 -0.58305805915E+03  0.73645594832E+03  0.12366853489E+04  0.12699999809E+01 0.  1.
       -4    1    3    3    0  502 -0.80440349028E+03  0.58305805915E+03 -0.44442851799E+03  0.10883657455E+04  0.12699999809E+01 0. -1.
</event>
<event>
 5   0  0.2042951E-05  0.2284639E+04  0.7818609E-02  0.8484003E-01
       -1   -1    0    0    0  501  0.00000000000E+00  0.00000000000E+00  0.91088506416E+03  0.91088506417E+03  0.50400001928E-02 0.  1.
        1   -1    0    0  501    0  0.00000000000E+00  0.00000000000E+00 -0.14325553704E+04  0.14325553705E+04  0.50400001928E-02 0. -1.
    10030    2    1    2    0    0  0.00000000000E+00  0.00000000000E+00 -0.52167030628E+03  0.23434404346E+04  0.22846385189E+04 0.  0.
        2    1    3    3  502    0  0.61539151047E+03  0.19158880160E+03  0.70656152979E+03  0.95636926731E+03  0.25500000920E-02 0.  1.
       -2    1    3    3    0  502 -0.61539151047E+03 -0.19158880160E+03 -0.12282318361E+04  0.13870711673E+04  0.25500000920E-02 0. -1.
</event>
<event>
 5   0  0.4602447E-05  0.2321613E+04  0.7818609E-02  0.8469448E-01
        2   -1    0    0  501    0  0.00000000000E+00  0.00000000000E+00  0.12809039475E+04  0.12809039475E+04  0.25500000920E-02 0.  1.
       -2   -1    0    0    0  501  0.00000000000E+00  0.00000000000E+00 -0.10519697531E+04  0.10519697531E+04  0.25500000920E-02 0. -1.
    10030    2    1    2    0    0  0.00000000000E+00  0.00000000000E+00  0.22893419437E+03  0.23328737006E+04  0.23216134126E+04 0.  0.
        3    1    3    3  502    0  0.33960325142E+03 -0.58391538391E+03 -0.83413738646E+03  0.10733465114E+04  0.10100000352E+00 0. -1.
       -3    1    3    3    0  502 -0.33960325142E+03  0.58391538391E+03  0.10630715808E+04  0.12595271891E+04  0.10100000352E+00 0.  1.
</event>
<event>
 5   0  0.4505107E-05  0.2301030E+04  0.7818609E-02  0.8477515E-01
       -2   -1    0    0    0  501  0.00000000000E+00  0.00000000000E+00  0.10038854613E+04  0.10038854613E+04  0.25500000920E-02 0.  1.
        2   -1    0    0  501    0  0.00000000000E+00  0.00000000000E+00 -0.13185617640E+04  0.13185617640E+04  0.25500000920E-02 0. -1.
    10030    2    1    2    0    0  0.00000000000E+00  0.00000000000E+00 -0.31467630268E+03  0.23224472254E+04  0.23010301908E+04 0.  0.
        4    1    3    3  502    0  0.78911304593E+03 -0.77475479645E+03 -0.47768636559E+03  0.12046286858E+04  0.12699999809E+01 0. -1.
       -4    1    3    3    0  502 -0.78911304593E+03  0.77475479645E+03  0.16301006292E+03  0.11178185396E+04  0.12699999809E+01 0.  1.
</event>
<event>
 5   0  0.4505107E-05  0.2304076E+04  0.7818609E-02  0.8476316E-01
        2   -1    0    0  501    0  0.00000000000E+00  0.00000000000E+00  0.80779167921E+03  0.80779167921E+03  0.25500000920E-02 0. -1.
       -2   -1    0    0    0  501  0.00000000000E+00  0.00000000000E+00 -0.16429867801E+04  0.16429867801E+04  0.25500000920E-02 0.  1.
    10030    2    1    2    0    0  0.00000000000E+00  0.00000000000E+00 -0.83519510084E+03  0.24507784593E+04  0.23040755630E+04 0.  0.
        4    1    3    3  502    0 -0.27615144653E+01  0.10317093396E+04 -0.96283417556E+03  0.14111991532E+04  0.12699999809E+01 0.  1.
       -4    1    3    3    0  502  0.27615144653E+01 -0.10317093396E+04  0.12763907471E+03  0.10395793061E+04  0.12699999809E+01 0. -1.
</event>
<event>
 5   0  0.1968318E-05  0.2225529E+04  0.7818609E-02  0.8507877E-01
       -1   -1    0    0    0  501  0.00000000000E+00  0.00000000000E+00  0.76295087252E+03  0.76295087254E+03  0.50400001928E-02 0. -1.
        1   -1    0    0  501    0  0.00000000000E+00  0.00000000000E+00 -0.16229678676E+04  0.16229678676E+04  0.50400001928E-02 0.  1.
    10030    2    1    2    0    0  0.00000000000E+00  0.00000000000E+00 -0.86001699504E+03  0.23859187401E+04  0.22255289265E+04 0.  0.
        3    1    3    3  502    0  0.75767704921E+02 -0.10907687736E+04 -0.20840529446E+03  0.11130813266E+04  0.10100000352E+00 0.  1.
       -3    1    3    3    0  502 -0.75767704921E+02  0.10907687736E+04 -0.65161170058E+03  0.12728374135E+04  0.10100000352E+00 0. -1.
</event>
<event>
 5   0  0.2085063E-05  0.2294936E+04  0.7818609E-02  0.8479921E-01
       -1   -1    0    0    0  501  0.00000000000E+00  0.00000000000E+00  0.70809885993E+03  0.70809885995E+03  0.50400001928E-02 0. -1.
        1   -1    0    0  501    0  0.00000000000E+00  0.00000000000E+00 -0.18594612709E+04  0.18594612709E+04  0.50400001928E-02 0.  1.
    10030    2    1    2    0    0  0.00000000000E+00  0.00000000000E+00 -0.11513624110E+04  0.25675601309E+04  0.22949356471E+04 0.  0.
        1    1    3    3  502    0 -0.29473046175E+03 -0.18264775922E+03 -0.17994475519E+04  0.18325495194E+04  0.50400001928E-02 0.  1.
       -1    1    3    3    0  502  0.29473046175E+03  0.18264775922E+03  0.64808514092E+03  0.73501061145E+03  0.50400001928E-02 0. -1.
</event>
<event>
 5   0  0.2042951E-05  0.2316347E+04  0.7818609E-02  0.8471504E-01
       -1   -1    0    0    0  501  0.00000000000E+00  0.00000000000E+00  0.92884356922E+03  0.92884356923E+03  0.50400001928E-02 0. -1.
        1   -1    0    0  501    0  0.00000000000E+00  0.00000000000E+00 -0.14441241264E+04  0.14441241264E+04  0.50400001928E-02 0.  1.
    10030    2    1    2    0    0  0.00000000000E+00  0.00000000000E+00 -0.51528055721E+03  0.23729676957E+04  0.23163466131E+04 0.  0.
        2    1    3    3  502    0  0.38384483954E+03 -0.59999606687E+03  0.67793764625E+03  0.98332679883E+03  0.25500000920E-02 0. -1.
       -2    1    3    3    0  502 -0.38384483954E+03  0.59999606687E+03 -0.11932182035E+04  0.13896408968E+04  0.25500000920E-02 0.  1.
</event>
<event>
 5   0  0.4605516E-05  0.2292467E+04  0.7818609E-02  0.8480897E-01
        2   -1    0    0  501    0  0.00000000000E+00  0.00000000000E+00  0.13405087082E+04  0.13405087082E+04  0.25500000920E-02 0. -1.
       -2   -1    0    0    0  501  0.00000000000E+00  0.00000000000E+00 -0.98011354239E+03  0.98011354239E+03  0.25500000920E-02 0.  1.
    10030    2    1    2    0    0  0.00000000000E+00  0.00000000000E+00  0.36039516585E+03  0.23206222506E+04  0.22924665656E+04 0.  0.
        1    1    3    3  502    0  0.98893405020E+02 -0.69407422187E+03  0.10981601802E+04  0.13028717176E+04  0.50400001928E-02 0. -1.
       -1    1    3    3    0  502 -0.98893405020E+02  0.69407422187E+03 -0.73776501438E+03  0.10177505330E+04  0.50400001928E-02 0.  1.
</event>
<event>
 5   0  0.4505107E-05  0.2285238E+04  0.7818609E-02  0.8483764E-01
        2   -1    0    0  501    0  0.00000000000E+00  0.00000000000E+00  0.11917817968E+04  0.11917817968E+04  0.25500000920E-02 0. -1.
       -2   -1    0    0    0  501  0.00000000000E+00  0.00000000000E+00 -0.10954843154E+04  0.10954843154E+04  0.25500000920E-02 0.  1.
    10030    2    1    2    0    0  0.00000000000E+00  0.00000000000E+00  0.96297481395E+02  0.22872661121E+04  0.22852380757E+04 0.  0.
        4    1    3    3  502    0 -0.51462238311E+02  0.46200411849E+03 -0.99655938316E+03  0.10996492098E+04  0.12699999809E+01 0.  1.
       -4    1    3    3    0  502  0.51462238311E+02 -0.46200411849E+03  0.10928568646E+04  0.11876169024E+04  0.12699999809E+01 0. -1.
</event>
<event>
 5   0  0.2043885E-05  0.2299013E+04  0.7818609E-02  0.8478310E-01
        1   -1    0    0  501    0  0.00000000000E+00  0.00000000000E+00  0.15183868612E+04  0.15183868613E+04  0.50400001928E-02 0.  1.
       -1   -1    0    0    0  501  0.00000000000E+00  0.00000000000E+00 -0.87024312639E+03  0.87024312640E+03  0.50400001928E-02 0. -1.
    10030    2    1    2    0    0  0.00000000000E+00  0.00000000000E+00  0.64814373486E+03  0.23886299877E+04  0.22990134660E+04 0.  0.
        5    1    3    3  502    0  0.36100533400E+03  0.10827125727E+04  0.46634874389E+03  0.12329211683E+04  0.46999998093E+01 0.  1.
       -5    1    3    3    0  502 -0.36100533400E+03 -0.10827125727E+04  0.18179499097E+03  0.11557088193E+04  0.46999998093E+01 0. -1.
</event>
<event>
 5   0  0.4605516E-05  0.2413133E+04  0.7818609E-02  0.8434603E-01
        2   -1    0    0  501    0  0.00000000000E+00  0.00000000000E+00  0.15687591522E+04  0.15687591522E+04  0.25500000920E-02 0. -1.
       -2   -1    0    0    0  501  0.00000000000E+00  0.00000000000E+00 -0.92799663945E+03  0.92799663945E+03  0.25500000920E-02 0.  1.
    10030    2    1    2    0    0  0.00000000000E+00  0.00000000000E+00  0.64076251272E+03  0.24967557916E+04  0.24131334164E+04 0.  0.
        1    1    3    3  502    0  0.51529099488E+03 -0.76452896872E+01 -0.80839625168E+03  0.95869064855E+03  0.50400001928E-02 0.  1.
       -1    1    3    3    0  502 -0.51529099488E+03  0.76452896872E+01  0.14491587644E+04  0.15380651431E+04  0.50400001928E-02 0. -1.
</event>
<event>
 5   0  0.1968318E-05  0.2283433E+04  0.7818609E-02  0.8484482E-01
        1   -1    0    0  501    0  0.00000000000E+00  0.00000000000E+00  0.17579575251E+04  0.17579575251E+04  0.50400001928E-02 0.  1.
       -1   -1    0    0    0  501  0.00000000000E+00  0.00000000000E+00 -0.74149500525E+03  0.74149500527E+03  0.50400001928E-02 0. -1.
    10030    2    1    2    0    0  0.00000000000E+00  0.00000000000E+00  0.10164625198E+04  0.24994525304E+04  0.22834331383E+04 0.  0.
        3    1    3    3  502    0  0.93506008497E+03  0.60597998463E+03  0.78071398014E+03  0.13605379206E+04  0.10100000352E+00 0.  1.
       -3    1    3    3    0  502 -0.93506008497E+03 -0.60597998463E+03  0.23574853969E+03  0.11389146098E+04  0.10100000352E+00 0. -1.
</event>
<event>
 5   0  0.2043885E-05  0.2169798E+04  0.7818609E-02  0.8531105E-01
       -1   -1    0    0    0  501  0.00000000000E+00  0.00000000000E+00  0.46413228075E+03  0.46413228078E+03  0.50400001928E-02 0. -1.
        1   -1    0    0  501    0  0.00000000000E+00  0.00000000000E+00 -0.25359265620E+04  0.25359265620E+04  0.50400001928E-02 0.  1.
    10030    2    1    2    0    0  0.00000000000E+00  0.00000000000E+00 -0.20717942813E+04  0.30000588428E+04  0.21697975750E+04 0.  0.
        5    1    3    3  502    0  0.83843279317E+03 -0.48302948060E+03 -0.17142337023E+04  0.19684781696E+04  0.46999998093E+01 0.  1.
       -5    1    3    3    0  502 -0.83843279317E+03  0.48302948060E+03 -0.35756057892E+03  0.10315806732E+04  0.46999998093E+01 0. -1.
</event>
<event>
 5   0  0.2043885E-05  0.2318142E+04  0.7818609E-02  0.8470802E-01
       -1   -1    0    0    0  501  0.00000000000E+00  0.00000000000E+00  0.13134949369E+04  0.13134949369E+04  0.50400001928E-02 0.  1.
        1   -1    0    0  501    0  0.00000000000E+00  0.00000000000E+00 -0.10228018287E+04  0.10228018287E+04  0.50400001928E-02 0. -1.
    10030    2    1    2    0    0  0.00000000000E+00  0.00000000000E+00  0.29069310823E+03  0.23362967656E+04  0.23181415172E+04 0.  0.
        5    1    3    3  502    0  0.61371544403E+03  0.78661395430E+03  0.73989452772E+03  0.12421248574E+04  0.46999998093E+01 0.  1.
       -5    1    3    3    0  502 -0.61371544403E+03 -0.78661395430E+03 -0.44920141949E+03  0.10941719082E+04  0.46999998093E+01 0. -1.
</event>
<event>
 5   0  0.4436695E-05  0.2290996E+04  0.7818609E-02  0.8481480E-01
        2   -1    0    0  501    0  0.00000000000E+00  0.00000000000E+00  0.22653757472E+04  0.22653757472E+04  0.25500000920E-02 0. -1.
       -2   -1    0    0    0  501  0.00000000000E+00  0.00000000000E+00 -0.57922669700E+03  0.57922669701E+03  0.25500000920E-02 0.  1.
    10030    2    1    2    0    0  0.00000000000E+00  0.00000000000E+00  0.16861490502E+04  0.28446024442E+04  0.22909963872E+04 0.  0.
        5    1    3    3  502    0 -0.87200008941E+03  0.37631552035E+03  0.16382567741E+04  0.18936485615E+04  0.46999998093E+01 0. -1.
       -5    1    3    3    0  502  0.87200008941E+03 -0.37631552035E+03  0.47892276085E+02  0.95095388264E+03  0.46999998093E+01 0.  1.
</event>
<event>
 5   0  0.4436695E-05  0.2283086E+04  0.7818609E-02  0.8484620E-01
        2   -1    0    0  501    0  0.00000000000E+00  0.00000000000E+00  0.14306496908E+04  0.14306496908E+04  0.25500000920E-02 0. -1.
       -2   -1    0    0    0  501  0.00000000000E+00  0.00000000000E+00 -0.91085955772E+03  0.91085955773E+03  0.25500000920E-02 0.  1.
    10030    2    1    2    0    0  0.00000000000E+00  0.00000000000E+00  0.51979013306E+03  0.23415092485E+04  0.22830864588E+04 0.  0.
        5    1    3    3  502    0 -0.24117778772E+03 -0.10546378048E+04  0.63345638274E+03  0.12536812607E+04  0.46999998093E+01 0. -1.
       -5    1    3    3    0  502  0.24117778772E+03  0.10546378048E+04 -0.11366624968E+03  0.10878279878E+04  0.46999998093E+01 0.  1.
</event>
<event>
 5   0  0.4505107E-05  0.2293895E+04  0.7818609E-02  0.8480332E-01
        2   -1    0    0  501    0  0.00000000000E+00  0.00000000000E+00  0.10990099174E+04  0.10990099174E+04  0.25500000920E-02 0. -1.
       -2   -1    0    0    0  501  0.00000000000E+00  0.00000000000E+00 -0.11969764380E+04  0.11969764380E+04  0.25500000920E-02 0.  1.
    10030    2    1    2    0    0  0.00000000000E+00  0.00000000000E+00 -0.97966520578E+02  0.22959863554E+04  0.22938953562E+04 0.  0.
        4    1    3    3  502    0  0.34328825201E+03  0.78203242189E+03  0.71726394107E+03  0.11152984833E+04  0.12699999809E+01 0. -1.
       -4    1    3    3    0  502 -0.34328825201E+03 -0.78203242189E+03 -0.81523046165E+03  0.11806878721E+04  0.12699999809E+01 0.  1.
</event>
<event>
 5   0  0.2085063E-05  0.2304864E+04  0.7818609E-02  0.8476006E-01
        1   -1    0    0  501    0  0.00000000000E+00  0.00000000000E+00  0.23362335233E+04  0.23362335233E+04  0.50400001928E-02 0.  1.
       -1   -1    0    0    0  501  0.00000000000E+00  0.00000000000E+00 -0.56847891426E+03  0.56847891428E+03  0.50400001928E-02 0. -1.
    10030    2    1    2    0    0  0.00000000000E+00  0.00000000000E+00  0.17677546091E+04  0.29047124376E+04  0.23048639846E+04 0.  0.
        1    1    3    3  502    0  0.32565087851E+03  0.95998442610E+03  0.19305511160E+03  0.10319345276E+04  0.50400001928E-02 0. -1.
       -1    1    3    3    0  502 -0.32565087851E+03 -0.95998442610E+03  0.15746994975E+04  0.18727779101E+04  0.50400001928E-02 0.  1.
</event>
<event>
 5   0  0.4436695E-05  0.2315408E+04  0.7818609E-02  0.8471871E-01
       -2   -1    0    0    0  501  0.00000000000E+00  0.00000000000E+00  0.90832330545E+03  0.90832330546E+03  0.25500000920E-02 0.  1.
        2   -1    0    0  501    0  0.00000000000E+00  0.00000000000E+00 -0.14755522105E+04  0.14755522105E+04  0.25500000920E-02 0. -1.
    10030    2    1    2    0    0  0.00000000000E+00  0.00000000000E+00 -0.56722890502E+03  0.23838755159E+04  0.23154079219E+04 0.  0.
        5    1    3    3  502    0  0.16208170685E+03 -0.32694101610E+03  0.84755291317E+03  0.92278325642E+03  0.46999998093E+01 0.  1.
       -5    1    3    3    0  502 -0.16208170685E+03  0.32694101610E+03 -0.14147818182E+04  0.14610922595E+04  0.46999998093E+01 0. -1.
</event>
<event>
 5   0  0.2043885E-05  0.2303307E+04  0.7818609E-02  0.8476618E-01
        1   -1    0    0  501    0  0.00000000000E+00  0.00000000000E+00  0.55790996541E+03  0.55790996543E+03  0.50400001928E-02 0. -1.
       -1   -1    0    0    0  501  0.00000000000E+00  0.00000000000E+00 -0.23772761764E+04  0.23772761764E+04  0.50400001928E-02 0.  1.
    10030    2    1    2    0    0  0.00000000000E+00  0.00000000000E+00 -0.18193662110E+04  0.29351861418E+04  0.23033072478E+04 0.  0.
        5    1    3    3  502    0 -0.38780488379E+03 -0.10572145368E+04 -0.60228344733E+03  0.12770523269E+04  0.46999998093E+01 0. -1.
       -5    1    3    3    0  502  0.38780488379E+03  0.10572145368E+04 -0.12170827637E+04  0.16581338150E+04  0.46999998093E+01 0.  1.
</event>
<event>
 5   0  0.4602447E-05  0.2364555E+04  0.7818609E-02  0.8452894E-01
       -2   -1    0    0    0  501  0.00000000000E+00  0.00000000000E+00  0.11877212831E+04  0.11877212831E+04  0.25500000920E-02 0.  1.
        2   -1    0    0  501    0  0.00000000000E+00  0.00000000000E+00 -0.11768586422E+04  0.11768586422E+04  0.25500000920E-02 0. -1.
    10030    2    1    2    0    0  0.00000000000E+00  0.00000000000E+00  0.10862640898E+02  0.23645799254E+04  0.23645549743E+04 0.  0.
        3    1    3    3  502    0  0.10913109013E+04 -0.44949514119E+03  0.74531117885E+02  0.11826074002E+04  0.10100000352E+00 0. -1.
       -3    1    3    3    0  502 -0.10913109013E+04  0.44949514119E+03 -0.63668476987E+02  0.11819725252E+04  0.10100000352E+00 0.  1.
</event>
<event>
 5   0  0.4436695E-05  0.2275379E+04  0.7818609E-02  0.8487692E-01
        2   -1    0    0  501    0  0.00000000000E+00  0.00000000000E+00  0.14740181904E+04  0.14740181904E+04  0.25500000920E-02 0.  1.
       -2   -1    0    0    0  501  0.00000000000E+00  0.00000000000E+00 -0.87810159619E+03  0.87810159620E+03  0.25500000920E-02 0. -1.
    10030    2    1    2    0    0  0.00000000000E+00  0.00000000000E+00  0.59591659417E+03  0.23521197866E+04  0.22753792878E+04 0.  0.
        5    1    3    3  502    0 -0.51325607251E+03 -0.33527581958E+03 -0.69273462426E+03  0.92506487384E+03  0.46999998093E+01 0. -1.
       -5    1    3    3    0  502  0.51325607251E+03  0.33527581958E+03  0.12886512184E+04  0.14270549127E+04  0.46999998093E+01 0.  1.
</event>
<event>
 5   0  0.2031860E-05  0.2562077E+04  0.7818609E-02  0.8381198E-01
        1   -1    0    0  501    0  0.00000000000E+00  0.00000000000E+00  0.10375782063E+04  0.10375782063E+04  0.50400001928E-02 0. -1.
       -1   -1    0    0    0  501  0.00000000000E+00  0.00000000000E+00 -0.15816254247E+04  0.15816254247E+04  0.50400001928E-02 0.  1.
    10030    2    1    2    0    0  0.00000000000E+00  0.00000000000E+00 -0.54404721835E+03  0.26192036310E+04  0.25620773378E+04 0.  0.
        4    1    3    3  502    0  0.64772888177E+03  0.10353711610E+04 -0.66731331939E+03  0.13917093175E+04  0.12699999809E+01 0.  1.
       -4    1    3    3    0  502 -0.64772888177E+03 -0.10353711610E+04  0.12326610103E+03  0.12274943135E+04  0.12699999809E+01 0. -1.
</event>
<event>
 5   0  0.4602447E-05  0.2304519E+04  0.7818609E-02  0.8476141E-01
        2   -1    0    0  501    0  0.00000000000E+00  0.00000000000E+00  0.11970709935E+04  0.11970709935E+04  0.25500000920E-02 0. -1.
       -2   -1    0    0    0  501  0.00000000000E+00  0.00000000000E+00 -0.11091255145E+04  0.11091255145E+04  0.25500000920E-02 0.  1.
    10030    2    1    2    0    0  0.00000000000E+00  0.00000000000E+00  0.87945479026E+02  0.23061965079E+04  0.23045190227E+04 0.  0.
        3    1    3    3  502    0 -0.88417495471E+02 -0.99277992650E+03 -0.53461100861E+03  0.11310342951E+04  0.10100000352E+00 0.  1.
       -3    1    3    3    0  502  0.88417495471E+02  0.99277992650E+03  0.62255648763E+03  0.11751622128E+04  0.10100000352E+00 0. -1.
</event>
<event>
 5   0  0.4798609E-05  0.2441334E+04  0.7818609E-02  0.8424189E-01
        2   -1    0    0  501    0  0.00000000000E+00  0.00000000000E+00  0.82734767250E+03  0.82734767250E+03  0.25500000920E-02 0. -1.
       -2   -1    0    0    0  501  0.00000000000E+00  0.00000000000E+00 -0.18009697083E+04  0.18009697083E+04  0.25500000920E-02 0.  1.
    10030    2    1    2    0    0  0.00000000000E+00  0.00000000000E+00 -0.97362203579E+03  0.26283173808E+04  0.24413341405E+04 0.  0.
        2    1    3    3  502    0 -0.92221010588E+03  0.97440919234E+02 -0.13413702814E+04  0.16307177696E+04  0.25500000920E-02 0.  1.
       -2    1    3    3    0  502  0.92221010588E+03 -0.97440919234E+02  0.36774824563E+03  0.99759961122E+03  0.25500000920E-02 0. -1.
</event>
<event>
 5   0  0.4505107E-05  0.2256487E+04  0.7818609E-02  0.8495278E-01
        2   -1    0    0  501    0  0.00000000000E+00  0.00000000000E+00  0.19429275563E+04  0.19429275563E+04  0.25500000920E-02 0.  1.
       -2   -1    0    0    0  501  0.00000000000E+00  0.00000000000E+00 -0.65516276157E+03  0.65516276157E+03  0.25500000920E-02 0. -1.
    10030    2    1    2    0    0  0.00000000000E+00  0.00000000000E+00  0.12877647947E+04  0.25980903179E+04  0.22564873439E+04 0.  0.
        4    1    3    3  502    0  0.20602316215E+01 -0.93573364824E+03  0.13696494945E+04  0.16587775787E+04  0.12699999809E+01 0.  1.
       -4    1    3    3    0  502 -0.20602316215E+01  0.93573364824E+03 -0.81884699754E+02  0.93931273916E+03  0.12699999809E+01 0. -1.
</event>
<event>
 5   0  0.4436695E-05  0.2307654E+04  0.7818609E-02  0.8474909E-01
        2   -1    0    0  501    0  0.00000000000E+00  0.00000000000E+00  0.16872286890E+04  0.16872286890E+04  0.25500000920E-02 0.  1.
       -2   -1    0    0    0  501  0.00000000000E+00  0.00000000000E+00 -0.78905539644E+03  0.78905539645E+03  0.25500000920E-02 0. -1.
    10030    2    1    2    0    0  0.00000000000E+00  0.00000000000E+00  0.89817329261E+03  0.24762840855E+04  0.23076541354E+04 0.  0.
        5    1    3    3  502    0 -0.26793841202E+01  0.73253022714E+02 -0.78654401175E+03  0.78996630109E+03  0.46999998093E+01 0. -1.
       -5    1    3    3    0  502  0.26793841202E+01 -0.73253022714E+02  0.16847173044E+04  0.16863177844E+04  0.46999998093E+01 0.  1.
</event>
<event>
 5   0  0.4605516E-05  0.2289947E+04  0.7818609E-02  0.8481895E-01
       -2   -1    0    0    0  501  0.00000000000E+00  0.00000000000E+00  0.76996527774E+03  0.76996527775E+03  0.25500000920E-02 0. -1.
        2   -1    0    0  501    0  0.00000000000E+00  0.00000000000E+00 -0.17026280943E+04  0.17026280943E+04  0.25500000920E-02 0.  1.
    10030    2    1    2    0    0  0.00000000000E+00  0.00000000000E+00 -0.93266281652E+03  0.24725933720E+04  0.22899471728E+04 0.  0.
        1    1    3    3  502    0 -0.26626658237E+03  0.16494891068E+03  0.72280671102E+03  0.78775350049E+03  0.50400001928E-02 0. -1.
       -1    1    3    3    0  502  0.26626658237E+03 -0.16494891068E+03 -0.16554695275E+04  0.16848398715E+04  0.50400001928E-02 0.  1.
</event>
<event>
 5   0  0.4605516E-05  0.2294515E+04  0.7818609E-02  0.8480087E-01
       -2   -1    0    0    0  501  0.00000000000E+00  0.00000000000E+00  0.14197410058E+04  0.14197410058E+04  0.25500000920E-02 0.  1.
        2   -1    0    0  501    0  0.00000000000E+00  0.00000000000E+00 -0.92707069879E+03  0.92707069879E+03  0.25500000920E-02 0. -1.
    10030    2    1    2    0    0  0.00000000000E+00  0.00000000000E+00  0.49267030706E+03  0.23468117046E+04  0.22945154490E+04 0.  0.
        1    1    3    3  502    0  0.78350517507E+03  0.77733027255E+03  0.56664634852E+03  0.12406493446E+04  0.50400001928E-02 0.  1.
       -1    1    3    3    0  502 -0.78350517507E+03 -0.77733027255E+03 -0.73976041460E+02  0.11061623600E+04  0.50400001928E-02 0. -1.
</event>
<event>
 5   0  0.2085063E-05  0.2301934E+04  0.7818609E-02  0.8477159E-01
        1   -1    0    0  501    0  0.00000000000E+00  0.00000000000E+00  0.12413541282E+04  0.12413541282E+04  0.50400001928E-02 0.  1.
       -1   -1    0    0    0  501  0.00000000000E+00  0.00000000000E+00 -0.10671609116E+04  0.10671609117E+04  0.50400001928E-02 0. -1.
    10030    2    1    2    0    0  0.00000000000E+00  0.00000000000E+00  0.17419321658E+03  0.23085150399E+04  0.23019336247E+04 0.  0.
        1    1    3    3  502    0  0.84451975254E+02 -0.87916261630E+03 -0.65302804307E+03  0.10984100633E+04  0.50400001928E-02 0. -1.
       -1    1    3    3    0  502 -0.84451975254E+02  0.87916261630E+03  0.82722125965E+03  0.12101049766E+04  0.50400001928E-02 0.  1.
</event>
<event>
 5   0  0.2042951E-05  0.2249485E+04  0.7818609E-02  0.8498109E-01
        1   -1    0    0  501    0  0.00000000000E+00  0.00000000000E+00  0.22541068655E+04  0.22541068655E+04  0.50400001928E-02 0. -1.
       -1   -1    0    0    0  501  0.00000000000E+00  0.00000000000E+00 -0.56121837691E+03  0.56121837694E+03  0.50400001928E-02 0.  1.
    10030    2    1    2    0    0  0.00000000000E+00  0.00000000000E+00  0.16928884886E+04  0.28153252424E+04  0.22494854491E+04 0.  0.
        2    1    3    3  502    0 -0.71822407370E+03 -0.44631754204E+03 -0.81724921053E+02  0.84954348394E+03  0.25500000920E-02 0.  1.
       -2    1    3    3    0  502  0.71822407370E+03  0.44631754204E+03  0.17746134096E+04  0.19657817585E+04  0.25500000920E-02 0. -1.
</event>
<event>
 5   0  0.4605516E-05  0.2273423E+04  0.7818609E-02  0.8488474E-01
        2   -1    0    0  501    0  0.00000000000E+00  0.00000000000E+00  0.78458964670E+03  0.78458964670E+03  0.25500000920E-02 0.  1.
       -2   -1    0    0    0  501  0.00000000000E+00  0.00000000000E+00 -0.16468648845E+04  0.16468648845E+04  0.25500000920E-02 0. -1.
    10030    2    1    2    0    0  0.00000000000E+00  0.00000000000E+00 -0.86227523781E+03  0.24314545312E+04  0.22734230912E+04 0.  0.
        1    1    3    3  502    0 -0.32998951440E+03  0.47834775889E+03  0.61370743892E+03  0.84519020265E+03  0.50400001928E-02 0.  1.
       -1    1    3    3    0  502  0.32998951440E+03 -0.47834775889E+03 -0.14759826767E+04  0.15862643286E+04  0.50400001928E-02 0. -1.
</event>
<event>
 5   0  0.2043885E-05  0.2294791E+04  0.7818609E-02  0.8479978E-01
        1   -1    0    0  501    0  0.00000000000E+00  0.00000000000E+00  0.75103020794E+03  0.75103020796E+03  0.50400001928E-02 0.  1.
       -1   -1    0    0    0  501  0.00000000000E+00  0.00000000000E+00 -0.17529470601E+04  0.17529470601E+04  0.50400001928E-02 0. -1.
    10030    2    1    2    0    0  0.00000000000E+00  0.00000000000E+00 -0.10019168522E+04  0.25039772681E+04  0.22947907923E+04 0.  0.
        5    1    3    3  502    0 -0.98850999294E+02  0.11314986961E+04 -0.32355465024E+03  0.11810040309E+04  0.46999998093E+01 0.  1.
       -5    1    3    3    0  502  0.98850999294E+02 -0.11314986961E+04 -0.67836220195E+03  0.13229732372E+04  0.46999998093E+01 0. -1.
</event>
<event>
 5   0  0.4436695E-05  0.2298421E+04  0.7818609E-02  0.8478544E-01
        2   -1    0    0  501    0  0.00000000000E+00  0.00000000000E+00  0.11737944389E+04  0.11737944389E+04  0.25500000920E-02 0.  1.
       -2   -1    0    0    0  501  0.00000000000E+00  0.00000000000E+00 -0.11251418868E+04  0.11251418868E+04  0.25500000920E-02 0. -1.
    10030    2    1    2    0    0  0.00000000000E+00  0.00000000000E+00  0.48652552099E+02  0.22989363257E+04  0.22984214493E+04 0.  0.
        5    1    3    3  502    0 -0.34620280575E+03 -0.77450741974E+03 -0.75105385198E+03  0.11330587383E+04  0.46999998093E+01 0. -1.
       -5    1    3    3    0  502  0.34620280575E+03  0.77450741974E+03  0.79970640408E+03  0.11658775873E+04  0.46999998093E+01 0.  1.
</event>
<event>
 5   0  0.1968318E-05  0.2343512E+04  0.7818609E-02  0.8460960E-01
       -1   -1    0    0    0  501  0.00000000000E+00  0.00000000000E+00  0.10405875224E+04  0.10405875224E+04  0.50400001928E-02 0.  1.
        1   -1    0    0  501    0  0.00000000000E+00  0.00000000000E+00 -0.13194581984E+04  0.13194581984E+04  0.50400001928E-02 0. -1.
    10030    2    1    2    0    0  0.00000000000E+00  0.00000000000E+00 -0.27887067596E+03  0.23600457208E+04  0.23435116707E+04 0.  0.
        3    1    3    3  502    0  0.55142762908E+03 -0.96932317461E+03 -0.50162801837E+03  0.12228207252E+04  0.10100000352E+00 0. -1.
       -3    1    3    3    0  502 -0.55142762908E+03  0.96932317461E+03  0.22275734240E+03  0.11372249956E+04  0.10100000352E+00 0.  1.
</event>
<event>
 5   0  0.4798609E-05  0.2292472E+04  0.7818609E-02  0.8480895E-01
        2   -1    0    0  501    0  0.00000000000E+00  0.00000000000E+00  0.11586560363E+04  0.11586560363E+04  0.25500000920E-02 0.  1.
       -2   -1    0    0    0  501  0.00000000000E+00  0.00000000000E+00 -0.11339494727E+04  0.11339494727E+04  0.25500000920E-02 0. -1.
    10030    2    1    2    0    0  0.00000000000E+00  0.00000000000E+00  0.24706563529E+02  0.22926055090E+04  0.22924723784E+04 0.  0.
        2    1    3    3  502    0 -0.79481870572E+03 -0.36033310863E+03  0.75555232931E+03  0.11543119364E+04  0.25500000920E-02 0.  1.
       -2    1    3    3    0  502  0.79481870572E+03  0.36033310863E+03 -0.73084576578E+03  0.11382935726E+04  0.25500000920E-02 0. -1.
</event>
<event>
 5   0  0.2031860E-05  0.2018586E+04  0.7818609E-02  0.8597980E-01
       -1   -1    0    0    0  501  0.00000000000E+00  0.00000000000E+00  0.88434050560E+03  0.88434050561E+03  0.50400001928E-02 0.  1.
        1   -1    0    0  501    0  0.00000000000E+00  0.00000000000E+00 -0.11519008987E+04  0.11519008987E+04  0.50400001928E-02 0. -1.
    10030    2    1    2    0    0  0.00000000000E+00  0.00000000000E+00 -0.26756039310E+03  0.20362414043E+04  0.20185862609E+04 0.  0.
        4    1    3    3  502    0 -0.86900095674E+01 -0.15494187329E+03 -0.11397933750E+04  0.11503099804E+04  0.12699999809E+01 0. -1.
       -4    1    3    3    0  502  0.86900095674E+01  0.15494187329E+03  0.87223298189E+03  0.88593142396E+03  0.12699999809E+01 0.  1.
</event>
<event>
 5   0  0.2043885E-05  0.2291914E+04  0.7818609E-02  0.8481116E-01
       -1   -1    0    0    0  501  0.00000000000E+00  0.00000000000E+00  0.91147788193E+03  0.91147788194E+03  0.50400001928E-02 0.  1.
        1   -1    0    0  501    0  0.00000000000E+00  0.00000000000E+00 -0.14407562355E+04  0.14407562355E+04  0.50400001928E-02 0. -1.
    10030    2    1    2    0    0  0.00000000000E+00  0.00000000000E+00 -0.52927835359E+03  0.23522341175E+04  0.22919139966E+04 0.  0.
        5    1    3    3  502    0 -0.11295592358E+04  0.66928213553E+02 -0.45054710470E+03  0.12179483719E+04  0.46999998093E+01 0. -1.
       -5    1    3    3    0  502  0.11295592358E+04 -0.66928213553E+02 -0.78731248895E+02  0.11342857456E+04  0.46999998093E+01 0.  1.
</event>
<event>
 5   0  0.2085063E-05  0.2292166E+04  0.7818609E-02  0.8481017E-01
        1   -1    0    0  501    0  0.00000000000E+00  0.00000000000E+00  0.14189080803E+04  0.14189080804E+04  0.50400001928E-02 0. -1.
       -1   -1    0    0    0  501  0.00000000000E+00  0.00000000000E+00 -0.92571585397E+03  0.92571585398E+03  0.50400001928E-02 0.  1.
    10030    2    1    2    0    0  0.00000000000E+00  0.00000000000E+00  0.49319222638E+03  0.23446239343E+04  0.22921655310E+04 0.  0.
        1    1    3    3  502    0  0.52496604084E+03 -0.47711223454E+03 -0.67416050793E+03  0.97863058344E+03  0.50400001928E-02 0.  1.
       -1    1    3    3    0  502 -0.52496604084E+03  0.47711223454E+03  0.11673527343E+04  0.13659933509E+04  0.50400001928E-02 0. -1.
</event>
<event>
 5   0  0.2042951E-05  0.2317901E+04  0.7818609E-02  0.8470896E-01
        1   -1    0    0  501    0  0.00000000000E+00  0.00000000000E+00  0.26203583128E+04  0.26203583128E+04  0.50400001928E-02 0.  1.
       -1   -1    0    0    0  501  0.00000000000E+00  0.00000000000E+00 -0.51258878172E+03  0.51258878174E+03  0.50400001928E-02 0. -1.
    10030    2    1    2    0    0  0.00000000000E+00  0.00000000000E+00  0.21077695310E+04  0.31329470945E+04  0.23179010119E+04 0.  0.
        2    1    3    3  502    0  0.89576288236E+03  0.54942134607E+03  0.39322700878E+03  0.11219993036E+04  0.25500000920E-02 0.  1.
       -2    1    3    3    0  502 -0.89576288236E+03 -0.54942134607E+03  0.17145425223E+04  0.20109477909E+04  0.25500000920E-02 0. -1.
</event>
<event>
 5   0  0.4602447E-05  0.2312238E+04  0.7818609E-02  0.8473111E-01
        2   -1    0    0  501    0  0.00000000000E+00  0.00000000000E+00  0.16220343660E+04  0.16220343660E+04  0.25500000920E-02 0.  1.
       -2   -1    0    0    0  501  0.00000000000E+00  0.00000000000E+00 -0.82403405459E+03  0.82403405459E+03  0.25500000920E-02 0. -1.
    10030    2    1    2    0    0  0.00000000000E+00  0.00000000000E+00  0.79800031144E+03  0.24460684206E+04  0.23122383574E+04 0.  0.
        3    1    3    3  502    0  0.52325448974E+03 -0.26528055223E+03  0.14528741292E+04  0.15668478796E+04  0.10100000352E+00 0.  1.
       -3    1    3    3    0  502 -0.52325448974E+03  0.26528055223E+03 -0.65487381771E+03  0.87922054102E+03  0.10100000352E+00 0. -1.
</event>
<event>
 5   0  0.4605516E-05  0.2302981E+04  0.7818609E-02  0.8476747E-01
        2   -1    0    0  501    0  0.00000000000E+00  0.00000000000E+00  0.11266248194E+04  0.11266248194E+04  0.25500000920E-02 0. -1.
       -2   -1    0    0    0  501  0.00000000000E+00  0.00000000000E+00 -0.11769046859E+04  0.11769046859E+04  0.25500000920E-02 0.  1.
    10030    2    1    2    0    0  0.00000000000E+00  0.00000000000E+00 -0.50279866464E+02  0.23035295054E+04  0.23029807027E+04 0.  0.
        1    1    3    3  502    0 -0.74772358099E+03  0.45468328943E+03  0.72343842595E+03  0.11354252963E+04  0.50400001928E-02 0. -1.
       -1    1    3    3    0  502  0.74772358099E+03 -0.45468328943E+03 -0.77371829241E+03  0.11681042091E+04  0.50400001928E-02 0.  1.
</event>
<event>
 5   0  0.2042951E-05  0.2327762E+04  0.7818609E-02  0.8467055E-01
        1   -1    0    0  501    0  0.00000000000E+00  0.00000000000E+00  0.14161225146E+04  0.14161225146E+04  0.50400001928E-02 0.  1.
       -1   -1    0    0    0  501  0.00000000000E+00  0.00000000000E+00 -0.95656883591E+03  0.95656883593E+03  0.50400001928E-02 0. -1.
    10030    2    1    2    0    0  0.00000000000E+00  0.00000000000E+00  0.45955367866E+03  0.23726913505E+04  0.23277617278E+04 0.  0.
        2    1    3    3  502    0 -0.59443287747E+01  0.10729433339E+04  0.68945355143E+03  0.12753779567E+04  0.25500000920E-02 0. -1.
       -2    1    3    3    0  502  0.59443287747E+01 -0.10729433339E+04 -0.22989987278E+03  0.10973133938E+04  0.25500000920E-02 0.  1.
</event>
<event>
 5   0  0.2031860E-05  0.2289468E+04  0.7818609E-02  0.8482085E-01
       -1   -1    0    0    0  501  0.00000000000E+00  0.00000000000E+00  0.22426014034E+04  0.22426014034E+04  0.50400001928E-02 0.  1.
        1   -1    0    0  501    0  0.00000000000E+00  0.00000000000E+00 -0.58432845192E+03  0.58432845195E+03  0.50400001928E-02 0. -1.
    10030    2    1    2    0    0  0.00000000000E+00  0.00000000000E+00  0.16582729515E+04  0.28269298554E+04  0.22894678914E+04 0.  0.
        4    1    3    3  502    0  0.13490532214E+03 -0.10436905432E+04  0.13853583140E+04  0.17397438510E+04  0.12699999809E+01 0.  1.
       -4    1    3    3    0  502 -0.13490532214E+03  0.10436905432E+04  0.27291463752E+03  0.10871860044E+04  0.12699999809E+01 0. -1.
</event>
<event>
 5   0  0.1968318E-05  0.2299503E+04  0.7818609E-02  0.8478117E-01
        1   -1    0    0  501    0  0.00000000000E+00  0.00000000000E+00  0.15770610663E+04  0.15770610663E+04  0.50400001928E-02 0. -1.
       -1   -1    0    0    0  501  0.00000000000E+00  0.00000000000E+00 -0.83822255212E+03  0.83822255213E+03  0.50400001928E-02 0.  1.
    10030    2    1    2    0    0  0.00000000000E+00  0.00000000000E+00  0.73883851414E+03  0.24152836184E+04  0.22995026870E+04 0.  0.
        3    1    3    3  502    0  0.82514251398E+02  0.69602341707E+03 -0.58788220869E+03  0.91480200059E+03  0.10100000352E+00 0.  1.
       -3    1    3    3    0  502 -0.82514251398E+02 -0.69602341707E+03  0.13267207228E+04  0.15004816178E+04  0.10100000352E+00 0. -1.
</event>
<event>
 5   0  0.2031860E-05  0.2299056E+04  0.7818609E-02  0.8478293E-01
       -1   -1    0    0    0  501  0.00000000000E+00  0.00000000000E+00  0.10216719012E+04  0.10216719013E+04  0.50400001928E-02 0.  1.
        1   -1    0    0  501    0  0.00000000000E+00  0.00000000000E+00 -0.12933843068E+04  0.12933843068E+04  0.50400001928E-02 0. -1.
    10030    2    1    2    0    0  0.00000000000E+00  0.00000000000E+00 -0.27171240559E+03  0.23150562081E+04  0.22990558095E+04 0.  0.
        4    1    3    3  502    0 -0.97621445097E+03  0.34932842985E+03  0.36397298388E+03  0.10988643920E+04  0.12699999809E+01 0.  1.
       -4    1    3    3    0  502  0.97621445097E+03 -0.34932842985E+03 -0.63568538948E+03  0.12161918161E+04  0.12699999809E+01 0. -1.
</event>
<event>
 5   0  0.4798609E-05  0.2299416E+04  0.7818609E-02  0.8478152E-01
       -2   -1    0    0    0  501  0.00000000000E+00  0.00000000000E+00  0.67288708501E+03  0.67288708502E+03  0.25500000920E-02 0. -1.
        2   -1    0    0  501    0  0.00000000000E+00  0.00000000000E+00 -0.19644129262E+04  0.19644129262E+04  0.25500000920E-02 0.  1.
    10030    2    1    2    0    0  0.00000000000E+00  0.00000000000E+00 -0.12915258412E+04  0.26373000112E+04  0.22994156542E+04 0.  0.
        2    1    3    3  502    0 -0.59159132504E+03  0.60550172973E+03  0.24650864843E+03  0.88169107646E+03  0.25500000920E-02 0. -1.
       -2    1    3    3    0  502  0.59159132504E+03 -0.60550172973E+03 -0.15380344896E+04  0.17556089348E+04  0.25500000920E-02 0.  1.
</event>
<event>
 5   0  0.4605516E-05  0.2362286E+04  0.7818609E-02  0.8453760E-01
        2   -1    0    0  501    0  0.00000000000E+00  0.00000000000E+00  0.15489236098E+04  0.15489236098E+04  0.25500000920E-02 0.  1.
       -2   -1    0    0    0  501  0.00000000000E+00  0.00000000000E+00 -0.90068896019E+03  0.90068896020E+03  0.25500000920E-02 0. -1.
    10030    2    1    2    0    0  0.00000000000E+00  0.00000000000E+00  0.64823464963E+03  0.24496125700E+04  0.23622856691E+04 0.  0.
        1    1    3    3  502    0  0.54951785993E+03 -0.55556234194E+03 -0.59433294938E+03  0.98175916034E+03  0.50400001928E-02 0. -1.
       -1    1    3    3    0  502 -0.54951785993E+03  0.55556234194E+03  0.12425675990E+04  0.14678534097E+04  0.50400001928E-02 0.  1.
</event>
<event>
 5   0  0.2085063E-05  0.2304010E+04  0.7818609E-02  0.8476342E-01
       -1   -1    0    0    0  501  0.00000000000E+00  0.00000000000E+00  0.70650462191E+03  0.70650462192E+03  0.50400001928E-02 0.  1.
        1   -1    0    0  501    0  0.00000000000E+00  0.00000000000E+00 -0.18784242405E+04  0.18784242405E+04  0.50400001928E-02 0. -1.
    10030    2    1    2    0    0  0.00000000000E+00  0.00000000000E+00 -0.11719196186E+04  0.25849288625E+04  0.23040099026E+04 0.  0.
        1    1    3    3  502    0  0.34518182677E+03 -0.79860455199E+03  0.26122121026E+03  0.90838111204E+03  0.50400001928E-02 0.  1.
       -1    1    3    3    0  502 -0.34518182677E+03  0.79860455199E+03 -0.14331408289E+04  0.16765477504E+04  0.50400001928E-02 0. -1.
</event>
<event>
 5   0  0.4798609E-05  0.2270878E+04  0.7818609E-02  0.8489493E-01
       -2   -1    0    0    0  501  0.00000000000E+00  0.00000000000E+00  0.80616610917E+03  0.80616610917E+03  0.25500000920E-02 0.  1.
        2   -1    0    0  501    0  0.00000000000E+00  0.00000000000E+00 -0.15992008364E+04  0.15992008364E+04  0.25500000920E-02 0. -1.
    10030    2    1    2    0    0  0.00000000000E+00  0.00000000000E+00 -0.79303472723E+03  0.24053669456E+04  0.22708778180E+04 0.  0.
        2    1    3    3  502    0 -0.41373931070E+03  0.47701048792E+03  0.60303394390E+03  0.87313753803E+03  0.25500000920E-02 0.  1.
       -2    1    3    3    0  502  0.41373931070E+03 -0.47701048792E+03 -0.13960686711E+04  0.15322294075E+04  0.25500000920E-02 0. -1.
</event>
<event>
 5   0  0.1968318E-05  0.2298184E+04  0.7818609E-02  0.8478637E-01
       -1   -1    0    0    0  501  0.00000000000E+00  0.00000000000E+00  0.25820546642E+04  0.25820546642E+04  0.50400001928E-02 0.  1.
        1   -1    0    0  501    0  0.00000000000E+00  0.00000000000E+00 -0.51138067625E+03  0.51138067627E+03  0.50400001928E-02 0. -1.
    10030    2    1    2    0    0  0.00000000000E+00  0.00000000000E+00  0.20706739880E+04  0.30934353405E+04  0.22981843793E+04 0.  0.
        3    1    3    3  502    0  0.65677650014E+03  0.67668208722E+03  0.19191793650E+04  0.21383412879E+04  0.10100000352E+00 0.  1.
       -3    1    3    3    0  502 -0.65677650014E+03 -0.67668208722E+03  0.15149462297E+03  0.95509405259E+03  0.10100000352E+00 0. -1.
</event>
<event>
 5   0  0.4605516E-05  0.2312067E+04  0.7818609E-02  0.8473178E-01
       -2   -1    0    0    0  501  0.00000000000E+00  0.00000000000E+00  0.46507287039E+03  0.46507287040E+03  0.25500000920E-02 0.  1.
        2   -1    0    0  501    0  0.00000000000E+00  0.00000000000E+00 -0.28735580029E+04  0.28735580029E+04  0.25500000920E-02 0. -1.
    10030    2    1    2    0    0  0.00000000000E+00  0.00000000000E+00 -0.24084851325E+04  0.33386308733E+04  0.23120673594E+04 0.  0.
        1    1    3    3  502    0  0.10349790786E+04  0.28252500847E+03 -0.58246277637E+03  0.12207640884E+04  0.50400001928E-02 0.  1.
       -1    1    3    3    0  502 -0.10349790786E+04 -0.28252500847E+03 -0.18260223561E+04  0.21178667849E+04  0.50400001928E-02 0. -1.
</event>
<event>
 5   0  0.1968318E-05  0.2286707E+04  0.7818609E-02  0.8483181E-01
       -1   -1    0    0    0  501  0.00000000000E+00  0.00000000000E+00  0.11817238072E+04  0.11817238072E+04  0.50400001928E-02 0.  1.
        1   -1    0    0  501    0  0.00000000000E+00  0.00000000000E+00 -0.11062294558E+04  0.11062294558E+04  0.50400001928E-02 0. -1.
    10030    2    1    2    0    0  0.00000000000E+00  0.00000000000E+00  0.75494351445E+02  0.22879532630E+04  0.22867074008E+04 0.  0.
        3    1    3    3  502    0 -0.33784573091E+00  0.80242775249E+03 -0.77717018263E+03  0.11170872460E+04  0.10100000352E+00 0. -1.
       -3    1    3    3    0  502  0.33784573091E+00 -0.80242775249E+03  0.85266453408E+03  0.11708660171E+04  0.10100000352E+00 0.  1.
</event>
<event>
 5   0  0.4436695E-05  0.2299156E+04  0.7818609E-02  0.8478254E-01
        2   -1    0    0  501    0  0.00000000000E+00  0.00000000000E+00  0.15031960644E+04  0.15031960644E+04  0.25500000920E-02 0.  1.
       -2   -1    0    0    0  501  0.00000000000E+00  0.00000000000E+00 -0.87914654277E+03  0.87914654277E+03  0.25500000920E-02 0. -1.
    10030    2    1    2    0    0  0.00000000000E+00  0.00000000000E+00  0.62404952163E+03  0.23823426072E+04  0.22991560392E+04 0.  0.
        5    1    3    3  502    0 -0.37867792786E+03 -0.61506411237E+03 -0.61465203717E+03  0.94843030960E+03  0.46999998093E+01 0. -1.
       -5    1    3    3    0  502  0.37867792786E+03  0.61506411237E+03  0.12387015588E+04  0.14339122976E+04  0.46999998093E+01 0.  1.
</event>
<event>
 5   0  0.4605516E-05  0.2297729E+04  0.7818609E-02  0.8478817E-01
        2   -1    0    0  501    0  0.00000000000E+00  0.00000000000E+00  0.23836493663E+04  0.23836493663E+04  0.25500000920E-02 0.  1.
       -2   -1    0    0    0  501  0.00000000000E+00  0.00000000000E+00 -0.55372635606E+03  0.55372635607E+03  0.25500000920E-02 0. -1.
    10030    2    1    2    0    0  0.00000000000E+00  0.00000000000E+00  0.18299230102E+04  0.29373757223E+04  0.22977288593E+04 0.  0.
        1    1    3    3  502    0  0.29653491769E+03 -0.38992803908E+03  0.22434415500E+04  0.22963028592E+04  0.50400001928E-02 0.  1.
       -1    1    3    3    0  502 -0.29653491769E+03  0.38992803908E+03 -0.41351853977E+03  0.64107286312E+03  0.50400001928E-02 0. -1.
</event>
<event>
 5   0  0.2042951E-05  0.2292896E+04  0.7818609E-02  0.8480728E-01
        1   -1    0    0  501    0  0.00000000000E+00  0.00000000000E+00  0.14953636224E+04  0.14953636224E+04  0.50400001928E-02 0. -1.
       -1   -1    0    0    0  501  0.00000000000E+00  0.00000000000E+00 -0.87894508009E+03  0.87894508010E+03  0.50400001928E-02 0.  1.
    10030    2    1    2    0    0  0.00000000000E+00  0.00000000000E+00  0.61641854231E+03  0.23743087025E+04  0.22928955483E+04 0.  0.
        2    1    3    3  502    0  0.95925869115E+03 -0.62596580841E+03  0.35821544363E+03  0.12001369646E+04  0.25500000920E-02 0.  1.
       -2    1    3    3    0  502 -0.95925869115E+03  0.62596580841E+03  0.25820309868E+03  0.11741717379E+04  0.25500000920E-02 0. -1.
</event>
<event>
 5   0  0.4798609E-05  0.2271961E+04  0.7818609E-02  0.8489059E-01
       -2   -1    0    0    0  501  0.00000000000E+00  0.00000000000E+00  0.83580536942E+03  0.83580536943E+03  0.25500000920E-02 0.  1.
        2   -1    0    0  501    0  0.00000000000E+00  0.00000000000E+00 -0.15439616246E+04  0.15439616246E+04  0.25500000920E-02 0. -1.
    10030    2    1    2    0    0  0.00000000000E+00  0.00000000000E+00 -0.70815625517E+03  0.23797669940E+04  0.22719607532E+04 0.  0.
        2    1    3    3  502    0 -0.10735310974E+03 -0.40730481545E+03 -0.14591409089E+04  0.15187212038E+04  0.25500000920E-02 0. -1.
       -2    1    3    3    0  502  0.10735310974E+03  0.40730481545E+03  0.75098465368E+03  0.86104579026E+03  0.25500000920E-02 0.  1.
</event>
<event>
 5   0  0.4605516E-05  0.2305214E+04  0.7818609E-02  0.8475868E-01
        2   -1    0    0  501    0  0.00000000000E+00  0.00000000000E+00  0.23552945499E+04  0.23552945499E+04  0.25500000920E-02 0. -1.
       -2   -1    0    0    0  501  0.00000000000E+00  0.00000000000E+00 -0.56404958399E+03  0.56404958399E+03  0.25500000920E-02 0.  1.
    10030    2    1    2    0    0  0.00000000000E+00  0.00000000000E+00  0.17912449659E+04  0.29193441339E+04  0.23052140127E+04 0.  0.
        1    1    3    3  502    0  0.77643423525E+03 -0.43892770806E+03  0.18201837895E+04  0.20269624274E+04  0.50400001928E-02 0. -1.
       -1    1    3    3    0  502 -0.77643423525E+03  0.43892770806E+03 -0.28938823557E+02  0.89238170651E+03  0.50400001928E-02 0.  1.
</event>
<event>
 5   0  0.2042951E-05  0.2317312E+04  0.7818609E-02  0.8471126E-01
        1   -1    0    0  501    0  0.00000000000E+00  0.00000000000E+00  0.92855818258E+03  0.92855818259E+03  0.50400001928E-02 0. -1.
       -1   -1    0    0    0  501  0.00000000000E+00  0.00000000000E+00 -0.14457727912E+04  0.14457727912E+04  0.50400001928E-02 0.  1.
    10030    2    1    2    0    0  0.00000000000E+00  0.00000000000E+00 -0.51721460861E+03  0.23743309738E+04  0.23173123703E+04 0.  0.
        2    1    3    3  502    0  0.69840458609E+03  0.79245997016E+03  0.22926243242E+03  0.10808899264E+04  0.25500000920E-02 0.  1.
       -2    1    3    3    0  502 -0.69840458609E+03 -0.79245997016E+03 -0.74647704103E+03  0.12934410473E+04  0.25500000920E-02 0. -1.
</event>
<event>
 5   0  0.2031860E-05  0.2307064E+04  0.7818609E-02  0.8475141E-01
        1   -1    0    0  501    0  0.00000000000E+00  0.00000000000E+00  0.16240317895E+04  0.16240317895E+04  0.50400001928E-02 0. -1.
       -1   -1    0    0    0  501  0.00000000000E+00  0.00000000000E+00 -0.81934085860E+03  0.81934085862E+03  0.50400001928E-02 0.  1.
    10030    2    1    2    0    0  0.00000000000E+00  0.00000000000E+00  0.80469093089E+03  0.24433726481E+04  0.23070635889E+04 0.  0.
        4    1    3    3  502    0 -0.82746777907E+01 -0.29556035739E+02 -0.81890759216E+03  0.81948354892E+03  0.12699999809E+01 0.  1.
       -4    1    3    3    0  502  0.82746777907E+01  0.29556035739E+02  0.16235985231E+04  0.16238890992E+04  0.12699999809E+01 0. -1.
</event>
<event>
 5   0  0.4436695E-05  0.2315324E+04  0.7818609E-02  0.8471904E-01
       -2   -1    0    0    0  501  0.00000000000E+00  0.00000000000E+00  0.10386299507E+04  0.10386299507E+04  0.25500000920E-02 0. -1.
        2   -1    0    0  501    0  0.00000000000E+00  0.00000000000E+00 -0.12903355090E+04  0.12903355090E+04  0.25500000920E-02 0.  1.
    10030    2    1    2    0    0  0.00000000000E+00  0.00000000000E+00 -0.25170555825E+03  0.23289654597E+04  0.23153238272E+04 0.  0.
        5    1    3    3  502    0  0.48848277647E+03 -0.22373246450E+02  0.92963559185E+03  0.10504096385E+04  0.46999998093E+01 0. -1.
       -5    1    3    3    0  502 -0.48848277647E+03  0.22373246450E+02 -0.11813411501E+04  0.12785558212E+04  0.46999998093E+01 0.  1.
</event>
<event>
 5   0  0.1968318E-05  0.2268103E+04  0.7818609E-02  0.8490605E-01
       -1   -1    0    0    0  501  0.00000000000E+00  0.00000000000E+00  0.21416826107E+04  0.21416826107E+04  0.50400001928E-02 0. -1.
        1   -1    0    0  501    0  0.00000000000E+00  0.00000000000E+00 -0.60049618527E+03  0.60049618529E+03  0.50400001928E-02 0.  1.
    10030    2    1    2    0    0  0.00000000000E+00  0.00000000000E+00  0.15411864254E+04  0.27421787960E+04  0.22681025002E+04 0.  0.
        3    1    3    3  502    0  0.25183029062E+03 -0.10109995576E+04  0.22918268633E+03  0.10668005037E+04  0.10100000352E+00 0.  1.
       -3    1    3    3    0  502 -0.25183029062E+03  0.10109995576E+04  0.13120037391E+04  0.16753782923E+04  0.10100000352E+00 0. -1.
</event>
<event>
 5   0  0.1968318E-05  0.2312422E+04  0.7818609E-02  0.8473039E-01
       -1   -1    0    0    0  501  0.00000000000E+00  0.00000000000E+00  0.11288980584E+04  0.11288980584E+04  0.50400001928E-02 0. -1.
        1   -1    0    0  501    0  0.00000000000E+00  0.00000000000E+00 -0.11841849612E+04  0.11841849612E+04  0.50400001928E-02 0.  1.
    10030    2    1    2    0    0  0.00000000000E+00  0.00000000000E+00 -0.55286902836E+02  0.23130830196E+04  0.23124221963E+04 0.  0.
        3    1    3    3  502    0  0.78803099976E+02 -0.11459635947E+04 -0.15952043975E+03  0.11596936103E+04  0.10100000352E+00 0.  1.
       -3    1    3    3    0  502 -0.78803099976E+02  0.11459635947E+04  0.10423353692E+03  0.11533894093E+04  0.10100000352E+00 0. -1.
</event>
<event>
 5   0  0.4602447E-05  0.2328505E+04  0.7818609E-02  0.8466766E-01
       -2   -1    0    0    0  501  0.00000000000E+00  0.00000000000E+00  0.10104140693E+04  0.10104140694E+04  0.25500000920E-02 0. -1.
        2   -1    0    0  501    0  0.00000000000E+00  0.00000000000E+00 -0.13415136817E+04  0.13415136817E+04  0.25500000920E-02 0.  1.
    10030    2    1    2    0    0  0.00000000000E+00  0.00000000000E+00 -0.33109961237E+03  0.23519277511E+04  0.23285053560E+04 0.  0.
        3    1    3    3  502    0  0.92671234655E+03 -0.57088557932E+03  0.25186025514E+03  0.11172017348E+04  0.10100000352E+00 0. -1.
       -3    1    3    3    0  502 -0.92671234655E+03  0.57088557932E+03 -0.58295986750E+03  0.12347260163E+04  0.10100000352E+00 0.  1.
</event>
<event>
 5   0  0.4436695E-05  0.2304191E+04  0.7818609E-02  0.8476271E-01
       -2   -1    0    0    0  501  0.00000000000E+00  0.00000000000E+00  0.10798190752E+04  0.10798190752E+04  0.25500000920E-02 0.  1.
        2   -1    0    0  501    0  0.00000000000E+00  0.00000000000E+00 -0.12292096103E+04  0.12292096103E+04  0.25500000920E-02 0. -1.
    10030    2    1    2    0    0  0.00000000000E+00  0.00000000000E+00 -0.14939053513E+03  0.23090286855E+04  0.23041909510E+04 0.  0.
        5    1    3    3  502    0 -0.17518068522E+01  0.10738898703E+04  0.34338490152E+03  0.11274652114E+04  0.46999998093E+01 0.  1.
       -5    1    3    3    0  502  0.17518068522E+01 -0.10738898703E+04 -0.49277543665E+03  0.11815634741E+04  0.46999998093E+01 0. -1.
</event>
<event>
 5   0  0.2043885E-05  0.2270809E+04  0.7818609E-02  0.8489521E-01
       -1   -1    0    0    0  501  0.00000000000E+00  0.00000000000E+00  0.10984608649E+04  0.10984608649E+04  0.50400001928E-02 0.  1.
        1   -1    0    0  501    0  0.00000000000E+00  0.00000000000E+00 -0.11735901877E+04  0.11735901878E+04  0.50400001928E-02 0. -1.
    10030    2    1    2    0    0  0.00000000000E+00  0.00000000000E+00 -0.75129322875E+02  0.22720510526E+04  0.22708085720E+04 0.  0.
        5    1    3    3  502    0  0.44323457802E+03 -0.23381805291E+03  0.98181221844E+03  0.11023180554E+04  0.46999998093E+01 0.  1.
       -5    1    3    3    0  502 -0.44323457802E+03  0.23381805291E+03 -0.10569415413E+04  0.11697329972E+04  0.46999998093E+01 0. -1.
</event>
<event>
 5   0  0.2042951E-05  0.2301707E+04  0.7818609E-02  0.8477248E-01
        1   -1    0    0  501    0  0.00000000000E+00  0.00000000000E+00  0.18995771023E+04  0.18995771023E+04  0.50400001928E-02 0. -1.
       -1   -1    0    0    0  501  0.00000000000E+00  0.00000000000E+00 -0.69724123318E+03  0.69724123320E+03  0.50400001928E-02 0.  1.
    10030    2    1    2    0    0  0.00000000000E+00  0.00000000000E+00  0.12023358691E+04  0.25968183355E+04  0.23017067418E+04 0.  0.
        2    1    3    3  502    0 -0.26192139882E+03  0.31052478628E+03  0.18159959142E+04  0.18608787232E+04  0.25500000920E-02 0. -1.
       -2    1    3    3    0  502  0.26192139882E+03 -0.31052478628E+03 -0.61366004507E+03  0.73593961231E+03  0.25500000920E-02 0.  1.
</event>
<event>
 5   0  0.4505107E-05  0.2291253E+04  0.7818609E-02  0.8481378E-01
       -2   -1    0    0    0  501  0.00000000000E+00  0.00000000000E+00  0.94900794709E+03  0.94900794710E+03  0.25500000920E-02 0.  1.
        2   -1    0    0  501    0  0.00000000000E+00  0.00000000000E+00 -0.13829809235E+04  0.13829809235E+04  0.25500000920E-02 0. -1.
    10030    2    1    2    0    0  0.00000000000E+00  0.00000000000E+00 -0.43397297641E+03  0.23319888706E+04  0.22912528338E+04 0.  0.
        4    1    3    3  502    0 -0.18464912377E+03  0.71838381530E+03  0.67162700936E+03  0.10006273320E+04  0.12699999809E+01 0.  1.
       -4    1    3    3    0  502  0.18464912377E+03 -0.71838381530E+03 -0.11055999858E+04  0.13313615386E+04  0.12699999809E+01 0. -1.
</event>
<event>
 5   0  0.4436695E-05  0.2290157E+04  0.7818609E-02  0.8481812E-01
        2   -1    0    0  501    0  0.00000000000E+00  0.00000000000E+00  0.90071652759E+03  0.90071652759E+03  0.25500000920E-02 0.  1.
       -2   -1    0    0    0  501  0.00000000000E+00  0.00000000000E+00 -0.14557349574E+04  0.14557349574E+04  0.25500000920E-02 0. -1.
    10030    2    1    2    0    0  0.00000000000E+00  0.00000000000E+00 -0.55501842978E+03  0.23564514850E+04  0.22901567945E+04 0.  0.
        5    1    3    3  502    0  0.11055861472E+04  0.24993094948E+03 -0.44468150790E+03  0.12176000747E+04  0.46999998093E+01 0.  1.
       -5    1    3    3    0  502 -0.11055861472E+04 -0.24993094948E+03 -0.11033692188E+03  0.11388514103E+04  0.46999998093E+01 0. -1.
</event>
<event>
 5   0  0.2085063E-05  0.2265494E+04  0.7818609E-02  0.8491652E-01
        1   -1    0    0  501    0  0.00000000000E+00  0.00000000000E+00  0.11638315274E+04  0.11638315275E+04  0.50400001928E-02 0.  1.
       -1   -1    0    0    0  501  0.00000000000E+00  0.00000000000E+00 -0.11024930159E+04  0.11024930159E+04  0.50400001928E-02 0. -1.
    10030    2    1    2    0    0  0.00000000000E+00  0.00000000000E+00  0.61338511516E+02  0.22663245434E+04  0.22654943220E+04 0.  0.
        1    1    3    3  502    0 -0.17592255772E+03  0.60952351387E+03 -0.90810336851E+03  0.11077542093E+04  0.50400001928E-02 0. -1.
       -1    1    3    3    0  502  0.17592255772E+03 -0.60952351387E+03  0.96944188002E+03  0.11585703341E+04  0.50400001928E-02 0.  1.
</event>
<event>
 5   0  0.4798609E-05  0.2266397E+04  0.7818609E-02  0.8491289E-01
        2   -1    0    0  501    0  0.00000000000E+00  0.00000000000E+00  0.13557030680E+04  0.13557030680E+04  0.25500000920E-02 0.  1.
       -2   -1    0    0    0  501  0.00000000000E+00  0.00000000000E+00 -0.94721229682E+03  0.94721229682E+03  0.25500000920E-02 0. -1.
    10030    2    1    2    0    0  0.00000000000E+00  0.00000000000E+00  0.40849077121E+03  0.23029153649E+04  0.22663968028E+04 0.  0.
        2    1    3    3  502    0 -0.64711271917E+03 -0.27160616882E+03  0.11083084288E+04  0.13118202452E+04  0.25500000920E-02 0.  1.
       -2    1    3    3    0  502  0.64711271917E+03  0.27160616882E+03 -0.69981765764E+03  0.99109511966E+03  0.25500000920E-02 0. -1.
</event>
<event>
 5   0  0.2042951E-05  0.2304315E+04  0.7818609E-02  0.8476222E-01
        1   -1    0    0  501    0  0.00000000000E+00  0.00000000000E+00  0.15387369159E+04  0.15387369159E+04  0.50400001928E-02 0.  1.
       -1   -1    0    0    0  501  0.00000000000E+00  0.00000000000E+00 -0.86269932836E+03  0.86269932837E+03  0.50400001928E-02 0. -1.
    10030    2    1    2    0    0  0.00000000000E+00  0.00000000000E+00  0.67603758756E+03  0.24014362443E+04  0.23043153464E+04 0.  0.
        2    1    3    3  502    0 -0.11092339241E+04  0.26762892109E+03  0.50424756341E+03  0.12475138248E+04  0.25500000920E-02 0.  1.
       -2    1    3    3    0  502  0.11092339241E+04 -0.26762892109E+03  0.17179002415E+03  0.11539224195E+04  0.25500000920E-02 0. -1.
</event>
<event>
 5   0  0.4605516E-05  0.2636361E+04  0.7818609E-02  0.8355954E-01
       -2   -1    0    0    0  501  0.00000000000E+00  0.00000000000E+00  0.15754524867E+04  0.15754524867E+04  0.25500000920E-02 0.  1.
        2   -1    0    0  501    0  0.00000000000E+00  0.00000000000E+00 -0.11029214365E+04  0.11029214365E+04  0.25500000920E-02 0. -1.
    10030    2    1    2    0    0  0.00000000000E+00  0.00000000000E+00  0.47253105018E+03  0.26783739232E+04  0.26363613711E+04 0.  0.
        1    1    3    3  502    0 -0.28538489517E+03  0.21113797002E+01 -0.10711579436E+04  0.11085252981E+04  0.50400001928E-02 0. -1.
       -1    1    3    3    0  502  0.28538489517E+03 -0.21113797002E+01  0.15436889938E+04  0.15698486251E+04  0.50400001928E-02 0.  1.
</event>
<event>
 5   0  0.1968318E-05  0.2307453E+04  0.7818609E-02  0.8474988E-01
       -1   -1    0    0    0  501  0.00000000000E+00  0.00000000000E+00  0.78931848958E+03  0.78931848960E+03  0.50400001928E-02 0.  1.
        1   -1    0    0  501    0  0.00000000000E+00  0.00000000000E+00 -0.16863725981E+04  0.16863725981E+04  0.50400001928E-02 0. -1.
    10030    2    1    2    0    0  0.00000000000E+00  0.00000000000E+00 -0.89705410848E+03  0.24756910877E+04  0.23074532039E+04 0.  0.
        3    1    3    3  502    0  0.66598233158E+03 -0.79547248979E+03 -0.99008247282E+03  0.14340754029E+04  0.10100000352E+00 0. -1.
       -3    1    3    3    0  502 -0.66598233158E+03  0.79547248979E+03  0.93028364343E+02  0.10416156848E+04  0.10100000352E+00 0.  1.
</event>
<event>
 5   0  0.1968318E-05  0.2347533E+04  0.7818609E-02  0.8459412E-01
       -1   -1    0    0    0  501  0.00000000000E+00  0.00000000000E+00  0.62892624843E+03  0.62892624845E+03  0.50400001928E-02 0.  1.
        1   -1    0    0  501    0  0.00000000000E+00  0.00000000000E+00 -0.21906024303E+04  0.21906024303E+04  0.50400001928E-02 0. -1.
    10030    2    1    2    0    0  0.00000000000E+00  0.00000000000E+00 -0.15616761819E+04  0.28195286788E+04  0.23475326352E+04 0.  0.
        3    1    3    3  502    0 -0.91539003466E+02  0.56064205289E+03 -0.20145022992E+04  0.20930643622E+04  0.10100000352E+00 0. -1.
       -3    1    3    3    0  502  0.91539003466E+02 -0.56064205289E+03  0.45282611727E+03  0.72646431661E+03  0.10100000352E+00 0.  1.
</event>
<event>
 5   0  0.4505107E-05  0.2325050E+04  0.7818609E-02  0.8468109E-01
       -2   -1    0    0    0  501  0.00000000000E+00  0.00000000000E+00  0.90219352078E+03  0.90219352078E+03  0.25500000920E-02 0.  1.
        2   -1    0    0  501    0  0.00000000000E+00  0.00000000000E+00 -0.14979759457E+04  0.14979759457E+04  0.25500000920E-02 0. -1.
    10030    2    1    2    0    0  0.00000000000E+00  0.00000000000E+00 -0.59578242495E+03  0.24001694665E+04  0.23250498425E+04 0.  0.
        4    1    3    3  502    0  0.41184318190E+03  0.72400789467E+03 -0.11350550616E+04  0.14078898550E+04  0.12699999809E+01 0. -1.
       -4    1    3    3    0  502 -0.41184318190E+03 -0.72400789467E+03  0.53927263661E+03  0.99227961156E+03  0.12699999809E+01 0.  1.
</event>
<event>
 5   0  0.4605516E-05  0.2308139E+04  0.7818609E-02  0.8474719E-01
       -2   -1    0    0    0  501  0.00000000000E+00  0.00000000000E+00  0.10208354723E+04  0.10208354723E+04  0.25500000920E-02 0.  1.
        2   -1    0    0  501    0  0.00000000000E+00  0.00000000000E+00 -0.13046928573E+04  0.13046928573E+04  0.25500000920E-02 0. -1.
    10030    2    1    2    0    0  0.00000000000E+00  0.00000000000E+00 -0.28385738496E+03  0.23255283296E+04  0.23081392932E+04 0.  0.
        1    1    3    3  502    0  0.29169150518E+03  0.65849277204E+03  0.76662999820E+03  0.10518641638E+04  0.50400001928E-02 0.  1.
       -1    1    3    3    0  502 -0.29169150518E+03 -0.65849277204E+03 -0.10504873832E+04  0.12736641658E+04  0.50400001928E-02 0. -1.
</event>
<event>
 5   0  0.1604500E-05  0.2307031E+04  0.7818609E-02  0.8475154E-01
       -4   -1    0    0    0  501  0.00000000000E+00  0.00000000000E+00  0.11932806867E+04  0.11932813625E+04  0.12699999809E+01 0. -1.
        4   -1    0    0  501    0  0.00000000000E+00  0.00000000000E+00 -0.11150739103E+04  0.11150746335E+04  0.12699999809E+01 0.  1.
    10030    2    1    2    0    0  0.00000000000E+00  0.00000000000E+00  0.78206776336E+02  0.23083559960E+04  0.23070307983E+04 0.  0.
        4    1    3    3  502    0 -0.61770339423E+03  0.37707962032E+03 -0.85966067565E+03  0.11237279980E+04  0.12699999809E+01 0.  1.
       -4    1    3    3    0  502  0.61770339423E+03 -0.37707962032E+03  0.93786745199E+03  0.11846279980E+04  0.12699999809E+01 0. -1.
</event>
<event>
 5   0  0.2031860E-05  0.2326021E+04  0.7818609E-02  0.8467732E-01
       -1   -1    0    0    0  501  0.00000000000E+00  0.00000000000E+00  0.14342424783E+04  0.14342424784E+04  0.50400001928E-02 0.  1.
        1   -1    0    0  501    0  0.00000000000E+00  0.00000000000E+00 -0.94307153440E+03  0.94307153441E+03  0.50400001928E-02 0. -1.
    10030    2    1    2    0    0  0.00000000000E+00  0.00000000000E+00  0.49117094395E+03  0.23773140128E+04  0.23260208553E+04 0.  0.
        4    1    3    3  502    0 -0.11453370171E+04  0.13124063115E+03  0.40249841891E+03  0.12210764006E+04  0.12699999809E+01 0.  1.
       -4    1    3    3    0  502  0.11453370171E+04 -0.13124063115E+03  0.88672525039E+02  0.11562376121E+04  0.12699999809E+01 0. -1.
</event>
<event>
 5   0  0.2043885E-05  0.2303396E+04  0.7818609E-02  0.8476583E-01
        1   -1    0    0  501    0  0.00000000000E+00  0.00000000000E+00  0.17349356700E+04  0.17349356700E+04  0.50400001928E-02 0.  1.
       -1   -1    0    0    0  501  0.00000000000E+00  0.00000000000E+00 -0.76452901331E+03  0.76452901333E+03  0.50400001928E-02 0. -1.
    10030    2    1    2    0    0  0.00000000000E+00  0.00000000000E+00  0.97040665669E+03  0.24994646833E+04  0.23033963237E+04 0.  0.
        5    1    3    3  502    0 -0.10480980469E+04 -0.28456333644E+03  0.69301956208E+02  0.10882603822E+04  0.46999998093E+01 0. -1.
       -5    1    3    3    0  502  0.10480980469E+04  0.28456333644E+03  0.90110470048E+03  0.14112043011E+04  0.46999998093E+01 0.  1.
</event>
<event>
 5   0  0.4798609E-05  0.2349743E+04  0.7818609E-02  0.8458563E-01
        2   -1    0    0  501    0  0.00000000000E+00  0.00000000000E+00  0.11993523157E+04  0.11993523157E+04  0.25500000920E-02 0.  1.
       -2   -1    0    0    0  501  0.00000000000E+00  0.00000000000E+00 -0.11508898946E+04  0.11508898946E+04  0.25500000920E-02 0. -1.
    10030    2    1    2    0    0  0.00000000000E+00  0.00000000000E+00  0.48462421061E+02  0.23502422103E+04  0.23497425053E+04 0.  0.
        2    1    3    3  502    0  0.32417901049E+03  0.11021722081E+04  0.27014291341E+03  0.11801918491E+04  0.25500000920E-02 0.  1.
       -2    1    3    3    0  502 -0.32417901049E+03 -0.11021722081E+04 -0.22168049235E+03  0.11700503612E+04  0.25500000920E-02 0. -1.
</event>
<event>
 5   0  0.2031860E-05  0.2284005E+04  0.7818609E-02  0.8484254E-01
        1   -1    0    0  501    0  0.00000000000E+00  0.00000000000E+00  0.14629004265E+04  0.14629004265E+04  0.50400001928E-02 0. -1.
       -1   -1    0    0    0  501  0.00000000000E+00  0.00000000000E+00 -0.89149602096E+03  0.89149602098E+03  0.50400001928E-02 0.  1.
    10030    2    1    2    0    0  0.00000000000E+00  0.00000000000E+00  0.57140440550E+03  0.23543964474E+04  0.22840051745E+04 0.  0.
        4    1    3    3  502    0  0.54776323404E+03  0.23220945887E+03  0.12905275813E+04  0.14210660943E+04  0.12699999809E+01 0. -1.
       -4    1    3    3    0  502 -0.54776323404E+03 -0.23220945887E+03 -0.71912317576E+03  0.93333035319E+03  0.12699999809E+01 0.  1.
</event>
<event>
 5   0  0.4436695E-05  0.2390717E+04  0.7818609E-02  0.8442987E-01
       -2   -1    0    0    0  501  0.00000000000E+00  0.00000000000E+00  0.69302834526E+03  0.69302834526E+03  0.25500000920E-02 0. -1.
        2   -1    0    0  501    0  0.00000000000E+00  0.00000000000E+00 -0.20617941931E+04  0.20617941931E+04  0.25500000920E-02 0.  1.
    10030    2    1    2    0    0  0.00000000000E+00  0.00000000000E+00 -0.13687658479E+04  0.27548225384E+04  0.23907168949E+04 0.  0.
        5    1    3    3  502    0 -0.85204803438E+03  0.61285691515E+03 -0.25170485096E+02  0.10498738470E+04  0.46999998093E+01 0. -1.
       -5    1    3    3    0  502  0.85204803438E+03 -0.61285691515E+03 -0.13435953628E+04  0.17049486914E+04  0.46999998093E+01 0.  1.
</event>
<event>
 5   0  0.2043885E-05  0.2296039E+04  0.7818609E-02  0.8479485E-01
        1   -1    0    0  501    0  0.00000000000E+00  0.00000000000E+00  0.21251905019E+04  0.21251905019E+04  0.50400001928E-02 0. -1.
       -1   -1    0    0    0  501  0.00000000000E+00  0.00000000000E+00 -0.62015545169E+03  0.62015545171E+03  0.50400001928E-02 0.  1.
    10030    2    1    2    0    0  0.00000000000E+00  0.00000000000E+00  0.15050350502E+04  0.27453459536E+04  0.22960387415E+04 0.  0.
        5    1    3    3  502    0 -0.29534832616E+03 -0.47614136849E+03 -0.44555059595E+03  0.71587614857E+03  0.46999998093E+01 0.  1.
       -5    1    3    3    0  502  0.29534832616E+03  0.47614136849E+03  0.19505856461E+04  0.20294698050E+04  0.46999998093E+01 0. -1.
</event>
<event>
 5   0  0.2085063E-05  0.2285923E+04  0.7818609E-02  0.8483492E-01
        1   -1    0    0  501    0  0.00000000000E+00  0.00000000000E+00  0.14825556911E+04  0.14825556911E+04  0.50400001928E-02 0.  1.
       -1   -1    0    0    0  501  0.00000000000E+00  0.00000000000E+00 -0.88115491432E+03  0.88115491433E+03  0.50400001928E-02 0. -1.
    10030    2    1    2    0    0  0.00000000000E+00  0.00000000000E+00  0.60140077681E+03  0.23637106055E+04  0.22859232122E+04 0.  0.
        1    1    3    3  502    0  0.79075411809E+03  0.84939679792E+02 -0.54811980549E+03  0.96588930301E+03  0.50400001928E-02 0. -1.
       -1    1    3    3    0  502 -0.79075411809E+03 -0.84939679792E+02  0.11495205823E+04  0.13978213025E+04  0.50400001928E-02 0.  1.
</event>
<event>
 5   0  0.4798609E-05  0.2298591E+04  0.7818609E-02  0.8478477E-01
        2   -1    0    0  501    0  0.00000000000E+00  0.00000000000E+00  0.22569836925E+04  0.22569836925E+04  0.25500000920E-02 0.  1.
       -2   -1    0    0    0  501  0.00000000000E+00  0.00000000000E+00 -0.58524111331E+03  0.58524111332E+03  0.25500000920E-02 0. -1.
    10030    2    1    2    0    0  0.00000000000E+00  0.00000000000E+00  0.16717425792E+04  0.28422248058E+04  0.22985905672E+04 0.  0.
        2    1    3    3  502    0  0.15529245002E+03  0.56758388131E-01  0.22439510674E+04  0.22493181502E+04  0.25500000920E-02 0.  1.
       -2    1    3    3    0  502 -0.15529245002E+03 -0.56758388131E-01 -0.57220848819E+03  0.59290665557E+03  0.25500000920E-02 0. -1.
</event>
<event>
 5   0  0.2043885E-05  0.2276519E+04  0.7818609E-02  0.8487237E-01
        1   -1    0    0  501    0  0.00000000000E+00  0.00000000000E+00  0.15256927930E+04  0.15256927930E+04  0.50400001928E-02 0. -1.
       -1   -1    0    0    0  501  0.00000000000E+00  0.00000000000E+00 -0.84921055928E+03  0.84921055930E+03  0.50400001928E-02 0.  1.
    10030    2    1    2    0    0  0.00000000000E+00  0.00000000000E+00  0.67648223372E+03  0.23749033523E+04  0.22765187722E+04 0.  0.
        5    1    3    3  502    0 -0.10324393803E+04 -0.29429489117E+03  0.73283622733E+03  0.12998506003E+04  0.46999998093E+01 0. -1.
       -5    1    3    3    0  502  0.10324393803E+04  0.29429489117E+03 -0.56353993611E+02  0.10750527520E+04  0.46999998093E+01 0.  1.
</event>
<event>
 5   0  0.4605516E-05  0.2247388E+04  0.7818609E-02  0.8498959E-01
        2   -1    0    0  501    0  0.00000000000E+00  0.00000000000E+00  0.11990754887E+04  0.11990754887E+04  0.25500000920E-02 0. -1.
       -2   -1    0    0    0  501  0.00000000000E+00  0.00000000000E+00 -0.10530514342E+04  0.10530514342E+04  0.25500000920E-02 0.  1.
    10030    2    1    2    0    0  0.00000000000E+00  0.00000000000E+00  0.14602405444E+03  0.22521269229E+04  0.22473879621E+04 0.  0.
        1    1    3    3  502    0 -0.51442119243E+02  0.67790897507E+03  0.96959483227E+03  0.11841963557E+04  0.50400001928E-02 0. -1.
       -1    1    3    3    0  502  0.51442119243E+02 -0.67790897507E+03 -0.82357077783E+03  0.10679305671E+04  0.50400001928E-02 0.  1.
</event>
<event>
 5   0  0.2085063E-05  0.2268771E+04  0.7818609E-02  0.8490337E-01
       -1   -1    0    0    0  501  0.00000000000E+00  0.00000000000E+00  0.11572035932E+04  0.11572035932E+04  0.50400001928E-02 0.  1.
        1   -1    0    0  501    0  0.00000000000E+00  0.00000000000E+00 -0.11120177691E+04  0.11120177691E+04  0.50400001928E-02 0. -1.
    10030    2    1    2    0    0  0.00000000000E+00  0.00000000000E+00  0.45185824124E+02  0.22692213623E+04  0.22687714368E+04 0.  0.
        1    1    3    3  502    0 -0.66883458143E+03  0.21036469688E+03  0.91453091294E+03  0.11523713784E+04  0.50400001928E-02 0.  1.
       -1    1    3    3    0  502  0.66883458143E+03 -0.21036469688E+03 -0.86934508881E+03  0.11168499839E+04  0.50400001928E-02 0. -1.
</event>
<event>
 5   0  0.2042951E-05  0.2297645E+04  0.7818609E-02  0.8478850E-01
       -1   -1    0    0    0  501  0.00000000000E+00  0.00000000000E+00  0.74189356837E+03  0.74189356839E+03  0.50400001928E-02 0.  1.
        1   -1    0    0  501    0  0.00000000000E+00  0.00000000000E+00 -0.17789522867E+04  0.17789522868E+04  0.50400001928E-02 0. -1.
    10030    2    1    2    0    0  0.00000000000E+00  0.00000000000E+00 -0.10370587184E+04  0.25208458551E+04  0.22976451075E+04 0.  0.
        2    1    3    3  502    0 -0.27281511851E+03 -0.88874618312E+03 -0.12589957242E+04  0.15650457184E+04  0.25500000920E-02 0. -1.
       -2    1    3    3    0  502  0.27281511851E+03  0.88874618312E+03  0.22193700586E+03  0.95580013678E+03  0.25500000920E-02 0.  1.
</event>
<event>
 5   0  0.4505107E-05  0.2304175E+04  0.7818609E-02  0.8476277E-01
        2   -1    0    0  501    0  0.00000000000E+00  0.00000000000E+00  0.18355645685E+04  0.18355645686E+04  0.25500000920E-02 0.  1.
       -2   -1    0    0    0  501  0.00000000000E+00  0.00000000000E+00 -0.72310456198E+03  0.72310456198E+03  0.25500000920E-02 0. -1.
    10030    2    1    2    0    0  0.00000000000E+00  0.00000000000E+00  0.11124600066E+04  0.25586691305E+04  0.23041745709E+04 0.  0.
        4    1    3    3  502    0  0.79395511579E+03 -0.37584533267E+03  0.13840020681E+04  0.16392338995E+04  0.12699999809E+01 0.  1.
       -4    1    3    3    0  502 -0.79395511579E+03  0.37584533267E+03 -0.27154206150E+03  0.91943523102E+03  0.12699999809E+01 0. -1.
</event>
<event>
 5   0  0.4798609E-05  0.2214511E+04  0.7818609E-02  0.8512413E-01
       -2   -1    0    0    0  501  0.00000000000E+00  0.00000000000E+00  0.62409986561E+03  0.62409986561E+03  0.25500000920E-02 0. -1.
        2   -1    0    0  501    0  0.00000000000E+00  0.00000000000E+00 -0.19644527011E+04  0.19644527011E+04  0.25500000920E-02 0.  1.
    10030    2    1    2    0    0  0.00000000000E+00  0.00000000000E+00 -0.13403528354E+04  0.25885525667E+04  0.22145109318E+04 0.  0.
        2    1    3    3  502    0  0.80123303094E+03  0.28903522987E+03 -0.14971292484E+04  0.17224725602E+04  0.25500000920E-02 0.  1.
       -2    1    3    3    0  502 -0.80123303094E+03 -0.28903522987E+03  0.15677641300E+03  0.86608000650E+03  0.25500000920E-02 0. -1.
</event>
<event>
 5   0  0.4505107E-05  0.2282511E+04  0.7818609E-02  0.8484849E-01
        2   -1    0    0  501    0  0.00000000000E+00  0.00000000000E+00  0.10260970558E+04  0.10260970558E+04  0.25500000920E-02 0.  1.
       -2   -1    0    0    0  501  0.00000000000E+00  0.00000000000E+00 -0.12693384055E+04  0.12693384055E+04  0.25500000920E-02 0. -1.
    10030    2    1    2    0    0  0.00000000000E+00  0.00000000000E+00 -0.24324134973E+03  0.22954354613E+04  0.22825112493E+04 0.  0.
        4    1    3    3  502    0 -0.26495845102E+03 -0.50986016399E+03  0.87001660048E+03  0.10426364973E+04  0.12699999809E+01 0.  1.
       -4    1    3    3    0  502  0.26495845102E+03  0.50986016399E+03 -0.11132579502E+04  0.12527989640E+04  0.12699999809E+01 0. -1.
</event>
<event>
 5   0  0.2042951E-05  0.2290714E+04  0.7818609E-02  0.8481592E-01
       -1   -1    0    0    0  501  0.00000000000E+00  0.00000000000E+00  0.10914582615E+04  0.10914582615E+04  0.50400001928E-02 0. -1.
        1   -1    0    0  501    0  0.00000000000E+00  0.00000000000E+00 -0.12019170304E+04  0.12019170305E+04  0.50400001928E-02 0.  1.
    10030    2    1    2    0    0  0.00000000000E+00  0.00000000000E+00 -0.11045876895E+03  0.22933752920E+04  0.22907136639E+04 0.  0.
        2    1    3    3  502    0 -0.33151671042E+03 -0.37223344108E+03 -0.10876313284E+04  0.11964125419E+04  0.25500000920E-02 0.  1.
       -2    1    3    3    0  502  0.33151671042E+03  0.37223344108E+03  0.97717255947E+03  0.10969627500E+04  0.25500000920E-02 0. -1.
</event>
<event>
 5   0  0.4605516E-05  0.2316572E+04  0.7818609E-02  0.8471416E-01
        2   -1    0    0  501    0  0.00000000000E+00  0.00000000000E+00  0.90144577895E+03  0.90144577895E+03  0.25500000920E-02 0.  1.
       -2   -1    0    0    0  501  0.00000000000E+00  0.00000000000E+00 -0.14883046133E+04  0.14883046133E+04  0.25500000920E-02 0. -1.
    10030    2    1    2    0    0  0.00000000000E+00  0.00000000000E+00 -0.58685883434E+03  0.23897503922E+04  0.23165715283E+04 0.  0.
        1    1    3    3  502    0 -0.63866229967E+02 -0.11004370836E+04  0.73597878558E+02  0.11047431005E+04  0.50400001928E-02 0.  1.
       -1    1    3    3    0  502  0.63866229967E+02  0.11004370836E+04 -0.66045671289E+03  0.12850072918E+04  0.50400001928E-02 0. -1.
</event>
<event>
 5   0  0.2031860E-05  0.2340004E+04  0.7818609E-02  0.8462313E-01
       -1   -1    0    0    0  501  0.00000000000E+00  0.00000000000E+00  0.12617410498E+04  0.12617410498E+04  0.50400001928E-02 0.  1.
        1   -1    0    0  501    0  0.00000000000E+00  0.00000000000E+00 -0.10849328506E+04  0.10849328506E+04  0.50400001928E-02 0. -1.
    10030    2    1    2    0    0  0.00000000000E+00  0.00000000000E+00  0.17680819918E+03  0.23466739003E+04  0.23400036870E+04 0.  0.
        4    1    3    3  502    0  0.20608645630E+03 -0.10672234359E+04 -0.34580262426E+03  0.11406220046E+04  0.12699999809E+01 0.  1.
       -4    1    3    3    0  502 -0.20608645630E+03  0.10672234359E+04  0.52261082344E+03  0.12060518957E+04  0.12699999809E+01 0. -1.
</event>
<event>
 5   0  0.2042951E-05  0.2239134E+04  0.7818609E-02  0.8502314E-01
        1   -1    0    0  501    0  0.00000000000E+00  0.00000000000E+00  0.10535825401E+04  0.10535825401E+04  0.50400001928E-02 0. -1.
       -1   -1    0    0    0  501  0.00000000000E+00  0.00000000000E+00 -0.11896839509E+04  0.11896839509E+04  0.50400001928E-02 0.  1.
    10030    2    1    2    0    0  0.00000000000E+00  0.00000000000E+00 -0.13610141084E+03  0.22432664911E+04  0.22391339745E+04 0.  0.
        2    1    3    3  502    0  0.96940188174E+03  0.13800221081E+03 -0.61186520716E+03  0.11546270611E+04  0.25500000920E-02 0.  1.
       -2    1    3    3    0  502 -0.96940188174E+03 -0.13800221081E+03  0.47576379632E+03  0.10886394299E+04  0.25500000920E-02 0. -1.
</event>
<event>
 5   0  0.2085063E-05  0.2399268E+04  0.7818609E-02  0.8439778E-01
        1   -1    0    0  501    0  0.00000000000E+00  0.00000000000E+00  0.18450165290E+04  0.18450165290E+04  0.50400001928E-02 0.  1.
       -1   -1    0    0    0  501  0.00000000000E+00  0.00000000000E+00 -0.78000479440E+03  0.78000479442E+03  0.50400001928E-02 0. -1.
    10030    2    1    2    0    0  0.00000000000E+00  0.00000000000E+00  0.10650117346E+04  0.26250213234E+04  0.23992680037E+04 0.  0.
        1    1    3    3  502    0  0.46229326042E+03 -0.10683446855E+04  0.21532030880E+03  0.11838235768E+04  0.50400001928E-02 0.  1.
       -1    1    3    3    0  502 -0.46229326042E+03  0.10683446855E+04  0.84969142579E+03  0.14411977466E+04  0.50400001928E-02 0. -1.
</event>
<event>
 5   0  0.4605516E-05  0.2283128E+04  0.7818609E-02  0.8484603E-01
       -2   -1    0    0    0  501  0.00000000000E+00  0.00000000000E+00  0.17060129906E+04  0.17060129906E+04  0.25500000920E-02 0. -1.
        2   -1    0    0  501    0  0.00000000000E+00  0.00000000000E+00 -0.76386805564E+03  0.76386805565E+03  0.25500000920E-02 0.  1.
    10030    2    1    2    0    0  0.00000000000E+00  0.00000000000E+00  0.94214493497E+03  0.24698810463E+04  0.22831284029E+04 0.  0.
        1    1    3    3  502    0  0.87190554832E+03 -0.62773537824E+03  0.53636474275E+02  0.10757080746E+04  0.50400001928E-02 0.  1.
       -1    1    3    3    0  502 -0.87190554832E+03  0.62773537824E+03  0.88850846070E+03  0.13941729717E+04  0.50400001928E-02 0. -1.
</event>
<event>
 5   0  0.1968318E-05  0.2308919E+04  0.7818609E-02  0.8474413E-01
       -1   -1    0    0    0  501  0.00000000000E+00  0.00000000000E+00  0.91037143176E+03  0.91037143178E+03  0.50400001928E-02 0. -1.
        1   -1    0    0  501    0  0.00000000000E+00  0.00000000000E+00 -0.14639920538E+04  0.14639920538E+04  0.50400001928E-02 0.  1.
    10030    2    1    2    0    0  0.00000000000E+00  0.00000000000E+00 -0.55362062202E+03  0.23743634856E+04  0.23089188311E+04 0.  0.
        3    1    3    3  502    0  0.10041119157E+03 -0.10448867187E+04  0.21733653230E+03  0.10719635446E+04  0.10100000352E+00 0. -1.
       -3    1    3    3    0  502 -0.10041119157E+03  0.10448867187E+04 -0.77095715432E+03  0.13023999410E+04  0.10100000352E+00 0.  1.
</event>
<event>
 5   0  0.2043885E-05  0.2304318E+04  0.7818609E-02  0.8476221E-01
        1   -1    0    0  501    0  0.00000000000E+00  0.00000000000E+00  0.11419826595E+04  0.11419826595E+04  0.50400001928E-02 0.  1.
       -1   -1    0    0    0  501  0.00000000000E+00  0.00000000000E+00 -0.11624259982E+04  0.11624259982E+04  0.50400001928E-02 0. -1.
    10030    2    1    2    0    0  0.00000000000E+00  0.00000000000E+00 -0.20443338718E+02  0.23044086577E+04  0.23043179754E+04 0.  0.
        5    1    3    3  502    0 -0.75460605417E+03  0.30930190806E+03 -0.82410274660E+03  0.11594245962E+04  0.46999998093E+01 0. -1.
       -5    1    3    3    0  502  0.75460605417E+03 -0.30930190806E+03  0.80365940788E+03  0.11449840615E+04  0.46999998093E+01 0.  1.
</event>
<event>
 5   0  0.1968318E-05  0.2295576E+04  0.7818609E-02  0.8479668E-01
       -1   -1    0    0    0  501  0.00000000000E+00  0.00000000000E+00  0.14390662112E+04  0.14390662112E+04  0.50400001928E-02 0.  1.
        1   -1    0    0  501    0  0.00000000000E+00  0.00000000000E+00 -0.91546658345E+03  0.91546658346E+03  0.50400001928E-02 0. -1.
    10030    2    1    2    0    0  0.00000000000E+00  0.00000000000E+00  0.52359962774E+03  0.23545327947E+04  0.22955757689E+04 0.  0.
        3    1    3    3  502    0  0.59904391150E+03  0.86894966217E+03 -0.20088424308E+03  0.10743749870E+04  0.10100000352E+00 0. -1.
       -3    1    3    3    0  502 -0.59904391150E+03 -0.86894966217E+03  0.72448387082E+03  0.12801578077E+04  0.10100000352E+00 0.  1.
</event>
<event>
 5   0  0.4798609E-05  0.2230281E+04  0.7818609E-02  0.8505929E-01
        2   -1    0    0  501    0  0.00000000000E+00  0.00000000000E+00  0.25186148091E+04  0.25186148091E+04  0.25500000920E-02 0.  1.
       -2   -1    0    0    0  501  0.00000000000E+00  0.00000000000E+00 -0.49373884361E+03  0.49373884362E+03  0.25500000920E-02 0. -1.
    10030    2    1    2    0    0  0.00000000000E+00  0.00000000000E+00  0.20248759655E+04  0.30123536527E+04  0.22302806669E+04 0.  0.
        2    1    3    3  502    0  0.49486941157E+03 -0.74435940811E+03  0.19130073052E+04  0.21115311063E+04  0.25500000920E-02 0.  1.
       -2    1    3    3    0  502 -0.49486941157E+03  0.74435940811E+03  0.11186866023E+03  0.90082254640E+03  0.25500000920E-02 0. -1.
</event>
<event>
 5   0  0.4505107E-05  0.2307190E+04  0.7818609E-02  0.8475092E-01
        2   -1    0    0  501    0  0.00000000000E+00  0.00000000000E+00  0.18922959167E+04  0.18922959167E+04  0.25500000920E-02 0.  1.
       -2   -1    0    0    0  501  0.00000000000E+00  0.00000000000E+00 -0.70326282759E+03  0.70326282759E+03  0.25500000920E-02 0. -1.
    10030    2    1    2    0    0  0.00000000000E+00  0.00000000000E+00  0.11890330891E+04  0.25955587443E+04  0.23071899593E+04 0.  0.
        4    1    3    3  502    0 -0.49660117908E+03  0.74236548604E+03 -0.22684765230E+03  0.92151001958E+03  0.12699999809E+01 0. -1.
       -4    1    3    3    0  502  0.49660117908E+03 -0.74236548604E+03  0.14158807414E+04  0.16740487247E+04  0.12699999809E+01 0.  1.
</event>
<event>
 5   0  0.4505107E-05  0.2301758E+04  0.7818609E-02  0.8477228E-01
       -2   -1    0    0    0  501  0.00000000000E+00  0.00000000000E+00  0.10686809568E+04  0.10686809568E+04  0.25500000920E-02 0.  1.
        2   -1    0    0  501    0  0.00000000000E+00  0.00000000000E+00 -0.12393997585E+04  0.12393997585E+04  0.25500000920E-02 0. -1.
    10030    2    1    2    0    0  0.00000000000E+00  0.00000000000E+00 -0.17071880163E+03  0.23080807153E+04  0.23017583885E+04 0.  0.
        4    1    3    3  502    0  0.68848082913E+03 -0.49070392160E+03 -0.86835315957E+03  0.12119550377E+04  0.12699999809E+01 0. -1.
       -4    1    3    3    0  502 -0.68848082913E+03  0.49070392160E+03  0.69763435794E+03  0.10961256776E+04  0.12699999809E+01 0.  1.
</event>
<event>
 5   0  0.1604500E-05  0.2298930E+04  0.7818609E-02  0.8478343E-01
       -3   -1    0    0    0  501  0.00000000000E+00  0.00000000000E+00  0.12512838544E+04  0.12512838585E+04  0.10100000352E+00 0. -1.
        3   -1    0    0  501    0  0.00000000000E+00  0.00000000000E+00 -0.10559308772E+04  0.10559308821E+04  0.10100000352E+00 0.  1.
    10030    2    1    2    0    0  0.00000000000E+00  0.00000000000E+00  0.19535297715E+03  0.23072147405E+04  0.22989295494E+04 0.  0.
        1    1    3    3  502    0  0.44869567798E+03  0.32787074739E+03 -0.91215168016E+03  0.10681047355E+04  0.50400001928E-02 0.  1.
       -1    1    3    3    0  502 -0.44869567798E+03 -0.32787074739E+03  0.11075046573E+04  0.12391100050E+04  0.50400001928E-02 0. -1.
</event>
<event>
 5   0  0.1968318E-05  0.2287536E+04  0.7818609E-02  0.8482852E-01
       -1   -1    0    0    0  501  0.00000000000E+00  0.00000000000E+00  0.12936183229E+04  0.12936183229E+04  0.50400001928E-02 0. -1.
        1   -1    0    0  501    0  0.00000000000E+00  0.00000000000E+00 -0.10112762520E+04  0.10112762520E+04  0.50400001928E-02 0.  1.
    10030    2    1    2    0    0  0.00000000000E+00  0.00000000000E+00  0.28234207093E+03  0.23048945750E+04  0.22875362197E+04 0.  0.
        3    1    3    3  502    0 -0.13983825662E+03 -0.28352660499E+03 -0.96638038287E+03  0.10167758496E+04  0.10100000352E+00 0.  1.
       -3    1    3    3    0  502  0.13983825662E+03  0.28352660499E+03  0.12487224538E+04  0.12881187253E+04  0.10100000352E+00 0. -1.
</event>
<event>
 5   0  0.2031860E-05  0.2317194E+04  0.7818609E-02  0.8471172E-01
       -1   -1    0    0    0  501  0.00000000000E+00  0.00000000000E+00  0.11348581323E+04  0.11348581323E+04  0.50400001928E-02 0. -1.
        1   -1    0    0  501    0  0.00000000000E+00  0.00000000000E+00 -0.11828324437E+04  0.11828324437E+04  0.50400001928E-02 0.  1.
    10030    2    1    2    0    0  0.00000000000E+00  0.00000000000E+00 -0.47974311329E+02  0.23176905760E+04  0.23171940082E+04 0.  0.
        4    1    3    3  502    0  0.90663274190E+03 -0.43909547768E+03 -0.59643631681E+03  0.11706945204E+04  0.12699999809E+01 0. -1.
       -4    1    3    3    0  502 -0.90663274190E+03  0.43909547768E+03  0.54846200548E+03  0.11469960556E+04  0.12699999809E+01 0.  1.
</event>
<event>
 5   0  0.4436695E-05  0.2310403E+04  0.7818609E-02  0.8473831E-01
       -2   -1    0    0    0  501  0.00000000000E+00  0.00000000000E+00  0.99351666504E+03  0.99351666505E+03  0.25500000920E-02 0. -1.
        2   -1    0    0  501    0  0.00000000000E+00  0.00000000000E+00 -0.13431992821E+04  0.13431992821E+04  0.25500000920E-02 0.  1.
    10030    2    1    2    0    0  0.00000000000E+00  0.00000000000E+00 -0.34968261704E+03  0.23367159471E+04  0.23104033165E+04 0.  0.
        5    1    3    3  502    0  0.82902148167E+01 -0.10459476151E+04  0.32104213679E+03  0.10941504854E+04  0.46999998093E+01 0. -1.
       -5    1    3    3    0  502 -0.82902148167E+01  0.10459476151E+04 -0.67072475383E+03  0.12425654617E+04  0.46999998093E+01 0.  1.
</event>
<event>
 5   0  0.2043885E-05  0.2298162E+04  0.7818609E-02  0.8478646E-01
        1   -1    0    0  501    0  0.00000000000E+00  0.00000000000E+00  0.25044953948E+04  0.25044953948E+04  0.50400001928E-02 0. -1.
       -1   -1    0    0    0  501  0.00000000000E+00  0.00000000000E+00 -0.52720673135E+03  0.52720673138E+03  0.50400001928E-02 0.  1.
    10030    2    1    2    0    0  0.00000000000E+00  0.00000000000E+00  0.19772886635E+04  0.30317021262E+04  0.22981617270E+04 0.  0.
        5    1    3    3  502    0 -0.65441221827E+03 -0.27746732928E+03  0.21796588450E+04  0.22926356538E+04  0.46999998093E+01 0. -1.
       -5    1    3    3    0  502  0.65441221827E+03  0.27746732928E+03 -0.20237018159E+03  0.73906647240E+03  0.46999998093E+01 0.  1.
</event>
<event>
 5   0  0.2042951E-05  0.2283694E+04  0.7818609E-02  0.8484378E-01
       -1   -1    0    0    0  501  0.00000000000E+00  0.00000000000E+00  0.50120106104E+03  0.50120106107E+03  0.50400001928E-02 0. -1.
        1   -1    0    0  501    0  0.00000000000E+00  0.00000000000E+00 -0.26013813497E+04  0.26013813497E+04  0.50400001928E-02 0.  1.
    10030    2    1    2    0    0  0.00000000000E+00  0.00000000000E+00 -0.21001802887E+04  0.31025824108E+04  0.22836944565E+04 0.  0.
        2    1    3    3  502    0 -0.43121112776E+03 -0.63895123608E+03 -0.21945385654E+04  0.23259839281E+04  0.25500000920E-02 0.  1.
       -2    1    3    3    0  502  0.43121112776E+03  0.63895123608E+03  0.94358276788E+02  0.77659848261E+03  0.25500000920E-02 0. -1.
</event>
<event>
 5   0  0.4602447E-05  0.2292518E+04  0.7818609E-02  0.8480877E-01
       -2   -1    0    0    0  501  0.00000000000E+00  0.00000000000E+00  0.77739766417E+03  0.77739766418E+03  0.25500000920E-02 0. -1.
        2   -1    0    0  501    0  0.00000000000E+00  0.00000000000E+00 -0.16901381705E+04  0.16901381705E+04  0.25500000920E-02 0.  1.
    10030    2    1    2    0    0  0.00000000000E+00  0.00000000000E+00 -0.91274050631E+03  0.24675358347E+04  0.22925178000E+04 0.  0.
        3    1    3    3  502    0 -0.23185143796E+03  0.10209985624E+04 -0.95859282358E+03  0.14195398428E+04  0.10100000352E+00 0.  1.
       -3    1    3    3    0  502  0.23185143796E+03 -0.10209985624E+04  0.45852317269E+02  0.10479959918E+04  0.10100000352E+00 0. -1.
</event>
<event>
 5   0  0.1968318E-05  0.2314260E+04  0.7818609E-02  0.8472320E-01
       -1   -1    0    0    0  501  0.00000000000E+00  0.00000000000E+00  0.83140232834E+03  0.83140232836E+03  0.50400001928E-02 0.  1.
        1   -1    0    0  501    0  0.00000000000E+00  0.00000000000E+00 -0.16104721658E+04  0.16104721658E+04  0.50400001928E-02 0. -1.
    10030    2    1    2    0    0  0.00000000000E+00  0.00000000000E+00 -0.77906983743E+03  0.24418744941E+04  0.23142604075E+04 0.  0.
        3    1    3    3  502    0 -0.43058645090E+03  0.59510994529E+03  0.55385320227E+03  0.91995321541E+03  0.10100000352E+00 0.  1.
       -3    1    3    3    0  502  0.43058645090E+03 -0.59510994529E+03 -0.13329230397E+04  0.15219212787E+04  0.10100000352E+00 0. -1.
</event>
<event>
 5   0  0.1968318E-05  0.2294778E+04  0.7818609E-02  0.8479983E-01
        1   -1    0    0  501    0  0.00000000000E+00  0.00000000000E+00  0.11537324445E+04  0.11537324445E+04  0.50400001928E-02 0.  1.
       -1   -1    0    0    0  501  0.00000000000E+00  0.00000000000E+00 -0.11410800442E+04  0.11410800442E+04  0.50400001928E-02 0. -1.
    10030    2    1    2    0    0  0.00000000000E+00  0.00000000000E+00  0.12652400279E+02  0.22948124887E+04  0.22947776091E+04 0.  0.
        3    1    3    3  502    0 -0.97167799767E+03  0.60931744788E+03 -0.26464161898E+02  0.11472254554E+04  0.10100000352E+00 0. -1.
       -3    1    3    3    0  502  0.97167799767E+03 -0.60931744788E+03  0.39116562177E+02  0.11475870333E+04  0.10100000352E+00 0.  1.
</event>
<event>
 5   0  0.1968318E-05  0.2401946E+04  0.7818609E-02  0.8438776E-01
        1   -1    0    0  501    0  0.00000000000E+00  0.00000000000E+00  0.33166799880E+04  0.33166799880E+04  0.50400001928E-02 0.  1.
       -1   -1    0    0    0  501  0.00000000000E+00  0.00000000000E+00 -0.43487333605E+03  0.43487333608E+03  0.50400001928E-02 0. -1.
    10030    2    1    2    0    0  0.00000000000E+00  0.00000000000E+00  0.28818066520E+04  0.37515533241E+04  0.24019456206E+04 0.  0.
        3    1    3    3  502    0  0.17352843530E+03  0.66563485769E+03 -0.96699980619E+02  0.69464579325E+03  0.10100000352E+00 0. -1.
       -3    1    3    3    0  502 -0.17352843530E+03 -0.66563485769E+03  0.29785066326E+04  0.30569075309E+04  0.10100000352E+00 0.  1.
</event>
<event>
 5   0  0.1604500E-05  0.2294009E+04  0.7818609E-02  0.8480287E-01
        4   -1    0    0  501    0  0.00000000000E+00  0.00000000000E+00  0.11156070672E+04  0.11156077901E+04  0.12699999809E+01 0. -1.
       -4   -1    0    0    0  501  0.00000000000E+00  0.00000000000E+00 -0.11792839257E+04  0.11792846095E+04  0.12699999809E+01 0.  1.
    10030    2    1    2    0    0  0.00000000000E+00  0.00000000000E+00 -0.63676858509E+02  0.22948923996E+04  0.22940088020E+04 0.  0.
        1    1    3    3  502    0  0.77470217969E+03 -0.83794757659E+03 -0.14720625309E+03  0.11506473349E+04  0.50400001928E-02 0.  1.
       -1    1    3    3    0  502 -0.77470217969E+03  0.83794757659E+03  0.83529394580E+02  0.11442450647E+04  0.50400001928E-02 0. -1.
</event>
<event>
 5   0  0.2031860E-05  0.2295118E+04  0.7818609E-02  0.8479848E-01
       -1   -1    0    0    0  501  0.00000000000E+00  0.00000000000E+00  0.95698850389E+03  0.95698850390E+03  0.50400001928E-02 0.  1.
        1   -1    0    0  501    0  0.00000000000E+00  0.00000000000E+00 -0.13760793596E+04  0.13760793596E+04  0.50400001928E-02 0. -1.
    10030    2    1    2    0    0  0.00000000000E+00  0.00000000000E+00 -0.41909085571E+03  0.23330678635E+04  0.22951184088E+04 0.  0.
        4    1    3    3  502    0 -0.35176831649E+03 -0.64995192088E+03  0.68287264022E+03  0.10062281568E+04  0.12699999809E+01 0.  1.
       -4    1    3    3    0  502  0.35176831649E+03  0.64995192088E+03 -0.11019634959E+04  0.13268397067E+04  0.12699999809E+01 0. -1.
</event>
<event>
 5   0  0.2031860E-05  0.2309105E+04  0.7818609E-02  0.8474340E-01
        1   -1    0    0  501    0  0.00000000000E+00  0.00000000000E+00  0.13337668124E+04  0.13337668124E+04  0.50400001928E-02 0.  1.
       -1   -1    0    0    0  501  0.00000000000E+00  0.00000000000E+00 -0.99941910967E+03  0.99941910968E+03  0.50400001928E-02 0. -1.
    10030    2    1    2    0    0  0.00000000000E+00  0.00000000000E+00  0.33434770275E+03  0.23331859221E+04  0.23091054893E+04 0.  0.
        4    1    3    3  502    0  0.93897281479E+03 -0.27031468602E+03  0.78860826645E+03  0.12556450881E+04  0.12699999809E+01 0.  1.
       -4    1    3    3    0  502 -0.93897281479E+03  0.27031468602E+03 -0.45426056370E+03  0.10775408340E+04  0.12699999809E+01 0. -1.
</event>
<event>
 5   0  0.4602447E-05  0.2287958E+04  0.7818609E-02  0.8482684E-01
        2   -1    0    0  501    0  0.00000000000E+00  0.00000000000E+00  0.18285888217E+04  0.18285888217E+04  0.25500000920E-02 0.  1.
       -2   -1    0    0    0  501  0.00000000000E+00  0.00000000000E+00 -0.71568168183E+03  0.71568168184E+03  0.25500000920E-02 0. -1.
    10030    2    1    2    0    0  0.00000000000E+00  0.00000000000E+00  0.11129071398E+04  0.25442705035E+04  0.22879576248E+04 0.  0.
        3    1    3    3  502    0 -0.90979973958E+03 -0.23634016797E+03 -0.16858054812E+03  0.95499301177E+03  0.10100000352E+00 0. -1.
       -3    1    3    3    0  502  0.90979973958E+03  0.23634016797E+03  0.12814876879E+04  0.15892774917E+04  0.10100000352E+00 0.  1.
</event>
<event>
 5   0  0.4505107E-05  0.2311826E+04  0.7818609E-02  0.8473273E-01
       -2   -1    0    0    0  501  0.00000000000E+00  0.00000000000E+00  0.11604611071E+04  0.11604611071E+04  0.25500000920E-02 0. -1.
        2   -1    0    0  501    0  0.00000000000E+00  0.00000000000E+00 -0.11513831385E+04  0.11513831385E+04  0.25500000920E-02 0.  1.
    10030    2    1    2    0    0  0.00000000000E+00  0.00000000000E+00  0.90779685928E+01  0.23118442455E+04  0.23118264221E+04 0.  0.
        4    1    3    3  502    0 -0.74959910199E+03  0.67980799912E+03 -0.55412085994E+03  0.11537284211E+04  0.12699999809E+01 0.  1.
       -4    1    3    3    0  502  0.74959910199E+03 -0.67980799912E+03  0.56319882854E+03  0.11581158244E+04  0.12699999809E+01 0. -1.
</event>
<event>
 5   0  0.4505107E-05  0.2298985E+04  0.7818609E-02  0.8478322E-01
        2   -1    0    0  501    0  0.00000000000E+00  0.00000000000E+00  0.11371170952E+04  0.11371170952E+04  0.25500000920E-02 0.  1.
       -2   -1    0    0    0  501  0.00000000000E+00  0.00000000000E+00 -0.11620021253E+04  0.11620021253E+04  0.25500000920E-02 0. -1.
    10030    2    1    2    0    0  0.00000000000E+00  0.00000000000E+00 -0.24885030060E+02  0.22991192205E+04  0.22989845422E+04 0.  0.
        4    1    3    3  502    0 -0.97065375176E+03  0.53646924133E+03 -0.31472321308E+03  0.11528314129E+04  0.12699999809E+01 0. -1.
       -4    1    3    3    0  502  0.97065375176E+03 -0.53646924133E+03  0.28983818302E+03  0.11462878076E+04  0.12699999809E+01 0.  1.
</event>
<event>
 5   0  0.2043885E-05  0.2310971E+04  0.7818609E-02  0.8473608E-01
       -1   -1    0    0    0  501  0.00000000000E+00  0.00000000000E+00  0.85119751010E+03  0.85119751012E+03  0.50400001928E-02 0.  1.
        1   -1    0    0  501    0  0.00000000000E+00  0.00000000000E+00 -0.15685505698E+04  0.15685505699E+04  0.50400001928E-02 0. -1.
    10030    2    1    2    0    0  0.00000000000E+00  0.00000000000E+00 -0.71735305975E+03  0.24197480800E+04  0.23109706528E+04 0.  0.
        5    1    3    3  502    0  0.35299413184E+03 -0.56773636118E+02 -0.15091659541E+04  0.15509455406E+04  0.46999998093E+01 0. -1.
       -5    1    3    3    0  502 -0.35299413184E+03  0.56773636118E+02  0.79181289432E+03  0.86880253941E+03  0.46999998093E+01 0.  1.
</event>
<event>
 5   0  0.1968318E-05  0.2167971E+04  0.7818609E-02  0.8531879E-01
       -1   -1    0    0    0  501  0.00000000000E+00  0.00000000000E+00  0.12100662625E+04  0.12100662625E+04  0.50400001928E-02 0.  1.
        1   -1    0    0  501    0  0.00000000000E+00  0.00000000000E+00 -0.97104110340E+03  0.97104110341E+03  0.50400001928E-02 0. -1.
    10030    2    1    2    0    0  0.00000000000E+00  0.00000000000E+00  0.23902515907E+03  0.21811073659E+04  0.21679705521E+04 0.  0.
        3    1    3    3  502    0 -0.60847524928E+03 -0.65306867882E+03  0.73828680586E+03  0.11583644703E+04  0.10100000352E+00 0.  1.
       -3    1    3    3    0  502  0.60847524928E+03  0.65306867882E+03 -0.49926164679E+03  0.10227428956E+04  0.10100000352E+00 0. -1.
</event>
<event>
 5   0  0.4505107E-05  0.2323564E+04  0.7818609E-02  0.8468688E-01
       -2   -1    0    0    0  501  0.00000000000E+00  0.00000000000E+00  0.97061129817E+03  0.97061129817E+03  0.25500000920E-02 0.  1.
        2   -1    0    0  501    0  0.00000000000E+00  0.00000000000E+00 -0.13906060573E+04  0.13906060573E+04  0.25500000920E-02 0. -1.
    10030    2    1    2    0    0  0.00000000000E+00  0.00000000000E+00 -0.41999475911E+03  0.23612173554E+04  0.23235644605E+04 0.  0.
        4    1    3    3  502    0  0.48343323691E+03 -0.10365664094E+04 -0.41716044723E+03  0.12174572137E+04  0.12699999809E+01 0.  1.
       -4    1    3    3    0  502 -0.48343323691E+03  0.10365664094E+04 -0.28343118842E+01  0.11437601417E+04  0.12699999809E+01 0. -1.
</event>
<event>
 5   0  0.4436695E-05  0.2308307E+04  0.7818609E-02  0.8474653E-01
        2   -1    0    0  501    0  0.00000000000E+00  0.00000000000E+00  0.15144244886E+04  0.15144244886E+04  0.25500000920E-02 0. -1.
       -2   -1    0    0    0  501  0.00000000000E+00  0.00000000000E+00 -0.87958853072E+03  0.87958853072E+03  0.25500000920E-02 0.  1.
    10030    2    1    2    0    0  0.00000000000E+00  0.00000000000E+00  0.63483595789E+03  0.23940130193E+04  0.23083070947E+04 0.  0.
        5    1    3    3  502    0  0.23270217362E+03  0.52375348228E+03  0.13564022843E+04  0.14725207159E+04  0.46999998093E+01 0. -1.
       -5    1    3    3    0  502 -0.23270217362E+03 -0.52375348228E+03 -0.72156632645E+03  0.92149230342E+03  0.46999998093E+01 0.  1.
</event>
<event>
 5   0  0.2043885E-05  0.2316276E+04  0.7818609E-02  0.8471531E-01
       -1   -1    0    0    0  501  0.00000000000E+00  0.00000000000E+00  0.10544702231E+04  0.10544702231E+04  0.50400001928E-02 0. -1.
        1   -1    0    0  501    0  0.00000000000E+00  0.00000000000E+00 -0.12719974768E+04  0.12719974768E+04  0.50400001928E-02 0.  1.
    10030    2    1    2    0    0  0.00000000000E+00  0.00000000000E+00 -0.21752725372E+03  0.23264677000E+04  0.23162758586E+04 0.  0.
        5    1    3    3  502    0 -0.48249728621E+03  0.96380975760E+03  0.31680875833E+03  0.11234423703E+04  0.46999998093E+01 0. -1.
       -5    1    3    3    0  502  0.48249728621E+03 -0.96380975760E+03 -0.53433601205E+03  0.12030253297E+04  0.46999998093E+01 0.  1.
</event>
<event>
 5   0  0.1968318E-05  0.2275650E+04  0.7818609E-02  0.8487584E-01
        1   -1    0    0  501    0  0.00000000000E+00  0.00000000000E+00  0.12153335424E+04  0.12153335425E+04  0.50400001928E-02 0. -1.
       -1   -1    0    0    0  501  0.00000000000E+00  0.00000000000E+00 -0.10652594709E+04  0.10652594709E+04  0.50400001928E-02 0.  1.
    10030    2    1    2    0    0  0.00000000000E+00  0.00000000000E+00  0.15007407157E+03  0.22805930134E+04  0.22756498557E+04 0.  0.
        3    1    3    3  502    0  0.39893016261E+03 -0.43419984638E+03 -0.90020101494E+03  0.10761211171E+04  0.10100000352E+00 0.  1.
       -3    1    3    3    0  502 -0.39893016261E+03  0.43419984638E+03  0.10502750865E+04  0.12044718962E+04  0.10100000352E+00 0. -1.
</event>
<event>
 5   0  0.4798609E-05  0.2313619E+04  0.7818609E-02  0.8472571E-01
        2   -1    0    0  501    0  0.00000000000E+00  0.00000000000E+00  0.27870612986E+04  0.27870612986E+04  0.25500000920E-02 0.  1.
       -2   -1    0    0    0  501  0.00000000000E+00  0.00000000000E+00 -0.48015011631E+03  0.48015011632E+03  0.25500000920E-02 0. -1.
    10030    2    1    2    0    0  0.00000000000E+00  0.00000000000E+00  0.23069111823E+04  0.32672114149E+04  0.23136186433E+04 0.  0.
        2    1    3    3  502    0  0.76912257631E+03  0.61738412555E+03  0.20071968074E+04  0.22364149256E+04  0.25500000920E-02 0.  1.
       -2    1    3    3    0  502 -0.76912257631E+03 -0.61738412555E+03  0.29971437492E+03  0.10307964893E+04  0.25500000920E-02 0. -1.
</event>
<event>
 5   0  0.4436695E-05  0.2301152E+04  0.7818609E-02  0.8477467E-01
        2   -1    0    0  501    0  0.00000000000E+00  0.00000000000E+00  0.21359521537E+04  0.21359521537E+04  0.25500000920E-02 0.  1.
       -2   -1    0    0    0  501  0.00000000000E+00  0.00000000000E+00 -0.61978221324E+03  0.61978221324E+03  0.25500000920E-02 0. -1.
    10030    2    1    2    0    0  0.00000000000E+00  0.00000000000E+00  0.15161699404E+04  0.27557343669E+04  0.23011520186E+04 0.  0.
        5    1    3    3  502    0  0.54855020499E+03 -0.26196561563E+03 -0.41175813939E+03  0.73423440843E+03  0.46999998093E+01 0. -1.
       -5    1    3    3    0  502 -0.54855020499E+03  0.26196561563E+03  0.19279280798E+04  0.20214999585E+04  0.46999998093E+01 0.  1.
</event>
<event>
 5   0  0.4605516E-05  0.2291212E+04  0.7818609E-02  0.8481394E-01
        2   -1    0    0  501    0  0.00000000000E+00  0.00000000000E+00  0.20083080045E+04  0.20083080045E+04  0.25500000920E-02 0.  1.
       -2   -1    0    0    0  501  0.00000000000E+00  0.00000000000E+00 -0.65349218582E+03  0.65349218583E+03  0.25500000920E-02 0. -1.
    10030    2    1    2    0    0  0.00000000000E+00  0.00000000000E+00  0.13548158187E+04  0.26618001903E+04  0.22912124194E+04 0.  0.
        1    1    3    3  502    0  0.10284675680E+04 -0.37245449155E+03  0.28182508927E+03  0.11295544554E+04  0.50400001928E-02 0. -1.
       -1    1    3    3    0  502 -0.10284675680E+04  0.37245449155E+03  0.10729907294E+04  0.15322457349E+04  0.50400001928E-02 0.  1.
</event>
<event>
 5   0  0.4505107E-05  0.2296573E+04  0.7818609E-02  0.8479274E-01
       -2   -1    0    0    0  501  0.00000000000E+00  0.00000000000E+00  0.10363289695E+04  0.10363289695E+04  0.25500000920E-02 0. -1.
        2   -1    0    0  501    0  0.00000000000E+00  0.00000000000E+00 -0.12723388501E+04  0.12723388501E+04  0.25500000920E-02 0.  1.
    10030    2    1    2    0    0  0.00000000000E+00  0.00000000000E+00 -0.23600988063E+03  0.23086678196E+04  0.22965727590E+04 0.  0.
        4    1    3    3  502    0 -0.84065575278E+03  0.77769757133E+03 -0.33632052413E+02  0.11457086606E+04  0.12699999809E+01 0. -1.
       -4    1    3    3    0  502  0.84065575278E+03 -0.77769757133E+03 -0.20237782822E+03  0.11629591590E+04  0.12699999809E+01 0.  1.
</event>
<event>
 5   0  0.4436695E-05  0.2310009E+04  0.7818609E-02  0.8473985E-01
        2   -1    0    0  501    0  0.00000000000E+00  0.00000000000E+00  0.20724658519E+04  0.20724658519E+04  0.25500000920E-02 0.  1.
       -2   -1    0    0    0  501  0.00000000000E+00  0.00000000000E+00 -0.64369495744E+03  0.64369495745E+03  0.25500000920E-02 0. -1.
    10030    2    1    2    0    0  0.00000000000E+00  0.00000000000E+00  0.14287708944E+04  0.27161608093E+04  0.23100093665E+04 0.  0.
        5    1    3    3  502    0 -0.74014978365E+03 -0.34981010391E+03 -0.24362117862E+03  0.85414412116E+03  0.46999998093E+01 0.  1.
       -5    1    3    3    0  502  0.74014978365E+03  0.34981010391E+03  0.16723920730E+04  0.18620166882E+04  0.46999998093E+01 0. -1.
</event>
<event>
 5   0  0.4602447E-05  0.2312070E+04  0.7818609E-02  0.8473177E-01
       -2   -1    0    0    0  501  0.00000000000E+00  0.00000000000E+00  0.66756937976E+03  0.66756937977E+03  0.25500000920E-02 0.  1.
        2   -1    0    0  501    0  0.00000000000E+00  0.00000000000E+00 -0.20019150841E+04  0.20019150841E+04  0.25500000920E-02 0. -1.
    10030    2    1    2    0    0  0.00000000000E+00  0.00000000000E+00 -0.13343457044E+04  0.26694844639E+04  0.23120702507E+04 0.  0.
        3    1    3    3  502    0 -0.99945346499E+03  0.12218340281E+03 -0.13229343146E+04  0.16625255558E+04  0.10100000352E+00 0. -1.
       -3    1    3    3    0  502  0.99945346499E+03 -0.12218340281E+03 -0.11411389733E+02  0.10069589081E+04  0.10100000352E+00 0.  1.
</event>
<event>
 5   0  0.2031860E-05  0.2295962E+04  0.7818609E-02  0.8479515E-01
        1   -1    0    0  501    0  0.00000000000E+00  0.00000000000E+00  0.14384467504E+04  0.14384467504E+04  0.50400001928E-02 0. -1.
       -1   -1    0    0    0  501  0.00000000000E+00  0.00000000000E+00 -0.91616909839E+03  0.91616909840E+03  0.50400001928E-02 0.  1.
    10030    2    1    2    0    0  0.00000000000E+00  0.00000000000E+00  0.52227765197E+03  0.23546158488E+04  0.22959620749E+04 0.  0.
        4    1    3    3  502    0 -0.51717580306E+03  0.26126089643E+03 -0.75520350480E+03  0.95187289794E+03  0.12699999809E+01 0.  1.
       -4    1    3    3    0  502  0.51717580306E+03 -0.26126089643E+03  0.12774811568E+04  0.14027429508E+04  0.12699999809E+01 0. -1.
</event>
<event>
 5   0  0.4436695E-05  0.2301160E+04  0.7818609E-02  0.8477464E-01
       -2   -1    0    0    0  501  0.00000000000E+00  0.00000000000E+00  0.89146900608E+03  0.89146900608E+03  0.25500000920E-02 0.  1.
        2   -1    0    0  501    0  0.00000000000E+00  0.00000000000E+00 -0.14850036219E+04  0.14850036219E+04  0.25500000920E-02 0. -1.
    10030    2    1    2    0    0  0.00000000000E+00  0.00000000000E+00 -0.59353461579E+03  0.23764726280E+04  0.23011603185E+04 0.  0.
        5    1    3    3  502    0 -0.10756808785E+04  0.33727739107E+02 -0.71700727545E+03  0.12931931162E+04  0.46999998093E+01 0.  1.
       -5    1    3    3    0  502  0.10756808785E+04 -0.33727739107E+02  0.12347265966E+03  0.10832795117E+04  0.46999998093E+01 0. -1.
</event>
<event>
 5   0  0.2043885E-05  0.2302783E+04  0.7818609E-02  0.8476825E-01
       -1   -1    0    0    0  501  0.00000000000E+00  0.00000000000E+00  0.10688115162E+04  0.10688115162E+04  0.50400001928E-02 0. -1.
        1   -1    0    0  501    0  0.00000000000E+00  0.00000000000E+00 -0.12403516097E+04  0.12403516098E+04  0.50400001928E-02 0.  1.
    10030    2    1    2    0    0  0.00000000000E+00  0.00000000000E+00 -0.17154009355E+03  0.23091631260E+04  0.23027827380E+04 0.  0.
        5    1    3    3  502    0 -0.48024423932E+03 -0.10113517155E+04 -0.35523969905E+03  0.11745995725E+04  0.46999998093E+01 0. -1.
       -5    1    3    3    0  502  0.48024423932E+03  0.10113517155E+04  0.18369960550E+03  0.11345635535E+04  0.46999998093E+01 0.  1.
</event>
<event>
 5   0  0.2043885E-05  0.2315923E+04  0.7818609E-02  0.8471669E-01
       -1   -1    0    0    0  501  0.00000000000E+00  0.00000000000E+00  0.89553505003E+03  0.89553505004E+03  0.50400001928E-02 0. -1.
        1   -1    0    0  501    0  0.00000000000E+00  0.00000000000E+00 -0.14972894056E+04  0.14972894056E+04  0.50400001928E-02 0.  1.
    10030    2    1    2    0    0  0.00000000000E+00  0.00000000000E+00 -0.60175435559E+03  0.23928244557E+04  0.23159232654E+04 0.  0.
        5    1    3    3  502    0 -0.48151009688E+03 -0.43214357724E+03  0.69135135899E+03  0.94688375016E+03  0.46999998093E+01 0. -1.
       -5    1    3    3    0  502  0.48151009688E+03  0.43214357724E+03 -0.12931057146E+04  0.14459407055E+04  0.46999998093E+01 0.  1.
</event>
<event>
 5   0  0.2043885E-05  0.2309382E+04  0.7818609E-02  0.8474231E-01
        1   -1    0    0  501    0  0.00000000000E+00  0.00000000000E+00  0.14703007210E+04  0.14703007210E+04  0.50400001928E-02 0.  1.
       -1   -1    0    0    0  501  0.00000000000E+00  0.00000000000E+00 -0.90682865805E+03  0.90682865807E+03  0.50400001928E-02 0. -1.
    10030    2    1    2    0    0  0.00000000000E+00  0.00000000000E+00  0.56347206293E+03  0.23771293791E+04  0.23093815880E+04 0.  0.
        5    1    3    3  502    0 -0.32328022699E+03  0.87668850955E+03  0.98001424033E+03  0.13540837674E+04  0.46999998093E+01 0.  1.
       -5    1    3    3    0  502  0.32328022699E+03 -0.87668850955E+03 -0.41654217740E+03  0.10230456116E+04  0.46999998093E+01 0. -1.
</event>
<event>
 5   0  0.2085063E-05  0.2302919E+04  0.7818609E-02  0.8476771E-01
       -1   -1    0    0    0  501  0.00000000000E+00  0.00000000000E+00  0.11605259037E+04  0.11605259037E+04  0.50400001928E-02 0. -1.
        1   -1    0    0  501    0  0.00000000000E+00  0.00000000000E+00 -0.11424640027E+04  0.11424640027E+04  0.50400001928E-02 0.  1.
    10030    2    1    2    0    0  0.00000000000E+00  0.00000000000E+00  0.18061900994E+02  0.23029899065E+04  0.23029190774E+04 0.  0.
        1    1    3    3  502    0  0.11151699266E+04 -0.15428360811E+02  0.29542598322E+03  0.11537410937E+04  0.50400001928E-02 0. -1.
       -1    1    3    3    0  502 -0.11151699266E+04  0.15428360811E+02 -0.27736408223E+03  0.11492488128E+04  0.50400001928E-02 0.  1.
</event>
<event>
 5   0  0.4602447E-05  0.2243123E+04  0.7818609E-02  0.8500691E-01
       -2   -1    0    0    0  501  0.00000000000E+00  0.00000000000E+00  0.10020959499E+04  0.10020959499E+04  0.25500000920E-02 0.  1.
        2   -1    0    0  501    0  0.00000000000E+00  0.00000000000E+00 -0.12552691041E+04  0.12552691041E+04  0.25500000920E-02 0. -1.
    10030    2    1    2    0    0  0.00000000000E+00  0.00000000000E+00 -0.25317315420E+03  0.22573650541E+04  0.22431228993E+04 0.  0.
        3    1    3    3  502    0 -0.66442812782E+03  0.21463943961E+03  0.75669072507E+03  0.10296191964E+04  0.10100000352E+00 0.  1.
       -3    1    3    3    0  502  0.66442812782E+03 -0.21463943961E+03 -0.10098638793E+04  0.12277458576E+04  0.10100000352E+00 0. -1.
</event>
<event>
 5   0  0.4436695E-05  0.2286668E+04  0.7818609E-02  0.8483196E-01
        2   -1    0    0  501    0  0.00000000000E+00  0.00000000000E+00  0.16523613711E+04  0.16523613711E+04  0.25500000920E-02 0. -1.
       -2   -1    0    0    0  501  0.00000000000E+00  0.00000000000E+00 -0.79111765338E+03  0.79111765339E+03  0.25500000920E-02 0.  1.
    10030    2    1    2    0    0  0.00000000000E+00  0.00000000000E+00  0.86124371772E+03  0.24434790245E+04  0.22866676632E+04 0.  0.
        5    1    3    3  502    0 -0.98696884646E+03 -0.14170729614E+03  0.10284535211E+04  0.14324549545E+04  0.46999998093E+01 0. -1.
       -5    1    3    3    0  502  0.98696884646E+03  0.14170729614E+03 -0.16720980342E+03  0.10110240699E+04  0.46999998093E+01 0.  1.
</event>
<event>
 5   0  0.2031860E-05  0.2235827E+04  0.7818609E-02  0.8503662E-01
        1   -1    0    0  501    0  0.00000000000E+00  0.00000000000E+00  0.10468100638E+04  0.10468100638E+04  0.50400001928E-02 0.  1.
       -1   -1    0    0    0  501  0.00000000000E+00  0.00000000000E+00 -0.11938466523E+04  0.11938466523E+04  0.50400001928E-02 0. -1.
    10030    2    1    2    0    0  0.00000000000E+00  0.00000000000E+00 -0.14703658848E+03  0.22406567161E+04  0.22358270865E+04 0.  0.
        4    1    3    3  502    0 -0.10155470414E+04  0.46148792688E+03  0.27620124827E+00  0.11154858086E+04  0.12699999809E+01 0. -1.
       -4    1    3    3    0  502  0.10155470414E+04 -0.46148792688E+03 -0.14731278973E+03  0.11251709074E+04  0.12699999809E+01 0.  1.
</event>
<event>
 5   0  0.4505107E-05  0.2239343E+04  0.7818609E-02  0.8502229E-01
       -2   -1    0    0    0  501  0.00000000000E+00  0.00000000000E+00  0.10629779894E+04  0.10629779894E+04  0.25500000920E-02 0.  1.
        2   -1    0    0  501    0  0.00000000000E+00  0.00000000000E+00 -0.11793884467E+04  0.11793884467E+04  0.25500000920E-02 0. -1.
    10030    2    1    2    0    0  0.00000000000E+00  0.00000000000E+00 -0.11641045735E+03  0.22423664361E+04  0.22393427249E+04 0.  0.
        4    1    3    3  502    0 -0.26595193022E+03  0.28627398429E+03  0.99248709701E+03  0.10666374613E+04  0.12699999809E+01 0.  1.
       -4    1    3    3    0  502  0.26595193022E+03 -0.28627398429E+03 -0.11088975544E+04  0.11757289748E+04  0.12699999809E+01 0. -1.
</event>
<event>
 5   0  0.4798609E-05  0.2312229E+04  0.7818609E-02  0.8473115E-01
       -2   -1    0    0    0  501  0.00000000000E+00  0.00000000000E+00  0.83551394542E+03  0.83551394543E+03  0.25500000920E-02 0.  1.
        2   -1    0    0  501    0  0.00000000000E+00  0.00000000000E+00 -0.15997342226E+04  0.15997342226E+04  0.25500000920E-02 0. -1.
    10030    2    1    2    0    0  0.00000000000E+00  0.00000000000E+00 -0.76422027721E+03  0.24352481681E+04  0.23122285804E+04 0.  0.
        2    1    3    3  502    0  0.96155680226E+03 -0.36063810597E+03 -0.94134943610E+03  0.13931224240E+04  0.25500000920E-02 0.  1.
       -2    1    3    3    0  502 -0.96155680226E+03  0.36063810597E+03  0.17712915889E+03  0.10421257440E+04  0.25500000920E-02 0. -1.
</event>
<event>
 5   0  0.2085063E-05  0.2334194E+04  0.7818609E-02  0.8464559E-01
        1   -1    0    0  501    0  0.00000000000E+00  0.00000000000E+00  0.97905197254E+03  0.97905197255E+03  0.50400001928E-02 0.  1.
       -1   -1    0    0    0  501  0.00000000000E+00  0.00000000000E+00 -0.13912599993E+04  0.13912599993E+04  0.50400001928E-02 0. -1.
    10030    2    1    2    0    0  0.00000000000E+00  0.00000000000E+00 -0.41220802676E+03  0.23703119719E+04  0.23341943764E+04 0.  0.
        1    1    3    3  502    0 -0.10217089526E+04  0.51633633123E+03  0.24619591464E+02  0.11450321022E+04  0.50400001928E-02 0.  1.
       -1    1    3    3    0  502  0.10217089526E+04 -0.51633633123E+03 -0.43682761823E+03  0.12252798696E+04  0.50400001928E-02 0. -1.
</event>
<event>
 5   0  0.4436695E-05  0.2256146E+04  0.7818609E-02  0.8495416E-01
        2   -1    0    0  501    0  0.00000000000E+00  0.00000000000E+00  0.24907548176E+04  0.24907548176E+04  0.25500000920E-02 0. -1.
       -2   -1    0    0    0  501  0.00000000000E+00  0.00000000000E+00 -0.51090890369E+03  0.51090890369E+03  0.25500000920E-02 0.  1.
    10030    2    1    2    0    0  0.00000000000E+00  0.00000000000E+00  0.19798459139E+04  0.30016637213E+04  0.22561461063E+04 0.  0.
        5    1    3    3  502    0  0.19613880038E+03  0.75348572359E+03  0.20759353784E+04  0.22171470294E+04  0.46999998093E+01 0. -1.
       -5    1    3    3    0  502 -0.19613880038E+03 -0.75348572359E+03 -0.96089464496E+02  0.78451669189E+03  0.46999998093E+01 0.  1.
</event>
<event>
 5   0  0.1968318E-05  0.2276286E+04  0.7818609E-02  0.8487330E-01
        1   -1    0    0  501    0  0.00000000000E+00  0.00000000000E+00  0.12351477432E+04  0.12351477432E+04  0.50400001928E-02 0.  1.
       -1   -1    0    0    0  501  0.00000000000E+00  0.00000000000E+00 -0.10487569437E+04  0.10487569437E+04  0.50400001928E-02 0. -1.
    10030    2    1    2    0    0  0.00000000000E+00  0.00000000000E+00  0.18639079947E+03  0.22839046870E+04  0.22762862493E+04 0.  0.
        3    1    3    3  502    0  0.66670223709E+02 -0.77900049374E+03 -0.73666592191E+03  0.10742268749E+04  0.10100000352E+00 0. -1.
       -3    1    3    3    0  502 -0.66670223709E+02  0.77900049374E+03  0.92305672138E+03  0.12096778121E+04  0.10100000352E+00 0.  1.
</event>
<event>
 5   0  0.4505107E-05  0.2224583E+04  0.7818609E-02  0.8508265E-01
        2   -1    0    0  501    0  0.00000000000E+00  0.00000000000E+00  0.93128064636E+03  0.93128064637E+03  0.25500000920E-02 0. -1.
       -2   -1    0    0    0  501  0.00000000000E+00  0.00000000000E+00 -0.13284855197E+04  0.13284855197E+04  0.25500000920E-02 0.  1.
    10030    2    1    2    0    0  0.00000000000E+00  0.00000000000E+00 -0.39720487334E+03  0.22597661661E+04  0.22245834248E+04 0.  0.
        4    1    3    3  502    0  0.80884116884E+03 -0.75983436321E+03 -0.12245729796E+03  0.11164988574E+04  0.12699999809E+01 0. -1.
       -4    1    3    3    0  502 -0.80884116884E+03  0.75983436321E+03 -0.27474757538E+03  0.11432673086E+04  0.12699999809E+01 0.  1.
</event>
<event>
 5   0  0.1604500E-05  0.2310594E+04  0.7818609E-02  0.8473756E-01
       -4   -1    0    0    0  501  0.00000000000E+00  0.00000000000E+00  0.84245776857E+03  0.84245872583E+03  0.12699999809E+01 0.  1.
        4   -1    0    0  501    0  0.00000000000E+00  0.00000000000E+00 -0.15843040916E+04  0.15843046006E+04  0.12699999809E+01 0. -1.
    10030    2    1    2    0    0  0.00000000000E+00  0.00000000000E+00 -0.74184632304E+03  0.24267633265E+04  0.23105939227E+04 0.  0.
        2    1    3    3  502    0  0.91432583484E+02 -0.10767051790E+04 -0.80019883420E+03  0.13446085430E+04  0.25500000920E-02 0. -1.
       -2    1    3    3    0  502 -0.91432583484E+02  0.10767051790E+04  0.58352511153E+02  0.10821547834E+04  0.25500000920E-02 0.  1.
</event>
<event>
 5   0  0.2085063E-05  0.2344826E+04  0.7818609E-02  0.8460454E-01
        1   -1    0    0  501    0  0.00000000000E+00  0.00000000000E+00  0.23418197985E+04  0.23418197985E+04  0.50400001928E-02 0.  1.
       -1   -1    0    0    0  501  0.00000000000E+00  0.00000000000E+00 -0.58695902113E+03  0.58695902115E+03  0.50400001928E-02 0. -1.
    10030    2    1    2    0    0  0.00000000000E+00  0.00000000000E+00  0.17548607774E+04  0.29287788197E+04  0.23448260120E+04 0.  0.
        1    1    3    3  502    0 -0.89816441410E+03 -0.12034338541E+03  0.18065762972E+04  0.20211134958E+04  0.50400001928E-02 0.  1.
       -1    1    3    3    0  502  0.89816441410E+03  0.12034338541E+03 -0.51715519819E+02  0.90766532389E+03  0.50400001928E-02 0. -1.
</event>
<event>
 5   0  0.2085063E-05  0.2132555E+04  0.7818609E-02  0.8547037E-01
       -1   -1    0    0    0  501  0.00000000000E+00  0.00000000000E+00  0.13409337282E+04  0.13409337282E+04  0.50400001928E-02 0. -1.
        1   -1    0    0  501    0  0.00000000000E+00  0.00000000000E+00 -0.84787747625E+03  0.84787747626E+03  0.50400001928E-02 0.  1.
    10030    2    1    2    0    0  0.00000000000E+00  0.00000000000E+00  0.49305625194E+03  0.21888112045E+04  0.21325548108E+04 0.  0.
        1    1    3    3  502    0 -0.78376613224E+02 -0.68400855339E+03 -0.58915994148E+03  0.90615673659E+03  0.50400001928E-02 0.  1.
       -1    1    3    3    0  502  0.78376613224E+02  0.68400855339E+03  0.10822161934E+04  0.12826544679E+04  0.50400001928E-02 0. -1.
</event>
<event>
 5   0  0.1968318E-05  0.2277755E+04  0.7818609E-02  0.8486744E-01
       -1   -1    0    0    0  501  0.00000000000E+00  0.00000000000E+00  0.11613496685E+04  0.11613496685E+04  0.50400001928E-02 0. -1.
        1   -1    0    0  501    0  0.00000000000E+00  0.00000000000E+00 -0.11168405402E+04  0.11168405402E+04  0.50400001928E-02 0.  1.
    10030    2    1    2    0    0  0.00000000000E+00  0.00000000000E+00  0.44509128311E+02  0.22781902087E+04  0.22777553785E+04 0.  0.
        3    1    3    3  502    0  0.61503949222E+03  0.50607932865E+03 -0.79193555233E+03  0.11231882269E+04  0.10100000352E+00 0.  1.
       -3    1    3    3    0  502 -0.61503949222E+03 -0.50607932865E+03  0.83644468064E+03  0.11550019817E+04  0.10100000352E+00 0. -1.
</event>
<event>
 5   0  0.4505107E-05  0.2292222E+04  0.7818609E-02  0.8480994E-01
       -2   -1    0    0    0  501  0.00000000000E+00  0.00000000000E+00  0.73643304856E+03  0.73643304856E+03  0.25500000920E-02 0.  1.
        2   -1    0    0  501    0  0.00000000000E+00  0.00000000000E+00 -0.17836928430E+04  0.17836928430E+04  0.25500000920E-02 0. -1.
    10030    2    1    2    0    0  0.00000000000E+00  0.00000000000E+00 -0.10472597945E+04  0.25201258916E+04  0.22922219422E+04 0.  0.
        4    1    3    3  502    0 -0.79994575589E+01 -0.15407799052E+03  0.72496288050E+03  0.74119957467E+03  0.12699999809E+01 0.  1.
       -4    1    3    3    0  502  0.79994575589E+01  0.15407799052E+03 -0.17722226750E+04  0.17789263169E+04  0.12699999809E+01 0. -1.
</event>
<event>
 5   0  0.4605516E-05  0.2296409E+04  0.7818609E-02  0.8479338E-01
        2   -1    0    0  501    0  0.00000000000E+00  0.00000000000E+00  0.24981974135E+04  0.24981974135E+04  0.25500000920E-02 0.  1.
       -2   -1    0    0    0  501  0.00000000000E+00  0.00000000000E+00 -0.52772989897E+03  0.52772989898E+03  0.25500000920E-02 0. -1.
    10030    2    1    2    0    0  0.00000000000E+00  0.00000000000E+00  0.19704675146E+04  0.30259273125E+04  0.22964089084E+04 0.  0.
        1    1    3    3  502    0  0.10021810465E+04 -0.25535366662E+03  0.32797642885E+03  0.10849612356E+04  0.50400001928E-02 0.  1.
       -1    1    3    3    0  502 -0.10021810465E+04  0.25535366662E+03  0.16424910857E+04  0.19409660769E+04  0.50400001928E-02 0. -1.
</event>
<event>
 5   0  0.1604500E-05  0.2249450E+04  0.7818609E-02  0.8498123E-01
        4   -1    0    0  501    0  0.00000000000E+00  0.00000000000E+00  0.91234727526E+03  0.91234815919E+03  0.12699999809E+01 0. -1.
       -4   -1    0    0    0  501  0.00000000000E+00  0.00000000000E+00 -0.13865387708E+04  0.13865393524E+04  0.12699999809E+01 0.  1.
    10030    2    1    2    0    0  0.00000000000E+00  0.00000000000E+00 -0.47419149554E+03  0.22988875116E+04  0.22494502032E+04 0.  0.
        4    1    3    3  502    0 -0.41474102531E+03  0.38759514337E+02  0.83061034282E+03  0.92920803512E+03  0.12699999809E+01 0. -1.
       -4    1    3    3    0  502  0.41474102531E+03 -0.38759514337E+02 -0.13048018384E+04  0.13696794765E+04  0.12699999809E+01 0.  1.
</event>
<event>
 5   0  0.2042951E-05  0.2298482E+04  0.7818609E-02  0.8478520E-01
        1   -1    0    0  501    0  0.00000000000E+00  0.00000000000E+00  0.10555612773E+04  0.10555612773E+04  0.50400001928E-02 0. -1.
       -1   -1    0    0    0  501  0.00000000000E+00  0.00000000000E+00 -0.12512342712E+04  0.12512342713E+04  0.50400001928E-02 0.  1.
    10030    2    1    2    0    0  0.00000000000E+00  0.00000000000E+00 -0.19567299392E+03  0.23067955486E+04  0.22984816254E+04 0.  0.
        2    1    3    3  502    0  0.10427149653E+04  0.13300072382E+03 -0.56407121458E+03  0.11929459445E+04  0.25500000920E-02 0.  1.
       -2    1    3    3    0  502 -0.10427149653E+04 -0.13300072382E+03  0.36839822066E+03  0.11138496041E+04  0.25500000920E-02 0. -1.
</event>
<event>
 5   0  0.2043885E-05  0.2302068E+04  0.7818609E-02  0.8477106E-01
        1   -1    0    0  501    0  0.00000000000E+00  0.00000000000E+00  0.22795889568E+04  0.22795889569E+04  0.50400001928E-02 0. -1.
       -1   -1    0    0    0  501  0.00000000000E+00  0.00000000000E+00 -0.58119199084E+03  0.58119199086E+03  0.50400001928E-02 0.  1.
    10030    2    1    2    0    0  0.00000000000E+00  0.00000000000E+00  0.16983969660E+04  0.28607809477E+04  0.23020676308E+04 0.  0.
        5    1    3    3  502    0 -0.44628597671E+03  0.91541826218E+03  0.18264857425E+03  0.10346711359E+04  0.46999998093E+01 0. -1.
       -5    1    3    3    0  502  0.44628597671E+03 -0.91541826218E+03  0.15157483918E+04  0.18261098118E+04  0.46999998093E+01 0.  1.
</event>
<event>
 5   0  0.4505107E-05  0.2268834E+04  0.7818609E-02  0.8490312E-01
        2   -1    0    0  501    0  0.00000000000E+00  0.00000000000E+00  0.18154935530E+04  0.18154935530E+04  0.25500000920E-02 0.  1.
       -2   -1    0    0    0  501  0.00000000000E+00  0.00000000000E+00 -0.70884408562E+03  0.70884408563E+03  0.25500000920E-02 0. -1.
    10030    2    1    2    0    0  0.00000000000E+00  0.00000000000E+00  0.11066494674E+04  0.25243376386E+04  0.22688339450E+04 0.  0.
        4    1    3    3  502    0 -0.98383060853E+03  0.12655692730E+02  0.11815505138E+04  0.15375779858E+04  0.12699999809E+01 0.  1.
       -4    1    3    3    0  502  0.98383060853E+03 -0.12655692730E+02 -0.74901046411E+02  0.98675965285E+03  0.12699999809E+01 0. -1.
</event>
<event>
 5   0  0.1968318E-05  0.2290844E+04  0.7818609E-02  0.8481540E-01
        1   -1    0    0  501    0  0.00000000000E+00  0.00000000000E+00  0.13706103262E+04  0.13706103262E+04  0.50400001928E-02 0. -1.
       -1   -1    0    0    0  501  0.00000000000E+00  0.00000000000E+00 -0.95723151934E+03  0.95723151935E+03  0.50400001928E-02 0.  1.
    10030    2    1    2    0    0  0.00000000000E+00  0.00000000000E+00  0.41337880690E+03  0.23278418456E+04  0.22908438664E+04 0.  0.
        3    1    3    3  502    0  0.59222722822E+03 -0.79591546589E+03 -0.37507498891E+03  0.10606110391E+04  0.10100000352E+00 0.  1.
       -3    1    3    3    0  502 -0.59222722822E+03  0.79591546589E+03  0.78845379581E+03  0.12672308065E+04  0.10100000352E+00 0. -1.
</event>
<event>
 5   0  0.4505107E-05  0.2270718E+04  0.7818609E-02  0.8489557E-01
        2   -1    0    0  501    0  0.00000000000E+00  0.00000000000E+00  0.85329238078E+03  0.85329238078E+03  0.25500000920E-02 0.  1.
       -2   -1    0    0    0  501  0.00000000000E+00  0.00000000000E+00 -0.15106665365E+04  0.15106665365E+04  0.25500000920E-02 0. -1.
    10030    2    1    2    0    0  0.00000000000E+00  0.00000000000E+00 -0.65737415568E+03  0.23639589172E+04  0.22707181643E+04 0.  0.
        4    1    3    3  502    0  0.78090283097E+03  0.80409382589E+03 -0.14053824126E+03  0.11296586752E+04  0.12699999809E+01 0.  1.
       -4    1    3    3    0  502 -0.78090283097E+03 -0.80409382589E+03 -0.51683591442E+03  0.12343002421E+04  0.12699999809E+01 0. -1.
</event>
<event>
 5   0  0.1968318E-05  0.2333723E+04  0.7818609E-02  0.8464742E-01
       -1   -1    0    0    0  501  0.00000000000E+00  0.00000000000E+00  0.10406040455E+04  0.10406040455E+04  0.50400001928E-02 0. -1.
        1   -1    0    0  501    0  0.00000000000E+00  0.00000000000E+00 -0.13084374639E+04  0.13084374639E+04  0.50400001928E-02 0.  1.
    10030    2    1    2    0    0  0.00000000000E+00  0.00000000000E+00 -0.26783341838E+03  0.23490415093E+04  0.23337226212E+04 0.  0.
        3    1    3    3  502    0 -0.11393541294E+04  0.25153513471E+03 -0.14694585507E+03  0.11760063141E+04  0.10100000352E+00 0.  1.
       -3    1    3    3    0  502  0.11393541294E+04 -0.25153513471E+03 -0.12088756331E+03  0.11730351953E+04  0.10100000352E+00 0. -1.
</event>
<event>
 5   0  0.1968318E-05  0.2292140E+04  0.7818609E-02  0.8481027E-01
       -1   -1    0    0    0  501  0.00000000000E+00  0.00000000000E+00  0.64839669081E+03  0.64839669083E+03  0.50400001928E-02 0.  1.
        1   -1    0    0  501    0  0.00000000000E+00  0.00000000000E+00 -0.20257289436E+04  0.20257289436E+04  0.50400001928E-02 0. -1.
    10030    2    1    2    0    0  0.00000000000E+00  0.00000000000E+00 -0.13773322528E+04  0.26741256344E+04  0.22921395625E+04 0.  0.
        3    1    3    3  502    0  0.33875736953E+03  0.10198672539E+04 -0.11532657696E+04  0.15763590062E+04  0.10100000352E+00 0.  1.
       -3    1    3    3    0  502 -0.33875736953E+03 -0.10198672539E+04 -0.22406648318E+03  0.10977666282E+04  0.10100000352E+00 0. -1.
</event>
<event>
 5   0  0.4505107E-05  0.2305326E+04  0.7818609E-02  0.8475824E-01
        2   -1    0    0  501    0  0.00000000000E+00  0.00000000000E+00  0.66707324169E+03  0.66707324170E+03  0.25500000920E-02 0.  1.
       -2   -1    0    0    0  501  0.00000000000E+00  0.00000000000E+00 -0.19917335271E+04  0.19917335271E+04  0.25500000920E-02 0. -1.
    10030    2    1    2    0    0  0.00000000000E+00  0.00000000000E+00 -0.13246602854E+04  0.26588067688E+04  0.23053261292E+04 0.  0.
        4    1    3    3  502    0  0.10512527318E+04 -0.17273968637E+03 -0.15478638029E+03  0.10765369207E+04  0.12699999809E+01 0.  1.
       -4    1    3    3    0  502 -0.10512527318E+04  0.17273968637E+03 -0.11698739051E+04  0.15822698481E+04  0.12699999809E+01 0. -1.
</event>
<event>
 5   0  0.4605516E-05  0.2297087E+04  0.7818609E-02  0.8479070E-01
        2   -1    0    0  501    0  0.00000000000E+00  0.00000000000E+00  0.12455042506E+04  0.12455042506E+04  0.25500000920E-02 0. -1.
       -2   -1    0    0    0  501  0.00000000000E+00  0.00000000000E+00 -0.10591312222E+04  0.10591312222E+04  0.25500000920E-02 0.  1.
    10030    2    1    2    0    0  0.00000000000E+00  0.00000000000E+00  0.18637302836E+03  0.23046354728E+04  0.22970872331E+04 0.  0.
        1    1    3    3  502    0  0.64939357286E+03  0.80858731996E+03 -0.40202124232E+03  0.11122708959E+04  0.50400001928E-02 0. -1.
       -1    1    3    3    0  502 -0.64939357286E+03 -0.80858731996E+03  0.58839427068E+03  0.11923645769E+04  0.50400001928E-02 0.  1.
</event>
<event>
 5   0  0.4505107E-05  0.2305494E+04  0.7818609E-02  0.8475758E-01
        2   -1    0    0  501    0  0.00000000000E+00  0.00000000000E+00  0.22024882481E+04  0.22024882481E+04  0.25500000920E-02 0.  1.
       -2   -1    0    0    0  501  0.00000000000E+00  0.00000000000E+00 -0.60332928655E+03  0.60332928656E+03  0.25500000920E-02 0. -1.
    10030    2    1    2    0    0  0.00000000000E+00  0.00000000000E+00  0.15991589616E+04  0.28058175347E+04  0.23054940151E+04 0.  0.
        4    1    3    3  502    0 -0.10630457136E+04  0.30630900173E+03  0.11938104703E+04  0.16275983674E+04  0.12699999809E+01 0.  1.
       -4    1    3    3    0  502  0.10630457136E+04 -0.30630900173E+03  0.40534849125E+03  0.11782191672E+04  0.12699999809E+01 0. -1.
</event>
<event>
 5   0  0.4505107E-05  0.2314112E+04  0.7818609E-02  0.8472378E-01
        2   -1    0    0  501    0  0.00000000000E+00  0.00000000000E+00  0.15218303822E+04  0.15218303822E+04  0.25500000920E-02 0. -1.
       -2   -1    0    0    0  501  0.00000000000E+00  0.00000000000E+00 -0.87971616835E+03  0.87971616835E+03  0.25500000920E-02 0.  1.
    10030    2    1    2    0    0  0.00000000000E+00  0.00000000000E+00  0.64211421385E+03  0.24015465506E+04  0.23141121777E+04 0.  0.
        4    1    3    3  502    0  0.62565268442E+03 -0.50935272356E+03 -0.53967479382E+03  0.97063483067E+03  0.12699999809E+01 0.  1.
       -4    1    3    3    0  502 -0.62565268442E+03  0.50935272356E+03  0.11817890077E+04  0.14309117199E+04  0.12699999809E+01 0. -1.
</event>
<event>
 5   0  0.2085063E-05  0.2302125E+04  0.7818609E-02  0.8477084E-01
        1   -1    0    0  501    0  0.00000000000E+00  0.00000000000E+00  0.24312847312E+04  0.24312847312E+04  0.50400001928E-02 0.  1.
       -1   -1    0    0    0  501  0.00000000000E+00  0.00000000000E+00 -0.54495682652E+03  0.54495682654E+03  0.50400001928E-02 0. -1.
    10030    2    1    2    0    0  0.00000000000E+00  0.00000000000E+00  0.18863279047E+04  0.29762415577E+04  0.23021252889E+04 0.  0.
        1    1    3    3  502    0  0.10135307450E+04 -0.52596201976E+03  0.75552812355E+03  0.13691980729E+04  0.50400001928E-02 0. -1.
       -1    1    3    3    0  502 -0.10135307450E+04  0.52596201976E+03  0.11307997811E+04  0.16070434848E+04  0.50400001928E-02 0.  1.
</event>
<event>
 5   0  0.1968318E-05  0.2308039E+04  0.7818609E-02  0.8474758E-01
       -1   -1    0    0    0  501  0.00000000000E+00  0.00000000000E+00  0.11559023033E+04  0.11559023033E+04  0.50400001928E-02 0.  1.
        1   -1    0    0  501    0  0.00000000000E+00  0.00000000000E+00 -0.11521393826E+04  0.11521393826E+04  0.50400001928E-02 0. -1.
    10030    2    1    2    0    0  0.00000000000E+00  0.00000000000E+00  0.37629206356E+01  0.23080416859E+04  0.23080386185E+04 0.  0.
        3    1    3    3  502    0  0.97623231809E+03  0.59824127124E+03  0.14623676418E+03  0.11542561929E+04  0.10100000352E+00 0. -1.
       -3    1    3    3    0  502 -0.97623231809E+03 -0.59824127124E+03 -0.14247384355E+03  0.11537854930E+04  0.10100000352E+00 0.  1.
</event>
<event>
 5   0  0.4798609E-05  0.2318944E+04  0.7818609E-02  0.8470489E-01
        2   -1    0    0  501    0  0.00000000000E+00  0.00000000000E+00  0.22059646988E+04  0.22059646988E+04  0.25500000920E-02 0.  1.
       -2   -1    0    0    0  501  0.00000000000E+00  0.00000000000E+00 -0.60942741437E+03  0.60942741437E+03  0.25500000920E-02 0. -1.
    10030    2    1    2    0    0  0.00000000000E+00  0.00000000000E+00  0.15965372845E+04  0.28153921132E+04  0.23189440378E+04 0.  0.
        2    1    3    3  502    0 -0.47450461282E+03  0.88157730705E+02  0.20782197526E+04  0.21335237878E+04  0.25500000920E-02 0.  1.
       -2    1    3    3    0  502  0.47450461282E+03 -0.88157730705E+02 -0.48168246813E+03  0.68186832540E+03  0.25500000920E-02 0. -1.
</event>
<event>
 5   0  0.2042951E-05  0.2291551E+04  0.7818609E-02  0.8481260E-01
        1   -1    0    0  501    0  0.00000000000E+00  0.00000000000E+00  0.19147143196E+04  0.19147143196E+04  0.50400001928E-02 0.  1.
       -1   -1    0    0    0  501  0.00000000000E+00  0.00000000000E+00 -0.68563858003E+03  0.68563858005E+03  0.50400001928E-02 0. -1.
    10030    2    1    2    0    0  0.00000000000E+00  0.00000000000E+00  0.12290757395E+04  0.26003528996E+04  0.22915514459E+04 0.  0.
        2    1    3    3  502    0  0.50679896509E+03  0.36984867472E+03  0.17024662607E+04  0.18143937285E+04  0.25500000920E-02 0.  1.
       -2    1    3    3    0  502 -0.50679896509E+03 -0.36984867472E+03 -0.47339052114E+03  0.78595917115E+03  0.25500000920E-02 0. -1.
</event>
<event>
 5   0  0.2031860E-05  0.2287262E+04  0.7818609E-02  0.8482961E-01
       -1   -1    0    0    0  501  0.00000000000E+00  0.00000000000E+00  0.89041865267E+03  0.89041865268E+03  0.50400001928E-02 0.  1.
        1   -1    0    0  501    0  0.00000000000E+00  0.00000000000E+00 -0.14688503124E+04  0.14688503124E+04  0.50400001928E-02 0. -1.
    10030    2    1    2    0    0  0.00000000000E+00  0.00000000000E+00 -0.57843165972E+03  0.23592689651E+04  0.22872618706E+04 0.  0.
        4    1    3    3  502    0  0.47410224123E+03 -0.80871907083E+03  0.38645641814E+03  0.10139771431E+04  0.12699999809E+01 0.  1.
       -4    1    3    3    0  502 -0.47410224123E+03  0.80871907083E+03 -0.96488807787E+03  0.13452918220E+04  0.12699999809E+01 0. -1.
</event>
<event>
 5   0  0.2031860E-05  0.2307276E+04  0.7818609E-02  0.8475058E-01
       -1   -1    0    0    0  501  0.00000000000E+00  0.00000000000E+00  0.79534210490E+03  0.79534210491E+03  0.50400001928E-02 0.  1.
        1   -1    0    0  501    0  0.00000000000E+00  0.00000000000E+00 -0.16733443201E+04  0.16733443201E+04  0.50400001928E-02 0. -1.
    10030    2    1    2    0    0  0.00000000000E+00  0.00000000000E+00 -0.87800221519E+03  0.24686864250E+04  0.23072764843E+04 0.  0.
        4    1    3    3  502    0  0.70916343729E+03 -0.32397066207E+03 -0.13487852948E+04  0.15579130769E+04  0.12699999809E+01 0. -1.
       -4    1    3    3    0  502 -0.70916343729E+03  0.32397066207E+03  0.47078307964E+03  0.91077334812E+03  0.12699999809E+01 0.  1.
</event>
<event>
 5   0  0.4798609E-05  0.2324196E+04  0.7818609E-02  0.8468442E-01
       -2   -1    0    0    0  501  0.00000000000E+00  0.00000000000E+00  0.11123056373E+04  0.11123056373E+04  0.25500000920E-02 0.  1.
        2   -1    0    0  501    0  0.00000000000E+00  0.00000000000E+00 -0.12141196708E+04  0.12141196708E+04  0.25500000920E-02 0. -1.
    10030    2    1    2    0    0  0.00000000000E+00  0.00000000000E+00 -0.10181403350E+03  0.23264253081E+04  0.23241963378E+04 0.  0.
        2    1    3    3  502    0 -0.66608951945E+03 -0.24307111832E+02  0.90195449406E+03  0.11215114770E+04  0.25500000920E-02 0.  1.
       -2    1    3    3    0  502  0.66608951945E+03  0.24307111832E+02 -0.10037685276E+04  0.12049138312E+04  0.25500000920E-02 0. -1.
</event>
<event>
 5   0  0.2085063E-05  0.2308863E+04  0.7818609E-02  0.8474435E-01
        1   -1    0    0  501    0  0.00000000000E+00  0.00000000000E+00  0.11174696586E+04  0.11174696587E+04  0.50400001928E-02 0.  1.
       -1   -1    0    0    0  501  0.00000000000E+00  0.00000000000E+00 -0.11926162723E+04  0.11926162723E+04  0.50400001928E-02 0. -1.
    10030    2    1    2    0    0  0.00000000000E+00  0.00000000000E+00 -0.75146613692E+02  0.23100859310E+04  0.23088633556E+04 0.  0.
        1    1    3    3  502    0 -0.10652617143E+03 -0.30081357558E+03  0.10724626130E+04  0.11189337285E+04  0.50400001928E-02 0.  1.
       -1    1    3    3    0  502  0.10652617143E+03  0.30081357558E+03 -0.11476092267E+04  0.11911522025E+04  0.50400001928E-02 0. -1.
</event>
<event>
 5   0  0.4798609E-05  0.2295420E+04  0.7818609E-02  0.8479729E-01
        2   -1    0    0  501    0  0.00000000000E+00  0.00000000000E+00  0.11286027498E+04  0.11286027498E+04  0.25500000920E-02 0.  1.
       -2   -1    0    0    0  501  0.00000000000E+00  0.00000000000E+00 -0.11671410463E+04  0.11671410463E+04  0.25500000920E-02 0. -1.
    10030    2    1    2    0    0  0.00000000000E+00  0.00000000000E+00 -0.38538296505E+02  0.22957437961E+04  0.22954203051E+04 0.  0.
        2    1    3    3  502    0  0.44200905087E+03  0.10271108809E+04 -0.27797495016E+03  0.11522147524E+04  0.25500000920E-02 0. -1.
       -2    1    3    3    0  502 -0.44200905087E+03 -0.10271108809E+04  0.23943665365E+03  0.11435290437E+04  0.25500000920E-02 0.  1.
</event>
<event>
 5   0  0.4798609E-05  0.2311174E+04  0.7818609E-02  0.8473528E-01
        2   -1    0    0  501    0  0.00000000000E+00  0.00000000000E+00  0.20708216858E+04  0.20708216858E+04  0.25500000920E-02 0. -1.
       -2   -1    0    0    0  501  0.00000000000E+00  0.00000000000E+00 -0.64485590575E+03  0.64485590576E+03  0.25500000920E-02 0.  1.
    10030    2    1    2    0    0  0.00000000000E+00  0.00000000000E+00  0.14259657800E+04  0.27156775916E+04  0.23111742417E+04 0.  0.
        2    1    3    3  502    0 -0.77052242832E+03  0.40577220642E+03 -0.17958877838E+03  0.88916141694E+03  0.25500000920E-02 0.  1.
       -2    1    3    3    0  502  0.77052242832E+03 -0.40577220642E+03  0.16055545584E+04  0.18265161746E+04  0.25500000920E-02 0. -1.
</event>
<event>
 5   0  0.4798609E-05  0.1863147E+04  0.7818609E-02  0.8673421E-01
        2   -1    0    0  501    0  0.00000000000E+00  0.00000000000E+00  0.72424741634E+03  0.72424741634E+03  0.25500000920E-02 0.  1.
       -2   -1    0    0    0  501  0.00000000000E+00  0.00000000000E+00 -0.11982499178E+04  0.11982499178E+04  0.25500000920E-02 0. -1.
    10030    2    1    2    0    0  0.00000000000E+00  0.00000000000E+00 -0.47400250149E+03  0.19224973342E+04  0.18631472375E+04 0.  0.
        2    1    3    3  502    0 -0.47747150813E+03 -0.30340165457E+03 -0.10007116636E+04  0.11495457532E+04  0.25500000920E-02 0. -1.
       -2    1    3    3    0  502  0.47747150813E+03  0.30340165457E+03  0.52670916209E+03  0.77295158096E+03  0.25500000920E-02 0.  1.
</event>
<event>
 5   0  0.4605516E-05  0.2250109E+04  0.7818609E-02  0.8497856E-01
        2   -1    0    0  501    0  0.00000000000E+00  0.00000000000E+00  0.14472556665E+04  0.14472556665E+04  0.25500000920E-02 0. -1.
       -2   -1    0    0    0  501  0.00000000000E+00  0.00000000000E+00 -0.87458475489E+03  0.87458475490E+03  0.25500000920E-02 0.  1.
    10030    2    1    2    0    0  0.00000000000E+00  0.00000000000E+00  0.57267091157E+03  0.23218404214E+04  0.22501091016E+04 0.  0.
        1    1    3    3  502    0  0.47966904684E+03  0.20880272780E+03  0.13141132788E+04  0.14144167289E+04  0.50400001928E-02 0. -1.
       -1    1    3    3    0  502 -0.47966904684E+03 -0.20880272780E+03 -0.74144236721E+03  0.90742369241E+03  0.50400001928E-02 0.  1.
</event>
<event>
 5   0  0.2042951E-05  0.2304134E+04  0.7818609E-02  0.8476293E-01
        1   -1    0    0  501    0  0.00000000000E+00  0.00000000000E+00  0.12962907787E+04  0.12962907787E+04  0.50400001928E-02 0.  1.
       -1   -1    0    0    0  501  0.00000000000E+00  0.00000000000E+00 -0.10238896616E+04  0.10238896616E+04  0.50400001928E-02 0. -1.
    10030    2    1    2    0    0  0.00000000000E+00  0.00000000000E+00  0.27240111709E+03  0.23201804403E+04  0.23041343075E+04 0.  0.
        2    1    3    3  502    0 -0.63696748856E+03  0.79736441959E+03 -0.40206965526E+03  0.10968945286E+04  0.25500000920E-02 0. -1.
       -2    1    3    3    0  502  0.63696748856E+03 -0.79736441959E+03  0.67447077234E+03  0.12232859117E+04  0.25500000920E-02 0.  1.
</event>
<event>
 5   0  0.4505107E-05  0.2284817E+04  0.7818609E-02  0.8483932E-01
        2   -1    0    0  501    0  0.00000000000E+00  0.00000000000E+00  0.13637422260E+04  0.13637422260E+04  0.25500000920E-02 0.  1.
       -2   -1    0    0    0  501  0.00000000000E+00  0.00000000000E+00 -0.95699686384E+03  0.95699686385E+03  0.25500000920E-02 0. -1.
    10030    2    1    2    0    0  0.00000000000E+00  0.00000000000E+00  0.40674536219E+03  0.23207390899E+04  0.22848168709E+04 0.  0.
        4    1    3    3  502    0  0.72615164389E+03 -0.26964334027E+03 -0.64952653545E+03  0.10108857868E+04  0.12699999809E+01 0. -1.
       -4    1    3    3    0  502 -0.72615164389E+03  0.26964334027E+03  0.10562718976E+04  0.13098533031E+04  0.12699999809E+01 0.  1.
</event>
<event>
 5   0  0.4436695E-05  0.1974053E+04  0.7818609E-02  0.8618849E-01
       -2   -1    0    0    0  501  0.00000000000E+00  0.00000000000E+00  0.89629090742E+03  0.89629090742E+03  0.25500000920E-02 0. -1.
        2   -1    0    0  501    0  0.00000000000E+00  0.00000000000E+00 -0.10869474988E+04  0.10869474988E+04  0.25500000920E-02 0.  1.
    10030    2    1    2    0    0  0.00000000000E+00  0.00000000000E+00 -0.19065659142E+03  0.19832384063E+04  0.19740528464E+04 0.  0.
        5    1    3    3  502    0 -0.39406579169E+03  0.86400905782E+03  0.17499541629E+03  0.96563191015E+03  0.46999998093E+01 0. -1.
       -5    1    3    3    0  502  0.39406579169E+03 -0.86400905782E+03 -0.36565200771E+03  0.10176064961E+04  0.46999998093E+01 0.  1.
</event>
<event>
 5   0  0.1968318E-05  0.2303559E+04  0.7818609E-02  0.8476519E-01
        1   -1    0    0  501    0  0.00000000000E+00  0.00000000000E+00  0.11901835057E+04  0.11901835057E+04  0.50400001928E-02 0.  1.
       -1   -1    0    0    0  501  0.00000000000E+00  0.00000000000E+00 -0.11146149467E+04  0.11146149468E+04  0.50400001928E-02 0. -1.
    10030    2    1    2    0    0  0.00000000000E+00  0.00000000000E+00  0.75568558949E+02  0.23047984525E+04  0.23035592676E+04 0.  0.
        3    1    3    3  502    0 -0.19120327997E+03  0.14804707042E+03 -0.10889297064E+04  0.11154571013E+04  0.10100000352E+00 0. -1.
       -3    1    3    3    0  502  0.19120327997E+03 -0.14804707042E+03  0.11644982653E+04  0.11893413511E+04  0.10100000352E+00 0.  1.
</event>
<event>
 5   0  0.4436695E-05  0.2309332E+04  0.7818609E-02  0.8474251E-01
       -2   -1    0    0    0  501  0.00000000000E+00  0.00000000000E+00  0.12927243883E+04  0.12927243883E+04  0.25500000920E-02 0. -1.
        2   -1    0    0  501    0  0.00000000000E+00  0.00000000000E+00 -0.10313515894E+04  0.10313515894E+04  0.25500000920E-02 0.  1.
    10030    2    1    2    0    0  0.00000000000E+00  0.00000000000E+00  0.26137279889E+03  0.23240759777E+04  0.23093318103E+04 0.  0.
        5    1    3    3  502    0  0.74603463358E+03 -0.47347994307E+03 -0.61734942043E+03  0.10779115585E+04  0.46999998093E+01 0.  1.
       -5    1    3    3    0  502 -0.74603463358E+03  0.47347994307E+03  0.87872221932E+03  0.12461644192E+04  0.46999998093E+01 0. -1.
</event>
<event>
 5   0  0.2043885E-05  0.2280226E+04  0.7818609E-02  0.8485759E-01
       -1   -1    0    0    0  501  0.00000000000E+00  0.00000000000E+00  0.14958848798E+04  0.14958848798E+04  0.50400001928E-02 0. -1.
        1   -1    0    0  501    0  0.00000000000E+00  0.00000000000E+00 -0.86895597987E+03  0.86895597989E+03  0.50400001928E-02 0.  1.
    10030    2    1    2    0    0  0.00000000000E+00  0.00000000000E+00  0.62692889992E+03  0.23648408597E+04  0.22802264024E+04 0.  0.
        5    1    3    3  502    0 -0.17434663214E+03 -0.79644769974E+03 -0.51304636456E+03  0.96330906191E+03  0.46999998093E+01 0.  1.
       -5    1    3    3    0  502  0.17434663214E+03  0.79644769974E+03  0.11399752645E+04  0.14015317978E+04  0.46999998093E+01 0. -1.
</event>
<event>
 5   0  0.4436695E-05  0.2296312E+04  0.7818609E-02  0.8479377E-01
        2   -1    0    0  501    0  0.00000000000E+00  0.00000000000E+00  0.19536232517E+04  0.19536232517E+04  0.25500000920E-02 0.  1.
       -2   -1    0    0    0  501  0.00000000000E+00  0.00000000000E+00 -0.67477825887E+03  0.67477825888E+03  0.25500000920E-02 0. -1.
    10030    2    1    2    0    0  0.00000000000E+00  0.00000000000E+00  0.12788449928E+04  0.26284015105E+04  0.22963122577E+04 0.  0.
        5    1    3    3  502    0  0.28346529010E+03  0.10244081736E+04  0.14250020365E+03  0.10724239250E+04  0.46999998093E+01 0. -1.
       -5    1    3    3    0  502 -0.28346529010E+03 -0.10244081736E+04  0.11363447891E+04  0.15559775855E+04  0.46999998093E+01 0.  1.
</event>
<event>
 5   0  0.4798609E-05  0.2289661E+04  0.7818609E-02  0.8482009E-01
        2   -1    0    0  501    0  0.00000000000E+00  0.00000000000E+00  0.19054657756E+04  0.19054657756E+04  0.25500000920E-02 0.  1.
       -2   -1    0    0    0  501  0.00000000000E+00  0.00000000000E+00 -0.68783011883E+03  0.68783011883E+03  0.25500000920E-02 0. -1.
    10030    2    1    2    0    0  0.00000000000E+00  0.00000000000E+00  0.12176356568E+04  0.25932958944E+04  0.22896608927E+04 0.  0.
        2    1    3    3  502    0  0.32824736837E+03  0.55244219712E+03 -0.46429662252E+03  0.79278626987E+03  0.25500000920E-02 0. -1.
       -2    1    3    3    0  502 -0.32824736837E+03 -0.55244219712E+03  0.16819322793E+04  0.18005096246E+04  0.25500000920E-02 0.  1.
</event>
<event>
 5   0  0.2085063E-05  0.2321142E+04  0.7818609E-02  0.8469632E-01
       -1   -1    0    0    0  501  0.00000000000E+00  0.00000000000E+00  0.17610322467E+04  0.17610322467E+04  0.50400001928E-02 0. -1.
        1   -1    0    0  501    0  0.00000000000E+00  0.00000000000E+00 -0.76484959857E+03  0.76484959858E+03  0.50400001928E-02 0.  1.
    10030    2    1    2    0    0  0.00000000000E+00  0.00000000000E+00  0.99618264816E+03  0.25258818453E+04  0.23211417940E+04 0.  0.
        1    1    3    3  502    0  0.55269914815E+03  0.94636647246E+03  0.82517545675E+02  0.10990427626E+04  0.50400001928E-02 0.  1.
       -1    1    3    3    0  502 -0.55269914815E+03 -0.94636647246E+03  0.91366510248E+03  0.14268390828E+04  0.50400001928E-02 0. -1.
</event>
<event>
 5   0  0.1968318E-05  0.2293103E+04  0.7818609E-02  0.8480645E-01
        1   -1    0    0  501    0  0.00000000000E+00  0.00000000000E+00  0.17660845521E+04  0.17660845521E+04  0.50400001928E-02 0. -1.
       -1   -1    0    0    0  501  0.00000000000E+00  0.00000000000E+00 -0.74434749348E+03  0.74434749349E+03  0.50400001928E-02 0.  1.
    10030    2    1    2    0    0  0.00000000000E+00  0.00000000000E+00  0.10217370586E+04  0.25104320456E+04  0.22931032333E+04 0.  0.
        3    1    3    3  502    0 -0.68957924970E+03  0.91388672124E+03  0.57899237964E+03  0.12829421915E+04  0.10100000352E+00 0. -1.
       -3    1    3    3    0  502  0.68957924970E+03 -0.91388672124E+03  0.44274467897E+03  0.12274898541E+04  0.10100000352E+00 0.  1.
</event>
<event>
 5   0  0.4505107E-05  0.2276449E+04  0.7818609E-02  0.8487265E-01
        2   -1    0    0  501    0  0.00000000000E+00  0.00000000000E+00  0.25324417170E+04  0.25324417170E+04  0.25500000920E-02 0. -1.
       -2   -1    0    0    0  501  0.00000000000E+00  0.00000000000E+00 -0.51158356430E+03  0.51158356430E+03  0.25500000920E-02 0.  1.
    10030    2    1    2    0    0  0.00000000000E+00  0.00000000000E+00  0.20208581527E+04  0.30440252813E+04  0.22764494811E+04 0.  0.
        4    1    3    3  502    0 -0.43637878446E+02  0.16312284478E+03  0.25155989153E+04  0.25212601695E+04  0.12699999809E+01 0. -1.
       -4    1    3    3    0  502  0.43637878446E+02 -0.16312284478E+03 -0.49474076264E+03  0.52276511173E+03  0.12699999809E+01 0.  1.
</event>
<event>
 5   0  0.4505107E-05  0.2287824E+04  0.7818609E-02  0.8482738E-01
        2   -1    0    0  501    0  0.00000000000E+00  0.00000000000E+00  0.19973029674E+04  0.19973029674E+04  0.25500000920E-02 0. -1.
       -2   -1    0    0    0  501  0.00000000000E+00  0.00000000000E+00 -0.65515070876E+03  0.65515070876E+03  0.25500000920E-02 0.  1.
    10030    2    1    2    0    0  0.00000000000E+00  0.00000000000E+00  0.13421522586E+04  0.26524536761E+04  0.22878238172E+04 0.  0.
        4    1    3    3  502    0  0.88231131390E+03  0.44921766079E+03  0.68189587029E+01  0.99011003050E+03  0.12699999809E+01 0.  1.
       -4    1    3    3    0  502 -0.88231131390E+03 -0.44921766079E+03  0.13353332999E+04  0.16623436456E+04  0.12699999809E+01 0. -1.
</event>
<event>
 5   0  0.4605516E-05  0.2298759E+04  0.7818609E-02  0.8478411E-01
       -2   -1    0    0    0  501  0.00000000000E+00  0.00000000000E+00  0.25056169666E+04  0.25056169666E+04  0.25500000920E-02 0.  1.
        2   -1    0    0  501    0  0.00000000000E+00  0.00000000000E+00 -0.52724447649E+03  0.52724447649E+03  0.25500000920E-02 0. -1.
    10030    2    1    2    0    0  0.00000000000E+00  0.00000000000E+00  0.19783724901E+04  0.30328614431E+04  0.22987585396E+04 0.  0.
        1    1    3    3  502    0  0.11327028192E+03 -0.76844251824E+03  0.21069303283E+04  0.22455488124E+04  0.50400001928E-02 0.  1.
       -1    1    3    3    0  502 -0.11327028192E+03  0.76844251824E+03 -0.12855783821E+03  0.78731263066E+03  0.50400001928E-02 0. -1.
</event>
<event>
 5   0  0.4436695E-05  0.2343486E+04  0.7818609E-02  0.8460970E-01
        2   -1    0    0  501    0  0.00000000000E+00  0.00000000000E+00  0.11831854359E+04  0.11831854359E+04  0.25500000920E-02 0.  1.
       -2   -1    0    0    0  501  0.00000000000E+00  0.00000000000E+00 -0.11604117055E+04  0.11604117055E+04  0.25500000920E-02 0. -1.
    10030    2    1    2    0    0  0.00000000000E+00  0.00000000000E+00  0.22773730345E+02  0.23435971414E+04  0.23434864878E+04 0.  0.
        5    1    3    3  502    0 -0.97119725273E+03 -0.52752619907E+03 -0.37780004094E+03  0.11680166760E+04  0.46999998093E+01 0. -1.
       -5    1    3    3    0  502  0.97119725273E+03  0.52752619907E+03  0.40057377128E+03  0.11755804654E+04  0.46999998093E+01 0.  1.
</event>
<event>
 5   0  0.1968318E-05  0.2309944E+04  0.7818609E-02  0.8474011E-01
       -1   -1    0    0    0  501  0.00000000000E+00  0.00000000000E+00  0.97440309453E+03  0.97440309455E+03  0.50400001928E-02 0. -1.
        1   -1    0    0  501    0  0.00000000000E+00  0.00000000000E+00 -0.13690021139E+04  0.13690021139E+04  0.50400001928E-02 0.  1.
    10030    2    1    2    0    0  0.00000000000E+00  0.00000000000E+00 -0.39459901932E+03  0.23434052084E+04  0.23099436324E+04 0.  0.
        3    1    3    3  502    0 -0.48809027810E+02  0.10271271388E+04  0.33623462350E+03  0.10818623815E+04  0.10100000352E+00 0.  1.
       -3    1    3    3    0  502  0.48809027810E+02 -0.10271271388E+04 -0.73083364282E+03  0.12615428269E+04  0.10100000352E+00 0. -1.
</event>
<event>
 5   0  0.2085063E-05  0.2299557E+04  0.7818609E-02  0.8478096E-01
        1   -1    0    0  501    0  0.00000000000E+00  0.00000000000E+00  0.10856367103E+04  0.10856367103E+04  0.50400001928E-02 0.  1.
       -1   -1    0    0    0  501  0.00000000000E+00  0.00000000000E+00 -0.12177100060E+04  0.12177100060E+04  0.50400001928E-02 0. -1.
    10030    2    1    2    0    0  0.00000000000E+00  0.00000000000E+00 -0.13207329578E+03  0.23033467163E+04  0.22995570748E+04 0.  0.
        1    1    3    3  502    0  0.60162043564E+03 -0.91451048934E+03  0.28627315317E+03  0.11314720067E+04  0.50400001928E-02 0.  1.
       -1    1    3    3    0  502 -0.60162043564E+03  0.91451048934E+03 -0.41834644895E+03  0.11718747096E+04  0.50400001928E-02 0. -1.
</event>
<event>
 5   0  0.4798609E-05  0.1844845E+04  0.7818609E-02  0.8682808E-01
        2   -1    0    0  501    0  0.00000000000E+00  0.00000000000E+00  0.23854814747E+04  0.23854814747E+04  0.25500000920E-02 0. -1.
       -2   -1    0    0    0  501  0.00000000000E+00  0.00000000000E+00 -0.35668396956E+03  0.35668396956E+03  0.25500000920E-02 0.  1.
    10030    2    1    2    0    0  0.00000000000E+00  0.00000000000E+00  0.20287975051E+04  0.27421654442E+04  0.18448447108E+04 0.  0.
        2    1    3    3  502    0  0.49459365993E+03 -0.18384779902E+03 -0.11020327655E+03  0.53904328566E+03  0.25500000920E-02 0.  1.
       -2    1    3    3    0  502 -0.49459365993E+03  0.18384779902E+03  0.21390007817E+04  0.22031221586E+04  0.25500000920E-02 0. -1.
</event>
<event>
 5   0  0.2043885E-05  0.2285932E+04  0.7818609E-02  0.8483489E-01
        1   -1    0    0  501    0  0.00000000000E+00  0.00000000000E+00  0.14372384141E+04  0.14372384141E+04  0.50400001928E-02 0.  1.
       -1   -1    0    0    0  501  0.00000000000E+00  0.00000000000E+00 -0.90894559677E+03  0.90894559679E+03  0.50400001928E-02 0. -1.
    10030    2    1    2    0    0  0.00000000000E+00  0.00000000000E+00  0.52829281730E+03  0.23461840109E+04  0.22859322195E+04 0.  0.
        5    1    3    3  502    0 -0.25006225746E+03  0.18793219731E+03 -0.86414689936E+03  0.91903296843E+03  0.46999998093E+01 0. -1.
       -5    1    3    3    0  502  0.25006225746E+03 -0.18793219731E+03  0.13924397167E+04  0.14271510424E+04  0.46999998093E+01 0.  1.
</event>
<event>
 5   0  0.1968318E-05  0.1993361E+04  0.7818609E-02  0.8609731E-01
        1   -1    0    0  501    0  0.00000000000E+00  0.00000000000E+00  0.93592252148E+03  0.93592252150E+03  0.50400001928E-02 0. -1.
       -1   -1    0    0    0  501  0.00000000000E+00  0.00000000000E+00 -0.10613824045E+04  0.10613824045E+04  0.50400001928E-02 0.  1.
    10030    2    1    2    0    0  0.00000000000E+00  0.00000000000E+00 -0.12545988298E+03  0.19973049260E+04  0.19933606761E+04 0.  0.
        3    1    3    3  502    0 -0.75945593399E+03  0.60949983806E+03 -0.27553737906E+03  0.10120198742E+04  0.10100000352E+00 0.  1.
       -3    1    3    3    0  502  0.75945593399E+03 -0.60949983806E+03  0.15007749608E+03  0.98528505180E+03  0.10100000352E+00 0. -1.
</event>
<event>
 5   0  0.2042951E-05  0.2323207E+04  0.7818609E-02  0.8468827E-01
       -1   -1    0    0    0  501  0.00000000000E+00  0.00000000000E+00  0.18749511831E+04  0.18749511831E+04  0.50400001928E-02 0. -1.
        1   -1    0    0  501    0  0.00000000000E+00  0.00000000000E+00 -0.71965723473E+03  0.71965723475E+03  0.50400001928E-02 0.  1.
    10030    2    1    2    0    0  0.00000000000E+00  0.00000000000E+00  0.11552939484E+04  0.25946084179E+04  0.23232065631E+04 0.  0.
        2    1    3    3  502    0  0.36597285168E+03  0.10096079121E+04  0.10721834640E+04  0.15175050724E+04  0.25500000920E-02 0. -1.
       -2    1    3    3    0  502 -0.36597285168E+03 -0.10096079121E+04  0.83110484409E+02  0.10771033455E+04  0.25500000920E-02 0.  1.
</event>
<event>
 5   0  0.4798609E-05  0.2307950E+04  0.7818609E-02  0.8474793E-01
        2   -1    0    0  501    0  0.00000000000E+00  0.00000000000E+00  0.11586258218E+04  0.11586258219E+04  0.25500000920E-02 0. -1.
       -2   -1    0    0    0  501  0.00000000000E+00  0.00000000000E+00 -0.11493432164E+04  0.11493432164E+04  0.25500000920E-02 0.  1.
    10030    2    1    2    0    0  0.00000000000E+00  0.00000000000E+00  0.92826054738E+01  0.23079690382E+04  0.23079503709E+04 0.  0.
        2    1    3    3  502    0 -0.42483569663E+03  0.10327652416E+04  0.29545169352E+03  0.11551541527E+04  0.25500000920E-02 0. -1.
       -2    1    3    3    0  502  0.42483569663E+03 -0.10327652416E+04 -0.28616908805E+03  0.11528148855E+04  0.25500000920E-02 0.  1.
</event>
<event>
 5   0  0.4602447E-05  0.2302403E+04  0.7818609E-02  0.8476974E-01
       -2   -1    0    0    0  501  0.00000000000E+00  0.00000000000E+00  0.14876484842E+04  0.14876484842E+04  0.25500000920E-02 0.  1.
        2   -1    0    0  501    0  0.00000000000E+00  0.00000000000E+00 -0.89084526864E+03  0.89084526865E+03  0.25500000920E-02 0. -1.
    10030    2    1    2    0    0  0.00000000000E+00  0.00000000000E+00  0.59680321552E+03  0.23784937528E+04  0.23024027567E+04 0.  0.
        3    1    3    3  502    0  0.88489876939E+03  0.15569490213E+03 -0.44509042784E+03  0.10026924921E+04  0.10100000352E+00 0. -1.
       -3    1    3    3    0  502 -0.88489876939E+03 -0.15569490213E+03  0.10418936434E+04  0.13758012607E+04  0.10100000352E+00 0.  1.
</event>
<event>
 5   0  0.2043885E-05  0.2293729E+04  0.7818609E-02  0.8480398E-01
       -1   -1    0    0    0  501  0.00000000000E+00  0.00000000000E+00  0.43518056886E+03  0.43518056889E+03  0.50400001928E-02 0. -1.
        1   -1    0    0  501    0  0.00000000000E+00  0.00000000000E+00 -0.30224180636E+04  0.30224180636E+04  0.50400001928E-02 0.  1.
    10030    2    1    2    0    0  0.00000000000E+00  0.00000000000E+00 -0.25872374947E+04  0.34575986324E+04  0.22937285038E+04 0.  0.
        5    1    3    3  502    0  0.28022432641E+03  0.79660073702E+03 -0.24633731530E+04  0.26040982678E+04  0.46999998093E+01 0.  1.
       -5    1    3    3    0  502 -0.28022432641E+03 -0.79660073702E+03 -0.12386434167E+03  0.85350036466E+03  0.46999998093E+01 0. -1.
</event>
<event>
 5   0  0.2085063E-05  0.2304853E+04  0.7818609E-02  0.8476010E-01
        1   -1    0    0  501    0  0.00000000000E+00  0.00000000000E+00  0.12511430924E+04  0.12511430924E+04  0.50400001928E-02 0. -1.
       -1   -1    0    0    0  501  0.00000000000E+00  0.00000000000E+00 -0.10614983850E+04  0.10614983850E+04  0.50400001928E-02 0.  1.
    10030    2    1    2    0    0  0.00000000000E+00  0.00000000000E+00  0.18964470735E+03  0.23126414774E+04  0.23048525958E+04 0.  0.
        1    1    3    3  502    0  0.45836893171E+03 -0.25182011465E+03  0.11252157135E+04  0.12408166059E+04  0.50400001928E-02 0. -1.
       -1    1    3    3    0  502 -0.45836893171E+03  0.25182011465E+03 -0.93557100611E+03  0.10718248715E+04  0.50400001928E-02 0.  1.
</event>
<event>
 5   0  0.1968318E-05  0.2330759E+04  0.7818609E-02  0.8465891E-01
       -1   -1    0    0    0  501  0.00000000000E+00  0.00000000000E+00  0.10044100820E+04  0.10044100820E+04  0.50400001928E-02 0. -1.
        1   -1    0    0  501    0  0.00000000000E+00  0.00000000000E+00 -0.13521464639E+04  0.13521464639E+04  0.50400001928E-02 0.  1.
    10030    2    1    2    0    0  0.00000000000E+00  0.00000000000E+00 -0.34773638191E+03  0.23565565460E+04  0.23307591388E+04 0.  0.
        3    1    3    3  502    0 -0.68543600731E+03 -0.90203395238E+03  0.10232515487E+03  0.11375228432E+04  0.10100000352E+00 0. -1.
       -3    1    3    3    0  502  0.68543600731E+03  0.90203395238E+03 -0.45006153678E+03  0.12190337028E+04  0.10100000352E+00 0.  1.
</event>
<event>
 5   0  0.4436695E-05  0.2099864E+04  0.7818609E-02  0.8561303E-01
       -2   -1    0    0    0  501  0.00000000000E+00  0.00000000000E+00  0.81563284545E+03  0.81563284545E+03  0.25500000920E-02 0. -1.
        2   -1    0    0  501    0  0.00000000000E+00  0.00000000000E+00 -0.13515354527E+04  0.13515354527E+04  0.25500000920E-02 0.  1.
    10030    2    1    2    0    0  0.00000000000E+00  0.00000000000E+00 -0.53590260726E+03  0.21671682982E+04  0.20998635261E+04 0.  0.
        5    1    3    3  502    0  0.13410972715E+03 -0.10396101181E+04 -0.32952944764E+03  0.10988113412E+04  0.46999998093E+01 0. -1.
       -5    1    3    3    0  502 -0.13410972715E+03  0.10396101181E+04 -0.20637315963E+03  0.10683569570E+04  0.46999998093E+01 0.  1.
</event>
<event>
 5   0  0.1604500E-05  0.2297102E+04  0.7818609E-02  0.8479064E-01
       -3   -1    0    0    0  501  0.00000000000E+00  0.00000000000E+00  0.86710711634E+03  0.86710712222E+03  0.10100000352E+00 0. -1.
        3   -1    0    0  501    0  0.00000000000E+00  0.00000000000E+00 -0.15213459699E+04  0.15213459732E+04  0.10100000352E+00 0.  1.
    10030    2    1    2    0    0  0.00000000000E+00  0.00000000000E+00 -0.65423885353E+03  0.23884530955E+04  0.22971024600E+04 0.  0.
        1    1    3    3  502    0  0.18947367291E+03  0.11254474597E+04 -0.46123605067E+03  0.12309634242E+04  0.50400001928E-02 0. -1.
       -1    1    3    3    0  502 -0.18947367291E+03 -0.11254474597E+04 -0.19300280287E+03  0.11574896713E+04  0.50400001928E-02 0.  1.
</event>
<event>
 5   0  0.4798609E-05  0.2309799E+04  0.7818609E-02  0.8474068E-01
       -2   -1    0    0    0  501  0.00000000000E+00  0.00000000000E+00  0.12008127972E+04  0.12008127972E+04  0.25500000920E-02 0.  1.
        2   -1    0    0  501    0  0.00000000000E+00  0.00000000000E+00 -0.11107416674E+04  0.11107416674E+04  0.25500000920E-02 0. -1.
    10030    2    1    2    0    0  0.00000000000E+00  0.00000000000E+00  0.90071129812E+02  0.23115544646E+04  0.23097989598E+04 0.  0.
        2    1    3    3  502    0  0.42632657967E+03  0.90432621541E+03  0.62360344808E+03  0.11783214828E+04  0.25500000920E-02 0.  1.
       -2    1    3    3    0  502 -0.42632657967E+03 -0.90432621541E+03 -0.53353231827E+03  0.11332329818E+04  0.25500000920E-02 0. -1.
</event>
<event>
 5   0  0.4798609E-05  0.2342323E+04  0.7818609E-02  0.8461418E-01
       -2   -1    0    0    0  501  0.00000000000E+00  0.00000000000E+00  0.15279758188E+04  0.15279758188E+04  0.25500000920E-02 0.  1.
        2   -1    0    0  501    0  0.00000000000E+00  0.00000000000E+00 -0.89767101051E+03  0.89767101051E+03  0.25500000920E-02 0. -1.
    10030    2    1    2    0    0  0.00000000000E+00  0.00000000000E+00  0.63030480831E+03  0.24256468293E+04  0.23423232888E+04 0.  0.
        2    1    3    3  502    0  0.88359920764E+03 -0.75744211758E+03  0.45078272926E+03  0.12480669815E+04  0.25500000920E-02 0. -1.
       -2    1    3    3    0  502 -0.88359920764E+03  0.75744211758E+03  0.17952207905E+03  0.11775798479E+04  0.25500000920E-02 0.  1.
</event>
<event>
 5   0  0.4436695E-05  0.2283483E+04  0.7818609E-02  0.8484462E-01
        2   -1    0    0  501    0  0.00000000000E+00  0.00000000000E+00  0.12963331818E+04  0.12963331818E+04  0.25500000920E-02 0.  1.
       -2   -1    0    0    0  501  0.00000000000E+00  0.00000000000E+00 -0.10055849890E+04  0.10055849890E+04  0.25500000920E-02 0. -1.
    10030    2    1    2    0    0  0.00000000000E+00  0.00000000000E+00  0.29074819277E+03  0.23019181707E+04  0.22834825931E+04 0.  0.
        5    1    3    3  502    0  0.30906924524E+03  0.71285913618E+03 -0.69795580456E+03  0.10444406836E+04  0.46999998093E+01 0. -1.
       -5    1    3    3    0  502 -0.30906924524E+03 -0.71285913618E+03  0.98870399733E+03  0.12574774872E+04  0.46999998093E+01 0.  1.
</event>
<event>
 5   0  0.4605516E-05  0.2306494E+04  0.7818609E-02  0.8475365E-01
        2   -1    0    0  501    0  0.00000000000E+00  0.00000000000E+00  0.12135612115E+04  0.12135612115E+04  0.25500000920E-02 0.  1.
       -2   -1    0    0    0  501  0.00000000000E+00  0.00000000000E+00 -0.10959306734E+04  0.10959306734E+04  0.25500000920E-02 0. -1.
    10030    2    1    2    0    0  0.00000000000E+00  0.00000000000E+00  0.11763053811E+03  0.23094918849E+04  0.23064942712E+04 0.  0.
        1    1    3    3  502    0 -0.76639694564E+03 -0.33265425890E+03 -0.73717437901E+03  0.11142033923E+04  0.50400001928E-02 0. -1.
       -1    1    3    3    0  502  0.76639694564E+03  0.33265425890E+03  0.85480491713E+03  0.11952884926E+04  0.50400001928E-02 0.  1.
</event>
<event>
 5   0  0.4798609E-05  0.2249239E+04  0.7818609E-02  0.8498209E-01
       -2   -1    0    0    0  501  0.00000000000E+00  0.00000000000E+00  0.10229090864E+04  0.10229090864E+04  0.25500000920E-02 0. -1.
        2   -1    0    0  501    0  0.00000000000E+00  0.00000000000E+00 -0.12364427785E+04  0.12364427785E+04  0.25500000920E-02 0.  1.
    10030    2    1    2    0    0  0.00000000000E+00  0.00000000000E+00 -0.21353369218E+03  0.22593518649E+04  0.22492385849E+04 0.  0.
        2    1    3    3  502    0  0.59669338896E+03  0.71678652363E+03  0.52450345075E+03  0.10700139208E+04  0.25500000920E-02 0.  1.
       -2    1    3    3    0  502 -0.59669338896E+03 -0.71678652363E+03 -0.73803714293E+03  0.11893379441E+04  0.25500000920E-02 0. -1.
</event>
<event>
 5   0  0.4605516E-05  0.2243436E+04  0.7818609E-02  0.8500563E-01
       -2   -1    0    0    0  501  0.00000000000E+00  0.00000000000E+00  0.67691375730E+03  0.67691375730E+03  0.25500000920E-02 0.  1.
        2   -1    0    0  501    0  0.00000000000E+00  0.00000000000E+00 -0.18588065147E+04  0.18588065147E+04  0.25500000920E-02 0. -1.
    10030    2    1    2    0    0  0.00000000000E+00  0.00000000000E+00 -0.11818927574E+04  0.25357202720E+04  0.22434363837E+04 0.  0.
        1    1    3    3  502    0 -0.92034997180E+03  0.39002705947E+03 -0.11662670732E+04  0.15360156457E+04  0.50400001928E-02 0. -1.
       -1    1    3    3    0  502  0.92034997180E+03 -0.39002705947E+03 -0.15625684116E+02  0.99970462625E+03  0.50400001928E-02 0.  1.
</event>
<event>
 5   0  0.2031860E-05  0.2334774E+04  0.7818609E-02  0.8464335E-01
       -1   -1    0    0    0  501  0.00000000000E+00  0.00000000000E+00  0.12048979434E+04  0.12048979434E+04  0.50400001928E-02 0. -1.
        1   -1    0    0  501    0  0.00000000000E+00  0.00000000000E+00 -0.11310438338E+04  0.11310438338E+04  0.50400001928E-02 0.  1.
    10030    2    1    2    0    0  0.00000000000E+00  0.00000000000E+00  0.73854109593E+02  0.23359417771E+04  0.23347739841E+04 0.  0.
        4    1    3    3  502    0 -0.53332870892E+03 -0.94387489321E+03 -0.39624613693E+03  0.11542755043E+04  0.12699999809E+01 0.  1.
       -4    1    3    3    0  502  0.53332870892E+03  0.94387489321E+03  0.47010024653E+03  0.11816662729E+04  0.12699999809E+01 0. -1.
</event>
<event>
 5   0  0.2031860E-05  0.2292952E+04  0.7818609E-02  0.8480705E-01
        1   -1    0    0  501    0  0.00000000000E+00  0.00000000000E+00  0.19309853572E+04  0.19309853572E+04  0.50400001928E-02 0. -1.
       -1   -1    0    0    0  501  0.00000000000E+00  0.00000000000E+00 -0.68069244248E+03  0.68069244250E+03  0.50400001928E-02 0.  1.
    10030    2    1    2    0    0  0.00000000000E+00  0.00000000000E+00  0.12502929147E+04  0.26116777997E+04  0.22929519308E+04 0.  0.
        4    1    3    3  502    0  0.10170814029E+04 -0.45561472236E+03  0.31874385885E+03  0.11591542675E+04  0.12699999809E+01 0.  1.
       -4    1    3    3    0  502 -0.10170814029E+04  0.45561472236E+03  0.93154905589E+03  0.14525235323E+04  0.12699999809E+01 0. -1.
</event>
<event>
 5   0  0.2031860E-05  0.2336811E+04  0.7818609E-02  0.8463547E-01
        1   -1    0    0  501    0  0.00000000000E+00  0.00000000000E+00  0.19341531752E+04  0.19341531752E+04  0.50400001928E-02 0.  1.
       -1   -1    0    0    0  501  0.00000000000E+00  0.00000000000E+00 -0.70582377257E+03  0.70582377259E+03  0.50400001928E-02 0. -1.
    10030    2    1    2    0    0  0.00000000000E+00  0.00000000000E+00  0.12283294026E+04  0.26399769478E+04  0.23368108960E+04 0.  0.
        4    1    3    3  502    0 -0.84513067855E+03  0.26515061241E+03  0.14750041784E+04  0.17205201685E+04  0.12699999809E+01 0.  1.
       -4    1    3    3    0  502  0.84513067855E+03 -0.26515061241E+03 -0.24667477576E+03  0.91945677929E+03  0.12699999809E+01 0. -1.
</event>
<event>
 5   0  0.4505107E-05  0.2287431E+04  0.7818609E-02  0.8482893E-01
       -2   -1    0    0    0  501  0.00000000000E+00  0.00000000000E+00  0.85134565729E+03  0.85134565730E+03  0.25500000920E-02 0. -1.
        2   -1    0    0  501    0  0.00000000000E+00  0.00000000000E+00 -0.15364912445E+04  0.15364912445E+04  0.25500000920E-02 0.  1.
    10030    2    1    2    0    0  0.00000000000E+00  0.00000000000E+00 -0.68514558721E+03  0.23878369018E+04  0.22874310031E+04 0.  0.
        4    1    3    3  502    0 -0.94897857167E+03  0.56009892662E+03 -0.66230528834E+03  0.12856597703E+04  0.12699999809E+01 0. -1.
       -4    1    3    3    0  502  0.94897857167E+03 -0.56009892662E+03 -0.22840298877E+02  0.11021771315E+04  0.12699999809E+01 0.  1.
</event>
<event>
 5   0  0.2043885E-05  0.2272854E+04  0.7818609E-02  0.8488702E-01
       -1   -1    0    0    0  501  0.00000000000E+00  0.00000000000E+00  0.12218193603E+04  0.12218193603E+04  0.50400001928E-02 0.  1.
        1   -1    0    0  501    0  0.00000000000E+00  0.00000000000E+00 -0.10570025647E+04  0.10570025647E+04  0.50400001928E-02 0. -1.
    10030    2    1    2    0    0  0.00000000000E+00  0.00000000000E+00  0.16481679567E+03  0.22788219250E+04  0.22728538866E+04 0.  0.
        5    1    3    3  502    0 -0.11852045052E+03  0.62409440188E+03  0.10271687936E+04  0.12077411727E+04  0.46999998093E+01 0.  1.
       -5    1    3    3    0  502  0.11852045052E+03 -0.62409440188E+03 -0.86235199795E+03  0.10710807523E+04  0.46999998093E+01 0. -1.
</event>
<event>
 5   0  0.2042951E-05  0.2353152E+04  0.7818609E-02  0.8457254E-01
       -1   -1    0    0    0  501  0.00000000000E+00  0.00000000000E+00  0.10264599936E+04  0.10264599936E+04  0.50400001928E-02 0. -1.
        1   -1    0    0  501    0  0.00000000000E+00  0.00000000000E+00 -0.13486453593E+04  0.13486453593E+04  0.50400001928E-02 0.  1.
    10030    2    1    2    0    0  0.00000000000E+00  0.00000000000E+00 -0.32218536568E+03  0.23751053529E+04  0.23531515097E+04 0.  0.
        2    1    3    3  502    0  0.72944860608E+03  0.43816971460E+03  0.65904117075E+03  0.10763007165E+04  0.25500000920E-02 0. -1.
       -2    1    3    3    0  502 -0.72944860608E+03 -0.43816971460E+03 -0.98122653643E+03  0.12988046364E+04  0.25500000920E-02 0.  1.
</event>
<event>
 5   0  0.2031860E-05  0.2301765E+04  0.7818609E-02  0.8477225E-01
        1   -1    0    0  501    0  0.00000000000E+00  0.00000000000E+00  0.19892254764E+04  0.19892254764E+04  0.50400001928E-02 0.  1.
       -1   -1    0    0    0  501  0.00000000000E+00  0.00000000000E+00 -0.66585245507E+03  0.66585245509E+03  0.50400001928E-02 0. -1.
    10030    2    1    2    0    0  0.00000000000E+00  0.00000000000E+00  0.13233730214E+04  0.26550779315E+04  0.23017651202E+04 0.  0.
        4    1    3    3  502    0 -0.20110537415E+03  0.31580467797E+03  0.19170135014E+04  0.19532327929E+04  0.12699999809E+01 0.  1.
       -4    1    3    3    0  502  0.20110537415E+03 -0.31580467797E+03 -0.59364048000E+03  0.70184513857E+03  0.12699999809E+01 0. -1.
</event>
<event>
 5   0  0.2031860E-05  0.2305795E+04  0.7818609E-02  0.8475640E-01
        1   -1    0    0  501    0  0.00000000000E+00  0.00000000000E+00  0.17024658881E+04  0.17024658881E+04  0.50400001928E-02 0. -1.
       -1   -1    0    0    0  501  0.00000000000E+00  0.00000000000E+00 -0.78073399693E+03  0.78073399694E+03  0.50400001928E-02 0.  1.
    10030    2    1    2    0    0  0.00000000000E+00  0.00000000000E+00  0.92173189117E+03  0.24831998850E+04  0.23057953053E+04 0.  0.
        4    1    3    3  502    0 -0.45140615789E+03 -0.44650302120E+03 -0.57548189814E+03  0.85692093877E+03  0.12699999809E+01 0.  1.
       -4    1    3    3    0  502  0.45140615789E+03  0.44650302120E+03  0.14972137893E+04  0.16262789463E+04  0.12699999809E+01 0. -1.
</event>
<event>
 5   0  0.4602447E-05  0.2266601E+04  0.7818609E-02  0.8491208E-01
       -2   -1    0    0    0  501  0.00000000000E+00  0.00000000000E+00  0.75965296534E+03  0.75965296535E+03  0.25500000920E-02 0.  1.
        2   -1    0    0  501    0  0.00000000000E+00  0.00000000000E+00 -0.16907320342E+04  0.16907320342E+04  0.25500000920E-02 0. -1.
    10030    2    1    2    0    0  0.00000000000E+00  0.00000000000E+00 -0.93107906884E+03  0.24503849995E+04  0.22666006295E+04 0.  0.
        3    1    3    3  502    0  0.65948326115E+03  0.72331455258E+03  0.15197362087E+03  0.99055444341E+03  0.10100000352E+00 0.  1.
       -3    1    3    3    0  502 -0.65948326115E+03 -0.72331455258E+03 -0.10830526897E+04  0.14598305561E+04  0.10100000352E+00 0. -1.
</event>
<event>
 5   0  0.2042951E-05  0.2298529E+04  0.7818609E-02  0.8478501E-01
       -1   -1    0    0    0  501  0.00000000000E+00  0.00000000000E+00  0.92186701368E+03  0.92186701369E+03  0.50400001928E-02 0.  1.
        1   -1    0    0  501    0  0.00000000000E+00  0.00000000000E+00 -0.14327547720E+04  0.14327547720E+04  0.50400001928E-02 0. -1.
    10030    2    1    2    0    0  0.00000000000E+00  0.00000000000E+00 -0.51088775833E+03  0.23546217857E+04  0.22985294108E+04 0.  0.
        2    1    3    3  502    0  0.23438247769E+03 -0.32054652616E+03  0.84935729674E+03  0.93759961541E+03  0.25500000920E-02 0.  1.
       -2    1    3    3    0  502 -0.23438247769E+03  0.32054652616E+03 -0.13602450551E+04  0.14170221703E+04  0.25500000920E-02 0. -1.
</event>
<event>
 5   0  0.4602447E-05  0.2341843E+04  0.7818609E-02  0.8461603E-01
       -2   -1    0    0    0  501  0.00000000000E+00  0.00000000000E+00  0.10614283011E+04  0.10614283011E+04  0.25500000920E-02 0.  1.
        2   -1    0    0  501    0  0.00000000000E+00  0.00000000000E+00 -0.12917100193E+04  0.12917100194E+04  0.25500000920E-02 0. -1.
    10030    2    1    2    0    0  0.00000000000E+00  0.00000000000E+00 -0.23028171830E+03  0.23531383204E+04  0.23418433520E+04 0.  0.
        3    1    3    3  502    0 -0.73402375612E+03  0.51586317006E+03 -0.87120056055E+03  0.12505583200E+04  0.10100000352E+00 0. -1.
       -3    1    3    3    0  502  0.73402375612E+03 -0.51586317006E+03  0.64091884225E+03  0.11025800004E+04  0.10100000352E+00 0.  1.
</event>
<event>
 5   0  0.2043885E-05  0.2339346E+04  0.7818609E-02  0.8462567E-01
       -1   -1    0    0    0  501  0.00000000000E+00  0.00000000000E+00  0.89076476152E+03  0.89076476153E+03  0.50400001928E-02 0. -1.
        1   -1    0    0  501    0  0.00000000000E+00  0.00000000000E+00 -0.15359110912E+04  0.15359110912E+04  0.50400001928E-02 0.  1.
    10030    2    1    2    0    0  0.00000000000E+00  0.00000000000E+00 -0.64514632966E+03  0.24266758527E+04  0.23393464702E+04 0.  0.
        5    1    3    3  502    0  0.59059389441E+03 -0.61602683424E+03 -0.11523230577E+04  0.14339319119E+04  0.46999998093E+01 0.  1.
       -5    1    3    3    0  502 -0.59059389441E+03  0.61602683424E+03  0.50717672804E+03  0.99274394084E+03  0.46999998093E+01 0. -1.
</event>
<event>
 5   0  0.4602447E-05  0.2212123E+04  0.7818609E-02  0.8513399E-01
       -2   -1    0    0    0  501  0.00000000000E+00  0.00000000000E+00  0.20842037204E+04  0.20842037204E+04  0.25500000920E-02 0. -1.
        2   -1    0    0  501    0  0.00000000000E+00  0.00000000000E+00 -0.58697315994E+03  0.58697315994E+03  0.25500000920E-02 0.  1.
    10030    2    1    2    0    0  0.00000000000E+00  0.00000000000E+00  0.14972305605E+04  0.26711768804E+04  0.22121226401E+04 0.  0.
        3    1    3    3  502    0 -0.33478520695E+03 -0.23188008466E+03 -0.49314618257E+03  0.63956444244E+03  0.10100000352E+00 0.  1.
       -3    1    3    3    0  502  0.33478520695E+03  0.23188008466E+03  0.19903767430E+04  0.20316124379E+04  0.10100000352E+00 0. -1.
</event>
<event>
 5   0  0.1968318E-05  0.2376477E+04  0.7818609E-02  0.8448363E-01
        1   -1    0    0  501    0  0.00000000000E+00  0.00000000000E+00  0.17390628063E+04  0.17390628063E+04  0.50400001928E-02 0.  1.
       -1   -1    0    0    0  501  0.00000000000E+00  0.00000000000E+00 -0.81188040972E+03  0.81188040973E+03  0.50400001928E-02 0. -1.
    10030    2    1    2    0    0  0.00000000000E+00  0.00000000000E+00  0.92718239657E+03  0.25509432160E+04  0.23764772448E+04 0.  0.
        3    1    3    3  502    0  0.74002515602E+03  0.41063789832E+03 -0.43169650396E+03  0.95006452244E+03  0.10100000352E+00 0. -1.
       -3    1    3    3    0  502 -0.74002515602E+03 -0.41063789832E+03  0.13588789005E+04  0.16008786936E+04  0.10100000352E+00 0.  1.
</event>
<event>
 5   0  0.2043885E-05  0.2299551E+04  0.7818609E-02  0.8478098E-01
        1   -1    0    0  501    0  0.00000000000E+00  0.00000000000E+00  0.11471131817E+04  0.11471131817E+04  0.50400001928E-02 0. -1.
       -1   -1    0    0    0  501  0.00000000000E+00  0.00000000000E+00 -0.11524444954E+04  0.11524444954E+04  0.50400001928E-02 0.  1.
    10030    2    1    2    0    0  0.00000000000E+00  0.00000000000E+00 -0.53313137025E+01  0.22995576770E+04  0.22995514969E+04 0.  0.
        5    1    3    3  502    0 -0.94553192811E+03  0.65416393988E+03 -0.16194824819E+01  0.11497764131E+04  0.46999998093E+01 0.  1.
       -5    1    3    3    0  502  0.94553192811E+03 -0.65416393988E+03 -0.37118312207E+01  0.11497812640E+04  0.46999998093E+01 0. -1.
</event>
<event>
 5   0  0.4436695E-05  0.2294730E+04  0.7818609E-02  0.8480002E-01
        2   -1    0    0  501    0  0.00000000000E+00  0.00000000000E+00  0.18940428088E+04  0.18940428088E+04  0.25500000920E-02 0. -1.
       -2   -1    0    0    0  501  0.00000000000E+00  0.00000000000E+00 -0.69504574351E+03  0.69504574352E+03  0.25500000920E-02 0.  1.
    10030    2    1    2    0    0  0.00000000000E+00  0.00000000000E+00  0.11989970653E+04  0.25890885523E+04  0.22947299556E+04 0.  0.
        5    1    3    3  502    0 -0.11373628163E+04 -0.44487469786E+02  0.43657692944E+03  0.12190959011E+04  0.46999998093E+01 0. -1.
       -5    1    3    3    0  502  0.11373628163E+04  0.44487469786E+02  0.76242013586E+03  0.13699926512E+04  0.46999998093E+01 0.  1.
</event>
<event>
 5   0  0.1968318E-05  0.2300192E+04  0.7818609E-02  0.8477845E-01
        1   -1    0    0  501    0  0.00000000000E+00  0.00000000000E+00  0.14041027021E+04  0.14041027021E+04  0.50400001928E-02 0.  1.
       -1   -1    0    0    0  501  0.00000000000E+00  0.00000000000E+00 -0.94203984481E+03  0.94203984483E+03  0.50400001928E-02 0. -1.
    10030    2    1    2    0    0  0.00000000000E+00  0.00000000000E+00  0.46206285731E+03  0.23461425470E+04  0.23001918978E+04 0.  0.
        3    1    3    3  502    0 -0.23747467474E+02  0.11257545104E+04 -0.78120538846E+01  0.11260320592E+04  0.10100000352E+00 0. -1.
       -3    1    3    3    0  502  0.23747467474E+02 -0.11257545104E+04  0.46987491119E+03  0.12201104878E+04  0.10100000352E+00 0.  1.
</event>
<event>
 5   0  0.2042951E-05  0.2277755E+04  0.7818609E-02  0.8486744E-01
       -1   -1    0    0    0  501  0.00000000000E+00  0.00000000000E+00  0.61085599391E+03  0.61085599393E+03  0.50400001928E-02 0. -1.
        1   -1    0    0  501    0  0.00000000000E+00  0.00000000000E+00 -0.21233178659E+04  0.21233178659E+04  0.50400001928E-02 0.  1.
    10030    2    1    2    0    0  0.00000000000E+00  0.00000000000E+00 -0.15124618720E+04  0.27341738598E+04  0.22777545481E+04 0.  0.
        2    1    3    3  502    0  0.11042454769E+04 -0.25560420296E+03 -0.62283263883E+03  0.12932950467E+04  0.25500000920E-02 0.  1.
       -2    1    3    3    0  502 -0.11042454769E+04  0.25560420296E+03 -0.88962923315E+03  0.14408788132E+04  0.25500000920E-02 0. -1.
</event>
<event>
 5   0  0.4798609E-05  0.1967574E+04  0.7818609E-02  0.8621933E-01
        2   -1    0    0  501    0  0.00000000000E+00  0.00000000000E+00  0.11215458347E+04  0.11215458347E+04  0.25500000920E-02 0.  1.
       -2   -1    0    0    0  501  0.00000000000E+00  0.00000000000E+00 -0.86294857884E+03  0.86294857884E+03  0.25500000920E-02 0. -1.
    10030    2    1    2    0    0  0.00000000000E+00  0.00000000000E+00  0.25859725585E+03  0.19844944135E+04  0.19675735149E+04 0.  0.
        2    1    3    3  502    0  0.25300552575E+03  0.78430574998E+03 -0.41262001272E+03  0.92163039252E+03  0.25500000920E-02 0. -1.
       -2    1    3    3    0  502 -0.25300552575E+03 -0.78430574998E+03  0.67121726857E+03  0.10628640210E+04  0.25500000920E-02 0.  1.
</event>
<event>
 5   0  0.4798609E-05  0.2182106E+04  0.7818609E-02  0.8525913E-01
       -2   -1    0    0    0  501  0.00000000000E+00  0.00000000000E+00  0.68094280803E+03  0.68094280803E+03  0.25500000920E-02 0.  1.
        2   -1    0    0  501    0  0.00000000000E+00  0.00000000000E+00 -0.17481595762E+04  0.17481595762E+04  0.25500000920E-02 0. -1.
    10030    2    1    2    0    0  0.00000000000E+00  0.00000000000E+00 -0.10672167682E+04  0.24291023842E+04  0.21821060384E+04 0.  0.
        2    1    3    3  502    0 -0.98467713316E+03 -0.25997398455E+03 -0.96935030565E+03  0.14059927255E+04  0.25500000920E-02 0. -1.
       -2    1    3    3    0  502  0.98467713316E+03  0.25997398455E+03 -0.97866462524E+02  0.10231096587E+04  0.25500000920E-02 0.  1.
</event>
<event>
 5   0  0.4505107E-05  0.2287603E+04  0.7818609E-02  0.8482825E-01
        2   -1    0    0  501    0  0.00000000000E+00  0.00000000000E+00  0.19692814259E+04  0.19692814259E+04  0.25500000920E-02 0.  1.
       -2   -1    0    0    0  501  0.00000000000E+00  0.00000000000E+00 -0.66434487140E+03  0.66434487141E+03  0.25500000920E-02 0. -1.
    10030    2    1    2    0    0  0.00000000000E+00  0.00000000000E+00  0.13049365545E+04  0.26336262973E+04  0.22876031261E+04 0.  0.
        4    1    3    3  502    0 -0.87346218669E+03 -0.57954171427E+03  0.12555371252E+03  0.10557320388E+04  0.12699999809E+01 0. -1.
       -4    1    3    3    0  502  0.87346218669E+03  0.57954171427E+03  0.11793828420E+04  0.15778942585E+04  0.12699999809E+01 0.  1.
</event>
<event>
 5   0  0.4605516E-05  0.2313311E+04  0.7818609E-02  0.8472691E-01
        2   -1    0    0  501    0  0.00000000000E+00  0.00000000000E+00  0.14959963834E+04  0.14959963834E+04  0.25500000920E-02 0.  1.
       -2   -1    0    0    0  501  0.00000000000E+00  0.00000000000E+00 -0.89428836763E+03  0.89428836763E+03  0.25500000920E-02 0. -1.
    10030    2    1    2    0    0  0.00000000000E+00  0.00000000000E+00  0.60170801574E+03  0.23902847510E+04  0.23133111885E+04 0.  0.
        1    1    3    3  502    0 -0.42559749959E+03 -0.93100275248E+03 -0.25553589649E+03  0.10550819642E+04  0.50400001928E-02 0. -1.
       -1    1    3    3    0  502  0.42559749959E+03  0.93100275248E+03  0.85724391222E+03  0.13352027868E+04  0.50400001928E-02 0.  1.
</event>
<event>
 5   0  0.1604500E-05  0.2182789E+04  0.7818609E-02  0.8525626E-01
       -4   -1    0    0    0  501  0.00000000000E+00  0.00000000000E+00  0.10245548063E+04  0.10245555934E+04  0.12699999809E+01 0.  1.
        4   -1    0    0  501    0  0.00000000000E+00  0.00000000000E+00 -0.11625934319E+04  0.11625941256E+04  0.12699999809E+01 0. -1.
    10030    2    1    2    0    0  0.00000000000E+00  0.00000000000E+00 -0.13803862564E+03  0.21871497190E+04  0.21827893236E+04 0.  0.
        4    1    3    3  502    0 -0.24162003286E+03  0.45247914115E+03 -0.10342832507E+04  0.11544960238E+04  0.12699999809E+01 0. -1.
       -4    1    3    3    0  502  0.24162003286E+03 -0.45247914115E+03  0.89624462501E+03  0.10326536952E+04  0.12699999809E+01 0.  1.
</event>
<event>
 5   0  0.4505107E-05  0.2287233E+04  0.7818609E-02  0.8482972E-01
       -2   -1    0    0    0  501  0.00000000000E+00  0.00000000000E+00  0.14482017222E+04  0.14482017222E+04  0.25500000920E-02 0.  1.
        2   -1    0    0  501    0  0.00000000000E+00  0.00000000000E+00 -0.90309164864E+03  0.90309164864E+03  0.25500000920E-02 0. -1.
    10030    2    1    2    0    0  0.00000000000E+00  0.00000000000E+00  0.54511007360E+03  0.23512933709E+04  0.22872331590E+04 0.  0.
        4    1    3    3  502    0  0.23825949511E+03 -0.11156925374E+04  0.19083105424E+03  0.11567002763E+04  0.12699999809E+01 0. -1.
       -4    1    3    3    0  502 -0.23825949511E+03  0.11156925374E+04  0.35427901936E+03  0.11945930946E+04  0.12699999809E+01 0.  1.
</event>
<event>
 5   0  0.4602447E-05  0.2271339E+04  0.7818609E-02  0.8489308E-01
        2   -1    0    0  501    0  0.00000000000E+00  0.00000000000E+00  0.14138787369E+04  0.14138787369E+04  0.25500000920E-02 0.  1.
       -2   -1    0    0    0  501  0.00000000000E+00  0.00000000000E+00 -0.91220346977E+03  0.91220346977E+03  0.25500000920E-02 0. -1.
    10030    2    1    2    0    0  0.00000000000E+00  0.00000000000E+00  0.50167526715E+03  0.23260822067E+04  0.22713388912E+04 0.  0.
        3    1    3    3  502    0  0.10522064813E+03 -0.26020608326E+03 -0.87612413852E+03  0.91998484056E+03  0.10100000352E+00 0. -1.
       -3    1    3    3    0  502 -0.10522064813E+03  0.26020608326E+03  0.13777994057E+04  0.14060973661E+04  0.10100000352E+00 0.  1.
</event>
<event>
 5   0  0.1604500E-05  0.2303100E+04  0.7818609E-02  0.8476700E-01
        3   -1    0    0  501    0  0.00000000000E+00  0.00000000000E+00  0.12249607504E+04  0.12249607546E+04  0.10100000352E+00 0.  1.
       -3   -1    0    0    0  501  0.00000000000E+00  0.00000000000E+00 -0.10825386117E+04  0.10825386164E+04  0.10100000352E+00 0. -1.
    10030    2    1    2    0    0  0.00000000000E+00  0.00000000000E+00  0.14242213873E+03  0.23074993709E+04  0.23030999286E+04 0.  0.
        5    1    3    3  502    0  0.27934539354E+03 -0.66138662317E+03 -0.83083042257E+03  0.10980744033E+04  0.46999998093E+01 0.  1.
       -5    1    3    3    0  502 -0.27934539354E+03  0.66138662317E+03  0.97325256130E+03  0.12094249676E+04  0.46999998093E+01 0. -1.
</event>
<event>
 5   0  0.1604500E-05  0.2249311E+04  0.7818609E-02  0.8498179E-01
       -3   -1    0    0    0  501  0.00000000000E+00  0.00000000000E+00  0.11191888316E+04  0.11191888362E+04  0.10100000352E+00 0.  1.
        3   -1    0    0  501    0  0.00000000000E+00  0.00000000000E+00 -0.11301491370E+04  0.11301491415E+04  0.10100000352E+00 0. -1.
    10030    2    1    2    0    0  0.00000000000E+00  0.00000000000E+00 -0.10960305387E+02  0.22493379777E+04  0.22493112745E+04 0.  0.
        5    1    3    3  502    0 -0.16127172629E+02 -0.67947594472E+03 -0.90152682028E+03  0.11290351380E+04  0.46999998093E+01 0. -1.
       -5    1    3    3    0  502  0.16127172629E+02  0.67947594472E+03  0.89056651489E+03  0.11203028397E+04  0.46999998093E+01 0.  1.
</event>
<event>
 5   0  0.1968318E-05  0.2281064E+04  0.7818609E-02  0.8485425E-01
        1   -1    0    0  501    0  0.00000000000E+00  0.00000000000E+00  0.19666509640E+04  0.19666509640E+04  0.50400001928E-02 0. -1.
       -1   -1    0    0    0  501  0.00000000000E+00  0.00000000000E+00 -0.66143546311E+03  0.66143546313E+03  0.50400001928E-02 0.  1.
    10030    2    1    2    0    0  0.00000000000E+00  0.00000000000E+00  0.13052155009E+04  0.26280864272E+04  0.22810635162E+04 0.  0.
        3    1    3    3  502    0 -0.31361394305E+02  0.10756657896E+04  0.10879433383E+04  0.15302487202E+04  0.10100000352E+00 0. -1.
       -3    1    3    3    0  502  0.31361394305E+02 -0.10756657896E+04  0.21727216260E+03  0.10978377070E+04  0.10100000352E+00 0.  1.
</event>
<event>
 5   0  0.4436695E-05  0.2336455E+04  0.7818609E-02  0.8463685E-01
        2   -1    0    0  501    0  0.00000000000E+00  0.00000000000E+00  0.12191439107E+04  0.12191439107E+04  0.25500000920E-02 0.  1.
       -2   -1    0    0    0  501  0.00000000000E+00  0.00000000000E+00 -0.11194374456E+04  0.11194374456E+04  0.25500000920E-02 0. -1.
    10030    2    1    2    0    0  0.00000000000E+00  0.00000000000E+00  0.99706465135E+02  0.23385813563E+04  0.23364548745E+04 0.  0.
        5    1    3    3  502    0  0.42582355392E+03 -0.13997598281E+03  0.11296373281E+04  0.12153277574E+04  0.46999998093E+01 0.  1.
       -5    1    3    3    0  502 -0.42582355392E+03  0.13997598281E+03 -0.10299308630E+04  0.11232535989E+04  0.46999998093E+01 0. -1.
</event>
<event>
 5   0  0.2031860E-05  0.2294115E+04  0.7818609E-02  0.8480245E-01
        1   -1    0    0  501    0  0.00000000000E+00  0.00000000000E+00  0.13588080135E+04  0.13588080135E+04  0.50400001928E-02 0. -1.
       -1   -1    0    0    0  501  0.00000000000E+00  0.00000000000E+00 -0.96830529104E+03  0.96830529105E+03  0.50400001928E-02 0.  1.
    10030    2    1    2    0    0  0.00000000000E+00  0.00000000000E+00  0.39050272244E+03  0.23271133045E+04  0.22941150703E+04 0.  0.
        4    1    3    3  502    0  0.28244053209E+03 -0.64967720635E+03 -0.71988157643E+03  0.10099921899E+04  0.12699999809E+01 0.  1.
       -4    1    3    3    0  502 -0.28244053209E+03  0.64967720635E+03  0.11103842989E+04  0.13171211147E+04  0.12699999809E+01 0. -1.
</event>
<event>
 5   0  0.4605516E-05  0.2285232E+04  0.7818609E-02  0.8483767E-01
        2   -1    0    0  501    0  0.00000000000E+00  0.00000000000E+00  0.95939121964E+03  0.95939121965E+03  0.25500000920E-02 0. -1.
       -2   -1    0    0    0  501  0.00000000000E+00  0.00000000000E+00 -0.13608329611E+04  0.13608329611E+04  0.25500000920E-02 0.  1.
    10030    2    1    2    0    0  0.00000000000E+00  0.00000000000E+00 -0.40144174145E+03  0.23202241807E+04  0.22852318870E+04 0.  0.
        1    1    3    3  502    0 -0.57232306068E+03  0.16170460784E+03  0.78985625267E+03  0.98872390782E+03  0.50400001928E-02 0. -1.
       -1    1    3    3    0  502  0.57232306068E+03 -0.16170460784E+03 -0.11912979941E+04  0.13315002729E+04  0.50400001928E-02 0.  1.
</event>
<event>
 5   0  0.4798609E-05  0.2252381E+04  0.7818609E-02  0.8496937E-01
       -2   -1    0    0    0  501  0.00000000000E+00  0.00000000000E+00  0.16165556583E+04  0.16165556583E+04  0.25500000920E-02 0. -1.
        2   -1    0    0  501    0  0.00000000000E+00  0.00000000000E+00 -0.78457277413E+03  0.78457277414E+03  0.25500000920E-02 0.  1.
    10030    2    1    2    0    0  0.00000000000E+00  0.00000000000E+00  0.83198288420E+03  0.24011284325E+04  0.22523814574E+04 0.  0.
        2    1    3    3  502    0  0.71190039011E+02 -0.62615292662E+03  0.14109956440E+04  0.15453298083E+04  0.25500000920E-02 0. -1.
       -2    1    3    3    0  502 -0.71190039011E+02  0.62615292662E+03 -0.57901275975E+03  0.85579862417E+03  0.25500000920E-02 0.  1.
</event>
<event>
 5   0  0.2043885E-05  0.2294968E+04  0.7818609E-02  0.8479908E-01
       -1   -1    0    0    0  501  0.00000000000E+00  0.00000000000E+00  0.13451564463E+04  0.13451564463E+04  0.50400001928E-02 0. -1.
        1   -1    0    0  501    0  0.00000000000E+00  0.00000000000E+00 -0.97885950083E+03  0.97885950084E+03  0.50400001928E-02 0.  1.
    10030    2    1    2    0    0  0.00000000000E+00  0.00000000000E+00  0.36629694547E+03  0.23240159471E+04  0.22949676839E+04 0.  0.
        5    1    3    3  502    0  0.15844993933E+03 -0.56987722987E+03  0.11788696211E+04  0.13189473507E+04  0.46999998093E+01 0. -1.
       -5    1    3    3    0  502 -0.15844993933E+03  0.56987722987E+03 -0.81257267562E+03  0.10050685964E+04  0.46999998093E+01 0.  1.
</event>
<event>
 5   0  0.4505107E-05  0.2312508E+04  0.7818609E-02  0.8473005E-01
       -2   -1    0    0    0  501  0.00000000000E+00  0.00000000000E+00  0.12563969110E+04  0.12563969110E+04  0.25500000920E-02 0.  1.
        2   -1    0    0  501    0  0.00000000000E+00  0.00000000000E+00 -0.10640935404E+04  0.10640935404E+04  0.25500000920E-02 0. -1.
    10030    2    1    2    0    0  0.00000000000E+00  0.00000000000E+00  0.19230337056E+03  0.23204904514E+04  0.23125084538E+04 0.  0.
        4    1    3    3  502    0  0.83347448475E+03  0.79462175896E+03 -0.82206393303E+01  0.11515956966E+04  0.12699999809E+01 0.  1.
       -4    1    3    3    0  502 -0.83347448475E+03 -0.79462175896E+03  0.20052400989E+03  0.11688947549E+04  0.12699999809E+01 0. -1.
</event>
<event>
 5   0  0.4436695E-05  0.2299027E+04  0.7818609E-02  0.8478305E-01
        2   -1    0    0  501    0  0.00000000000E+00  0.00000000000E+00  0.29764821363E+04  0.29764821363E+04  0.25500000920E-02 0. -1.
       -2   -1    0    0    0  501  0.00000000000E+00  0.00000000000E+00 -0.44394068580E+03  0.44394068580E+03  0.25500000920E-02 0.  1.
    10030    2    1    2    0    0  0.00000000000E+00  0.00000000000E+00  0.25325414505E+04  0.34204228221E+04  0.22990272037E+04 0.  0.
        5    1    3    3  502    0  0.17689709794E+03 -0.59458471864E+03  0.27060565416E+04  0.27762542512E+04  0.46999998093E+01 0. -1.
       -5    1    3    3    0  502 -0.17689709794E+03  0.59458471864E+03 -0.17351509110E+03  0.64416857091E+03  0.46999998093E+01 0.  1.
</event>
<event>
 5   0  0.2031860E-05  0.2309537E+04  0.7818609E-02  0.8474170E-01
        1   -1    0    0  501    0  0.00000000000E+00  0.00000000000E+00  0.10047224001E+04  0.10047224002E+04  0.50400001928E-02 0.  1.
       -1   -1    0    0    0  501  0.00000000000E+00  0.00000000000E+00 -0.13272228258E+04  0.13272228258E+04  0.50400001928E-02 0. -1.
    10030    2    1    2    0    0  0.00000000000E+00  0.00000000000E+00 -0.32250042565E+03  0.23319452260E+04  0.23095371857E+04 0.  0.
        4    1    3    3  502    0 -0.81856238239E+03 -0.69161078947E+03  0.27317890028E+03  0.11058924823E+04  0.12699999809E+01 0.  1.
       -4    1    3    3    0  502  0.81856238239E+03  0.69161078947E+03 -0.59567932592E+03  0.12260527436E+04  0.12699999809E+01 0. -1.
</event>
<event>
 5   0  0.4602447E-05  0.2286424E+04  0.7818609E-02  0.8483293E-01
        2   -1    0    0  501    0  0.00000000000E+00  0.00000000000E+00  0.28628786717E+04  0.28628786717E+04  0.25500000920E-02 0.  1.
       -2   -1    0    0    0  501  0.00000000000E+00  0.00000000000E+00 -0.45651040605E+03  0.45651040606E+03  0.25500000920E-02 0. -1.
    10030    2    1    2    0    0  0.00000000000E+00  0.00000000000E+00  0.24063682656E+04  0.33193890777E+04  0.22864241994E+04 0.  0.
        3    1    3    3  502    0 -0.83003519904E+03  0.12746406151E+03  0.23293480254E+04  0.24760993018E+04  0.10100000352E+00 0.  1.
       -3    1    3    3    0  502  0.83003519904E+03 -0.12746406151E+03  0.77020240215E+02  0.84328977596E+03  0.10100000352E+00 0. -1.
</event>
<event>
 5   0  0.2043885E-05  0.2249214E+04  0.7818609E-02  0.8498219E-01
        1   -1    0    0  501    0  0.00000000000E+00  0.00000000000E+00  0.11017287121E+04  0.11017287122E+04  0.50400001928E-02 0. -1.
       -1   -1    0    0    0  501  0.00000000000E+00  0.00000000000E+00 -0.11479603343E+04  0.11479603343E+04  0.50400001928E-02 0.  1.
    10030    2    1    2    0    0  0.00000000000E+00  0.00000000000E+00 -0.46231622125E+02  0.22496890464E+04  0.22492139611E+04 0.  0.
        5    1    3    3  502    0 -0.12620549755E+03 -0.61375248645E+03  0.91094375971E+03  0.11056493864E+04  0.46999998093E+01 0. -1.
       -5    1    3    3    0  502  0.12620549755E+03  0.61375248645E+03 -0.95717538183E+03  0.11440396601E+04  0.46999998093E+01 0.  1.
</event>
<event>
 5   0  0.1968318E-05  0.2281689E+04  0.7818609E-02  0.8485176E-01
       -1   -1    0    0    0  501  0.00000000000E+00  0.00000000000E+00  0.89161232345E+03  0.89161232346E+03  0.50400001928E-02 0. -1.
        1   -1    0    0  501    0  0.00000000000E+00  0.00000000000E+00 -0.14597450893E+04  0.14597450893E+04  0.50400001928E-02 0.  1.
    10030    2    1    2    0    0  0.00000000000E+00  0.00000000000E+00 -0.56813276583E+03  0.23513574127E+04  0.22816894712E+04 0.  0.
        3    1    3    3  502    0  0.22092470557E+03  0.15203842120E+03  0.85866622089E+03  0.89957272977E+03  0.10100000352E+00 0. -1.
       -3    1    3    3    0  502 -0.22092470557E+03 -0.15203842120E+03 -0.14267989867E+04  0.14517846830E+04  0.10100000352E+00 0.  1.
</event>
<event>
 5   0  0.1968318E-05  0.2299956E+04  0.7818609E-02  0.8477938E-01
        1   -1    0    0  501    0  0.00000000000E+00  0.00000000000E+00  0.13426884838E+04  0.13426884838E+04  0.50400001928E-02 0. -1.
       -1   -1    0    0    0  501  0.00000000000E+00  0.00000000000E+00 -0.98492647556E+03  0.98492647557E+03  0.50400001928E-02 0.  1.
    10030    2    1    2    0    0  0.00000000000E+00  0.00000000000E+00  0.35776200820E+03  0.23276149593E+04  0.22999560310E+04 0.  0.
        3    1    3    3  502    0 -0.49600255736E+03  0.26780594289E+02 -0.87075798363E+03  0.10024745450E+04  0.10100000352E+00 0.  1.
       -3    1    3    3    0  502  0.49600255736E+03 -0.26780594289E+02  0.12285199918E+04  0.13251404143E+04  0.10100000352E+00 0. -1.
</event>
<event>
 5   0  0.2085063E-05  0.2313277E+04  0.7818609E-02  0.8472704E-01
        1   -1    0    0  501    0  0.00000000000E+00  0.00000000000E+00  0.11535469450E+04  0.11535469450E+04  0.50400001928E-02 0. -1.
       -1   -1    0    0    0  501  0.00000000000E+00  0.00000000000E+00 -0.11597385969E+04  0.11597385969E+04  0.50400001928E-02 0.  1.
    10030    2    1    2    0    0  0.00000000000E+00  0.00000000000E+00 -0.61916519305E+01  0.23132855419E+04  0.23132772557E+04 0.  0.
        1    1    3    3  502    0  0.10589199301E+04  0.46217883890E+03  0.50683711625E+02  0.11564988267E+04  0.50400001928E-02 0. -1.
       -1    1    3    3    0  502 -0.10589199301E+04 -0.46217883890E+03 -0.56875363556E+02  0.11567867152E+04  0.50400001928E-02 0.  1.
</event>
<event>
 5   0  0.4602447E-05  0.2293190E+04  0.7818609E-02  0.8480611E-01
        2   -1    0    0  501    0  0.00000000000E+00  0.00000000000E+00  0.10577446069E+04  0.10577446069E+04  0.25500000920E-02 0.  1.
       -2   -1    0    0    0  501  0.00000000000E+00  0.00000000000E+00 -0.12429087309E+04  0.12429087309E+04  0.25500000920E-02 0. -1.
    10030    2    1    2    0    0  0.00000000000E+00  0.00000000000E+00 -0.18516412401E+03  0.23006533378E+04  0.22931899241E+04 0.  0.
        3    1    3    3  502    0  0.36824007815E+03  0.92977936299E+03  0.47012624247E+03  0.11050380596E+04  0.10100000352E+00 0.  1.
       -3    1    3    3    0  502 -0.36824007815E+03 -0.92977936299E+03 -0.65529036648E+03  0.11956152783E+04  0.10100000352E+00 0. -1.
</event>
<event>
 5   0  0.1604500E-05  0.2226040E+04  0.7818609E-02  0.8507667E-01
       -3   -1    0    0    0  501  0.00000000000E+00  0.00000000000E+00  0.79153983500E+03  0.79153984144E+03  0.10100000352E+00 0. -1.
        3   -1    0    0  501    0  0.00000000000E+00  0.00000000000E+00 -0.15650680692E+04  0.15650680724E+04  0.10100000352E+00 0.  1.
    10030    2    1    2    0    0  0.00000000000E+00  0.00000000000E+00 -0.77352823418E+03  0.23566079139E+04  0.22260401907E+04 0.  0.
        4    1    3    3  502    0  0.36648635388E+03 -0.86861054248E+03 -0.10130866403E+04  0.13838868002E+04  0.12699999809E+01 0. -1.
       -4    1    3    3    0  502 -0.36648635388E+03  0.86861054248E+03  0.23955840616E+03  0.97272111365E+03  0.12699999809E+01 0.  1.
</event>
<event>
 5   0  0.4602447E-05  0.2297448E+04  0.7818609E-02  0.8478928E-01
        2   -1    0    0  501    0  0.00000000000E+00  0.00000000000E+00  0.12471067127E+04  0.12471067127E+04  0.25500000920E-02 0. -1.
       -2   -1    0    0    0  501  0.00000000000E+00  0.00000000000E+00 -0.10581030141E+04  0.10581030141E+04  0.25500000920E-02 0.  1.
    10030    2    1    2    0    0  0.00000000000E+00  0.00000000000E+00  0.18900369857E+03  0.23052097268E+04  0.22974484731E+04 0.  0.
        3    1    3    3  502    0  0.40022601082E+03  0.19527890824E+03  0.11569711854E+04  0.12397165183E+04  0.10100000352E+00 0. -1.
       -3    1    3    3    0  502 -0.40022601082E+03 -0.19527890824E+03 -0.96796748679E+03  0.10654932085E+04  0.10100000352E+00 0.  1.
</event>
<event>
 5   0  0.4436695E-05  0.2299626E+04  0.7818609E-02  0.8478069E-01
        2   -1    0    0  501    0  0.00000000000E+00  0.00000000000E+00  0.14646619302E+04  0.14646619302E+04  0.25500000920E-02 0. -1.
       -2   -1    0    0    0  501  0.00000000000E+00  0.00000000000E+00 -0.90264480441E+03  0.90264480442E+03  0.25500000920E-02 0.  1.
    10030    2    1    2    0    0  0.00000000000E+00  0.00000000000E+00  0.56201712580E+03  0.23673067346E+04  0.22996256056E+04 0.  0.
        5    1    3    3  502    0  0.50242004527E+03  0.50745455460E+03  0.12087035116E+04  0.14038954006E+04  0.46999998093E+01 0. -1.
       -5    1    3    3    0  502 -0.50242004527E+03 -0.50745455460E+03 -0.64668638583E+03  0.96341133401E+03  0.46999998093E+01 0.  1.
</event>
<event>
 5   0  0.2042951E-05  0.2332430E+04  0.7818609E-02  0.8465243E-01
        1   -1    0    0  501    0  0.00000000000E+00  0.00000000000E+00  0.10807360639E+04  0.10807360639E+04  0.50400001928E-02 0. -1.
       -1   -1    0    0    0  501  0.00000000000E+00  0.00000000000E+00 -0.12584543347E+04  0.12584543347E+04  0.50400001928E-02 0.  1.
    10030    2    1    2    0    0  0.00000000000E+00  0.00000000000E+00 -0.17771827079E+03  0.23391903986E+04  0.23324296210E+04 0.  0.
        2    1    3    3  502    0 -0.91115634501E+03  0.16005799439E+03 -0.80101074125E+03  0.12237003940E+04  0.25500000920E-02 0.  1.
       -2    1    3    3    0  502  0.91115634501E+03 -0.16005799439E+03  0.62329247045E+03  0.11154900046E+04  0.25500000920E-02 0. -1.
</event>
<event>
 5   0  0.2031860E-05  0.2301873E+04  0.7818609E-02  0.8477183E-01
       -1   -1    0    0    0  501  0.00000000000E+00  0.00000000000E+00  0.62584770782E+03  0.62584770784E+03  0.50400001928E-02 0. -1.
        1   -1    0    0  501    0  0.00000000000E+00  0.00000000000E+00 -0.21165773495E+04  0.21165773495E+04  0.50400001928E-02 0.  1.
    10030    2    1    2    0    0  0.00000000000E+00  0.00000000000E+00 -0.14907296417E+04  0.27424250574E+04  0.23018732221E+04 0.  0.
        4    1    3    3  502    0  0.36349168833E+03  0.24371605860E+02  0.55534177294E+03  0.66417338123E+03  0.12699999809E+01 0. -1.
       -4    1    3    3    0  502 -0.36349168833E+03 -0.24371605860E+02 -0.20460714147E+04  0.20782516762E+04  0.12699999809E+01 0.  1.
</event>
<event>
 5   0  0.4798609E-05  0.2293790E+04  0.7818609E-02  0.8480374E-01
        2   -1    0    0  501    0  0.00000000000E+00  0.00000000000E+00  0.14865192418E+04  0.14865192418E+04  0.25500000920E-02 0.  1.
       -2   -1    0    0    0  501  0.00000000000E+00  0.00000000000E+00 -0.88486480350E+03  0.88486480350E+03  0.25500000920E-02 0. -1.
    10030    2    1    2    0    0  0.00000000000E+00  0.00000000000E+00  0.60165443826E+03  0.23713840453E+04  0.22937903625E+04 0.  0.
        2    1    3    3  502    0  0.97080498792E+03  0.19556737686E+03  0.89889421314E+03  0.13374302710E+04  0.25500000920E-02 0.  1.
       -2    1    3    3    0  502 -0.97080498792E+03 -0.19556737686E+03 -0.29723977488E+03  0.10339537742E+04  0.25500000920E-02 0. -1.
</event>
<event>
 5   0  0.4602447E-05  0.2203255E+04  0.7818609E-02  0.8517075E-01
        2   -1    0    0  501    0  0.00000000000E+00  0.00000000000E+00  0.22696786621E+04  0.22696786621E+04  0.25500000920E-02 0. -1.
       -2   -1    0    0    0  501  0.00000000000E+00  0.00000000000E+00 -0.53469385004E+03  0.53469385005E+03  0.25500000920E-02 0.  1.
    10030    2    1    2    0    0  0.00000000000E+00  0.00000000000E+00  0.17349848120E+04  0.28043725121E+04  0.22032550667E+04 0.  0.
        3    1    3    3  502    0  0.10901581729E+04  0.34111304434E+02  0.10645750231E+04  0.15241156167E+04  0.10100000352E+00 0.  1.
       -3    1    3    3    0  502 -0.10901581729E+04 -0.34111304434E+02  0.67040978894E+03  0.12802568954E+04  0.10100000352E+00 0. -1.
</event>
<event>
 5   0  0.2085063E-05  0.2305063E+04  0.7818609E-02  0.8475927E-01
       -1   -1    0    0    0  501  0.00000000000E+00  0.00000000000E+00  0.10109022751E+04  0.10109022752E+04  0.50400001928E-02 0.  1.
        1   -1    0    0  501    0  0.00000000000E+00  0.00000000000E+00 -0.13140033634E+04  0.13140033634E+04  0.50400001928E-02 0. -1.
    10030    2    1    2    0    0  0.00000000000E+00  0.00000000000E+00 -0.30310108827E+03  0.23249056386E+04  0.23050631138E+04 0.  0.
        1    1    3    3  502    0  0.81977951972E+03 -0.65565652991E+02 -0.96596136337E+03  0.12686286578E+04  0.50400001928E-02 0. -1.
       -1    1    3    3    0  502 -0.81977951972E+03  0.65565652991E+02  0.66286027510E+03  0.10562769808E+04  0.50400001928E-02 0.  1.
</event>
<event>
 5   0  0.4436695E-05  0.2314083E+04  0.7818609E-02  0.8472389E-01
        2   -1    0    0  501    0  0.00000000000E+00  0.00000000000E+00  0.10121231796E+04  0.10121231796E+04  0.25500000920E-02 0. -1.
       -2   -1    0    0    0  501  0.00000000000E+00  0.00000000000E+00 -0.13227096879E+04  0.13227096879E+04  0.25500000920E-02 0.  1.
    10030    2    1    2    0    0  0.00000000000E+00  0.00000000000E+00 -0.31058650825E+03  0.23348328675E+04  0.23140830884E+04 0.  0.
        5    1    3    3  502    0  0.38525185113E+03 -0.29799363013E+03 -0.12142296126E+04  0.13082793412E+04  0.46999998093E+01 0.  1.
       -5    1    3    3    0  502 -0.38525185113E+03  0.29799363013E+03  0.90364310437E+03  0.10265535264E+04  0.46999998093E+01 0. -1.
</event>
<event>
 5   0  0.2031860E-05  0.2039142E+04  0.7818609E-02  0.8588536E-01
       -1   -1    0    0    0  501  0.00000000000E+00  0.00000000000E+00  0.72979454638E+03  0.72979454639E+03  0.50400001928E-02 0.  1.
        1   -1    0    0  501    0  0.00000000000E+00  0.00000000000E+00 -0.14244078474E+04  0.14244078474E+04  0.50400001928E-02 0. -1.
    10030    2    1    2    0    0  0.00000000000E+00  0.00000000000E+00 -0.69461330103E+03  0.21542023938E+04  0.20391420538E+04 0.  0.
        4    1    3    3  502    0 -0.54675166418E+03  0.30757552215E+03 -0.11963887708E+04  0.13508840764E+04  0.12699999809E+01 0.  1.
       -4    1    3    3    0  502  0.54675166418E+03 -0.30757552215E+03  0.50177546976E+03  0.80331831740E+03  0.12699999809E+01 0. -1.
</event>
<event>
 5   0  0.2043885E-05  0.2363949E+04  0.7818609E-02  0.8453125E-01
        1   -1    0    0  501    0  0.00000000000E+00  0.00000000000E+00  0.12605211708E+04  0.12605211709E+04  0.50400001928E-02 0.  1.
       -1   -1    0    0    0  501  0.00000000000E+00  0.00000000000E+00 -0.11083223977E+04  0.11083223977E+04  0.50400001928E-02 0. -1.
    10030    2    1    2    0    0  0.00000000000E+00  0.00000000000E+00  0.15219877315E+03  0.23688435685E+04  0.23639491081E+04 0.  0.
        5    1    3    3  502    0 -0.21647010650E+03  0.10715933932E+04 -0.37413037908E+03  0.11554944128E+04  0.46999998093E+01 0. -1.
       -5    1    3    3    0  502  0.21647010650E+03 -0.10715933932E+04  0.52632915224E+03  0.12133491558E+04  0.46999998093E+01 0.  1.
</event>
<event>
 5   0  0.4798609E-05  0.2403846E+04  0.7818609E-02  0.8438065E-01
       -2   -1    0    0    0  501  0.00000000000E+00  0.00000000000E+00  0.88159760302E+03  0.88159760303E+03  0.25500000920E-02 0. -1.
        2   -1    0    0  501    0  0.00000000000E+00  0.00000000000E+00 -0.16386380403E+04  0.16386380403E+04  0.25500000920E-02 0.  1.
    10030    2    1    2    0    0  0.00000000000E+00  0.00000000000E+00 -0.75704043732E+03  0.25202356434E+04  0.24038463916E+04 0.  0.
        2    1    3    3  502    0 -0.48859205522E+03  0.44119386406E+03  0.67577603240E+03  0.94342327090E+03  0.25500000920E-02 0. -1.
       -2    1    3    3    0  502  0.48859205522E+03 -0.44119386406E+03 -0.14328164697E+04  0.15768123725E+04  0.25500000920E-02 0.  1.
</event>
<event>
 5   0  0.2085063E-05  0.2283251E+04  0.7818609E-02  0.8484554E-01
       -1   -1    0    0    0  501  0.00000000000E+00  0.00000000000E+00  0.71525560242E+03  0.71525560244E+03  0.50400001928E-02 0.  1.
        1   -1    0    0  501    0  0.00000000000E+00  0.00000000000E+00 -0.18221577411E+04  0.18221577411E+04  0.50400001928E-02 0. -1.
    10030    2    1    2    0    0  0.00000000000E+00  0.00000000000E+00 -0.11069021387E+04  0.25374133436E+04  0.22832507816E+04 0.  0.
        1    1    3    3  502    0  0.27066662351E+03  0.17870214769E+03 -0.17698796433E+04  0.17993523364E+04  0.50400001928E-02 0. -1.
       -1    1    3    3    0  502 -0.27066662351E+03 -0.17870214769E+03  0.66297750461E+03  0.73806100718E+03  0.50400001928E-02 0.  1.
</event>
<event>
 5   0  0.2042951E-05  0.2300471E+04  0.7818609E-02  0.8477736E-01
       -1   -1    0    0    0  501  0.00000000000E+00  0.00000000000E+00  0.83461863949E+03  0.83461863951E+03  0.50400001928E-02 0. -1.
        1   -1    0    0  501    0  0.00000000000E+00  0.00000000000E+00 -0.15852046680E+04  0.15852046680E+04  0.50400001928E-02 0.  1.
    10030    2    1    2    0    0  0.00000000000E+00  0.00000000000E+00 -0.75058602855E+03  0.24198233076E+04  0.23004707026E+04 0.  0.
        2    1    3    3  502    0 -0.88600392497E+03  0.33220265032E+03  0.31260858911E+03  0.99653684624E+03  0.25500000920E-02 0. -1.
       -2    1    3    3    0  502  0.88600392497E+03 -0.33220265032E+03 -0.10631946177E+04  0.14232864613E+04  0.25500000920E-02 0.  1.
</event>
<event>
 5   0  0.4436695E-05  0.2284349E+04  0.7818609E-02  0.8484118E-01
       -2   -1    0    0    0  501  0.00000000000E+00  0.00000000000E+00  0.10459278336E+04  0.10459278336E+04  0.25500000920E-02 0. -1.
        2   -1    0    0  501    0  0.00000000000E+00  0.00000000000E+00 -0.12472777118E+04  0.12472777118E+04  0.25500000920E-02 0.  1.
    10030    2    1    2    0    0  0.00000000000E+00  0.00000000000E+00 -0.20134987816E+03  0.22932055454E+04  0.22843489006E+04 0.  0.
        5    1    3    3  502    0 -0.83455894659E+03  0.29177285197E+03  0.62526103602E+03  0.10828635582E+04  0.46999998093E+01 0. -1.
       -5    1    3    3    0  502  0.83455894659E+03 -0.29177285197E+03 -0.82661091418E+03  0.12103419872E+04  0.46999998093E+01 0.  1.
</event>
<event>
 5   0  0.4505107E-05  0.2326480E+04  0.7818609E-02  0.8467553E-01
        2   -1    0    0  501    0  0.00000000000E+00  0.00000000000E+00  0.12604706359E+04  0.12604706359E+04  0.25500000920E-02 0.  1.
       -2   -1    0    0    0  501  0.00000000000E+00  0.00000000000E+00 -0.10735098452E+04  0.10735098452E+04  0.25500000920E-02 0. -1.
    10030    2    1    2    0    0  0.00000000000E+00  0.00000000000E+00  0.18696079076E+03  0.23339804811E+04  0.23264802920E+04 0.  0.
        4    1    3    3  502    0  0.85170339515E+03 -0.29281236301E+03 -0.64509151431E+03  0.11078277971E+04  0.12699999809E+01 0. -1.
       -4    1    3    3    0  502 -0.85170339515E+03  0.29281236301E+03  0.83205230508E+03  0.12261526840E+04  0.12699999809E+01 0.  1.
</event>
<event>
 5   0  0.2042951E-05  0.2295541E+04  0.7818609E-02  0.8479681E-01
       -1   -1    0    0    0  501  0.00000000000E+00  0.00000000000E+00  0.84808009382E+03  0.84808009383E+03  0.50400001928E-02 0. -1.
        1   -1    0    0  501    0  0.00000000000E+00  0.00000000000E+00 -0.15533642177E+04  0.15533642177E+04  0.50400001928E-02 0.  1.
    10030    2    1    2    0    0  0.00000000000E+00  0.00000000000E+00 -0.70528412385E+03  0.24014443115E+04  0.22955411314E+04 0.  0.
        2    1    3    3  502    0  0.73141646302E+03 -0.15979530211E+03  0.55747835857E+03  0.93342739473E+03  0.25500000920E-02 0. -1.
       -2    1    3    3    0  502 -0.73141646302E+03  0.15979530211E+03 -0.12627624824E+04  0.14680169168E+04  0.25500000920E-02 0.  1.
</event>
<event>
 5   0  0.1968318E-05  0.2327175E+04  0.7818609E-02  0.8467283E-01
       -1   -1    0    0    0  501  0.00000000000E+00  0.00000000000E+00  0.54180573361E+03  0.54180573364E+03  0.50400001928E-02 0. -1.
        1   -1    0    0  501    0  0.00000000000E+00  0.00000000000E+00 -0.24989331228E+04  0.24989331229E+04  0.50400001928E-02 0.  1.
    10030    2    1    2    0    0  0.00000000000E+00  0.00000000000E+00 -0.19571273892E+04  0.30407388565E+04  0.23271753642E+04 0.  0.
        3    1    3    3  502    0  0.90611543074E+03 -0.40381617466E+03 -0.18396594984E+03  0.10089381337E+04  0.10100000352E+00 0. -1.
       -3    1    3    3    0  502 -0.90611543074E+03  0.40381617466E+03 -0.17731614394E+04  0.20318007228E+04  0.10100000352E+00 0.  1.
</event>
<event>
 5   0  0.2042951E-05  0.2286888E+04  0.7818609E-02  0.8483109E-01
       -1   -1    0    0    0  501  0.00000000000E+00  0.00000000000E+00  0.13142212461E+04  0.13142212462E+04  0.50400001928E-02 0.  1.
        1   -1    0    0  501    0  0.00000000000E+00  0.00000000000E+00 -0.99485885010E+03  0.99485885011E+03  0.50400001928E-02 0. -1.
    10030    2    1    2    0    0  0.00000000000E+00  0.00000000000E+00  0.31936239605E+03  0.23090800963E+04  0.22868883993E+04 0.  0.
        2    1    3    3  502    0 -0.31796530289E+03  0.93541265059E+03 -0.42154866308E+03  0.10741517752E+04  0.25500000920E-02 0. -1.
       -2    1    3    3    0  502  0.31796530289E+03 -0.93541265059E+03  0.74091105913E+03  0.12349283211E+04  0.25500000920E-02 0.  1.
</event>
<event>
 5   0  0.4602447E-05  0.2233009E+04  0.7818609E-02  0.8504813E-01
       -2   -1    0    0    0  501  0.00000000000E+00  0.00000000000E+00  0.10824685856E+04  0.10824685856E+04  0.25500000920E-02 0.  1.
        2   -1    0    0  501    0  0.00000000000E+00  0.00000000000E+00 -0.11516107892E+04  0.11516107892E+04  0.25500000920E-02 0. -1.
    10030    2    1    2    0    0  0.00000000000E+00  0.00000000000E+00 -0.69142203592E+02  0.22340793748E+04  0.22330091823E+04 0.  0.
        3    1    3    3  502    0  0.10912800655E+03 -0.86382313905E+03  0.66467955984E+03  0.10953986785E+04  0.10100000352E+00 0.  1.
       -3    1    3    3    0  502 -0.10912800655E+03  0.86382313905E+03 -0.73382176343E+03  0.11386806963E+04  0.10100000352E+00 0. -1.
</event>
<event>
 5   0  0.1604500E-05  0.2267887E+04  0.7818609E-02  0.8490691E-01
       -3   -1    0    0    0  501  0.00000000000E+00  0.00000000000E+00  0.15239244964E+04  0.15239244998E+04  0.10100000352E+00 0. -1.
        3   -1    0    0  501    0  0.00000000000E+00  0.00000000000E+00 -0.84376096752E+03  0.84376097357E+03  0.10100000352E+00 0.  1.
    10030    2    1    2    0    0  0.00000000000E+00  0.00000000000E+00  0.68016352892E+03  0.23676854733E+04  0.22678871389E+04 0.  0.
        2    1    3    3  502    0 -0.68635462484E+03  0.76198890794E+03 -0.16506806150E+03  0.10387286613E+04  0.25500000920E-02 0.  1.
       -2    1    3    3    0  502  0.68635462484E+03 -0.76198890794E+03  0.84523159042E+03  0.13289568121E+04  0.25500000920E-02 0. -1.
</event>
<event>
 5   0  0.2031860E-05  0.2280142E+04  0.7818609E-02  0.8485792E-01
        1   -1    0    0  501    0  0.00000000000E+00  0.00000000000E+00  0.79314158553E+03  0.79314158555E+03  0.50400001928E-02 0.  1.
       -1   -1    0    0    0  501  0.00000000000E+00  0.00000000000E+00 -0.16387513976E+04  0.16387513976E+04  0.50400001928E-02 0. -1.
    10030    2    1    2    0    0  0.00000000000E+00  0.00000000000E+00 -0.84560981210E+03  0.24318929832E+04  0.22801419972E+04 0.  0.
        4    1    3    3  502    0 -0.59717089110E+03 -0.24722973303E+02 -0.14582606284E+04  0.15759917423E+04  0.12699999809E+01 0. -1.
       -4    1    3    3    0  502  0.59717089110E+03  0.24722973303E+02  0.61265081628E+03  0.85590124090E+03  0.12699999809E+01 0.  1.
</event>
<event>
 5   0  0.1968318E-05  0.2278202E+04  0.7818609E-02  0.8486566E-01
       -1   -1    0    0    0  501  0.00000000000E+00  0.00000000000E+00  0.13371876888E+04  0.13371876888E+04  0.50400001928E-02 0.  1.
        1   -1    0    0  501    0  0.00000000000E+00  0.00000000000E+00 -0.97035820669E+03  0.97035820671E+03  0.50400001928E-02 0. -1.
    10030    2    1    2    0    0  0.00000000000E+00  0.00000000000E+00  0.36682948207E+03  0.23075458955E+04  0.22782019644E+04 0.  0.
        3    1    3    3  502    0  0.60828502119E+02 -0.26825254833E+03  0.13030445372E+04  0.13317599681E+04  0.10100000352E+00 0.  1.
       -3    1    3    3    0  502 -0.60828502119E+02  0.26825254833E+03 -0.93621505517E+03  0.97578592739E+03  0.10100000352E+00 0. -1.
</event>
<event>
 5   0  0.4605516E-05  0.2329039E+04  0.7818609E-02  0.8466559E-01
       -2   -1    0    0    0  501  0.00000000000E+00  0.00000000000E+00  0.14957017181E+04  0.14957017181E+04  0.25500000920E-02 0.  1.
        2   -1    0    0  501    0  0.00000000000E+00  0.00000000000E+00 -0.90666872859E+03  0.90666872860E+03  0.25500000920E-02 0. -1.
    10030    2    1    2    0    0  0.00000000000E+00  0.00000000000E+00  0.58903298946E+03  0.24023704467E+04  0.23290392655E+04 0.  0.
        1    1    3    3  502    0 -0.44195704110E+03  0.41764923355E+03  0.13189375243E+04  0.14523612159E+04  0.50400001928E-02 0.  1.
       -1    1    3    3    0  502  0.44195704110E+03 -0.41764923355E+03 -0.72990453485E+03  0.95000923073E+03  0.50400001928E-02 0. -1.
</event>
<event>
 5   0  0.2085063E-05  0.2344939E+04  0.7818609E-02  0.8460410E-01
        1   -1    0    0  501    0  0.00000000000E+00  0.00000000000E+00  0.15516029852E+04  0.15516029852E+04  0.50400001928E-02 0. -1.
       -1   -1    0    0    0  501  0.00000000000E+00  0.00000000000E+00 -0.88597678082E+03  0.88597678084E+03  0.50400001928E-02 0.  1.
    10030    2    1    2    0    0  0.00000000000E+00  0.00000000000E+00  0.66562620439E+03  0.24375797661E+04  0.23449385646E+04 0.  0.
        1    1    3    3  502    0 -0.26286702572E+03  0.37536701389E+03  0.14546547569E+04  0.15251294798E+04  0.50400001928E-02 0. -1.
       -1    1    3    3    0  502  0.26286702572E+03 -0.37536701389E+03 -0.78902855248E+03  0.91245028630E+03  0.50400001928E-02 0.  1.
</event>
<event>
 5   0  0.4602447E-05  0.2265511E+04  0.7818609E-02  0.8491645E-01
        2   -1    0    0  501    0  0.00000000000E+00  0.00000000000E+00  0.19256824640E+04  0.19256824640E+04  0.25500000920E-02 0. -1.
       -2   -1    0    0    0  501  0.00000000000E+00  0.00000000000E+00 -0.66632735586E+03  0.66632735586E+03  0.25500000920E-02 0.  1.
    10030    2    1    2    0    0  0.00000000000E+00  0.00000000000E+00  0.12593551082E+04  0.25920098199E+04  0.22655108956E+04 0.  0.
        3    1    3    3  502    0 -0.10977774243E+04 -0.53935047937E+02  0.94323794307E+03  0.14483515078E+04  0.10100000352E+00 0. -1.
       -3    1    3    3    0  502  0.10977774243E+04  0.53935047937E+02  0.31611716511E+03  0.11436583121E+04  0.10100000352E+00 0.  1.
</event>
<event>
 5   0  0.4602447E-05  0.2404374E+04  0.7818609E-02  0.8437868E-01
       -2   -1    0    0    0  501  0.00000000000E+00  0.00000000000E+00  0.67208742603E+03  0.67208742603E+03  0.25500000920E-02 0.  1.
        2   -1    0    0  501    0  0.00000000000E+00  0.00000000000E+00 -0.21503956568E+04  0.21503956568E+04  0.25500000920E-02 0. -1.
    10030    2    1    2    0    0  0.00000000000E+00  0.00000000000E+00 -0.14783082308E+04  0.28224830829E+04  0.24043742487E+04 0.  0.
        3    1    3    3  502    0 -0.95058010586E+03 -0.51339754003E+03 -0.13581812778E+04  0.17354641931E+04  0.10100000352E+00 0. -1.
       -3    1    3    3    0  502  0.95058010586E+03  0.51339754003E+03 -0.12012695297E+03  0.10870188898E+04  0.10100000352E+00 0.  1.
</event>
<event>
 5   0  0.4505107E-05  0.2273933E+04  0.7818609E-02  0.8488270E-01
        2   -1    0    0  501    0  0.00000000000E+00  0.00000000000E+00  0.19396379319E+04  0.19396379319E+04  0.25500000920E-02 0.  1.
       -2   -1    0    0    0  501  0.00000000000E+00  0.00000000000E+00 -0.66646117392E+03  0.66646117393E+03  0.25500000920E-02 0. -1.
    10030    2    1    2    0    0  0.00000000000E+00  0.00000000000E+00  0.12731767579E+04  0.26060991058E+04  0.22739334846E+04 0.  0.
        4    1    3    3  502    0 -0.31675751085E+03 -0.91664177184E+03 -0.43493447679E+02  0.97080417771E+03  0.12699999809E+01 0. -1.
       -4    1    3    3    0  502  0.31675751085E+03  0.91664177184E+03  0.13166702056E+04  0.16352949281E+04  0.12699999809E+01 0.  1.
</event>
<event>
 5   0  0.1968318E-05  0.2292733E+04  0.7818609E-02  0.8480792E-01
       -1   -1    0    0    0  501  0.00000000000E+00  0.00000000000E+00  0.72893559746E+03  0.72893559747E+03  0.50400001928E-02 0.  1.
        1   -1    0    0  501    0  0.00000000000E+00  0.00000000000E+00 -0.18028424953E+04  0.18028424953E+04  0.50400001928E-02 0. -1.
    10030    2    1    2    0    0  0.00000000000E+00  0.00000000000E+00 -0.10739068979E+04  0.25317780928E+04  0.22927329295E+04 0.  0.
        3    1    3    3  502    0 -0.26114801448E+03 -0.56737236182E+03  0.52454424198E+03  0.81563248735E+03  0.10100000352E+00 0.  1.
       -3    1    3    3    0  502  0.26114801448E+03  0.56737236182E+03 -0.15984511399E+04  0.17161456055E+04  0.10100000352E+00 0. -1.
</event>
<event>
 5   0  0.4505107E-05  0.2292457E+04  0.7818609E-02  0.8480901E-01
        2   -1    0    0  501    0  0.00000000000E+00  0.00000000000E+00  0.14027572426E+04  0.14027572427E+04  0.25500000920E-02 0. -1.
       -2   -1    0    0    0  501  0.00000000000E+00  0.00000000000E+00 -0.93661250021E+03  0.93661250021E+03  0.25500000920E-02 0.  1.
    10030    2    1    2    0    0  0.00000000000E+00  0.00000000000E+00  0.46614474244E+03  0.23393697429E+04  0.22924571693E+04 0.  0.
        4    1    3    3  502    0 -0.61927507307E+03  0.36265140111E+03 -0.67898528514E+03  0.98794751135E+03  0.12699999809E+01 0.  1.
       -4    1    3    3    0  502  0.61927507307E+03 -0.36265140111E+03  0.11451300276E+04  0.13514222315E+04  0.12699999809E+01 0. -1.
</event>
<event>
 5   0  0.2043885E-05  0.2306514E+04  0.7818609E-02  0.8475357E-01
        1   -1    0    0  501    0  0.00000000000E+00  0.00000000000E+00  0.23840113463E+04  0.23840113463E+04  0.50400001928E-02 0.  1.
       -1   -1    0    0    0  501  0.00000000000E+00  0.00000000000E+00 -0.55788396528E+03  0.55788396530E+03  0.50400001928E-02 0. -1.
    10030    2    1    2    0    0  0.00000000000E+00  0.00000000000E+00  0.18261273810E+04  0.29418953116E+04  0.23065139958E+04 0.  0.
        5    1    3    3  502    0 -0.63103792558E+03  0.96264953532E+03  0.10039416414E+04  0.15273584716E+04  0.46999998093E+01 0.  1.
       -5    1    3    3    0  502  0.63103792558E+03 -0.96264953532E+03  0.82218573960E+03  0.14145368400E+04  0.46999998093E+01 0. -1.
</event>
<event>
 5   0  0.4605516E-05  0.1888157E+04  0.7818609E-02  0.8660774E-01
        2   -1    0    0  501    0  0.00000000000E+00  0.00000000000E+00  0.90825718161E+03  0.90825718162E+03  0.25500000920E-02 0. -1.
       -2   -1    0    0    0  501  0.00000000000E+00  0.00000000000E+00 -0.98131217835E+03  0.98131217835E+03  0.25500000920E-02 0.  1.
    10030    2    1    2    0    0  0.00000000000E+00  0.00000000000E+00 -0.73054996731E+02  0.18895693600E+04  0.18881565967E+04 0.  0.
        1    1    3    3  502    0 -0.42530865211E+02  0.51283613142E+03 -0.82862086233E+03  0.97540878902E+03  0.50400001928E-02 0.  1.
       -1    1    3    3    0  502  0.42530865211E+02 -0.51283613142E+03  0.75556586560E+03  0.91416057094E+03  0.50400001928E-02 0. -1.
</event>
<event>
 5   0  0.2042951E-05  0.2297748E+04  0.7818609E-02  0.8478809E-01
        1   -1    0    0  501    0  0.00000000000E+00  0.00000000000E+00  0.12080773125E+04  0.12080773125E+04  0.50400001928E-02 0.  1.
       -1   -1    0    0    0  501  0.00000000000E+00  0.00000000000E+00 -0.10925724151E+04  0.10925724151E+04  0.50400001928E-02 0. -1.
    10030    2    1    2    0    0  0.00000000000E+00  0.00000000000E+00  0.11550489740E+03  0.23006497276E+04  0.22977484170E+04 0.  0.
        2    1    3    3  502    0 -0.72593603542E+03 -0.88944757792E+03  0.15133158469E+02  0.11481851479E+04  0.25500000920E-02 0. -1.
       -2    1    3    3    0  502  0.72593603542E+03  0.88944757792E+03  0.10037173893E+03  0.11524645797E+04  0.25500000920E-02 0.  1.
</event>
<event>
 5   0  0.4436695E-05  0.2209727E+04  0.7818609E-02  0.8514390E-01
       -2   -1    0    0    0  501  0.00000000000E+00  0.00000000000E+00  0.95002778293E+03  0.95002778293E+03  0.25500000920E-02 0.  1.
        2   -1    0    0  501    0  0.00000000000E+00  0.00000000000E+00 -0.12849341482E+04  0.12849341482E+04  0.25500000920E-02 0. -1.
    10030    2    1    2    0    0  0.00000000000E+00  0.00000000000E+00 -0.33490636528E+03  0.22349619311E+04  0.22097268067E+04 0.  0.
        5    1    3    3  502    0 -0.89819738055E+03 -0.13569680821E+03  0.46863986972E+03  0.10221631845E+04  0.46999998093E+01 0. -1.
       -5    1    3    3    0  502  0.89819738055E+03  0.13569680821E+03 -0.80354623500E+03  0.12127987467E+04  0.46999998093E+01 0.  1.
</event>
<event>
 5   0  0.1968318E-05  0.2301329E+04  0.7818609E-02  0.8477397E-01
       -1   -1    0    0    0  501  0.00000000000E+00  0.00000000000E+00  0.11903545640E+04  0.11903545640E+04  0.50400001928E-02 0. -1.
        1   -1    0    0  501    0  0.00000000000E+00  0.00000000000E+00 -0.11122974091E+04  0.11122974092E+04  0.50400001928E-02 0.  1.
    10030    2    1    2    0    0  0.00000000000E+00  0.00000000000E+00  0.78057154838E+02  0.23026519731E+04  0.23013285706E+04 0.  0.
        3    1    3    3  502    0  0.33173934310E+03 -0.10916416630E+04  0.18843214259E+03  0.11563905892E+04  0.10100000352E+00 0. -1.
       -3    1    3    3    0  502 -0.33173934310E+03  0.10916416630E+04 -0.11037498775E+03  0.11462613840E+04  0.10100000352E+00 0.  1.
</event>
<event>
 5   0  0.1968318E-05  0.2306019E+04  0.7818609E-02  0.8475551E-01
       -1   -1    0    0    0  501  0.00000000000E+00  0.00000000000E+00  0.10004372999E+04  0.10004372999E+04  0.50400001928E-02 0. -1.
        1   -1    0    0  501    0  0.00000000000E+00  0.00000000000E+00 -0.13288503735E+04  0.13288503735E+04  0.50400001928E-02 0.  1.
    10030    2    1    2    0    0  0.00000000000E+00  0.00000000000E+00 -0.32841307356E+03  0.23292876734E+04  0.23060194965E+04 0.  0.
        3    1    3    3  502    0  0.10114608068E+04  0.55301260656E+03 -0.14039832981E+03  0.11612870480E+04  0.10100000352E+00 0. -1.
       -3    1    3    3    0  502 -0.10114608068E+04 -0.55301260656E+03 -0.18801474375E+03  0.11680006253E+04  0.10100000352E+00 0.  1.
</event>
<event>
 5   0  0.1604500E-05  0.2306523E+04  0.7818609E-02  0.8475353E-01
        3   -1    0    0  501    0  0.00000000000E+00  0.00000000000E+00  0.11585274280E+04  0.11585274324E+04  0.10100000352E+00 0.  1.
       -3   -1    0    0    0  501  0.00000000000E+00  0.00000000000E+00 -0.11480199533E+04  0.11480199578E+04  0.10100000352E+00 0. -1.
    10030    2    1    2    0    0  0.00000000000E+00  0.00000000000E+00  0.10507474617E+02  0.23065473901E+04  0.23065234566E+04 0.  0.
        3    1    3    3  502    0 -0.58028038136E+03  0.96226753219E+03  0.26473374919E+03  0.11544557560E+04  0.10100000352E+00 0.  1.
       -3    1    3    3    0  502  0.58028038136E+03 -0.96226753219E+03 -0.25422627457E+03  0.11520916341E+04  0.10100000352E+00 0. -1.
</event>
<event>
 5   0  0.1968318E-05  0.2291083E+04  0.7818609E-02  0.8481445E-01
       -1   -1    0    0    0  501  0.00000000000E+00  0.00000000000E+00  0.76526888786E+03  0.76526888788E+03  0.50400001928E-02 0. -1.
        1   -1    0    0  501    0  0.00000000000E+00  0.00000000000E+00 -0.17147774834E+04  0.17147774835E+04  0.50400001928E-02 0.  1.
    10030    2    1    2    0    0  0.00000000000E+00  0.00000000000E+00 -0.94950859558E+03  0.24800463713E+04  0.22910834622E+04 0.  0.
        3    1    3    3  502    0 -0.60581811236E+02 -0.84767775642E+03  0.35673932645E+03  0.92167819320E+03  0.10100000352E+00 0.  1.
       -3    1    3    3    0  502  0.60581811236E+02  0.84767775642E+03 -0.13062479220E+04  0.15583681781E+04  0.10100000352E+00 0. -1.
</event>
<event>
 5   0  0.2042951E-05  0.2323009E+04  0.7818609E-02  0.8468904E-01
       -1   -1    0    0    0  501  0.00000000000E+00  0.00000000000E+00  0.12618500601E+04  0.12618500601E+04  0.50400001928E-02 0.  1.
        1   -1    0    0  501    0  0.00000000000E+00  0.00000000000E+00 -0.10691383655E+04  0.10691383655E+04  0.50400001928E-02 0. -1.
    10030    2    1    2    0    0  0.00000000000E+00  0.00000000000E+00  0.19271169454E+03  0.23309884256E+04  0.23230086619E+04 0.  0.
        2    1    3    3  502    0  0.10987067946E+04  0.67841924001E+02 -0.27550204237E+03  0.11347513042E+04  0.25500000920E-02 0. -1.
       -2    1    3    3    0  502 -0.10987067946E+04 -0.67841924001E+02  0.46821373691E+03  0.11962371214E+04  0.25500000920E-02 0.  1.
</event>
<event>
 5   0  0.2043885E-05  0.2292954E+04  0.7818609E-02  0.8480704E-01
       -1   -1    0    0    0  501  0.00000000000E+00  0.00000000000E+00  0.62547084689E+03  0.62547084691E+03  0.50400001928E-02 0. -1.
        1   -1    0    0  501    0  0.00000000000E+00  0.00000000000E+00 -0.21014728341E+04  0.21014728341E+04  0.50400001928E-02 0.  1.
    10030    2    1    2    0    0  0.00000000000E+00  0.00000000000E+00 -0.14760019872E+04  0.27269436810E+04  0.22929544202E+04 0.  0.
        5    1    3    3  502    0  0.35068816183E+03  0.67994506125E+03  0.27747220926E+03  0.81383068882E+03  0.46999998093E+01 0. -1.
       -5    1    3    3    0  502 -0.35068816183E+03 -0.67994506125E+03 -0.17534741964E+04  0.19131129921E+04  0.46999998093E+01 0.  1.
</event>
<event>
 5   0  0.4436695E-05  0.2279288E+04  0.7818609E-02  0.8486133E-01
       -2   -1    0    0    0  501  0.00000000000E+00  0.00000000000E+00  0.80544422208E+03  0.80544422208E+03  0.25500000920E-02 0.  1.
        2   -1    0    0  501    0  0.00000000000E+00  0.00000000000E+00 -0.16125117770E+04  0.16125117770E+04  0.25500000920E-02 0. -1.
    10030    2    1    2    0    0  0.00000000000E+00  0.00000000000E+00 -0.80706755490E+03  0.24179559991E+04  0.22792878658E+04 0.  0.
        5    1    3    3  502    0 -0.43038321420E+03  0.10415814163E+04 -0.58307779722E+03  0.12689063659E+04  0.46999998093E+01 0. -1.
       -5    1    3    3    0  502  0.43038321420E+03 -0.10415814163E+04 -0.22398975769E+03  0.11490496331E+04  0.46999998093E+01 0.  1.
</event>
<event>
 5   0  0.2043885E-05  0.2259683E+04  0.7818609E-02  0.8493990E-01
       -1   -1    0    0    0  501  0.00000000000E+00  0.00000000000E+00  0.75191836230E+03  0.75191836232E+03  0.50400001928E-02 0. -1.
        1   -1    0    0  501    0  0.00000000000E+00  0.00000000000E+00 -0.16977126405E+04  0.16977126405E+04  0.50400001928E-02 0.  1.
    10030    2    1    2    0    0  0.00000000000E+00  0.00000000000E+00 -0.94579427820E+03  0.24496310028E+04  0.22596825515E+04 0.  0.
        5    1    3    3  502    0 -0.90345053567E+03  0.67609977142E+03 -0.41171305958E+03  0.12011925344E+04  0.46999998093E+01 0. -1.
       -5    1    3    3    0  502  0.90345053567E+03 -0.67609977142E+03 -0.53408121862E+03  0.12484384684E+04  0.46999998093E+01 0.  1.
</event>
<event>
 5   0  0.4605516E-05  0.2299694E+04  0.7818609E-02  0.8478042E-01
       -2   -1    0    0    0  501  0.00000000000E+00  0.00000000000E+00  0.67237821961E+03  0.67237821961E+03  0.25500000920E-02 0.  1.
        2   -1    0    0  501    0  0.00000000000E+00  0.00000000000E+00 -0.19663748078E+04  0.19663748078E+04  0.25500000920E-02 0. -1.
    10030    2    1    2    0    0  0.00000000000E+00  0.00000000000E+00 -0.12939965882E+04  0.26387530274E+04  0.22996935382E+04 0.  0.
        1    1    3    3  502    0  0.63362392100E+03  0.81671029381E+03 -0.12248926485E+04  0.16027654156E+04  0.50400001928E-02 0. -1.
       -1    1    3    3    0  502 -0.63362392100E+03 -0.81671029381E+03 -0.69103939734E+02  0.10359876118E+04  0.50400001928E-02 0.  1.
</event>
<event>
 5   0  0.2085063E-05  0.1885171E+04  0.7818609E-02  0.8662273E-01
       -1   -1    0    0    0  501  0.00000000000E+00  0.00000000000E+00  0.73521634266E+03  0.73521634268E+03  0.50400001928E-02 0.  1.
        1   -1    0    0  501    0  0.00000000000E+00  0.00000000000E+00 -0.12084434554E+04  0.12084434554E+04  0.50400001928E-02 0. -1.
    10030    2    1    2    0    0  0.00000000000E+00  0.00000000000E+00 -0.47322711274E+03  0.19436597981E+04  0.18851709499E+04 0.  0.
        1    1    3    3  502    0  0.19871718300E+03 -0.91997289741E+03 -0.18375172068E+03  0.95895951200E+03  0.50400001928E-02 0.  1.
       -1    1    3    3    0  502 -0.19871718300E+03  0.91997289741E+03 -0.28947539206E+03  0.98470028608E+03  0.50400001928E-02 0. -1.
</event>
<event>
 5   0  0.4505107E-05  0.2306259E+04  0.7818609E-02  0.8475457E-01
        2   -1    0    0  501    0  0.00000000000E+00  0.00000000000E+00  0.13709661007E+04  0.13709661007E+04  0.25500000920E-02 0.  1.
       -2   -1    0    0    0  501  0.00000000000E+00  0.00000000000E+00 -0.96990547375E+03  0.96990547376E+03  0.25500000920E-02 0. -1.
    10030    2    1    2    0    0  0.00000000000E+00  0.00000000000E+00  0.40106062691E+03  0.23408715744E+04  0.23062588973E+04 0.  0.
        4    1    3    3  502    0  0.38421009769E+03 -0.23411695818E+02 -0.90277019419E+03  0.98140773539E+03  0.12699999809E+01 0. -1.
       -4    1    3    3    0  502 -0.38421009769E+03  0.23411695818E+02  0.13038308211E+04  0.13594638390E+04  0.12699999809E+01 0.  1.
</event>
<event>
 5   0  0.4602447E-05  0.2292818E+04  0.7818609E-02  0.8480758E-01
        2   -1    0    0  501    0  0.00000000000E+00  0.00000000000E+00  0.12126315958E+04  0.12126315958E+04  0.25500000920E-02 0. -1.
       -2   -1    0    0    0  501  0.00000000000E+00  0.00000000000E+00 -0.10838024071E+04  0.10838024071E+04  0.25500000920E-02 0.  1.
    10030    2    1    2    0    0  0.00000000000E+00  0.00000000000E+00  0.12882918868E+03  0.22964340029E+04  0.22928175178E+04 0.  0.
        3    1    3    3  502    0  0.36412145453E+03  0.10465317680E+04 -0.23005570499E+03  0.11316973150E+04  0.10100000352E+00 0. -1.
       -3    1    3    3    0  502 -0.36412145453E+03 -0.10465317680E+04  0.35888489367E+03  0.11647366879E+04  0.10100000352E+00 0.  1.
</event>
<event>
 5   0  0.1968318E-05  0.2299334E+04  0.7818609E-02  0.8478184E-01
        1   -1    0    0  501    0  0.00000000000E+00  0.00000000000E+00  0.30518926597E+04  0.30518926598E+04  0.50400001928E-02 0. -1.
       -1   -1    0    0    0  501  0.00000000000E+00  0.00000000000E+00 -0.43308671432E+03  0.43308671435E+03  0.50400001928E-02 0.  1.
    10030    2    1    2    0    0  0.00000000000E+00  0.00000000000E+00  0.26188059454E+04  0.34849793741E+04  0.22993339597E+04 0.  0.
        3    1    3    3  502    0 -0.10749824972E+04  0.66084660926E+02  0.69978180199E+03  0.12843866755E+04  0.10100000352E+00 0. -1.
       -3    1    3    3    0  502  0.10749824972E+04 -0.66084660926E+02  0.19190241434E+04  0.22005926986E+04  0.10100000352E+00 0.  1.
</event>
<event>
 5   0  0.2043885E-05  0.2263315E+04  0.7818609E-02  0.8492528E-01
       -1   -1    0    0    0  501  0.00000000000E+00  0.00000000000E+00  0.62094605636E+03  0.62094605638E+03  0.50400001928E-02 0. -1.
        1   -1    0    0  501    0  0.00000000000E+00  0.00000000000E+00 -0.20624155781E+04  0.20624155781E+04  0.50400001928E-02 0.  1.
    10030    2    1    2    0    0  0.00000000000E+00  0.00000000000E+00 -0.14414695217E+04  0.26833616344E+04  0.22633151082E+04 0.  0.
        5    1    3    3  502    0  0.51775584325E+03 -0.93158655320E+03 -0.11717296459E+04  0.15839498327E+04  0.46999998093E+01 0.  1.
       -5    1    3    3    0  502 -0.51775584325E+03  0.93158655320E+03 -0.26973987583E+03  0.10994118018E+04  0.46999998093E+01 0. -1.
</event>
<event>
 5   0  0.2031860E-05  0.2383540E+04  0.7818609E-02  0.8445692E-01
        1   -1    0    0  501    0  0.00000000000E+00  0.00000000000E+00  0.17082789610E+04  0.17082789610E+04  0.50400001928E-02 0. -1.
       -1   -1    0    0    0  501  0.00000000000E+00  0.00000000000E+00 -0.83143068631E+03  0.83143068633E+03  0.50400001928E-02 0.  1.
    10030    2    1    2    0    0  0.00000000000E+00  0.00000000000E+00  0.87684827469E+03  0.25397096473E+04  0.23835398457E+04 0.  0.
        4    1    3    3  502    0  0.70416389331E+03 -0.40472644843E+03 -0.49088024161E+03  0.94900754012E+03  0.12699999809E+01 0.  1.
       -4    1    3    3    0  502 -0.70416389331E+03  0.40472644843E+03  0.13677285163E+04  0.15907021072E+04  0.12699999809E+01 0. -1.
</event>
<event>
 5   0  0.4602447E-05  0.2181499E+04  0.7818609E-02  0.8526168E-01
       -2   -1    0    0    0  501  0.00000000000E+00  0.00000000000E+00  0.12556093994E+04  0.12556093994E+04  0.25500000920E-02 0.  1.
        2   -1    0    0  501    0  0.00000000000E+00  0.00000000000E+00 -0.94753578224E+03  0.94753578224E+03  0.25500000920E-02 0. -1.
    10030    2    1    2    0    0  0.00000000000E+00  0.00000000000E+00  0.30807361721E+03  0.22031451817E+04  0.21814993326E+04 0.  0.
        3    1    3    3  502    0  0.39757655558E+03 -0.84067045124E+03  0.72972884452E+03  0.11820736533E+04  0.10100000352E+00 0.  1.
       -3    1    3    3    0  502 -0.39757655558E+03  0.84067045124E+03 -0.42165522731E+03  0.10210715284E+04  0.10100000352E+00 0. -1.
</event>
<event>
 5   0  0.4798609E-05  0.2298689E+04  0.7818609E-02  0.8478438E-01
        2   -1    0    0  501    0  0.00000000000E+00  0.00000000000E+00  0.13667508438E+04  0.13667508438E+04  0.25500000920E-02 0.  1.
       -2   -1    0    0    0  501  0.00000000000E+00  0.00000000000E+00 -0.96652077655E+03  0.96652077655E+03  0.25500000920E-02 0. -1.
    10030    2    1    2    0    0  0.00000000000E+00  0.00000000000E+00  0.40023006721E+03  0.23332716203E+04  0.22986892673E+04 0.  0.
        2    1    3    3  502    0  0.55332669701E+03  0.97094884669E+03  0.47263316546E+03  0.12133813109E+04  0.25500000920E-02 0.  1.
       -2    1    3    3    0  502 -0.55332669701E+03 -0.97094884669E+03 -0.72403098250E+02  0.11198903094E+04  0.25500000920E-02 0. -1.
</event>
<event>
 5   0  0.4602447E-05  0.2366132E+04  0.7818609E-02  0.8452293E-01
       -2   -1    0    0    0  501  0.00000000000E+00  0.00000000000E+00  0.65559170337E+03  0.65559170337E+03  0.25500000920E-02 0.  1.
        2   -1    0    0  501    0  0.00000000000E+00  0.00000000000E+00 -0.21349335929E+04  0.21349335929E+04  0.25500000920E-02 0. -1.
    10030    2    1    2    0    0  0.00000000000E+00  0.00000000000E+00 -0.14793418895E+04  0.27905252963E+04  0.23661316538E+04 0.  0.
        3    1    3    3  502    0  0.87654416098E+03  0.75601969347E+03 -0.10279502455E+04  0.15480882276E+04  0.10100000352E+00 0. -1.
       -3    1    3    3    0  502 -0.87654416098E+03 -0.75601969347E+03 -0.45139164406E+03  0.12424370687E+04  0.10100000352E+00 0.  1.
</event>
<event>
 5   0  0.4798609E-05  0.2334210E+04  0.7818609E-02  0.8464553E-01
       -2   -1    0    0    0  501  0.00000000000E+00  0.00000000000E+00  0.77934267944E+03  0.77934267944E+03  0.25500000920E-02 0.  1.
        2   -1    0    0  501    0  0.00000000000E+00  0.00000000000E+00 -0.17477992940E+04  0.17477992940E+04  0.25500000920E-02 0. -1.
    10030    2    1    2    0    0  0.00000000000E+00  0.00000000000E+00 -0.96845661455E+03  0.25271419734E+04  0.23342104317E+04 0.  0.
        2    1    3    3  502    0  0.80161551065E+02  0.88702790460E+03 -0.13008179446E+04  0.15765061696E+04  0.25500000920E-02 0. -1.
       -2    1    3    3    0  502 -0.80161551065E+02 -0.88702790460E+03  0.33236133003E+03  0.95063580383E+03  0.25500000920E-02 0.  1.
</event>
<event>
 5   0  0.4602447E-05  0.2287166E+04  0.7818609E-02  0.8482999E-01
        2   -1    0    0  501    0  0.00000000000E+00  0.00000000000E+00  0.94731433103E+03  0.94731433103E+03  0.25500000920E-02 0.  1.
       -2   -1    0    0    0  501  0.00000000000E+00  0.00000000000E+00 -0.13805148662E+04  0.13805148662E+04  0.25500000920E-02 0. -1.
    10030    2    1    2    0    0  0.00000000000E+00  0.00000000000E+00 -0.43320053515E+03  0.23278291972E+04  0.22871655095E+04 0.  0.
        3    1    3    3  502    0  0.72827490376E+03  0.87355635099E+03 -0.33829393268E+03  0.11865613464E+04  0.10100000352E+00 0.  1.
       -3    1    3    3    0  502 -0.72827490376E+03 -0.87355635099E+03 -0.94906602472E+02  0.11412678508E+04  0.10100000352E+00 0. -1.
</event>
<event>
 5   0  0.4436695E-05  0.2311870E+04  0.7818609E-02  0.8473256E-01
       -2   -1    0    0    0  501  0.00000000000E+00  0.00000000000E+00  0.11952129208E+04  0.11952129208E+04  0.25500000920E-02 0. -1.
        2   -1    0    0  501    0  0.00000000000E+00  0.00000000000E+00 -0.11179478134E+04  0.11179478134E+04  0.25500000920E-02 0.  1.
    10030    2    1    2    0    0  0.00000000000E+00  0.00000000000E+00  0.77265107365E+02  0.23131607342E+04  0.23118699543E+04 0.  0.
        5    1    3    3  502    0 -0.41505753744E+03 -0.11875499154E+03 -0.10342478443E+04  0.11207435928E+04  0.46999998093E+01 0.  1.
       -5    1    3    3    0  502  0.41505753744E+03  0.11875499154E+03  0.11115129517E+04  0.11924171414E+04  0.46999998093E+01 0. -1.
</event>
<event>
 5   0  0.4505107E-05  0.2303353E+04  0.7818609E-02  0.8476600E-01
       -2   -1    0    0    0  501  0.00000000000E+00  0.00000000000E+00  0.92255776936E+03  0.92255776937E+03  0.25500000920E-02 0. -1.
        2   -1    0    0  501    0  0.00000000000E+00  0.00000000000E+00 -0.14376966984E+04  0.14376966984E+04  0.25500000920E-02 0.  1.
    10030    2    1    2    0    0  0.00000000000E+00  0.00000000000E+00 -0.51513892907E+03  0.23602544678E+04  0.23033525645E+04 0.  0.
        4    1    3    3  502    0 -0.10852654310E+04 -0.38326236121E+03 -0.29938884831E+03  0.11892545517E+04  0.12699999809E+01 0.  1.
       -4    1    3    3    0  502  0.10852654310E+04  0.38326236121E+03 -0.21575008076E+03  0.11709999161E+04  0.12699999809E+01 0. -1.
</event>
<event>
 5   0  0.4505107E-05  0.2290410E+04  0.7818609E-02  0.8481712E-01
        2   -1    0    0  501    0  0.00000000000E+00  0.00000000000E+00  0.11850176435E+04  0.11850176435E+04  0.25500000920E-02 0. -1.
       -2   -1    0    0    0  501  0.00000000000E+00  0.00000000000E+00 -0.11067298407E+04  0.11067298407E+04  0.25500000920E-02 0.  1.
    10030    2    1    2    0    0  0.00000000000E+00  0.00000000000E+00  0.78287802861E+02  0.22917474842E+04  0.22904099090E+04 0.  0.
        4    1    3    3  502    0  0.58354876112E+03  0.92617835529E+03 -0.29744111968E+03  0.11343757468E+04  0.12699999809E+01 0.  1.
       -4    1    3    3    0  502 -0.58354876112E+03 -0.92617835529E+03  0.37572892254E+03  0.11573717374E+04  0.12699999809E+01 0. -1.
</event>
<event>
 5   0  0.2085063E-05  0.2312925E+04  0.7818609E-02  0.8472842E-01
       -1   -1    0    0    0  501  0.00000000000E+00  0.00000000000E+00  0.79494236823E+03  0.79494236824E+03  0.50400001928E-02 0. -1.
        1   -1    0    0  501    0  0.00000000000E+00  0.00000000000E+00 -0.16823932911E+04  0.16823932911E+04  0.50400001928E-02 0.  1.
    10030    2    1    2    0    0  0.00000000000E+00  0.00000000000E+00 -0.88745092287E+03  0.24773356593E+04  0.23129251671E+04 0.  0.
        1    1    3    3  502    0 -0.18530063546E+03  0.10454638096E+04 -0.93464493093E+03  0.14145289144E+04  0.50400001928E-02 0.  1.
       -1    1    3    3    0  502  0.18530063546E+03 -0.10454638096E+04  0.47194008055E+02  0.10628067450E+04  0.50400001928E-02 0. -1.
</event>
<event>
 5   0  0.4798609E-05  0.2304902E+04  0.7818609E-02  0.8475991E-01
        2   -1    0    0  501    0  0.00000000000E+00  0.00000000000E+00  0.15405517655E+04  0.15405517655E+04  0.25500000920E-02 0.  1.
       -2   -1    0    0    0  501  0.00000000000E+00  0.00000000000E+00 -0.86212165399E+03  0.86212165399E+03  0.25500000920E-02 0. -1.
    10030    2    1    2    0    0  0.00000000000E+00  0.00000000000E+00  0.67843011147E+03  0.24026734194E+04  0.23049017646E+04 0.  0.
        2    1    3    3  502    0  0.94866132143E+03 -0.50645153005E+03 -0.92718379535E+02  0.10793739635E+04  0.25500000920E-02 0. -1.
       -2    1    3    3    0  502 -0.94866132143E+03  0.50645153005E+03  0.77114849100E+03  0.13232994560E+04  0.25500000920E-02 0.  1.
</event>
<event>
 5   0  0.2043885E-05  0.2302650E+04  0.7818609E-02  0.8476877E-01
       -1   -1    0    0    0  501  0.00000000000E+00  0.00000000000E+00  0.80301879822E+03  0.80301879824E+03  0.50400001928E-02 0.  1.
        1   -1    0    0  501    0  0.00000000000E+00  0.00000000000E+00 -0.16507070921E+04  0.16507070921E+04  0.50400001928E-02 0. -1.
    10030    2    1    2    0    0  0.00000000000E+00  0.00000000000E+00 -0.84768829392E+03  0.24537258904E+04  0.23026496263E+04 0.  0.
        5    1    3    3  502    0 -0.41537370097E+03  0.62547885921E+03 -0.13539008765E+04  0.15481694959E+04  0.46999998093E+01 0. -1.
       -5    1    3    3    0  502  0.41537370097E+03 -0.62547885921E+03  0.50621258258E+03  0.90555639445E+03  0.46999998093E+01 0.  1.
</event>
<event>
 5   0  0.2031860E-05  0.2270697E+04  0.7818609E-02  0.8489565E-01
       -1   -1    0    0    0  501  0.00000000000E+00  0.00000000000E+00  0.95046491116E+03  0.95046491118E+03  0.50400001928E-02 0.  1.
        1   -1    0    0  501    0  0.00000000000E+00  0.00000000000E+00 -0.13561955173E+04  0.13561955173E+04  0.50400001928E-02 0. -1.
    10030    2    1    2    0    0  0.00000000000E+00  0.00000000000E+00 -0.40573060610E+03  0.23066604285E+04  0.22706970312E+04 0.  0.
        4    1    3    3  502    0 -0.10286797738E+04  0.75153957128E+01  0.28513475071E+03  0.10674933242E+04  0.12699999809E+01 0. -1.
       -4    1    3    3    0  502  0.10286797738E+04 -0.75153957128E+01 -0.69086535680E+03  0.12391671043E+04  0.12699999809E+01 0.  1.
</event>
<event>
 5   0  0.2043885E-05  0.2302873E+04  0.7818609E-02  0.8476789E-01
        1   -1    0    0  501    0  0.00000000000E+00  0.00000000000E+00  0.25568860735E+04  0.25568860735E+04  0.50400001928E-02 0.  1.
       -1   -1    0    0    0  501  0.00000000000E+00  0.00000000000E+00 -0.51852381402E+03  0.51852381405E+03  0.50400001928E-02 0. -1.
    10030    2    1    2    0    0  0.00000000000E+00  0.00000000000E+00  0.20383622595E+04  0.30754098876E+04  0.23028732652E+04 0.  0.
        5    1    3    3  502    0 -0.40182833978E+02 -0.95421992968E+03  0.16028424426E+03  0.96843351000E+03  0.46999998093E+01 0. -1.
       -5    1    3    3    0  502  0.40182833978E+02  0.95421992968E+03  0.18780780152E+04  0.21069763776E+04  0.46999998093E+01 0.  1.
</event>
<event>
 5   0  0.4605516E-05  0.2380042E+04  0.7818609E-02  0.8447014E-01
        2   -1    0    0  501    0  0.00000000000E+00  0.00000000000E+00  0.14619340436E+04  0.14619340436E+04  0.25500000920E-02 0. -1.
       -2   -1    0    0    0  501  0.00000000000E+00  0.00000000000E+00 -0.96868241099E+03  0.96868241099E+03  0.25500000920E-02 0.  1.
    10030    2    1    2    0    0  0.00000000000E+00  0.00000000000E+00  0.49325163263E+03  0.24306164546E+04  0.23800418434E+04 0.  0.
        1    1    3    3  502    0  0.52061865545E+01 -0.40571323046E+03  0.13891111809E+04  0.14471559013E+04  0.50400001928E-02 0. -1.
       -1    1    3    3    0  502 -0.52061865545E+01  0.40571323046E+03 -0.89585954825E+03  0.98346055333E+03  0.50400001928E-02 0.  1.
</event>
<event>
 5   0  0.4602447E-05  0.2313972E+04  0.7818609E-02  0.8472433E-01
       -2   -1    0    0    0  501  0.00000000000E+00  0.00000000000E+00  0.43050536400E+03  0.43050536401E+03  0.25500000920E-02 0. -1.
        2   -1    0    0  501    0  0.00000000000E+00  0.00000000000E+00 -0.31094065777E+04  0.31094065777E+04  0.25500000920E-02 0.  1.
    10030    2    1    2    0    0  0.00000000000E+00  0.00000000000E+00 -0.26789012137E+04  0.35399119417E+04  0.23139716598E+04 0.  0.
        3    1    3    3  502    0 -0.20762522488E+03  0.10350431564E+04 -0.20637965936E+04  0.23181197035E+04  0.10100000352E+00 0.  1.
       -3    1    3    3    0  502  0.20762522488E+03 -0.10350431564E+04 -0.61510462007E+03  0.12217922382E+04  0.10100000352E+00 0. -1.
</event>
<event>
 5   0  0.4436695E-05  0.2412153E+04  0.7818609E-02  0.8434968E-01
       -2   -1    0    0    0  501  0.00000000000E+00  0.00000000000E+00  0.63795951953E+03  0.63795951954E+03  0.25500000920E-02 0. -1.
        2   -1    0    0  501    0  0.00000000000E+00  0.00000000000E+00 -0.22801135438E+04  0.22801135438E+04  0.25500000920E-02 0.  1.
    10030    2    1    2    0    0  0.00000000000E+00  0.00000000000E+00 -0.16421540242E+04  0.29180730633E+04  0.24121526825E+04 0.  0.
        5    1    3    3  502    0  0.31214102079E+03 -0.11484238922E+04 -0.10577921866E+04  0.15922486781E+04  0.46999998093E+01 0.  1.
       -5    1    3    3    0  502 -0.31214102079E+03  0.11484238922E+04 -0.58436183764E+03  0.13258243852E+04  0.46999998093E+01 0. -1.
</event>
<event>
 5   0  0.2043885E-05  0.2344743E+04  0.7818609E-02  0.8460486E-01
       -1   -1    0    0    0  501  0.00000000000E+00  0.00000000000E+00  0.85025846293E+03  0.85025846294E+03  0.50400001928E-02 0. -1.
        1   -1    0    0  501    0  0.00000000000E+00  0.00000000000E+00 -0.16165137991E+04  0.16165137991E+04  0.50400001928E-02 0.  1.
    10030    2    1    2    0    0  0.00000000000E+00  0.00000000000E+00 -0.76625533616E+03  0.24667722620E+04  0.23447426623E+04 0.  0.
        5    1    3    3  502    0 -0.48025305207E+03  0.10669838146E+04 -0.45997004962E+03  0.12572557382E+04  0.46999998093E+01 0. -1.
       -5    1    3    3    0  502  0.48025305207E+03 -0.10669838146E+04 -0.30628528655E+03  0.12095165238E+04  0.46999998093E+01 0.  1.
</event>
<event>
 5   0  0.4602447E-05  0.2373941E+04  0.7818609E-02  0.8449324E-01
       -2   -1    0    0    0  501  0.00000000000E+00  0.00000000000E+00  0.79500913530E+03  0.79500913531E+03  0.25500000920E-02 0.  1.
        2   -1    0    0  501    0  0.00000000000E+00  0.00000000000E+00 -0.17721800664E+04  0.17721800664E+04  0.25500000920E-02 0. -1.
    10030    2    1    2    0    0  0.00000000000E+00  0.00000000000E+00 -0.97717093114E+03  0.25671892018E+04  0.23739413154E+04 0.  0.
        3    1    3    3  502    0  0.42476498431E+02  0.91062177845E+03 -0.13106394968E+04  0.15964999771E+04  0.10100000352E+00 0. -1.
       -3    1    3    3    0  502 -0.42476498431E+02 -0.91062177845E+03  0.33346856563E+03  0.97068922461E+03  0.10100000352E+00 0.  1.
</event>
<event>
 5   0  0.4505107E-05  0.2319038E+04  0.7818609E-02  0.8470452E-01
        2   -1    0    0  501    0  0.00000000000E+00  0.00000000000E+00  0.16799610014E+04  0.16799610014E+04  0.25500000920E-02 0. -1.
       -2   -1    0    0    0  501  0.00000000000E+00  0.00000000000E+00 -0.80030717073E+03  0.80030717073E+03  0.25500000920E-02 0.  1.
    10030    2    1    2    0    0  0.00000000000E+00  0.00000000000E+00  0.87965383069E+03  0.24802681722E+04  0.23190384525E+04 0.  0.
        4    1    3    3  502    0 -0.25159628541E+03  0.91230754673E+03  0.11563902719E+04  0.14942710010E+04  0.12699999809E+01 0. -1.
       -4    1    3    3    0  502  0.25159628541E+03 -0.91230754673E+03 -0.27673644122E+03  0.98599717112E+03  0.12699999809E+01 0.  1.
</event>
<event>
 5   0  0.4436695E-05  0.2101961E+04  0.7818609E-02  0.8560380E-01
        2   -1    0    0  501    0  0.00000000000E+00  0.00000000000E+00  0.12245803328E+04  0.12245803328E+04  0.25500000920E-02 0.  1.
       -2   -1    0    0    0  501  0.00000000000E+00  0.00000000000E+00 -0.90199060613E+03  0.90199060613E+03  0.25500000920E-02 0. -1.
    10030    2    1    2    0    0  0.00000000000E+00  0.00000000000E+00  0.32258972666E+03  0.21265709389E+04  0.21019609479E+04 0.  0.
        5    1    3    3  502    0 -0.80890004096E+03 -0.22879340835E+03  0.79945108988E+03  0.11600904426E+04  0.46999998093E+01 0.  1.
       -5    1    3    3    0  502  0.80890004096E+03  0.22879340835E+03 -0.47686136323E+03  0.96648049629E+03  0.46999998093E+01 0. -1.
</event>
<event>
 5   0  0.2043885E-05  0.2309292E+04  0.7818609E-02  0.8474266E-01
        1   -1    0    0  501    0  0.00000000000E+00  0.00000000000E+00  0.90726774119E+03  0.90726774120E+03  0.50400001928E-02 0. -1.
       -1   -1    0    0    0  501  0.00000000000E+00  0.00000000000E+00 -0.14694751307E+04  0.14694751307E+04  0.50400001928E-02 0.  1.
    10030    2    1    2    0    0  0.00000000000E+00  0.00000000000E+00 -0.56220738951E+03  0.23767428719E+04  0.23092919976E+04 0.  0.
        5    1    3    3  502    0 -0.23535421888E+03 -0.11199091471E+04 -0.43920427441E+03  0.12257693873E+04  0.46999998093E+01 0. -1.
       -5    1    3    3    0  502  0.23535421888E+03  0.11199091471E+04 -0.12300311510E+03  0.11509734847E+04  0.46999998093E+01 0.  1.
</event>
<event>
 5   0  0.4602447E-05  0.2232324E+04  0.7818609E-02  0.8505093E-01
        2   -1    0    0  501    0  0.00000000000E+00  0.00000000000E+00  0.97136573023E+03  0.97136573023E+03  0.25500000920E-02 0.  1.
       -2   -1    0    0    0  501  0.00000000000E+00  0.00000000000E+00 -0.12825424209E+04  0.12825424209E+04  0.25500000920E-02 0. -1.
    10030    2    1    2    0    0  0.00000000000E+00  0.00000000000E+00 -0.31117669069E+03  0.22539081511E+04  0.22323241299E+04 0.  0.
        3    1    3    3  502    0  0.95034318387E+03  0.58529958830E+03 -0.16516530021E+03  0.11282762790E+04  0.10100000352E+00 0.  1.
       -3    1    3    3    0  502 -0.95034318387E+03 -0.58529958830E+03 -0.14601139048E+03  0.11256318721E+04  0.10100000352E+00 0. -1.
</event>
<event>
 5   0  0.4605516E-05  0.2288503E+04  0.7818609E-02  0.8482468E-01
        2   -1    0    0  501    0  0.00000000000E+00  0.00000000000E+00  0.14478579104E+04  0.14478579105E+04  0.25500000920E-02 0.  1.
       -2   -1    0    0    0  501  0.00000000000E+00  0.00000000000E+00 -0.90430975238E+03  0.90430975238E+03  0.25500000920E-02 0. -1.
    10030    2    1    2    0    0  0.00000000000E+00  0.00000000000E+00  0.54354815807E+03  0.23521676628E+04  0.22885034660E+04 0.  0.
        1    1    3    3  502    0 -0.42843203628E+03 -0.78143416433E+03  0.10094580453E+04  0.13465507447E+04  0.50400001928E-02 0.  1.
       -1    1    3    3    0  502  0.42843203628E+03  0.78143416433E+03 -0.46590988725E+03  0.10056169181E+04  0.50400001928E-02 0. -1.
</event>
<event>
 5   0  0.4505107E-05  0.2268549E+04  0.7818609E-02  0.8490426E-01
        2   -1    0    0  501    0  0.00000000000E+00  0.00000000000E+00  0.20315581832E+04  0.20315581832E+04  0.25500000920E-02 0. -1.
       -2   -1    0    0    0  501  0.00000000000E+00  0.00000000000E+00 -0.63329660869E+03  0.63329660870E+03  0.25500000920E-02 0.  1.
    10030    2    1    2    0    0  0.00000000000E+00  0.00000000000E+00  0.13982615745E+04  0.26648547919E+04  0.22685492349E+04 0.  0.
        4    1    3    3  502    0  0.11006581062E+04 -0.20479598885E+03  0.91313063626E+03  0.14447141017E+04  0.12699999809E+01 0. -1.
       -4    1    3    3    0  502 -0.11006581062E+04  0.20479598885E+03  0.48513093828E+03  0.12201406903E+04  0.12699999809E+01 0.  1.
</event>
<event>
 5   0  0.4605516E-05  0.2169200E+04  0.7818609E-02  0.8531358E-01
       -2   -1    0    0    0  501  0.00000000000E+00  0.00000000000E+00  0.53690183197E+03  0.53690183197E+03  0.25500000920E-02 0. -1.
        2   -1    0    0  501    0  0.00000000000E+00  0.00000000000E+00 -0.21910096118E+04  0.21910096118E+04  0.25500000920E-02 0.  1.
    10030    2    1    2    0    0  0.00000000000E+00  0.00000000000E+00 -0.16541077798E+04  0.27279114438E+04  0.21691999211E+04 0.  0.
        1    1    3    3  502    0  0.10700326517E+04  0.17537661166E+03 -0.85862461993E+03  0.13830990816E+04  0.50400001928E-02 0. -1.
       -1    1    3    3    0  502 -0.10700326517E+04 -0.17537661166E+03 -0.79548315988E+03  0.13448123621E+04  0.50400001928E-02 0.  1.
</event>
<event>
 5   0  0.4602447E-05  0.2303100E+04  0.7818609E-02  0.8476700E-01
       -2   -1    0    0    0  501  0.00000000000E+00  0.00000000000E+00  0.57518452904E+03  0.57518452905E+03  0.25500000920E-02 0.  1.
        2   -1    0    0  501    0  0.00000000000E+00  0.00000000000E+00 -0.23054647257E+04  0.23054647257E+04  0.25500000920E-02 0. -1.
    10030    2    1    2    0    0  0.00000000000E+00  0.00000000000E+00 -0.17302801967E+04  0.28806492548E+04  0.23031002084E+04 0.  0.
        3    1    3    3  502    0  0.12120411755E+03 -0.68257924415E+03 -0.20152114667E+04  0.21311222697E+04  0.10100000352E+00 0. -1.
       -3    1    3    3    0  502 -0.12120411755E+03  0.68257924415E+03  0.28493126996E+03  0.74952698514E+03  0.10100000352E+00 0.  1.
</event>
<event>
 5   0  0.4798609E-05  0.2271497E+04  0.7818609E-02  0.8489245E-01
       -2   -1    0    0    0  501  0.00000000000E+00  0.00000000000E+00  0.75693926880E+03  0.75693926880E+03  0.25500000920E-02 0. -1.
        2   -1    0    0  501    0  0.00000000000E+00  0.00000000000E+00 -0.17041324015E+04  0.17041324015E+04  0.25500000920E-02 0.  1.
    10030    2    1    2    0    0  0.00000000000E+00  0.00000000000E+00 -0.94719313267E+03  0.24610716703E+04  0.22714970693E+04 0.  0.
        2    1    3    3  502    0 -0.36138990141E+03  0.75400422498E+03  0.35918712971E+03  0.91002221197E+03  0.25500000920E-02 0. -1.
       -2    1    3    3    0  502  0.36138990141E+03 -0.75400422498E+03 -0.13063802624E+04  0.15510494583E+04  0.25500000920E-02 0.  1.
</event>
<event>
 5   0  0.4605516E-05  0.2320044E+04  0.7818609E-02  0.8470060E-01
        2   -1    0    0  501    0  0.00000000000E+00  0.00000000000E+00  0.15120238710E+04  0.15120238710E+04  0.25500000920E-02 0. -1.
       -2   -1    0    0    0  501  0.00000000000E+00  0.00000000000E+00 -0.88996687066E+03  0.88996687066E+03  0.25500000920E-02 0.  1.
    10030    2    1    2    0    0  0.00000000000E+00  0.00000000000E+00  0.62205700039E+03  0.24019907417E+04  0.23200440969E+04 0.  0.
        1    1    3    3  502    0  0.63877313523E+03  0.12202556964E+03 -0.68348884423E+03  0.94343964203E+03  0.50400001928E-02 0.  1.
       -1    1    3    3    0  502 -0.63877313523E+03 -0.12202556964E+03  0.13055458446E+04  0.14585510997E+04  0.50400001928E-02 0. -1.
</event>
<event>
 5   0  0.4798609E-05  0.2303087E+04  0.7818609E-02  0.8476705E-01
        2   -1    0    0  501    0  0.00000000000E+00  0.00000000000E+00  0.19022121976E+04  0.19022121976E+04  0.25500000920E-02 0. -1.
       -2   -1    0    0    0  501  0.00000000000E+00  0.00000000000E+00 -0.69711090894E+03  0.69711090894E+03  0.25500000920E-02 0.  1.
    10030    2    1    2    0    0  0.00000000000E+00  0.00000000000E+00  0.12051012886E+04  0.25993231065E+04  0.23030873835E+04 0.  0.
        2    1    3    3  502    0  0.23813297804E+03  0.47461004409E+03 -0.55068750154E+03  0.76499590427E+03  0.25500000920E-02 0.  1.
       -2    1    3    3    0  502 -0.23813297804E+03 -0.47461004409E+03  0.17557887902E+04  0.18343272022E+04  0.25500000920E-02 0. -1.
</event>
<event>
 5   0  0.2085063E-05  0.2285103E+04  0.7818609E-02  0.8483818E-01
       -1   -1    0    0    0  501  0.00000000000E+00  0.00000000000E+00  0.14102065246E+04  0.14102065246E+04  0.50400001928E-02 0.  1.
        1   -1    0    0  501    0  0.00000000000E+00  0.00000000000E+00 -0.92569676059E+03  0.92569676060E+03  0.50400001928E-02 0. -1.
    10030    2    1    2    0    0  0.00000000000E+00  0.00000000000E+00  0.48450976397E+03  0.23359032852E+04  0.22851027212E+04 0.  0.
        1    1    3    3  502    0 -0.10510001299E+03  0.34878457196E+03  0.13492547713E+04  0.13975639979E+04  0.50400001928E-02 0.  1.
       -1    1    3    3    0  502  0.10510001299E+03 -0.34878457196E+03 -0.86474500730E+03  0.93833928728E+03  0.50400001928E-02 0. -1.
</event>
<event>
 5   0  0.2042951E-05  0.2310382E+04  0.7818609E-02  0.8473839E-01
       -1   -1    0    0    0  501  0.00000000000E+00  0.00000000000E+00  0.55444098973E+03  0.55444098975E+03  0.50400001928E-02 0. -1.
        1   -1    0    0  501    0  0.00000000000E+00  0.00000000000E+00 -0.24068670123E+04  0.24068670123E+04  0.50400001928E-02 0.  1.
    10030    2    1    2    0    0  0.00000000000E+00  0.00000000000E+00 -0.18524260226E+04  0.29613080021E+04  0.23103815516E+04 0.  0.
        2    1    3    3  502    0 -0.68651128796E+03  0.31287284851E+03 -0.20474815729E+04  0.21820559020E+04  0.25500000920E-02 0.  1.
       -2    1    3    3    0  502  0.68651128796E+03 -0.31287284851E+03  0.19505555032E+03  0.77925210013E+03  0.25500000920E-02 0. -1.
</event>
<event>
 5   0  0.2031860E-05  0.2302925E+04  0.7818609E-02  0.8476769E-01
        1   -1    0    0  501    0  0.00000000000E+00  0.00000000000E+00  0.14654200982E+04  0.14654200983E+04  0.50400001928E-02 0. -1.
       -1   -1    0    0    0  501  0.00000000000E+00  0.00000000000E+00 -0.90476817652E+03  0.90476817653E+03  0.50400001928E-02 0.  1.
    10030    2    1    2    0    0  0.00000000000E+00  0.00000000000E+00  0.56065192173E+03  0.23701882748E+04  0.23029246363E+04 0.  0.
        4    1    3    3  502    0  0.43958889175E+03  0.85077131548E+03  0.93838643219E+03  0.13407538678E+04  0.12699999809E+01 0. -1.
       -4    1    3    3    0  502 -0.43958889175E+03 -0.85077131548E+03 -0.37773451046E+03  0.10294344070E+04  0.12699999809E+01 0.  1.
</event>
<event>
 5   0  0.2043885E-05  0.2308134E+04  0.7818609E-02  0.8474721E-01
       -1   -1    0    0    0  501  0.00000000000E+00  0.00000000000E+00  0.52405699774E+03  0.52405699777E+03  0.50400001928E-02 0. -1.
        1   -1    0    0  501    0  0.00000000000E+00  0.00000000000E+00 -0.25414622136E+04  0.25414622136E+04  0.50400001928E-02 0.  1.
    10030    2    1    2    0    0  0.00000000000E+00  0.00000000000E+00 -0.20174052158E+04  0.30655192114E+04  0.23081343614E+04 0.  0.
        5    1    3    3  502    0 -0.12446347480E+03  0.44677173038E+02 -0.25313537535E+04  0.25348098788E+04  0.46999998093E+01 0.  1.
       -5    1    3    3    0  502  0.12446347480E+03 -0.44677173038E+02  0.51394853763E+03  0.53070933257E+03  0.46999998093E+01 0. -1.
</event>
<event>
 5   0  0.4602447E-05  0.2311251E+04  0.7818609E-02  0.8473498E-01
        2   -1    0    0  501    0  0.00000000000E+00  0.00000000000E+00  0.68209408319E+03  0.68209408319E+03  0.25500000920E-02 0.  1.
       -2   -1    0    0    0  501  0.00000000000E+00  0.00000000000E+00 -0.19578970496E+04  0.19578970496E+04  0.25500000920E-02 0. -1.
    10030    2    1    2    0    0  0.00000000000E+00  0.00000000000E+00 -0.12758029664E+04  0.26399911328E+04  0.23112507376E+04 0.  0.
        3    1    3    3  502    0 -0.11515959007E+04  0.65856495051E+02 -0.71834422901E+03  0.13588703537E+04  0.10100000352E+00 0. -1.
       -3    1    3    3    0  502  0.11515959007E+04 -0.65856495051E+02 -0.55745873740E+03  0.12811207791E+04  0.10100000352E+00 0.  1.
</event>
<event>
 5   0  0.4602447E-05  0.2262915E+04  0.7818609E-02  0.8492688E-01
        2   -1    0    0  501    0  0.00000000000E+00  0.00000000000E+00  0.15369383433E+04  0.15369383433E+04  0.25500000920E-02 0.  1.
       -2   -1    0    0    0  501  0.00000000000E+00  0.00000000000E+00 -0.83295239421E+03  0.83295239421E+03  0.25500000920E-02 0. -1.
    10030    2    1    2    0    0  0.00000000000E+00  0.00000000000E+00  0.70398594909E+03  0.23698907375E+04  0.22629153522E+04 0.  0.
        3    1    3    3  502    0  0.89192747200E+03  0.27432052752E+02  0.10805138695E+04  0.14013555456E+04  0.10100000352E+00 0.  1.
       -3    1    3    3    0  502 -0.89192747200E+03 -0.27432052752E+02 -0.37652792045E+03  0.96853519187E+03  0.10100000352E+00 0. -1.
</event>
<event>
 5   0  0.1968318E-05  0.2306026E+04  0.7818609E-02  0.8475549E-01
        1   -1    0    0  501    0  0.00000000000E+00  0.00000000000E+00  0.14981637975E+04  0.14981637975E+04  0.50400001928E-02 0.  1.
       -1   -1    0    0    0  501  0.00000000000E+00  0.00000000000E+00 -0.88737856017E+03  0.88737856018E+03  0.50400001928E-02 0. -1.
    10030    2    1    2    0    0  0.00000000000E+00  0.00000000000E+00  0.61078523733E+03  0.23855423577E+04  0.23060255277E+04 0.  0.
        3    1    3    3  502    0 -0.32998414140E+03 -0.71551761945E+02 -0.83508787288E+03  0.90076686987E+03  0.10100000352E+00 0. -1.
       -3    1    3    3    0  502  0.32998414140E+03  0.71551761945E+02  0.14458731102E+04  0.14847754878E+04  0.10100000352E+00 0.  1.
</event>
<event>
 5   0  0.2031860E-05  0.2220268E+04  0.7818609E-02  0.8510039E-01
       -1   -1    0    0    0  501  0.00000000000E+00  0.00000000000E+00  0.55386906376E+03  0.55386906378E+03  0.50400001928E-02 0. -1.
        1   -1    0    0  501    0  0.00000000000E+00  0.00000000000E+00 -0.22250703300E+04  0.22250703300E+04  0.50400001928E-02 0.  1.
    10030    2    1    2    0    0  0.00000000000E+00  0.00000000000E+00 -0.16712012662E+04  0.27789393937E+04  0.22202681104E+04 0.  0.
        4    1    3    3  502    0  0.58704047495E+03  0.86622882425E+03 -0.37160930399E+03  0.11104341416E+04  0.12699999809E+01 0.  1.
       -4    1    3    3    0  502 -0.58704047495E+03 -0.86622882425E+03 -0.12995919622E+04  0.16685052521E+04  0.12699999809E+01 0. -1.
</event>
<event>
 5   0  0.2043885E-05  0.2305542E+04  0.7818609E-02  0.8475739E-01
        1   -1    0    0  501    0  0.00000000000E+00  0.00000000000E+00  0.13969414394E+04  0.13969414394E+04  0.50400001928E-02 0. -1.
       -1   -1    0    0    0  501  0.00000000000E+00  0.00000000000E+00 -0.95127903562E+03  0.95127903564E+03  0.50400001928E-02 0.  1.
    10030    2    1    2    0    0  0.00000000000E+00  0.00000000000E+00  0.44566240376E+03  0.23482204750E+04  0.23055421101E+04 0.  0.
        5    1    3    3  502    0 -0.67550828363E+03 -0.39074183571E+03  0.10869876285E+04  0.13381161451E+04  0.46999998093E+01 0. -1.
       -5    1    3    3    0  502  0.67550828363E+03  0.39074183571E+03 -0.64132522471E+03  0.10101043299E+04  0.46999998093E+01 0.  1.
</event>
<event>
 5   0  0.4505107E-05  0.2298397E+04  0.7818609E-02  0.8478553E-01
       -2   -1    0    0    0  501  0.00000000000E+00  0.00000000000E+00  0.93746634392E+03  0.93746634392E+03  0.25500000920E-02 0. -1.
        2   -1    0    0  501    0  0.00000000000E+00  0.00000000000E+00 -0.14087518570E+04  0.14087518570E+04  0.25500000920E-02 0.  1.
    10030    2    1    2    0    0  0.00000000000E+00  0.00000000000E+00 -0.47128551306E+03  0.23462182009E+04  0.22983972266E+04 0.  0.
        4    1    3    3  502    0  0.47744752185E+03 -0.81927193689E+03 -0.89837575518E+03  0.13062324652E+04  0.12699999809E+01 0.  1.
       -4    1    3    3    0  502 -0.47744752185E+03  0.81927193689E+03  0.42709024212E+03  0.10399857357E+04  0.12699999809E+01 0. -1.
</event>
<event>
 5   0  0.4505107E-05  0.2400890E+04  0.7818609E-02  0.8439171E-01
        2   -1    0    0  501    0  0.00000000000E+00  0.00000000000E+00  0.10062070914E+04  0.10062070914E+04  0.25500000920E-02 0.  1.
       -2   -1    0    0    0  501  0.00000000000E+00  0.00000000000E+00 -0.14321780949E+04  0.14321780949E+04  0.25500000920E-02 0. -1.
    10030    2    1    2    0    0  0.00000000000E+00  0.00000000000E+00 -0.42597100346E+03  0.24383851863E+04  0.24008896311E+04 0.  0.
        4    1    3    3  502    0 -0.11811630897E+04  0.21081602346E+03 -0.17396011996E+03  0.12123750972E+04  0.12699999809E+01 0. -1.
       -4    1    3    3    0  502  0.11811630897E+04 -0.21081602346E+03 -0.25201088350E+03  0.12260100890E+04  0.12699999809E+01 0.  1.
</event>
<event>
 5   0  0.4602447E-05  0.2301902E+04  0.7818609E-02  0.8477172E-01
       -2   -1    0    0    0  501  0.00000000000E+00  0.00000000000E+00  0.84226660072E+03  0.84226660073E+03  0.25500000920E-02 0.  1.
        2   -1    0    0  501    0  0.00000000000E+00  0.00000000000E+00 -0.15727660507E+04  0.15727660507E+04  0.25500000920E-02 0. -1.
    10030    2    1    2    0    0  0.00000000000E+00  0.00000000000E+00 -0.73049944995E+03  0.24150326514E+04  0.23019020963E+04 0.  0.
        3    1    3    3  502    0  0.34756965580E+03  0.10844658300E+04 -0.19026697799E+03  0.11545875173E+04  0.10100000352E+00 0. -1.
       -3    1    3    3    0  502 -0.34756965580E+03 -0.10844658300E+04 -0.54023247197E+03  0.12604451341E+04  0.10100000352E+00 0.  1.
</event>
<event>
 5   0  0.2085063E-05  0.2297663E+04  0.7818609E-02  0.8478843E-01
       -1   -1    0    0    0  501  0.00000000000E+00  0.00000000000E+00  0.84289217178E+03  0.84289217179E+03  0.50400001928E-02 0. -1.
        1   -1    0    0  501    0  0.00000000000E+00  0.00000000000E+00 -0.15658154315E+04  0.15658154315E+04  0.50400001928E-02 0.  1.
    10030    2    1    2    0    0  0.00000000000E+00  0.00000000000E+00 -0.72292325970E+03  0.24087076033E+04  0.22976627861E+04 0.  0.
        1    1    3    3  502    0  0.53137039590E+02  0.95429224010E+03  0.30677447960E+03  0.10037966955E+04  0.50400001928E-02 0. -1.
       -1    1    3    3    0  502 -0.53137039590E+02 -0.95429224010E+03 -0.10296977393E+04  0.14049109078E+04  0.50400001928E-02 0.  1.
</event>
<event>
 5   0  0.4505107E-05  0.2266810E+04  0.7818609E-02  0.8491124E-01
       -2   -1    0    0    0  501  0.00000000000E+00  0.00000000000E+00  0.10813565605E+04  0.10813565605E+04  0.25500000920E-02 0. -1.
        2   -1    0    0  501    0  0.00000000000E+00  0.00000000000E+00 -0.11879582558E+04  0.11879582558E+04  0.25500000920E-02 0.  1.
    10030    2    1    2    0    0  0.00000000000E+00  0.00000000000E+00 -0.10660169531E+03  0.22693148164E+04  0.22668096114E+04 0.  0.
        4    1    3    3  502    0  0.83214620661E+03 -0.48786398487E+03 -0.64904360607E+03  0.11626425901E+04  0.12699999809E+01 0.  1.
       -4    1    3    3    0  502 -0.83214620661E+03  0.48786398487E+03  0.54244191076E+03  0.11066722263E+04  0.12699999809E+01 0. -1.
</event>
<event>
 5   0  0.2031860E-05  0.2309872E+04  0.7818609E-02  0.8474039E-01
        1   -1    0    0  501    0  0.00000000000E+00  0.00000000000E+00  0.12431459098E+04  0.12431459098E+04  0.50400001928E-02 0. -1.
       -1   -1    0    0    0  501  0.00000000000E+00  0.00000000000E+00 -0.10729856108E+04  0.10729856108E+04  0.50400001928E-02 0.  1.
    10030    2    1    2    0    0  0.00000000000E+00  0.00000000000E+00  0.17016029906E+03  0.23161315206E+04  0.23098724409E+04 0.  0.
        4    1    3    3  502    0 -0.69562874776E+03 -0.47744897173E+03 -0.70573887713E+03  0.10999662954E+04  0.12699999809E+01 0.  1.
       -4    1    3    3    0  502  0.69562874776E+03  0.47744897173E+03  0.87589917620E+03  0.12161652252E+04  0.12699999809E+01 0. -1.
</event>
<event>
 5   0  0.4605516E-05  0.2319245E+04  0.7818609E-02  0.8470372E-01
        2   -1    0    0  501    0  0.00000000000E+00  0.00000000000E+00  0.28221981578E+04  0.28221981578E+04  0.25500000920E-02 0. -1.
       -2   -1    0    0    0  501  0.00000000000E+00  0.00000000000E+00 -0.47648100211E+03  0.47648100211E+03  0.25500000920E-02 0.  1.
    10030    2    1    2    0    0  0.00000000000E+00  0.00000000000E+00  0.23457171557E+04  0.32986791599E+04  0.23192445377E+04 0.  0.
        1    1    3    3  502    0 -0.87169653956E+03  0.75876795527E+03  0.10368801730E+04  0.15526442478E+04  0.50400001928E-02 0.  1.
       -1    1    3    3    0  502  0.87169653956E+03 -0.75876795527E+03  0.13088369826E+04  0.17460349121E+04  0.50400001928E-02 0. -1.
</event>
<event>
 5   0  0.4436695E-05  0.2295615E+04  0.7818609E-02  0.8479652E-01
       -2   -1    0    0    0  501  0.00000000000E+00  0.00000000000E+00  0.85741532438E+03  0.85741532438E+03  0.25500000920E-02 0. -1.
        2   -1    0    0  501    0  0.00000000000E+00  0.00000000000E+00 -0.15365501495E+04  0.15365501495E+04  0.25500000920E-02 0.  1.
    10030    2    1    2    0    0  0.00000000000E+00  0.00000000000E+00 -0.67913482511E+03  0.23939654739E+04  0.22956146409E+04 0.  0.
        5    1    3    3  502    0  0.10310691926E+04  0.22422500430E+03 -0.81064972421E+03  0.13306222597E+04  0.46999998093E+01 0.  1.
       -5    1    3    3    0  502 -0.10310691926E+04 -0.22422500430E+03  0.13151489910E+03  0.10633432142E+04  0.46999998093E+01 0. -1.
</event>
<event>
 5   0  0.2085063E-05  0.2286667E+04  0.7818609E-02  0.8483197E-01
        1   -1    0    0  501    0  0.00000000000E+00  0.00000000000E+00  0.74182940912E+03  0.74182940914E+03  0.50400001928E-02 0. -1.
       -1   -1    0    0    0  501  0.00000000000E+00  0.00000000000E+00 -0.17621451482E+04  0.17621451482E+04  0.50400001928E-02 0.  1.
    10030    2    1    2    0    0  0.00000000000E+00  0.00000000000E+00 -0.10203157391E+04  0.25039745574E+04  0.22866666518E+04 0.  0.
        1    1    3    3  502    0  0.68506784426E+03 -0.91275939302E+03 -0.43458131330E+03  0.12211914586E+04  0.50400001928E-02 0.  1.
       -1    1    3    3    0  502 -0.68506784426E+03  0.91275939302E+03 -0.58573442579E+03  0.12827830987E+04  0.50400001928E-02 0. -1.
</event>
<event>
 5   0  0.2085063E-05  0.2214046E+04  0.7818609E-02  0.8512605E-01
        1   -1    0    0  501    0  0.00000000000E+00  0.00000000000E+00  0.19472285624E+04  0.19472285624E+04  0.50400001928E-02 0. -1.
       -1   -1    0    0    0  501  0.00000000000E+00  0.00000000000E+00 -0.62935572052E+03  0.62935572054E+03  0.50400001928E-02 0.  1.
    10030    2    1    2    0    0  0.00000000000E+00  0.00000000000E+00  0.13178728419E+04  0.25765842830E+04  0.22140455596E+04 0.  0.
        1    1    3    3  502    0 -0.43057163118E+03  0.96654225216E+03  0.10376519565E+04  0.14819977860E+04  0.50400001928E-02 0. -1.
       -1    1    3    3    0  502  0.43057163118E+03 -0.96654225216E+03  0.28022088540E+03  0.10945864970E+04  0.50400001928E-02 0.  1.
</event>
<event>
 5   0  0.2031860E-05  0.2314789E+04  0.7818609E-02  0.8472113E-01
        1   -1    0    0  501    0  0.00000000000E+00  0.00000000000E+00  0.94135008701E+03  0.94135008702E+03  0.50400001928E-02 0. -1.
       -1   -1    0    0    0  501  0.00000000000E+00  0.00000000000E+00 -0.14230224272E+04  0.14230224272E+04  0.50400001928E-02 0.  1.
    10030    2    1    2    0    0  0.00000000000E+00  0.00000000000E+00 -0.48167234021E+03  0.23643725142E+04  0.23147892221E+04 0.  0.
        4    1    3    3  502    0 -0.16227877953E+03  0.63642337845E+03 -0.12142402895E+04  0.13804891207E+04  0.12699999809E+01 0.  1.
       -4    1    3    3    0  502  0.16227877953E+03 -0.63642337845E+03  0.73256794926E+03  0.98388339355E+03  0.12699999809E+01 0. -1.
</event>
<event>
 5   0  0.4505107E-05  0.2312438E+04  0.7818609E-02  0.8473033E-01
        2   -1    0    0  501    0  0.00000000000E+00  0.00000000000E+00  0.99165483875E+03  0.99165483876E+03  0.25500000920E-02 0.  1.
       -2   -1    0    0    0  501  0.00000000000E+00  0.00000000000E+00 -0.13480926424E+04  0.13480926424E+04  0.25500000920E-02 0. -1.
    10030    2    1    2    0    0  0.00000000000E+00  0.00000000000E+00 -0.35643780364E+03  0.23397474811E+04  0.23124381868E+04 0.  0.
        4    1    3    3  502    0  0.29429397570E+03 -0.77567427021E+03 -0.99306281392E+03  0.12940072963E+04  0.12699999809E+01 0. -1.
       -4    1    3    3    0  502 -0.29429397570E+03  0.77567427021E+03  0.63662501028E+03  0.10457401848E+04  0.12699999809E+01 0.  1.
</event>
<event>
 5   0  0.2085063E-05  0.2378355E+04  0.7818609E-02  0.8447652E-01
        1   -1    0    0  501    0  0.00000000000E+00  0.00000000000E+00  0.94798432892E+03  0.94798432894E+03  0.50400001928E-02 0.  1.
       -1   -1    0    0    0  501  0.00000000000E+00  0.00000000000E+00 -0.14917364537E+04  0.14917364538E+04  0.50400001928E-02 0. -1.
    10030    2    1    2    0    0  0.00000000000E+00  0.00000000000E+00 -0.54375212482E+03  0.24397207827E+04  0.23783547095E+04 0.  0.
        1    1    3    3  502    0 -0.56980844173E+03  0.37930924490E+03  0.72562629007E+03  0.99754231810E+03  0.50400001928E-02 0.  1.
       -1    1    3    3    0  502  0.56980844173E+03 -0.37930924490E+03 -0.12693784149E+04  0.14421784646E+04  0.50400001928E-02 0. -1.
</event>
<event>
 5   0  0.4605516E-05  0.2252895E+04  0.7818609E-02  0.8496729E-01
       -2   -1    0    0    0  501  0.00000000000E+00  0.00000000000E+00  0.87507725623E+03  0.87507725623E+03  0.25500000920E-02 0.  1.
        2   -1    0    0  501    0  0.00000000000E+00  0.00000000000E+00 -0.14500249035E+04  0.14500249035E+04  0.25500000920E-02 0. -1.
    10030    2    1    2    0    0  0.00000000000E+00  0.00000000000E+00 -0.57494764726E+03  0.23251021597E+04  0.22528948613E+04 0.  0.
        1    1    3    3  502    0  0.67033693186E+03 -0.51515650547E+03 -0.10557426497E+04  0.13525274008E+04  0.50400001928E-02 0. -1.
       -1    1    3    3    0  502 -0.67033693186E+03  0.51515650547E+03  0.48079500246E+03  0.97257475896E+03  0.50400001928E-02 0.  1.
</event>
<event>
 5   0  0.1604500E-05  0.2285926E+04  0.7818609E-02  0.8483491E-01
       -3   -1    0    0    0  501  0.00000000000E+00  0.00000000000E+00  0.12095043001E+04  0.12095043044E+04  0.10100000352E+00 0.  1.
        3   -1    0    0  501    0  0.00000000000E+00  0.00000000000E+00 -0.10800828554E+04  0.10800828601E+04  0.10100000352E+00 0. -1.
    10030    2    1    2    0    0  0.00000000000E+00  0.00000000000E+00  0.12942144472E+03  0.22895871645E+04  0.22859263928E+04 0.  0.
        5    1    3    3  502    0 -0.10212796182E+04 -0.21051305777E+03  0.53345053538E+03  0.11712896182E+04  0.46999998093E+01 0.  1.
       -5    1    3    3    0  502  0.10212796182E+04  0.21051305777E+03 -0.40402909066E+03  0.11182975463E+04  0.46999998093E+01 0. -1.
</event>
<event>
 5   0  0.2043885E-05  0.2297235E+04  0.7818609E-02  0.8479012E-01
        1   -1    0    0  501    0  0.00000000000E+00  0.00000000000E+00  0.12098200670E+04  0.12098200670E+04  0.50400001928E-02 0.  1.
       -1   -1    0    0    0  501  0.00000000000E+00  0.00000000000E+00 -0.10905107975E+04  0.10905107975E+04  0.50400001928E-02 0. -1.
    10030    2    1    2    0    0  0.00000000000E+00  0.00000000000E+00  0.11930926946E+03  0.23003308645E+04  0.22972347256E+04 0.  0.
        5    1    3    3  502    0 -0.52812929467E+03 -0.61727464957E+02  0.10791471141E+04  0.12030425661E+04  0.46999998093E+01 0.  1.
       -5    1    3    3    0  502  0.52812929467E+03  0.61727464957E+02 -0.95983784467E+03  0.10972882984E+04  0.46999998093E+01 0. -1.
</event>
<event>
 5   0  0.4602447E-05  0.2358919E+04  0.7818609E-02  0.8455046E-01
        2   -1    0    0  501    0  0.00000000000E+00  0.00000000000E+00  0.71034029018E+03  0.71034029018E+03  0.25500000920E-02 0. -1.
       -2   -1    0    0    0  501  0.00000000000E+00  0.00000000000E+00 -0.19583916370E+04  0.19583916370E+04  0.25500000920E-02 0.  1.
    10030    2    1    2    0    0  0.00000000000E+00  0.00000000000E+00 -0.12480513468E+04  0.26687319272E+04  0.23589188063E+04 0.  0.
        3    1    3    3  502    0  0.18010800415E+03  0.88782446337E+03  0.23045453488E+03  0.93476225521E+03  0.10100000352E+00 0. -1.
       -3    1    3    3    0  502 -0.18010800415E+03 -0.88782446337E+03 -0.14785058817E+04  0.17339696720E+04  0.10100000352E+00 0.  1.
</event>
<event>
 5   0  0.2085063E-05  0.2202761E+04  0.7818609E-02  0.8517280E-01
       -1   -1    0    0    0  501  0.00000000000E+00  0.00000000000E+00  0.14235949848E+04  0.14235949848E+04  0.50400001928E-02 0.  1.
        1   -1    0    0  501    0  0.00000000000E+00  0.00000000000E+00 -0.85209547820E+03  0.85209547821E+03  0.50400001928E-02 0. -1.
    10030    2    1    2    0    0  0.00000000000E+00  0.00000000000E+00  0.57149950656E+03  0.22756904630E+04  0.22027608579E+04 0.  0.
        1    1    3    3  502    0 -0.10576730062E+04 -0.11363162280E+03  0.58060130747E+03  0.12118919968E+04  0.50400001928E-02 0. -1.
       -1    1    3    3    0  502  0.10576730062E+04  0.11363162280E+03 -0.91018009157E+01  0.10637984661E+04  0.50400001928E-02 0.  1.
</event>
<event>
 5   0  0.2043885E-05  0.2290658E+04  0.7818609E-02  0.8481614E-01
        1   -1    0    0  501    0  0.00000000000E+00  0.00000000000E+00  0.16702149523E+04  0.16702149523E+04  0.50400001928E-02 0. -1.
       -1   -1    0    0    0  501  0.00000000000E+00  0.00000000000E+00 -0.78539525342E+03  0.78539525343E+03  0.50400001928E-02 0.  1.
    10030    2    1    2    0    0  0.00000000000E+00  0.00000000000E+00  0.88481969886E+03  0.24556102057E+04  0.22906583296E+04 0.  0.
        5    1    3    3  502    0 -0.57933498367E+03  0.25690385917E+03 -0.58029519305E+03  0.85929809568E+03  0.46999998093E+01 0.  1.
       -5    1    3    3    0  502  0.57933498367E+03 -0.25690385917E+03  0.14651148919E+04  0.15963121100E+04  0.46999998093E+01 0. -1.
</event>
<event>
 5   0  0.4436695E-05  0.2230512E+04  0.7818609E-02  0.8505835E-01
        2   -1    0    0  501    0  0.00000000000E+00  0.00000000000E+00  0.20622253846E+04  0.20622253846E+04  0.25500000920E-02 0. -1.
       -2   -1    0    0    0  501  0.00000000000E+00  0.00000000000E+00 -0.60313296031E+03  0.60313296031E+03  0.25500000920E-02 0.  1.
    10030    2    1    2    0    0  0.00000000000E+00  0.00000000000E+00  0.14590924243E+04  0.26653583449E+04  0.22305121394E+04 0.  0.
        5    1    3    3  502    0  0.96496224638E+03  0.27544187059E+03  0.14811364129E+03  0.10143865643E+04  0.46999998093E+01 0.  1.
       -5    1    3    3    0  502 -0.96496224638E+03 -0.27544187059E+03  0.13109787830E+04  0.16509717806E+04  0.46999998093E+01 0. -1.
</event>
<event>
 5   0  0.2085063E-05  0.2290320E+04  0.7818609E-02  0.8481747E-01
        1   -1    0    0  501    0  0.00000000000E+00  0.00000000000E+00  0.18635495604E+04  0.18635495604E+04  0.50400001928E-02 0. -1.
       -1   -1    0    0    0  501  0.00000000000E+00  0.00000000000E+00 -0.70370652777E+03  0.70370652779E+03  0.50400001928E-02 0.  1.
    10030    2    1    2    0    0  0.00000000000E+00  0.00000000000E+00  0.11598430327E+04  0.25672560882E+04  0.22903204933E+04 0.  0.
        1    1    3    3  502    0 -0.13434083418E+03 -0.38589234166E+03 -0.61921287794E+03  0.74187933474E+03  0.50400001928E-02 0.  1.
       -1    1    3    3    0  502  0.13434083418E+03  0.38589234166E+03  0.17790559106E+04  0.18253767535E+04  0.50400001928E-02 0. -1.
</event>
<event>
 5   0  0.2043885E-05  0.2302806E+04  0.7818609E-02  0.8476816E-01
        1   -1    0    0  501    0  0.00000000000E+00  0.00000000000E+00  0.17197856767E+04  0.17197856767E+04  0.50400001928E-02 0.  1.
       -1   -1    0    0    0  501  0.00000000000E+00  0.00000000000E+00 -0.77086847553E+03  0.77086847555E+03  0.50400001928E-02 0. -1.
    10030    2    1    2    0    0  0.00000000000E+00  0.00000000000E+00  0.94891720117E+03  0.24906541523E+04  0.23028057346E+04 0.  0.
        5    1    3    3  502    0  0.71149766795E+03 -0.16534057371E+03 -0.48816633198E+03  0.87857549163E+03  0.46999998093E+01 0. -1.
       -5    1    3    3    0  502 -0.71149766795E+03  0.16534057371E+03  0.14370835331E+04  0.16120786606E+04  0.46999998093E+01 0.  1.
</event>
<event>
 5   0  0.1968318E-05  0.2259453E+04  0.7818609E-02  0.8494082E-01
       -1   -1    0    0    0  501  0.00000000000E+00  0.00000000000E+00  0.11486243077E+04  0.11486243077E+04  0.50400001928E-02 0.  1.
        1   -1    0    0  501    0  0.00000000000E+00  0.00000000000E+00 -0.11111396015E+04  0.11111396015E+04  0.50400001928E-02 0. -1.
    10030    2    1    2    0    0  0.00000000000E+00  0.00000000000E+00  0.37484706235E+02  0.22597639092E+04  0.22594529918E+04 0.  0.
        3    1    3    3  502    0  0.42444018665E+03  0.58364297155E+03 -0.85056846145E+03  0.11154619259E+04  0.10100000352E+00 0. -1.
       -3    1    3    3    0  502 -0.42444018665E+03 -0.58364297155E+03  0.88805316768E+03  0.11443019834E+04  0.10100000352E+00 0.  1.
</event>
<event>
 5   0  0.4505107E-05  0.2294801E+04  0.7818609E-02  0.8479974E-01
       -2   -1    0    0    0  501  0.00000000000E+00  0.00000000000E+00  0.13604677027E+04  0.13604677027E+04  0.25500000920E-02 0. -1.
        2   -1    0    0  501    0  0.00000000000E+00  0.00000000000E+00 -0.96770205124E+03  0.96770205125E+03  0.25500000920E-02 0.  1.
    10030    2    1    2    0    0  0.00000000000E+00  0.00000000000E+00  0.39276565144E+03  0.23281697539E+04  0.22948005460E+04 0.  0.
        4    1    3    3  502    0 -0.68758392115E+03  0.82580168327E+03  0.60448284307E+03  0.12329319483E+04  0.12699999809E+01 0. -1.
       -4    1    3    3    0  502  0.68758392115E+03 -0.82580168327E+03 -0.21171719163E+03  0.10952378056E+04  0.12699999809E+01 0.  1.
</event>
<event>
 5   0  0.2042951E-05  0.2296833E+04  0.7818609E-02  0.8479171E-01
        1   -1    0    0  501    0  0.00000000000E+00  0.00000000000E+00  0.17188518192E+04  0.17188518192E+04  0.50400001928E-02 0. -1.
       -1   -1    0    0    0  501  0.00000000000E+00  0.00000000000E+00 -0.76729156555E+03  0.76729156556E+03  0.50400001928E-02 0.  1.
    10030    2    1    2    0    0  0.00000000000E+00  0.00000000000E+00  0.95156025366E+03  0.24861433848E+04  0.22968330399E+04 0.  0.
        2    1    3    3  502    0  0.94611097889E+03  0.13480789444E+03 -0.21354645453E+03  0.97923502849E+03  0.25500000920E-02 0.  1.
       -2    1    3    3    0  502 -0.94611097889E+03 -0.13480789444E+03  0.11651067082E+04  0.15069083563E+04  0.25500000920E-02 0. -1.
</event>
<event>
 5   0  0.1604500E-05  0.2263412E+04  0.7818609E-02  0.8492488E-01
        3   -1    0    0  501    0  0.00000000000E+00  0.00000000000E+00  0.20544826562E+04  0.20544826587E+04  0.10100000352E+00 0. -1.
       -3   -1    0    0    0  501  0.00000000000E+00  0.00000000000E+00 -0.62339728319E+03  0.62339729137E+03  0.10100000352E+00 0.  1.
    10030    2    1    2    0    0  0.00000000000E+00  0.00000000000E+00  0.14310853730E+04  0.26778799500E+04  0.22634123977E+04 0.  0.
        1    1    3    3  502    0 -0.10835123036E+04  0.16171063076E+03  0.10514512012E+04  0.15184527878E+04  0.50400001928E-02 0. -1.
       -1    1    3    3    0  502  0.10835123036E+04 -0.16171063076E+03  0.37963417176E+03  0.11594271622E+04  0.50400001928E-02 0.  1.
</event>
<event>
 5   0  0.4605516E-05  0.2313041E+04  0.7818609E-02  0.8472797E-01
        2   -1    0    0  501    0  0.00000000000E+00  0.00000000000E+00  0.13767974436E+04  0.13767974436E+04  0.25500000920E-02 0.  1.
       -2   -1    0    0    0  501  0.00000000000E+00  0.00000000000E+00 -0.97148588407E+03  0.97148588408E+03  0.25500000920E-02 0. -1.
    10030    2    1    2    0    0  0.00000000000E+00  0.00000000000E+00  0.40531155951E+03  0.23482833277E+04  0.23130406669E+04 0.  0.
        1    1    3    3  502    0 -0.23901649359E+03 -0.51940407394E+03  0.12232739066E+04  0.13502994212E+04  0.50400001928E-02 0.  1.
       -1    1    3    3    0  502  0.23901649359E+03  0.51940407394E+03 -0.81796234712E+03  0.99798390646E+03  0.50400001928E-02 0. -1.
</event>
<event>
 5   0  0.4505107E-05  0.2307194E+04  0.7818609E-02  0.8475090E-01
        2   -1    0    0  501    0  0.00000000000E+00  0.00000000000E+00  0.24556469899E+04  0.24556469899E+04  0.25500000920E-02 0.  1.
       -2   -1    0    0    0  501  0.00000000000E+00  0.00000000000E+00 -0.54192887027E+03  0.54192887027E+03  0.25500000920E-02 0. -1.
    10030    2    1    2    0    0  0.00000000000E+00  0.00000000000E+00  0.19137181197E+04  0.29975758602E+04  0.23071939659E+04 0.  0.
        4    1    3    3  502    0 -0.28141929672E+03  0.10665676218E+04  0.13955701757E+04  0.17788707206E+04  0.12699999809E+01 0. -1.
       -4    1    3    3    0  502  0.28141929672E+03 -0.10665676218E+04  0.51814794399E+03  0.12187051396E+04  0.12699999809E+01 0.  1.
</event>
<event>
 5   0  0.4505107E-05  0.2291551E+04  0.7818609E-02  0.8481260E-01
       -2   -1    0    0    0  501  0.00000000000E+00  0.00000000000E+00  0.51322312823E+03  0.51322312823E+03  0.25500000920E-02 0.  1.
        2   -1    0    0  501    0  0.00000000000E+00  0.00000000000E+00 -0.25579555032E+04  0.25579555032E+04  0.25500000920E-02 0. -1.
    10030    2    1    2    0    0  0.00000000000E+00  0.00000000000E+00 -0.20447323749E+04  0.30711786314E+04  0.22915513743E+04 0.  0.
        4    1    3    3  502    0 -0.57533725801E+03  0.94698493956E+03 -0.14131193554E+04  0.17957453499E+04  0.12699999809E+01 0. -1.
       -4    1    3    3    0  502  0.57533725801E+03 -0.94698493956E+03 -0.63161301957E+03  0.12754332815E+04  0.12699999809E+01 0.  1.
</event>
<event>
 5   0  0.4505107E-05  0.2308283E+04  0.7818609E-02  0.8474662E-01
        2   -1    0    0  501    0  0.00000000000E+00  0.00000000000E+00  0.20982595642E+04  0.20982595642E+04  0.25500000920E-02 0.  1.
       -2   -1    0    0    0  501  0.00000000000E+00  0.00000000000E+00 -0.63483209702E+03  0.63483209702E+03  0.25500000920E-02 0. -1.
    10030    2    1    2    0    0  0.00000000000E+00  0.00000000000E+00  0.14634274672E+04  0.27330916612E+04  0.23082829283E+04 0.  0.
        4    1    3    3  502    0 -0.69893392392E+03  0.80840119713E+03  0.21557724375E+03  0.10901817676E+04  0.12699999809E+01 0. -1.
       -4    1    3    3    0  502  0.69893392392E+03 -0.80840119713E+03  0.12478502234E+04  0.16429098936E+04  0.12699999809E+01 0.  1.
</event>
<event>
 5   0  0.4602447E-05  0.2385310E+04  0.7818609E-02  0.8445024E-01
       -2   -1    0    0    0  501  0.00000000000E+00  0.00000000000E+00  0.90932166574E+03  0.90932166574E+03  0.25500000920E-02 0.  1.
        2   -1    0    0  501    0  0.00000000000E+00  0.00000000000E+00 -0.15642713228E+04  0.15642713228E+04  0.25500000920E-02 0. -1.
    10030    2    1    2    0    0  0.00000000000E+00  0.00000000000E+00 -0.65494965707E+03  0.24735929886E+04  0.23853098792E+04 0.  0.
        3    1    3    3  502    0  0.10640902096E+04 -0.41672438007E+03 -0.68139598702E+03  0.13305065519E+04  0.10100000352E+00 0.  1.
       -3    1    3    3    0  502 -0.10640902096E+04  0.41672438007E+03  0.26446329949E+02  0.11430864367E+04  0.10100000352E+00 0. -1.
</event>
<event>
 5   0  0.1968318E-05  0.2337983E+04  0.7818609E-02  0.8463094E-01
        1   -1    0    0  501    0  0.00000000000E+00  0.00000000000E+00  0.98370951073E+03  0.98370951074E+03  0.50400001928E-02 0.  1.
       -1   -1    0    0    0  501  0.00000000000E+00  0.00000000000E+00 -0.13891712394E+04  0.13891712395E+04  0.50400001928E-02 0. -1.
    10030    2    1    2    0    0  0.00000000000E+00  0.00000000000E+00 -0.40546172871E+03  0.23728807502E+04  0.23379828573E+04 0.  0.
        3    1    3    3  502    0 -0.51670029439E+03 -0.33208091625E+02  0.86098714510E+03  0.10046794742E+04  0.10100000352E+00 0.  1.
       -3    1    3    3    0  502  0.51670029439E+03  0.33208091625E+02 -0.12664488738E+04  0.13682012760E+04  0.10100000352E+00 0. -1.
</event>
<event>
 5   0  0.2031860E-05  0.2252269E+04  0.7818609E-02  0.8496982E-01
        1   -1    0    0  501    0  0.00000000000E+00  0.00000000000E+00  0.48012269366E+03  0.48012269369E+03  0.50400001928E-02 0.  1.
       -1   -1    0    0    0  501  0.00000000000E+00  0.00000000000E+00 -0.26413651310E+04  0.26413651310E+04  0.50400001928E-02 0. -1.
    10030    2    1    2    0    0  0.00000000000E+00  0.00000000000E+00 -0.21612424374E+04  0.31214878247E+04  0.22522693815E+04 0.  0.
        4    1    3    3  502    0  0.37682031928E+03  0.81298303924E+03 -0.13529626682E+03  0.90622385084E+03  0.12699999809E+01 0.  1.
       -4    1    3    3    0  502 -0.37682031928E+03 -0.81298303924E+03 -0.20259461705E+04  0.22152639739E+04  0.12699999809E+01 0. -1.
</event>
<event>
 5   0  0.4602447E-05  0.2332792E+04  0.7818609E-02  0.8465103E-01
       -2   -1    0    0    0  501  0.00000000000E+00  0.00000000000E+00  0.66358769313E+03  0.66358769314E+03  0.25500000920E-02 0. -1.
        2   -1    0    0  501    0  0.00000000000E+00  0.00000000000E+00 -0.20501884801E+04  0.20501884801E+04  0.25500000920E-02 0.  1.
    10030    2    1    2    0    0  0.00000000000E+00  0.00000000000E+00 -0.13866007870E+04  0.27137761732E+04  0.23327921845E+04 0.  0.
        3    1    3    3  502    0  0.91418396818E+03 -0.60383814280E+03 -0.11588117299E+04  0.15947405638E+04  0.10100000352E+00 0.  1.
       -3    1    3    3    0  502 -0.91418396818E+03  0.60383814280E+03 -0.22778905705E+03  0.11190356094E+04  0.10100000352E+00 0. -1.
</event>
<event>
 5   0  0.4798609E-05  0.2087165E+04  0.7818609E-02  0.8566919E-01
        2   -1    0    0  501    0  0.00000000000E+00  0.00000000000E+00  0.11484049564E+04  0.11484049564E+04  0.25500000920E-02 0.  1.
       -2   -1    0    0    0  501  0.00000000000E+00  0.00000000000E+00 -0.94832752628E+03  0.94832752628E+03  0.25500000920E-02 0. -1.
    10030    2    1    2    0    0  0.00000000000E+00  0.00000000000E+00  0.20007743010E+03  0.20967324827E+04  0.20871646140E+04 0.  0.
        2    1    3    3  502    0  0.60166355002E+02  0.98257611117E+02  0.11419961248E+04  0.11477934036E+04  0.25500000920E-02 0.  1.
       -2    1    3    3    0  502 -0.60166355002E+02 -0.98257611117E+02 -0.94191869465E+03  0.94893907906E+03  0.25500000920E-02 0. -1.
</event>
<event>
 5   0  0.2085063E-05  0.2301756E+04  0.7818609E-02  0.8477229E-01
        1   -1    0    0  501    0  0.00000000000E+00  0.00000000000E+00  0.16966742914E+04  0.16966742914E+04  0.50400001928E-02 0. -1.
       -1   -1    0    0    0  501  0.00000000000E+00  0.00000000000E+00 -0.78065702901E+03  0.78065702902E+03  0.50400001928E-02 0.  1.
    10030    2    1    2    0    0  0.00000000000E+00  0.00000000000E+00  0.91601726242E+03  0.24773313205E+04  0.23017564698E+04 0.  0.
        1    1    3    3  502    0  0.59406666643E+03 -0.73536029027E+03 -0.24845229754E+03  0.97744488584E+03  0.50400001928E-02 0.  1.
       -1    1    3    3    0  502 -0.59406666643E+03  0.73536029027E+03  0.11644695600E+04  0.14998864346E+04  0.50400001928E-02 0. -1.
</event>
<event>
 5   0  0.4605516E-05  0.2124581E+04  0.7818609E-02  0.8550492E-01
        2   -1    0    0  501    0  0.00000000000E+00  0.00000000000E+00  0.20605515517E+04  0.20605515517E+04  0.25500000920E-02 0.  1.
       -2   -1    0    0    0  501  0.00000000000E+00  0.00000000000E+00 -0.54765016770E+03  0.54765016771E+03  0.25500000920E-02 0. -1.
    10030    2    1    2    0    0  0.00000000000E+00  0.00000000000E+00  0.15129013840E+04  0.26082017195E+04  0.21245812791E+04 0.  0.
        1    1    3    3  502    0  0.65960615130E+03  0.30685518243E+03  0.17067520462E+04  0.18553282526E+04  0.50400001928E-02 0.  1.
       -1    1    3    3    0  502 -0.65960615130E+03 -0.30685518243E+03 -0.19385066215E+03  0.75287346683E+03  0.50400001928E-02 0. -1.
</event>
<event>
 5   0  0.2042951E-05  0.2287762E+04  0.7818609E-02  0.8482762E-01
        1   -1    0    0  501    0  0.00000000000E+00  0.00000000000E+00  0.15612942677E+04  0.15612942677E+04  0.50400001928E-02 0. -1.
       -1   -1    0    0    0  501  0.00000000000E+00  0.00000000000E+00 -0.83806385944E+03  0.83806385946E+03  0.50400001928E-02 0.  1.
    10030    2    1    2    0    0  0.00000000000E+00  0.00000000000E+00  0.72323040828E+03  0.23993581272E+04  0.22877624875E+04 0.  0.
        2    1    3    3  502    0 -0.41548618764E+03 -0.54945643277E+03  0.13193599132E+04  0.14883688132E+04  0.25500000920E-02 0. -1.
       -2    1    3    3    0  502  0.41548618764E+03  0.54945643277E+03 -0.59612950487E+03  0.91098931400E+03  0.25500000920E-02 0.  1.
</event>
<event>
 5   0  0.4436695E-05  0.2294278E+04  0.7818609E-02  0.8480180E-01
        2   -1    0    0  501    0  0.00000000000E+00  0.00000000000E+00  0.10008957089E+04  0.10008957089E+04  0.25500000920E-02 0.  1.
       -2   -1    0    0    0  501  0.00000000000E+00  0.00000000000E+00 -0.13147506935E+04  0.13147506935E+04  0.25500000920E-02 0. -1.
    10030    2    1    2    0    0  0.00000000000E+00  0.00000000000E+00 -0.31385498457E+03  0.23156464024E+04  0.22942783853E+04 0.  0.
        5    1    3    3  502    0 -0.50463812253E+03 -0.37823546362E+03  0.81021645296E+03  0.10267397388E+04  0.46999998093E+01 0.  1.
       -5    1    3    3    0  502  0.50463812253E+03  0.37823546362E+03 -0.11240714375E+04  0.12889066635E+04  0.46999998093E+01 0. -1.
</event>
<event>
 5   0  0.2042951E-05  0.2304377E+04  0.7818609E-02  0.8476197E-01
        1   -1    0    0  501    0  0.00000000000E+00  0.00000000000E+00  0.24101532738E+04  0.24101532738E+04  0.50400001928E-02 0. -1.
       -1   -1    0    0    0  501  0.00000000000E+00  0.00000000000E+00 -0.55081067362E+03  0.55081067364E+03  0.50400001928E-02 0.  1.
    10030    2    1    2    0    0  0.00000000000E+00  0.00000000000E+00  0.18593426002E+04  0.29609639475E+04  0.23043768340E+04 0.  0.
        2    1    3    3  502    0  0.59612532933E+03 -0.11868709322E+03  0.21873852901E+04  0.22702657205E+04  0.25500000920E-02 0. -1.
       -2    1    3    3    0  502 -0.59612532933E+03  0.11868709322E+03 -0.32804268987E+03  0.69069822698E+03  0.25500000920E-02 0.  1.
</event>
<event>
 5   0  0.1968318E-05  0.2305774E+04  0.7818609E-02  0.8475648E-01
       -1   -1    0    0    0  501  0.00000000000E+00  0.00000000000E+00  0.75497605777E+03  0.75497605779E+03  0.50400001928E-02 0. -1.
        1   -1    0    0  501    0  0.00000000000E+00  0.00000000000E+00 -0.17605174287E+04  0.17605174287E+04  0.50400001928E-02 0.  1.
    10030    2    1    2    0    0  0.00000000000E+00  0.00000000000E+00 -0.10055413709E+04  0.25154934865E+04  0.23057740635E+04 0.  0.
        3    1    3    3  502    0  0.22974119275E+03  0.11089579149E+04 -0.26731706420E+03  0.11636266994E+04  0.10100000352E+00 0. -1.
       -3    1    3    3    0  502 -0.22974119275E+03 -0.11089579149E+04 -0.73822430669E+03  0.13518667870E+04  0.10100000352E+00 0.  1.
</event>
<event>
 5   0  0.2043885E-05  0.2148847E+04  0.7818609E-02  0.8540026E-01
       -1   -1    0    0    0  501  0.00000000000E+00  0.00000000000E+00  0.52651954083E+03  0.52651954085E+03  0.50400001928E-02 0.  1.
        1   -1    0    0  501    0  0.00000000000E+00  0.00000000000E+00 -0.21924834824E+04  0.21924834824E+04  0.50400001928E-02 0. -1.
    10030    2    1    2    0    0  0.00000000000E+00  0.00000000000E+00 -0.16659639416E+04  0.27190030233E+04  0.21488465710E+04 0.  0.
        5    1    3    3  502    0  0.17034309692E+03 -0.92975868246E+03 -0.18667709256E+03  0.96350319416E+03  0.46999998093E+01 0.  1.
       -5    1    3    3    0  502 -0.17034309692E+03  0.92975868246E+03 -0.14792868490E+04  0.17554998291E+04  0.46999998093E+01 0. -1.
</event>
<event>
 5   0  0.4605516E-05  0.2299470E+04  0.7818609E-02  0.8478130E-01
        2   -1    0    0  501    0  0.00000000000E+00  0.00000000000E+00  0.10158392425E+04  0.10158392425E+04  0.25500000920E-02 0. -1.
       -2   -1    0    0    0  501  0.00000000000E+00  0.00000000000E+00 -0.13012797078E+04  0.13012797078E+04  0.25500000920E-02 0.  1.
    10030    2    1    2    0    0  0.00000000000E+00  0.00000000000E+00 -0.28544046532E+03  0.23171189503E+04  0.22994703674E+04 0.  0.
        1    1    3    3  502    0  0.66541583721E+02 -0.11002729936E+04 -0.47212757711E+03  0.11991383957E+04  0.50400001928E-02 0.  1.
       -1    1    3    3    0  502 -0.66541583721E+02  0.11002729936E+04  0.18668711179E+03  0.11179805546E+04  0.50400001928E-02 0. -1.
</event>
<event>
 5   0  0.1968318E-05  0.2294722E+04  0.7818609E-02  0.8480005E-01
       -1   -1    0    0    0  501  0.00000000000E+00  0.00000000000E+00  0.12606024837E+04  0.12606024837E+04  0.50400001928E-02 0.  1.
        1   -1    0    0  501    0  0.00000000000E+00  0.00000000000E+00 -0.10442919304E+04  0.10442919305E+04  0.50400001928E-02 0. -1.
    10030    2    1    2    0    0  0.00000000000E+00  0.00000000000E+00  0.21631055327E+03  0.23048944142E+04  0.22947217707E+04 0.  0.
        3    1    3    3  502    0  0.90206088621E+03 -0.50599918442E+03  0.60703400738E+03  0.11992661562E+04  0.10100000352E+00 0.  1.
       -3    1    3    3    0  502 -0.90206088621E+03  0.50599918442E+03 -0.39072345411E+03  0.11056282580E+04  0.10100000352E+00 0. -1.
</event>
<event>
 5   0  0.4798609E-05  0.2294070E+04  0.7818609E-02  0.8480263E-01
       -2   -1    0    0    0  501  0.00000000000E+00  0.00000000000E+00  0.80303500432E+03  0.80303500433E+03  0.25500000920E-02 0.  1.
        2   -1    0    0  501    0  0.00000000000E+00  0.00000000000E+00 -0.16383961159E+04  0.16383961159E+04  0.25500000920E-02 0. -1.
    10030    2    1    2    0    0  0.00000000000E+00  0.00000000000E+00 -0.83536111162E+03  0.24414311203E+04  0.22940701228E+04 0.  0.
        2    1    3    3  502    0 -0.60883803464E+02 -0.98779034708E+03  0.19944105904E+03  0.10095609656E+04  0.25500000920E-02 0.  1.
       -2    1    3    3    0  502  0.60883803464E+02  0.98779034708E+03 -0.10348021707E+04  0.14318701546E+04  0.25500000920E-02 0. -1.
</event>
<event>
 5   0  0.2031860E-05  0.2295131E+04  0.7818609E-02  0.8479844E-01
       -1   -1    0    0    0  501  0.00000000000E+00  0.00000000000E+00  0.14991977149E+04  0.14991977149E+04  0.50400001928E-02 0.  1.
        1   -1    0    0  501    0  0.00000000000E+00  0.00000000000E+00 -0.87840715990E+03  0.87840715991E+03  0.50400001928E-02 0. -1.
    10030    2    1    2    0    0  0.00000000000E+00  0.00000000000E+00  0.62079055496E+03  0.23776048748E+04  0.22951305034E+04 0.  0.
        4    1    3    3  502    0  0.45651246725E+03  0.78412655036E+03  0.10382425299E+04  0.13788427189E+04  0.12699999809E+01 0.  1.
       -4    1    3    3    0  502 -0.45651246725E+03 -0.78412655036E+03 -0.41745197492E+03  0.99876215587E+03  0.12699999809E+01 0. -1.
</event>
<event>
 5   0  0.2043885E-05  0.2455192E+04  0.7818609E-02  0.8419125E-01
       -1   -1    0    0    0  501  0.00000000000E+00  0.00000000000E+00  0.65268693239E+03  0.65268693241E+03  0.50400001928E-02 0. -1.
        1   -1    0    0  501    0  0.00000000000E+00  0.00000000000E+00 -0.23089054235E+04  0.23089054235E+04  0.50400001928E-02 0.  1.
    10030    2    1    2    0    0  0.00000000000E+00  0.00000000000E+00 -0.16562184911E+04  0.29615923559E+04  0.24551923738E+04 0.  0.
        5    1    3    3  502    0 -0.35466889605E+03  0.88623558829E+03 -0.17591697192E+04  0.20014753895E+04  0.46999998093E+01 0.  1.
       -5    1    3    3    0  502  0.35466889605E+03 -0.88623558829E+03  0.10295122812E+03  0.96011696639E+03  0.46999998093E+01 0. -1.
</event>
<event>
 5   0  0.4436695E-05  0.2298801E+04  0.7818609E-02  0.8478394E-01
        2   -1    0    0  501    0  0.00000000000E+00  0.00000000000E+00  0.19478963732E+04  0.19478963732E+04  0.25500000920E-02 0. -1.
       -2   -1    0    0    0  501  0.00000000000E+00  0.00000000000E+00 -0.67822990391E+03  0.67822990392E+03  0.25500000920E-02 0.  1.
    10030    2    1    2    0    0  0.00000000000E+00  0.00000000000E+00  0.12696664692E+04  0.26261262771E+04  0.22988010527E+04 0.  0.
        5    1    3    3  502    0  0.61101446030E+03 -0.97294657616E+03  0.67333310541E+03  0.13316768646E+04  0.46999998093E+01 0. -1.
       -5    1    3    3    0  502 -0.61101446030E+03  0.97294657616E+03  0.59633336383E+03  0.12944494125E+04  0.46999998093E+01 0.  1.
</event>
<event>
 5   0  0.2043885E-05  0.2241005E+04  0.7818609E-02  0.8501552E-01
        1   -1    0    0  501    0  0.00000000000E+00  0.00000000000E+00  0.13644255366E+04  0.13644255366E+04  0.50400001928E-02 0. -1.
       -1   -1    0    0    0  501  0.00000000000E+00  0.00000000000E+00 -0.92018666945E+03  0.92018666946E+03  0.50400001928E-02 0.  1.
    10030    2    1    2    0    0  0.00000000000E+00  0.00000000000E+00  0.44423886714E+03  0.22846122061E+04  0.22410053014E+04 0.  0.
        5    1    3    3  502    0  0.10314256828E+04 -0.20688876653E+02 -0.22369663662E+03  0.10556179441E+04  0.46999998093E+01 0.  1.
       -5    1    3    3    0  502 -0.10314256828E+04  0.20688876653E+02  0.66793550376E+03  0.12289942619E+04  0.46999998093E+01 0. -1.
</event>
<event>
 5   0  0.2042951E-05  0.2219255E+04  0.7818609E-02  0.8510456E-01
        1   -1    0    0  501    0  0.00000000000E+00  0.00000000000E+00  0.12382193556E+04  0.12382193556E+04  0.50400001928E-02 0.  1.
       -1   -1    0    0    0  501  0.00000000000E+00  0.00000000000E+00 -0.99438996290E+03  0.99438996291E+03  0.50400001928E-02 0. -1.
    10030    2    1    2    0    0  0.00000000000E+00  0.00000000000E+00  0.24382939269E+03  0.22326093185E+04  0.22192547389E+04 0.  0.
        2    1    3    3  502    0 -0.76365728272E+03 -0.44610558064E+03 -0.55225992108E+03  0.10426761985E+04  0.25500000920E-02 0. -1.
       -2    1    3    3    0  502  0.76365728272E+03  0.44610558064E+03  0.79608931377E+03  0.11899331200E+04  0.25500000920E-02 0.  1.
</event>
<event>
 5   0  0.4605516E-05  0.2325083E+04  0.7818609E-02  0.8468096E-01
       -2   -1    0    0    0  501  0.00000000000E+00  0.00000000000E+00  0.64578464859E+03  0.64578464859E+03  0.25500000920E-02 0.  1.
        2   -1    0    0  501    0  0.00000000000E+00  0.00000000000E+00 -0.20928074015E+04  0.20928074015E+04  0.25500000920E-02 0. -1.
    10030    2    1    2    0    0  0.00000000000E+00  0.00000000000E+00 -0.14470227529E+04  0.27385920501E+04  0.23250831317E+04 0.  0.
        1    1    3    3  502    0 -0.63870142483E+03  0.51534386742E+03 -0.16933480575E+04  0.18817402732E+04  0.50400001928E-02 0. -1.
       -1    1    3    3    0  502  0.63870142483E+03 -0.51534386742E+03  0.24632530467E+03  0.85685177686E+03  0.50400001928E-02 0.  1.
</event>
<event>
 5   0  0.2031860E-05  0.2248392E+04  0.7818609E-02  0.8498552E-01
       -1   -1    0    0    0  501  0.00000000000E+00  0.00000000000E+00  0.90498037607E+03  0.90498037609E+03  0.50400001928E-02 0. -1.
        1   -1    0    0  501    0  0.00000000000E+00  0.00000000000E+00 -0.13965128313E+04  0.13965128313E+04  0.50400001928E-02 0.  1.
    10030    2    1    2    0    0  0.00000000000E+00  0.00000000000E+00 -0.49153245519E+03  0.23014932074E+04  0.22483920541E+04 0.  0.
        4    1    3    3  502    0 -0.77152731725E+03  0.21158043920E+02 -0.10824524674E+04  0.13294386113E+04  0.12699999809E+01 0.  1.
       -4    1    3    3    0  502  0.77152731725E+03 -0.21158043920E+02  0.59092001219E+03  0.97205459609E+03  0.12699999809E+01 0. -1.
</event>
<event>
 5   0  0.4605516E-05  0.2259425E+04  0.7818609E-02  0.8494093E-01
       -2   -1    0    0    0  501  0.00000000000E+00  0.00000000000E+00  0.70039770575E+03  0.70039770575E+03  0.25500000920E-02 0. -1.
        2   -1    0    0  501    0  0.00000000000E+00  0.00000000000E+00 -0.18221802349E+04  0.18221802349E+04  0.25500000920E-02 0.  1.
    10030    2    1    2    0    0  0.00000000000E+00  0.00000000000E+00 -0.11217825292E+04  0.25225779407E+04  0.22594254632E+04 0.  0.
        1    1    3    3  502    0  0.11067345314E+04 -0.37098762753E+02 -0.31120827245E+03  0.11502557238E+04  0.50400001928E-02 0.  1.
       -1    1    3    3    0  502 -0.11067345314E+04  0.37098762753E+02 -0.81057425671E+03  0.13723222169E+04  0.50400001928E-02 0. -1.
</event>
<event>
 5   0  0.4605516E-05  0.2232334E+04  0.7818609E-02  0.8505089E-01
        2   -1    0    0  501    0  0.00000000000E+00  0.00000000000E+00  0.11821213082E+04  0.11821213082E+04  0.25500000920E-02 0. -1.
       -2   -1    0    0    0  501  0.00000000000E+00  0.00000000000E+00 -0.10538923129E+04  0.10538923129E+04  0.25500000920E-02 0.  1.
    10030    2    1    2    0    0  0.00000000000E+00  0.00000000000E+00  0.12822899531E+03  0.22360136210E+04  0.22323338098E+04 0.  0.
        1    1    3    3  502    0 -0.16561331013E+03 -0.88772487351E+03  0.72120298810E+03  0.11556889589E+04  0.50400001928E-02 0.  1.
       -1    1    3    3    0  502  0.16561331013E+03  0.88772487351E+03 -0.59297399279E+03  0.10803246622E+04  0.50400001928E-02 0. -1.
</event>
<event>
 5   0  0.2031860E-05  0.2292890E+04  0.7818609E-02  0.8480730E-01
       -1   -1    0    0    0  501  0.00000000000E+00  0.00000000000E+00  0.79679148250E+03  0.79679148251E+03  0.50400001928E-02 0.  1.
        1   -1    0    0  501    0  0.00000000000E+00  0.00000000000E+00 -0.16495364401E+04  0.16495364401E+04  0.50400001928E-02 0. -1.
    10030    2    1    2    0    0  0.00000000000E+00  0.00000000000E+00 -0.85274495757E+03  0.24463279226E+04  0.22928903904E+04 0.  0.
        4    1    3    3  502    0 -0.15741795499E+03  0.20110603673E+03 -0.16187996984E+04  0.16388221768E+04  0.12699999809E+01 0. -1.
       -4    1    3    3    0  502  0.15741795499E+03 -0.20110603673E+03  0.76605474088E+03  0.80750574579E+03  0.12699999809E+01 0.  1.
</event>
<event>
 5   0  0.1968318E-05  0.2280966E+04  0.7818609E-02  0.8485464E-01
       -1   -1    0    0    0  501  0.00000000000E+00  0.00000000000E+00  0.76784882438E+03  0.76784882440E+03  0.50400001928E-02 0. -1.
        1   -1    0    0  501    0  0.00000000000E+00  0.00000000000E+00 -0.16939556308E+04  0.16939556308E+04  0.50400001928E-02 0.  1.
    10030    2    1    2    0    0  0.00000000000E+00  0.00000000000E+00 -0.92610680639E+03  0.24618044552E+04  0.22809663212E+04 0.  0.
        3    1    3    3  502    0 -0.69985769687E+03 -0.14935080070E+03 -0.14214864778E+04  0.15914553950E+04  0.10100000352E+00 0.  1.
       -3    1    3    3    0  502  0.69985769687E+03  0.14935080070E+03  0.49537967139E+03  0.87034906018E+03  0.10100000352E+00 0. -1.
</event>
<event>
 5   0  0.4505107E-05  0.2302334E+04  0.7818609E-02  0.8477002E-01
        2   -1    0    0  501    0  0.00000000000E+00  0.00000000000E+00  0.21547035509E+04  0.21547035509E+04  0.25500000920E-02 0. -1.
       -2   -1    0    0    0  501  0.00000000000E+00  0.00000000000E+00 -0.61501973448E+03  0.61501973449E+03  0.25500000920E-02 0.  1.
    10030    2    1    2    0    0  0.00000000000E+00  0.00000000000E+00  0.15396838164E+04  0.27697232853E+04  0.23023337775E+04 0.  0.
        4    1    3    3  502    0 -0.27484106776E+03  0.10428622362E+04  0.28551497448E+03  0.11156252371E+04  0.12699999809E+01 0. -1.
       -4    1    3    3    0  502  0.27484106776E+03 -0.10428622362E+04  0.12541688419E+04  0.16540980482E+04  0.12699999809E+01 0.  1.
</event>
<event>
 5   0  0.2031860E-05  0.2306762E+04  0.7818609E-02  0.8475260E-01
       -1   -1    0    0    0  501  0.00000000000E+00  0.00000000000E+00  0.78706717851E+03  0.78706717853E+03  0.50400001928E-02 0.  1.
        1   -1    0    0  501    0  0.00000000000E+00  0.00000000000E+00 -0.16901838978E+04  0.16901838978E+04  0.50400001928E-02 0. -1.
    10030    2    1    2    0    0  0.00000000000E+00  0.00000000000E+00 -0.90311671928E+03  0.24772510763E+04  0.23067624686E+04 0.  0.
        4    1    3    3  502    0  0.79866365867E+03  0.67688457971E+03  0.68206857264E+02  0.10491378185E+04  0.12699999809E+01 0.  1.
       -4    1    3    3    0  502 -0.79866365867E+03 -0.67688457971E+03 -0.97132357655E+03  0.14281132578E+04  0.12699999809E+01 0. -1.
</event>
<event>
 5   0  0.2085063E-05  0.2284250E+04  0.7818609E-02  0.8484157E-01
        1   -1    0    0  501    0  0.00000000000E+00  0.00000000000E+00  0.89292360083E+03  0.89292360084E+03  0.50400001928E-02 0.  1.
       -1   -1    0    0    0  501  0.00000000000E+00  0.00000000000E+00 -0.14608744197E+04  0.14608744198E+04  0.50400001928E-02 0. -1.
    10030    2    1    2    0    0  0.00000000000E+00  0.00000000000E+00 -0.56795081892E+03  0.23537980206E+04  0.22842497650E+04 0.  0.
        1    1    3    3  502    0  0.65514576937E+03 -0.91823816621E+03 -0.99436390375E+02  0.11323713634E+04  0.50400001928E-02 0. -1.
       -1    1    3    3    0  502 -0.65514576937E+03  0.91823816621E+03 -0.46851442854E+03  0.12214266571E+04  0.50400001928E-02 0.  1.
</event>
<event>
 5   0  0.2043885E-05  0.2294370E+04  0.7818609E-02  0.8480144E-01
        1   -1    0    0  501    0  0.00000000000E+00  0.00000000000E+00  0.15450921691E+04  0.15450921691E+04  0.50400001928E-02 0. -1.
       -1   -1    0    0    0  501  0.00000000000E+00  0.00000000000E+00 -0.85175060420E+03  0.85175060422E+03  0.50400001928E-02 0.  1.
    10030    2    1    2    0    0  0.00000000000E+00  0.00000000000E+00  0.69334156488E+03  0.23968427733E+04  0.22943697946E+04 0.  0.
        5    1    3    3  502    0  0.86793076986E+03 -0.74913597183E+03  0.30617647963E+03  0.11867074839E+04  0.46999998093E+01 0.  1.
       -5    1    3    3    0  502 -0.86793076986E+03  0.74913597183E+03  0.38716508525E+03  0.12101352895E+04  0.46999998093E+01 0. -1.
</event>
<event>
 5   0  0.4505107E-05  0.2300653E+04  0.7818609E-02  0.8477664E-01
        2   -1    0    0  501    0  0.00000000000E+00  0.00000000000E+00  0.16556319487E+04  0.16556319487E+04  0.25500000920E-02 0.  1.
       -2   -1    0    0    0  501  0.00000000000E+00  0.00000000000E+00 -0.79924211777E+03  0.79924211778E+03  0.25500000920E-02 0. -1.
    10030    2    1    2    0    0  0.00000000000E+00  0.00000000000E+00  0.85638983094E+03  0.24548740665E+04  0.23006527638E+04 0.  0.
        4    1    3    3  502    0 -0.71148732530E+03 -0.11774846251E+03 -0.52807821043E+03  0.89383842149E+03  0.12699999809E+01 0. -1.
       -4    1    3    3    0  502  0.71148732530E+03  0.11774846251E+03  0.13844680414E+04  0.15610356450E+04  0.12699999809E+01 0.  1.
</event>
<event>
 5   0  0.4798609E-05  0.2420665E+04  0.7818609E-02  0.8431807E-01
       -2   -1    0    0    0  501  0.00000000000E+00  0.00000000000E+00  0.11559766567E+04  0.11559766567E+04  0.25500000920E-02 0.  1.
        2   -1    0    0  501    0  0.00000000000E+00  0.00000000000E+00 -0.12672441799E+04  0.12672441799E+04  0.25500000920E-02 0. -1.
    10030    2    1    2    0    0  0.00000000000E+00  0.00000000000E+00 -0.11126752319E+03  0.24232208365E+04  0.24206649419E+04 0.  0.
        2    1    3    3  502    0  0.49077432669E+03 -0.53316890853E+03 -0.10260778693E+04  0.12561704974E+04  0.25500000920E-02 0. -1.
       -2    1    3    3    0  502 -0.49077432669E+03  0.53316890853E+03  0.91481034608E+03  0.11670503391E+04  0.25500000920E-02 0.  1.
</event>
<event>
 5   0  0.2043885E-05  0.2298417E+04  0.7818609E-02  0.8478545E-01
        1   -1    0    0  501    0  0.00000000000E+00  0.00000000000E+00  0.12554079874E+04  0.12554079874E+04  0.50400001928E-02 0. -1.
       -1   -1    0    0    0  501  0.00000000000E+00  0.00000000000E+00 -0.10519930365E+04  0.10519930365E+04  0.50400001928E-02 0.  1.
    10030    2    1    2    0    0  0.00000000000E+00  0.00000000000E+00  0.20341495085E+03  0.23074010239E+04  0.22984172474E+04 0.  0.
        5    1    3    3  502    0 -0.26866161682E+03  0.91450298237E+03 -0.54280158539E+03  0.10968821360E+04  0.46999998093E+01 0.  1.
       -5    1    3    3    0  502  0.26866161682E+03 -0.91450298237E+03  0.74621653625E+03  0.12105188880E+04  0.46999998093E+01 0. -1.
</event>
<event>
 5   0  0.2085063E-05  0.2287441E+04  0.7818609E-02  0.8482889E-01
        1   -1    0    0  501    0  0.00000000000E+00  0.00000000000E+00  0.22699068698E+04  0.22699068698E+04  0.50400001928E-02 0.  1.
       -1   -1    0    0    0  501  0.00000000000E+00  0.00000000000E+00 -0.57627760918E+03  0.57627760920E+03  0.50400001928E-02 0. -1.
    10030    2    1    2    0    0  0.00000000000E+00  0.00000000000E+00  0.16936292606E+04  0.28461844790E+04  0.22874409317E+04 0.  0.
        1    1    3    3  502    0  0.35769677758E+03 -0.25114361215E+03  0.21619019713E+04  0.22056382822E+04  0.50400001928E-02 0.  1.
       -1    1    3    3    0  502 -0.35769677758E+03  0.25114361215E+03 -0.46827271066E+03  0.64054619676E+03  0.50400001928E-02 0. -1.
</event>
<event>
 5   0  0.4602447E-05  0.2682891E+04  0.7818609E-02  0.8340578E-01
        2   -1    0    0  501    0  0.00000000000E+00  0.00000000000E+00  0.95895916246E+03  0.95895916247E+03  0.25500000920E-02 0.  1.
       -2   -1    0    0    0  501  0.00000000000E+00  0.00000000000E+00 -0.18764891254E+04  0.18764891254E+04  0.25500000920E-02 0. -1.
    10030    2    1    2    0    0  0.00000000000E+00  0.00000000000E+00 -0.91752996292E+03  0.28354482878E+04  0.26828913061E+04 0.  0.
        3    1    3    3  502    0 -0.38205300337E+01 -0.10042538106E+04 -0.13986816616E+04  0.17218741862E+04  0.10100000352E+00 0. -1.
       -3    1    3    3    0  502  0.38205300337E+01  0.10042538106E+04  0.48115169868E+03  0.11135741016E+04  0.10100000352E+00 0.  1.
</event>
<event>
 5   0  0.4505107E-05  0.2148763E+04  0.7818609E-02  0.8540062E-01
       -2   -1    0    0    0  501  0.00000000000E+00  0.00000000000E+00  0.60793407965E+03  0.60793407966E+03  0.25500000920E-02 0.  1.
        2   -1    0    0  501    0  0.00000000000E+00  0.00000000000E+00 -0.18987183886E+04  0.18987183887E+04  0.25500000920E-02 0. -1.
    10030    2    1    2    0    0  0.00000000000E+00  0.00000000000E+00 -0.12907843090E+04  0.25066524683E+04  0.21487630080E+04 0.  0.
        4    1    3    3  502    0  0.23088540758E+02 -0.81344247292E+03  0.17292197703E+03  0.83194071935E+03  0.12699999809E+01 0.  1.
       -4    1    3    3    0  502 -0.23088540758E+02  0.81344247292E+03 -0.14637062860E+04  0.16747117490E+04  0.12699999809E+01 0. -1.
</event>
<event>
 5   0  0.4505107E-05  0.2286009E+04  0.7818609E-02  0.8483458E-01
       -2   -1    0    0    0  501  0.00000000000E+00  0.00000000000E+00  0.10972535702E+04  0.10972535703E+04  0.25500000920E-02 0.  1.
        2   -1    0    0  501    0  0.00000000000E+00  0.00000000000E+00 -0.11906628535E+04  0.11906628535E+04  0.25500000920E-02 0. -1.
    10030    2    1    2    0    0  0.00000000000E+00  0.00000000000E+00 -0.93409283268E+02  0.22879164238E+04  0.22860088075E+04 0.  0.
        4    1    3    3  502    0  0.26207403979E+03  0.77184033626E+03  0.75523620502E+03  0.11112171909E+04  0.12699999809E+01 0.  1.
       -4    1    3    3    0  502 -0.26207403979E+03 -0.77184033626E+03 -0.84864548829E+03  0.11766992329E+04  0.12699999809E+01 0. -1.
</event>
<event>
 5   0  0.1968318E-05  0.2385322E+04  0.7818609E-02  0.8445019E-01
       -1   -1    0    0    0  501  0.00000000000E+00  0.00000000000E+00  0.11854630379E+04  0.11854630380E+04  0.50400001928E-02 0. -1.
        1   -1    0    0  501    0  0.00000000000E+00  0.00000000000E+00 -0.11999027363E+04  0.11999027363E+04  0.50400001928E-02 0.  1.
    10030    2    1    2    0    0  0.00000000000E+00  0.00000000000E+00 -0.14439698349E+02  0.23853657743E+04  0.23853220688E+04 0.  0.
        3    1    3    3  502    0 -0.11845762002E+04 -0.94862659803E+02  0.93879157540E+02  0.11920708891E+04  0.10100000352E+00 0. -1.
       -3    1    3    3    0  502  0.11845762002E+04  0.94862659803E+02 -0.10831885589E+03  0.11932948852E+04  0.10100000352E+00 0.  1.
</event>
<event>
 5   0  0.1968318E-05  0.2350414E+04  0.7818609E-02  0.8458304E-01
       -1   -1    0    0    0  501  0.00000000000E+00  0.00000000000E+00  0.58849463131E+03  0.58849463134E+03  0.50400001928E-02 0. -1.
        1   -1    0    0  501    0  0.00000000000E+00  0.00000000000E+00 -0.23468558042E+04  0.23468558042E+04  0.50400001928E-02 0.  1.
    10030    2    1    2    0    0  0.00000000000E+00  0.00000000000E+00 -0.17583611729E+04  0.29353504355E+04  0.23504144667E+04 0.  0.
        3    1    3    3  502    0 -0.37124531841E+03  0.10518821303E+04 -0.13411474406E+04  0.17444069394E+04  0.10100000352E+00 0.  1.
       -3    1    3    3    0  502  0.37124531841E+03 -0.10518821303E+04 -0.41721373223E+03  0.11909434961E+04  0.10100000352E+00 0. -1.
</event>
<event>
 5   0  0.2085063E-05  0.2313597E+04  0.7818609E-02  0.8472579E-01
        1   -1    0    0  501    0  0.00000000000E+00  0.00000000000E+00  0.49908030073E+03  0.49908030076E+03  0.50400001928E-02 0.  1.
       -1   -1    0    0    0  501  0.00000000000E+00  0.00000000000E+00 -0.26812964610E+04  0.26812964610E+04  0.50400001928E-02 0. -1.
    10030    2    1    2    0    0  0.00000000000E+00  0.00000000000E+00 -0.21822161603E+04  0.31803767618E+04  0.23135965458E+04 0.  0.
        1    1    3    3  502    0 -0.73381090798E+03 -0.73127408327E+03 -0.17986731062E+04  0.20756842671E+04  0.50400001928E-02 0. -1.
       -1    1    3    3    0  502  0.73381090798E+03  0.73127408327E+03 -0.38354305409E+03  0.11046924947E+04  0.50400001928E-02 0.  1.
</event>
<event>
 5   0  0.2042951E-05  0.2290430E+04  0.7818609E-02  0.8481704E-01
        1   -1    0    0  501    0  0.00000000000E+00  0.00000000000E+00  0.21011397314E+04  0.21011397314E+04  0.50400001928E-02 0.  1.
       -1   -1    0    0    0  501  0.00000000000E+00  0.00000000000E+00 -0.62419355658E+03  0.62419355660E+03  0.50400001928E-02 0. -1.
    10030    2    1    2    0    0  0.00000000000E+00  0.00000000000E+00  0.14769461748E+04  0.27253332880E+04  0.22904304240E+04 0.  0.
        2    1    3    3  502    0 -0.55291791677E+03  0.91709861530E+03  0.12214079836E+04  0.16243846697E+04  0.25500000920E-02 0.  1.
       -2    1    3    3    0  502  0.55291791677E+03 -0.91709861530E+03  0.25553819118E+03  0.11009486182E+04  0.25500000920E-02 0. -1.
</event>
<event>
 5   0  0.4602447E-05  0.2237250E+04  0.7818609E-02  0.8503082E-01
        2   -1    0    0  501    0  0.00000000000E+00  0.00000000000E+00  0.19883634130E+04  0.19883634130E+04  0.25500000920E-02 0.  1.
       -2   -1    0    0    0  501  0.00000000000E+00  0.00000000000E+00 -0.62932236369E+03  0.62932236370E+03  0.25500000920E-02 0. -1.
    10030    2    1    2    0    0  0.00000000000E+00  0.00000000000E+00  0.13590410493E+04  0.26176857767E+04  0.22372497071E+04 0.  0.
        3    1    3    3  502    0  0.45955274202E+03  0.86164493224E+03  0.41120222374E+02  0.97740042707E+03  0.10100000352E+00 0. -1.
       -3    1    3    3    0  502 -0.45955274202E+03 -0.86164493224E+03  0.13179208270E+04  0.16402853497E+04  0.10100000352E+00 0.  1.
</event>
<event>
 5   0  0.4602447E-05  0.2292425E+04  0.7818609E-02  0.8480914E-01
        2   -1    0    0  501    0  0.00000000000E+00  0.00000000000E+00  0.14721628460E+04  0.14721628460E+04  0.25500000920E-02 0.  1.
       -2   -1    0    0    0  501  0.00000000000E+00  0.00000000000E+00 -0.89243021087E+03  0.89243021087E+03  0.25500000920E-02 0. -1.
    10030    2    1    2    0    0  0.00000000000E+00  0.00000000000E+00  0.57973263517E+03  0.23645930569E+04  0.22924245672E+04 0.  0.
        3    1    3    3  502    0 -0.72640373799E+03  0.80873125979E+03  0.66475541979E+03  0.12742089387E+04  0.10100000352E+00 0. -1.
       -3    1    3    3    0  502  0.72640373799E+03 -0.80873125979E+03 -0.85022784618E+02  0.10903841182E+04  0.10100000352E+00 0.  1.
</event>
<event>
 5   0  0.1968318E-05  0.2303071E+04  0.7818609E-02  0.8476711E-01
        1   -1    0    0  501    0  0.00000000000E+00  0.00000000000E+00  0.14953908020E+04  0.14953908021E+04  0.50400001928E-02 0.  1.
       -1   -1    0    0    0  501  0.00000000000E+00  0.00000000000E+00 -0.88674737946E+03  0.88674737947E+03  0.50400001928E-02 0. -1.
    10030    2    1    2    0    0  0.00000000000E+00  0.00000000000E+00  0.60864342259E+03  0.23821381815E+04  0.23030708847E+04 0.  0.
        3    1    3    3  502    0 -0.29736014267E+03 -0.19050973388E+03  0.14379963462E+04  0.14807263471E+04  0.10100000352E+00 0.  1.
       -3    1    3    3    0  502  0.29736014267E+03  0.19050973388E+03 -0.82935292360E+03  0.90141183442E+03  0.10100000352E+00 0. -1.
</event>
<event>
 5   0  0.4798609E-05  0.2294106E+04  0.7818609E-02  0.8480249E-01
        2   -1    0    0  501    0  0.00000000000E+00  0.00000000000E+00  0.15606047406E+04  0.15606047406E+04  0.25500000920E-02 0.  1.
       -2   -1    0    0    0  501  0.00000000000E+00  0.00000000000E+00 -0.84309011835E+03  0.84309011836E+03  0.25500000920E-02 0. -1.
    10030    2    1    2    0    0  0.00000000000E+00  0.00000000000E+00  0.71751462229E+03  0.24036948590E+04  0.22941058698E+04 0.  0.
        2    1    3    3  502    0  0.10702521996E+04 -0.24462908944E+03  0.10545596382E+02  0.10979045367E+04  0.25500000920E-02 0. -1.
       -2    1    3    3    0  502 -0.10702521996E+04  0.24462908944E+03  0.70696902591E+03  0.13057903223E+04  0.25500000920E-02 0.  1.
</event>
<event>
 5   0  0.4605516E-05  0.2113142E+04  0.7818609E-02  0.8555476E-01
       -2   -1    0    0    0  501  0.00000000000E+00  0.00000000000E+00  0.12335675748E+04  0.12335675748E+04  0.25500000920E-02 0. -1.
        2   -1    0    0  501    0  0.00000000000E+00  0.00000000000E+00 -0.90497054168E+03  0.90497054169E+03  0.25500000920E-02 0.  1.
    10030    2    1    2    0    0  0.00000000000E+00  0.00000000000E+00  0.32859703311E+03  0.21385381165E+04  0.21131420363E+04 0.  0.
        1    1    3    3  502    0  0.87211081913E+03 -0.90155150885E+02  0.76099208298E+03  0.11609539967E+04  0.50400001928E-02 0. -1.
       -1    1    3    3    0  502 -0.87211081913E+03  0.90155150885E+02 -0.43239504987E+03  0.97758411978E+03  0.50400001928E-02 0.  1.
</event>
<event>
 5   0  0.4505107E-05  0.2308926E+04  0.7818609E-02  0.8474410E-01
       -2   -1    0    0    0  501  0.00000000000E+00  0.00000000000E+00  0.16583312678E+04  0.16583312678E+04  0.25500000920E-02 0. -1.
        2   -1    0    0  501    0  0.00000000000E+00  0.00000000000E+00 -0.80369021318E+03  0.80369021318E+03  0.25500000920E-02 0.  1.
    10030    2    1    2    0    0  0.00000000000E+00  0.00000000000E+00  0.85464105460E+03  0.24620214810E+04  0.23089258196E+04 0.  0.
        4    1    3    3  502    0  0.63095795935E+01 -0.99404576613E+03  0.10532850258E+04  0.14483016794E+04  0.12699999809E+01 0. -1.
       -4    1    3    3    0  502 -0.63095795935E+01  0.99404576613E+03 -0.19864397121E+03  0.10137198016E+04  0.12699999809E+01 0.  1.
</event>
<event>
 5   0  0.2043885E-05  0.2284799E+04  0.7818609E-02  0.8483939E-01
        1   -1    0    0  501    0  0.00000000000E+00  0.00000000000E+00  0.15165523646E+04  0.15165523647E+04  0.50400001928E-02 0. -1.
       -1   -1    0    0    0  501  0.00000000000E+00  0.00000000000E+00 -0.86055517400E+03  0.86055517402E+03  0.50400001928E-02 0.  1.
    10030    2    1    2    0    0  0.00000000000E+00  0.00000000000E+00  0.65599719064E+03  0.23771075387E+04  0.22847993208E+04 0.  0.
        5    1    3    3  502    0 -0.19664512364E+03  0.97932958209E+03  0.90474042948E+03  0.13477140163E+04  0.46999998093E+01 0. -1.
       -5    1    3    3    0  502  0.19664512364E+03 -0.97932958209E+03 -0.24874323885E+03  0.10293935224E+04  0.46999998093E+01 0.  1.
</event>
<event>
 5   0  0.4605516E-05  0.2300703E+04  0.7818609E-02  0.8477644E-01
        2   -1    0    0  501    0  0.00000000000E+00  0.00000000000E+00  0.19941131270E+04  0.19941131270E+04  0.25500000920E-02 0. -1.
       -2   -1    0    0    0  501  0.00000000000E+00  0.00000000000E+00 -0.66360775468E+03  0.66360775469E+03  0.25500000920E-02 0.  1.
    10030    2    1    2    0    0  0.00000000000E+00  0.00000000000E+00  0.13305053724E+04  0.26577208817E+04  0.23007033141E+04 0.  0.
        1    1    3    3  502    0  0.31203484402E+03 -0.57929918641E+01 -0.61376920957E+03  0.68855787359E+03  0.50400001928E-02 0.  1.
       -1    1    3    3    0  502 -0.31203484402E+03  0.57929918641E+01  0.19442745819E+04  0.19691630081E+04  0.50400001928E-02 0. -1.
</event>
<event>
 5   0  0.4602447E-05  0.2303172E+04  0.7818609E-02  0.8476672E-01
        2   -1    0    0  501    0  0.00000000000E+00  0.00000000000E+00  0.15637772932E+04  0.15637772932E+04  0.25500000920E-02 0. -1.
       -2   -1    0    0    0  501  0.00000000000E+00  0.00000000000E+00 -0.84804263685E+03  0.84804263685E+03  0.25500000920E-02 0.  1.
    10030    2    1    2    0    0  0.00000000000E+00  0.00000000000E+00  0.71573465636E+03  0.24118199301E+04  0.23031715691E+04 0.  0.
        3    1    3    3  502    0 -0.60963234801E+03  0.66893378256E+03 -0.38778026414E+03  0.98463066611E+03  0.10100000352E+00 0.  1.
       -3    1    3    3    0  502  0.60963234801E+03 -0.66893378256E+03  0.11035149205E+04  0.14271892640E+04  0.10100000352E+00 0. -1.
</event>
<event>
 5   0  0.2031860E-05  0.2241071E+04  0.7818609E-02  0.8501525E-01
        1   -1    0    0  501    0  0.00000000000E+00  0.00000000000E+00  0.13255036631E+04  0.13255036631E+04  0.50400001928E-02 0. -1.
       -1   -1    0    0    0  501  0.00000000000E+00  0.00000000000E+00 -0.94726220853E+03  0.94726220854E+03  0.50400001928E-02 0.  1.
    10030    2    1    2    0    0  0.00000000000E+00  0.00000000000E+00  0.37824145453E+03  0.22727658716E+04  0.22410707506E+04 0.  0.
        4    1    3    3  502    0  0.81652249245E+03  0.28794616796E+03  0.91050067163E+03  0.12564374486E+04  0.12699999809E+01 0. -1.
       -4    1    3    3    0  502 -0.81652249245E+03 -0.28794616796E+03 -0.53225921710E+03  0.10163284230E+04  0.12699999809E+01 0.  1.
</event>
<event>
 5   0  0.4436695E-05  0.2286601E+04  0.7818609E-02  0.8483223E-01
       -2   -1    0    0    0  501  0.00000000000E+00  0.00000000000E+00  0.91144938022E+03  0.91144938023E+03  0.25500000920E-02 0. -1.
        2   -1    0    0  501    0  0.00000000000E+00  0.00000000000E+00 -0.14341290151E+04  0.14341290151E+04  0.25500000920E-02 0.  1.
    10030    2    1    2    0    0  0.00000000000E+00  0.00000000000E+00 -0.52267963486E+03  0.23455783953E+04  0.22866009726E+04 0.  0.
        5    1    3    3  502    0 -0.64923835874E+02  0.36991396129E+03 -0.13690355371E+04  0.14196238357E+04  0.46999998093E+01 0.  1.
       -5    1    3    3    0  502  0.64923835874E+02 -0.36991396129E+03  0.84635590220E+03  0.92595455958E+03  0.46999998093E+01 0. -1.
</event>
<event>
 5   0  0.4798609E-05  0.2111744E+04  0.7818609E-02  0.8556088E-01
        2   -1    0    0  501    0  0.00000000000E+00  0.00000000000E+00  0.11026007835E+04  0.11026007835E+04  0.25500000920E-02 0. -1.
       -2   -1    0    0    0  501  0.00000000000E+00  0.00000000000E+00 -0.10111234263E+04  0.10111234263E+04  0.25500000920E-02 0.  1.
    10030    2    1    2    0    0  0.00000000000E+00  0.00000000000E+00  0.91477357232E+02  0.21137242098E+04  0.21117438122E+04 0.  0.
        2    1    3    3  502    0  0.75385849335E+03 -0.56993007125E+03 -0.42559842396E+03  0.10364636668E+04  0.25500000920E-02 0.  1.
       -2    1    3    3    0  502 -0.75385849335E+03  0.56993007125E+03  0.51707578119E+03  0.10772605430E+04  0.25500000920E-02 0. -1.
</event>
<event>
 5   0  0.4798609E-05  0.2301159E+04  0.7818609E-02  0.8477464E-01
       -2   -1    0    0    0  501  0.00000000000E+00  0.00000000000E+00  0.22143876909E+04  0.22143876909E+04  0.25500000920E-02 0. -1.
        2   -1    0    0  501    0  0.00000000000E+00  0.00000000000E+00 -0.59783240136E+03  0.59783240136E+03  0.25500000920E-02 0.  1.
    10030    2    1    2    0    0  0.00000000000E+00  0.00000000000E+00  0.16165552895E+04  0.28122200923E+04  0.23011585871E+04 0.  0.
        2    1    3    3  502    0  0.27010779427E+03 -0.85994998661E+03  0.16821869239E+04  0.19084614345E+04  0.25500000920E-02 0. -1.
       -2    1    3    3    0  502 -0.27010779427E+03  0.85994998661E+03 -0.65631634403E+02  0.90375865774E+03  0.25500000920E-02 0.  1.
</event>
<event>
 5   0  0.1968318E-05  0.2340529E+04  0.7818609E-02  0.8462110E-01
        1   -1    0    0  501    0  0.00000000000E+00  0.00000000000E+00  0.22276901713E+04  0.22276901713E+04  0.50400001928E-02 0. -1.
       -1   -1    0    0    0  501  0.00000000000E+00  0.00000000000E+00 -0.61477084921E+03  0.61477084923E+03  0.50400001928E-02 0.  1.
    10030    2    1    2    0    0  0.00000000000E+00  0.00000000000E+00  0.16129193221E+04  0.28424610205E+04  0.23405289816E+04 0.  0.
        3    1    3    3  502    0  0.73779328523E+03  0.57746376453E+03  0.16580632920E+04  0.19044624495E+04  0.10100000352E+00 0. -1.
       -3    1    3    3    0  502 -0.73779328523E+03 -0.57746376453E+03 -0.45143969901E+02  0.93799857105E+03  0.10100000352E+00 0.  1.
</event>
<event>
 5   0  0.2042951E-05  0.2263792E+04  0.7818609E-02  0.8492336E-01
       -1   -1    0    0    0  501  0.00000000000E+00  0.00000000000E+00  0.69917866111E+03  0.69917866112E+03  0.50400001928E-02 0. -1.
        1   -1    0    0  501    0  0.00000000000E+00  0.00000000000E+00 -0.18324201452E+04  0.18324201452E+04  0.50400001928E-02 0.  1.
    10030    2    1    2    0    0  0.00000000000E+00  0.00000000000E+00 -0.11332414840E+04  0.25315988063E+04  0.22637924496E+04 0.  0.
        2    1    3    3  502    0  0.46580026004E+03 -0.10248504128E+04 -0.69847020747E+03  0.13248203205E+04  0.25500000920E-02 0.  1.
       -2    1    3    3    0  502 -0.46580026004E+03  0.10248504128E+04 -0.43477127658E+03  0.12067784858E+04  0.25500000920E-02 0. -1.
</event>
<event>
 5   0  0.4605516E-05  0.2281732E+04  0.7818609E-02  0.8485159E-01
       -2   -1    0    0    0  501  0.00000000000E+00  0.00000000000E+00  0.84626663322E+03  0.84626663322E+03  0.25500000920E-02 0. -1.
        2   -1    0    0  501    0  0.00000000000E+00  0.00000000000E+00 -0.15380199543E+04  0.15380199543E+04  0.25500000920E-02 0.  1.
    10030    2    1    2    0    0  0.00000000000E+00  0.00000000000E+00 -0.69175332107E+03  0.23842865875E+04  0.22817317709E+04 0.  0.
        1    1    3    3  502    0 -0.84797528922E+03 -0.65783763755E+03  0.58508710038E+02  0.10748189232E+04  0.50400001928E-02 0.  1.
       -1    1    3    3    0  502  0.84797528922E+03  0.65783763755E+03 -0.75026203111E+03  0.13094676643E+04  0.50400001928E-02 0. -1.
</event>
<event>
 5   0  0.2042951E-05  0.2305956E+04  0.7818609E-02  0.8475576E-01
        1   -1    0    0  501    0  0.00000000000E+00  0.00000000000E+00  0.20023984560E+04  0.20023984560E+04  0.50400001928E-02 0.  1.
       -1   -1    0    0    0  501  0.00000000000E+00  0.00000000000E+00 -0.66388315535E+03  0.66388315537E+03  0.50400001928E-02 0. -1.
    10030    2    1    2    0    0  0.00000000000E+00  0.00000000000E+00  0.13385153007E+04  0.26662816114E+04  0.23059562921E+04 0.  0.
        2    1    3    3  502    0  0.48906598779E+03 -0.10428150821E+04  0.72944720259E+03  0.13633569075E+04  0.25500000920E-02 0. -1.
       -2    1    3    3    0  502 -0.48906598779E+03  0.10428150821E+04  0.60906809806E+03  0.13029247039E+04  0.25500000920E-02 0.  1.
</event>
<event>
 5   0  0.2043885E-05  0.2303164E+04  0.7818609E-02  0.8476675E-01
        1   -1    0    0  501    0  0.00000000000E+00  0.00000000000E+00  0.18404795563E+04  0.18404795563E+04  0.50400001928E-02 0. -1.
       -1   -1    0    0    0  501  0.00000000000E+00  0.00000000000E+00 -0.72054106609E+03  0.72054106610E+03  0.50400001928E-02 0.  1.
    10030    2    1    2    0    0  0.00000000000E+00  0.00000000000E+00  0.11199384902E+04  0.25610206224E+04  0.23031639991E+04 0.  0.
        5    1    3    3  502    0 -0.63742484768E+02 -0.91940703973E+03  0.13277407958E+04  0.16162580611E+04  0.46999998093E+01 0. -1.
       -5    1    3    3    0  502  0.63742484768E+02  0.91940703973E+03 -0.20780230562E+03  0.94476256133E+03  0.46999998093E+01 0.  1.
</event>
<event>
 5   0  0.4436695E-05  0.2321025E+04  0.7818609E-02  0.8469677E-01
        2   -1    0    0  501    0  0.00000000000E+00  0.00000000000E+00  0.10785211406E+04  0.10785211406E+04  0.25500000920E-02 0. -1.
       -2   -1    0    0    0  501  0.00000000000E+00  0.00000000000E+00 -0.12487364921E+04  0.12487364921E+04  0.25500000920E-02 0.  1.
    10030    2    1    2    0    0  0.00000000000E+00  0.00000000000E+00 -0.17021535148E+03  0.23272576327E+04  0.23210245201E+04 0.  0.
        5    1    3    3  502    0  0.87372298276E+03 -0.35862923816E+03 -0.76127749903E+03  0.12130837983E+04  0.46999998093E+01 0. -1.
       -5    1    3    3    0  502 -0.87372298276E+03  0.35862923816E+03  0.59106214756E+03  0.11141738344E+04  0.46999998093E+01 0.  1.
</event>
<event>
 5   0  0.2042951E-05  0.2301593E+04  0.7818609E-02  0.8477293E-01
       -1   -1    0    0    0  501  0.00000000000E+00  0.00000000000E+00  0.11967269287E+04  0.11967269288E+04  0.50400001928E-02 0.  1.
        1   -1    0    0  501    0  0.00000000000E+00  0.00000000000E+00 -0.11066285236E+04  0.11066285236E+04  0.50400001928E-02 0. -1.
    10030    2    1    2    0    0  0.00000000000E+00  0.00000000000E+00  0.90098405154E+02  0.23033554523E+04  0.23015926263E+04 0.  0.
        2    1    3    3  502    0 -0.31263743896E+03  0.57836158144E+03  0.99027664549E+03  0.11886513878E+04  0.25500000920E-02 0.  1.
       -2    1    3    3    0  502  0.31263743896E+03 -0.57836158144E+03 -0.90017824033E+03  0.11147040645E+04  0.25500000920E-02 0. -1.
</event>
<event>
 5   0  0.1968318E-05  0.2302825E+04  0.7818609E-02  0.8476808E-01
       -1   -1    0    0    0  501  0.00000000000E+00  0.00000000000E+00  0.14027871154E+04  0.14027871154E+04  0.50400001928E-02 0. -1.
        1   -1    0    0  501    0  0.00000000000E+00  0.00000000000E+00 -0.94508348766E+03  0.94508348767E+03  0.50400001928E-02 0.  1.
    10030    2    1    2    0    0  0.00000000000E+00  0.00000000000E+00  0.45770362769E+03  0.23478706030E+04  0.23028251687E+04 0.  0.
        3    1    3    3  502    0 -0.31328862428E+03 -0.51218324594E+02 -0.89958516299E+03  0.95395311968E+03  0.10100000352E+00 0.  1.
       -3    1    3    3    0  502  0.31328862428E+03  0.51218324594E+02  0.13572887907E+04  0.13939174834E+04  0.10100000352E+00 0. -1.
</event>
<event>
 5   0  0.2043885E-05  0.2301856E+04  0.7818609E-02  0.8477190E-01
        1   -1    0    0  501    0  0.00000000000E+00  0.00000000000E+00  0.20423522789E+04  0.20423522789E+04  0.50400001928E-02 0. -1.
       -1   -1    0    0    0  501  0.00000000000E+00  0.00000000000E+00 -0.64858330390E+03  0.64858330392E+03  0.50400001928E-02 0.  1.
    10030    2    1    2    0    0  0.00000000000E+00  0.00000000000E+00  0.13937689750E+04  0.26909355828E+04  0.23018562847E+04 0.  0.
        5    1    3    3  502    0 -0.64426066728E+03  0.19895152840E+03 -0.39348762106E+03  0.78071000761E+03  0.46999998093E+01 0.  1.
       -5    1    3    3    0  502  0.64426066728E+03 -0.19895152840E+03  0.17872565960E+04  0.19102255752E+04  0.46999998093E+01 0. -1.
</event>
<event>
 5   0  0.4798609E-05  0.2290394E+04  0.7818609E-02  0.8481718E-01
       -2   -1    0    0    0  501  0.00000000000E+00  0.00000000000E+00  0.65846835683E+03  0.65846835683E+03  0.25500000920E-02 0.  1.
        2   -1    0    0  501    0  0.00000000000E+00  0.00000000000E+00 -0.19917077748E+04  0.19917077748E+04  0.25500000920E-02 0. -1.
    10030    2    1    2    0    0  0.00000000000E+00  0.00000000000E+00 -0.13332394180E+04  0.26501761316E+04  0.22903943292E+04 0.  0.
        2    1    3    3  502    0  0.26102394268E+03 -0.10326286532E+04 -0.11534493476E+04  0.15700002648E+04  0.25500000920E-02 0. -1.
       -2    1    3    3    0  502 -0.26102394268E+03  0.10326286532E+04 -0.17979007042E+03  0.10801758669E+04  0.25500000920E-02 0.  1.
</event>
<event>
 5   0  0.4605516E-05  0.2280385E+04  0.7818609E-02  0.8485695E-01
        2   -1    0    0  501    0  0.00000000000E+00  0.00000000000E+00  0.27242563882E+04  0.27242563882E+04  0.25500000920E-02 0. -1.
       -2   -1    0    0    0  501  0.00000000000E+00  0.00000000000E+00 -0.47720871916E+03  0.47720871917E+03  0.25500000920E-02 0.  1.
    10030    2    1    2    0    0  0.00000000000E+00  0.00000000000E+00  0.22470476690E+04  0.32014651074E+04  0.22803849690E+04 0.  0.
        1    1    3    3  502    0  0.97475589318E+03  0.41959190222E+03  0.17088609643E+04  0.20115695889E+04  0.50400001928E-02 0. -1.
       -1    1    3    3    0  502 -0.97475589318E+03 -0.41959190222E+03  0.53818670477E+03  0.11898955185E+04  0.50400001928E-02 0.  1.
</event>
<event>
 5   0  0.1968318E-05  0.2129211E+04  0.7818609E-02  0.8548484E-01
       -1   -1    0    0    0  501  0.00000000000E+00  0.00000000000E+00  0.86714192431E+03  0.86714192433E+03  0.50400001928E-02 0.  1.
        1   -1    0    0  501    0  0.00000000000E+00  0.00000000000E+00 -0.13070350932E+04  0.13070350932E+04  0.50400001928E-02 0. -1.
    10030    2    1    2    0    0  0.00000000000E+00  0.00000000000E+00 -0.43989316885E+03  0.21741770175E+04  0.21292110519E+04 0.  0.
        3    1    3    3  502    0  0.56891464159E+03  0.51616756151E+03  0.53270309637E+03  0.93480769148E+03  0.10100000352E+00 0.  1.
       -3    1    3    3    0  502 -0.56891464159E+03 -0.51616756151E+03 -0.97259626522E+03  0.12393693260E+04  0.10100000352E+00 0. -1.
</event>
<event>
 5   0  0.4605516E-05  0.2292338E+04  0.7818609E-02  0.8480948E-01
        2   -1    0    0  501    0  0.00000000000E+00  0.00000000000E+00  0.19366777399E+04  0.19366777399E+04  0.25500000920E-02 0. -1.
       -2   -1    0    0    0  501  0.00000000000E+00  0.00000000000E+00 -0.67832824804E+03  0.67832824805E+03  0.25500000920E-02 0.  1.
    10030    2    1    2    0    0  0.00000000000E+00  0.00000000000E+00  0.12583494919E+04  0.26150059879E+04  0.22923378620E+04 0.  0.
        1    1    3    3  502    0  0.18120392154E+03 -0.72590047949E+03  0.16196908613E+04  0.17841426101E+04  0.50400001928E-02 0. -1.
       -1    1    3    3    0  502 -0.18120392154E+03  0.72590047949E+03 -0.36134136940E+03  0.83086337780E+03  0.50400001928E-02 0.  1.
</event>
<event>
 5   0  0.4605516E-05  0.2283749E+04  0.7818609E-02  0.8484356E-01
       -2   -1    0    0    0  501  0.00000000000E+00  0.00000000000E+00  0.12568420856E+04  0.12568420856E+04  0.25500000920E-02 0. -1.
        2   -1    0    0  501    0  0.00000000000E+00  0.00000000000E+00 -0.10374230797E+04  0.10374230797E+04  0.25500000920E-02 0.  1.
    10030    2    1    2    0    0  0.00000000000E+00  0.00000000000E+00  0.21941900589E+03  0.22942651653E+04  0.22837486615E+04 0.  0.
        1    1    3    3  502    0  0.96192771636E+03 -0.14346147703E+03  0.71078811482E+03  0.12046185583E+04  0.50400001928E-02 0. -1.
       -1    1    3    3    0  502 -0.96192771636E+03  0.14346147703E+03 -0.49136910893E+03  0.10896466070E+04  0.50400001928E-02 0.  1.
</event>
<event>
 5   0  0.4436695E-05  0.2614859E+04  0.7818609E-02  0.8363171E-01
       -2   -1    0    0    0  501  0.00000000000E+00  0.00000000000E+00  0.14856249199E+04  0.14856249199E+04  0.25500000920E-02 0. -1.
        2   -1    0    0  501    0  0.00000000000E+00  0.00000000000E+00 -0.11506080909E+04  0.11506080909E+04  0.25500000920E-02 0.  1.
    10030    2    1    2    0    0  0.00000000000E+00  0.00000000000E+00  0.33501682897E+03  0.26362330108E+04  0.26148591189E+04 0.  0.
        5    1    3    3  502    0 -0.82207823658E+03  0.94018977807E+03  0.55742617157E+03  0.13676678956E+04  0.46999998093E+01 0. -1.
       -5    1    3    3    0  502  0.82207823658E+03 -0.94018977807E+03 -0.22240934260E+03  0.12685651152E+04  0.46999998093E+01 0.  1.
</event>
<event>
 5   0  0.4602447E-05  0.2280733E+04  0.7818609E-02  0.8485557E-01
        2   -1    0    0  501    0  0.00000000000E+00  0.00000000000E+00  0.88479528817E+03  0.88479528818E+03  0.25500000920E-02 0. -1.
       -2   -1    0    0    0  501  0.00000000000E+00  0.00000000000E+00 -0.14697586358E+04  0.14697586358E+04  0.25500000920E-02 0.  1.
    10030    2    1    2    0    0  0.00000000000E+00  0.00000000000E+00 -0.58496334761E+03  0.23545539240E+04  0.22807327907E+04 0.  0.
        3    1    3    3  502    0  0.75710197824E+03 -0.29565683245E+03 -0.11182587974E+04  0.13824323189E+04  0.10100000352E+00 0.  1.
       -3    1    3    3    0  502 -0.75710197824E+03  0.29565683245E+03  0.53329544984E+03  0.97212160507E+03  0.10100000352E+00 0. -1.
</event>
<event>
 5   0  0.2085063E-05  0.2294744E+04  0.7818609E-02  0.8479996E-01
        1   -1    0    0  501    0  0.00000000000E+00  0.00000000000E+00  0.10219171298E+04  0.10219171298E+04  0.50400001928E-02 0. -1.
       -1   -1    0    0    0  501  0.00000000000E+00  0.00000000000E+00 -0.12882285029E+04  0.12882285029E+04  0.50400001928E-02 0.  1.
    10030    2    1    2    0    0  0.00000000000E+00  0.00000000000E+00 -0.26631137306E+03  0.23101456327E+04  0.22947442335E+04 0.  0.
        1    1    3    3  502    0  0.30041656271E+03  0.30177105767E+03  0.93942779406E+03  0.10314264214E+04  0.50400001928E-02 0. -1.
       -1    1    3    3    0  502 -0.30041656271E+03 -0.30177105767E+03 -0.12057391671E+04  0.12787192114E+04  0.50400001928E-02 0.  1.
</event>
<event>
 5   0  0.2085063E-05  0.2306461E+04  0.7818609E-02  0.8475378E-01
       -1   -1    0    0    0  501  0.00000000000E+00  0.00000000000E+00  0.94245432925E+03  0.94245432926E+03  0.50400001928E-02 0.  1.
        1   -1    0    0  501    0  0.00000000000E+00  0.00000000000E+00 -0.14111464255E+04  0.14111464255E+04  0.50400001928E-02 0. -1.
    10030    2    1    2    0    0  0.00000000000E+00  0.00000000000E+00 -0.46869209626E+03  0.23536007548E+04  0.23064614091E+04 0.  0.
        1    1    3    3  502    0  0.74014180396E+03 -0.40368107168E+03 -0.10373034817E+04  0.13366999704E+04  0.50400001928E-02 0. -1.
       -1    1    3    3    0  502 -0.74014180396E+03  0.40368107168E+03  0.56861138546E+03  0.10169007844E+04  0.50400001928E-02 0.  1.
</event>
<event>
 5   0  0.2085063E-05  0.2261865E+04  0.7818609E-02  0.8493111E-01
        1   -1    0    0  501    0  0.00000000000E+00  0.00000000000E+00  0.15179074910E+04  0.15179074910E+04  0.50400001928E-02 0. -1.
       -1   -1    0    0    0  501  0.00000000000E+00  0.00000000000E+00 -0.84261310738E+03  0.84261310739E+03  0.50400001928E-02 0.  1.
    10030    2    1    2    0    0  0.00000000000E+00  0.00000000000E+00  0.67529438366E+03  0.23605205984E+04  0.22618653786E+04 0.  0.
        1    1    3    3  502    0 -0.79047353093E+03  0.80862164559E+03  0.31983283690E+03  0.11751639938E+04  0.50400001928E-02 0.  1.
       -1    1    3    3    0  502  0.79047353093E+03 -0.80862164559E+03  0.35546154675E+03  0.11853566046E+04  0.50400001928E-02 0. -1.
</event>
<event>
 5   0  0.4436695E-05  0.2349484E+04  0.7818609E-02  0.8458662E-01
        2   -1    0    0  501    0  0.00000000000E+00  0.00000000000E+00  0.14358166752E+04  0.14358166752E+04  0.25500000920E-02 0. -1.
       -2   -1    0    0    0  501  0.00000000000E+00  0.00000000000E+00 -0.96113878599E+03  0.96113878600E+03  0.25500000920E-02 0.  1.
    10030    2    1    2    0    0  0.00000000000E+00  0.00000000000E+00  0.47467788923E+03  0.23969554612E+04  0.23494842806E+04 0.  0.
        5    1    3    3  502    0  0.32585032582E+03  0.84592312027E+03 -0.52490684829E+03  0.10475273980E+04  0.46999998093E+01 0.  1.
       -5    1    3    3    0  502 -0.32585032582E+03 -0.84592312027E+03  0.99958473752E+03  0.13494280632E+04  0.46999998093E+01 0. -1.
</event>
<event>
 5   0  0.4605516E-05  0.2288972E+04  0.7818609E-02  0.8482282E-01
        2   -1    0    0  501    0  0.00000000000E+00  0.00000000000E+00  0.82073564753E+03  0.82073564754E+03  0.25500000920E-02 0.  1.
       -2   -1    0    0    0  501  0.00000000000E+00  0.00000000000E+00 -0.15959444783E+04  0.15959444783E+04  0.25500000920E-02 0. -1.
    10030    2    1    2    0    0  0.00000000000E+00  0.00000000000E+00 -0.77520883075E+03  0.24166801258E+04  0.22889722801E+04 0.  0.
        1    1    3    3  502    0  0.66947493255E+03  0.14984189322E+02  0.59230957053E+03  0.89400885824E+03  0.50400001928E-02 0.  1.
       -1    1    3    3    0  502 -0.66947493255E+03 -0.14984189322E+02 -0.13675184013E+04  0.15226712676E+04  0.50400001928E-02 0. -1.
</event>
<event>
 5   0  0.2043885E-05  0.2271137E+04  0.7818609E-02  0.8489389E-01
       -1   -1    0    0    0  501  0.00000000000E+00  0.00000000000E+00  0.89528140550E+03  0.89528140551E+03  0.50400001928E-02 0. -1.
        1   -1    0    0  501    0  0.00000000000E+00  0.00000000000E+00 -0.14403466569E+04  0.14403466569E+04  0.50400001928E-02 0.  1.
    10030    2    1    2    0    0  0.00000000000E+00  0.00000000000E+00 -0.54506525136E+03  0.23356280624E+04  0.22711367897E+04 0.  0.
        5    1    3    3  502    0  0.18481301914E+03  0.68665254180E+03  0.63795855714E+03  0.95533280894E+03  0.46999998093E+01 0. -1.
       -5    1    3    3    0  502 -0.18481301914E+03 -0.68665254180E+03 -0.11830238085E+04  0.13802952534E+04  0.46999998093E+01 0.  1.
</event>
<event>
 5   0  0.1968318E-05  0.2116231E+04  0.7818609E-02  0.8554127E-01
       -1   -1    0    0    0  501  0.00000000000E+00  0.00000000000E+00  0.87065297964E+03  0.87065297966E+03  0.50400001928E-02 0. -1.
        1   -1    0    0  501    0  0.00000000000E+00  0.00000000000E+00 -0.12859405243E+04  0.12859405244E+04  0.50400001928E-02 0.  1.
    10030    2    1    2    0    0  0.00000000000E+00  0.00000000000E+00 -0.41528754471E+03  0.21565935040E+04  0.21162305632E+04 0.  0.
        3    1    3    3  502    0  0.57694418743E+03 -0.82068910552E+03  0.13524475376E+03  0.10122679275E+04  0.10100000352E+00 0.  1.
       -3    1    3    3    0  502 -0.57694418743E+03  0.82068910552E+03 -0.55053229846E+03  0.11443255766E+04  0.10100000352E+00 0. -1.
</event>
<event>
 5   0  0.4605516E-05  0.2335127E+04  0.7818609E-02  0.8464199E-01
       -2   -1    0    0    0  501  0.00000000000E+00  0.00000000000E+00  0.27444030537E+04  0.27444030537E+04  0.25500000920E-02 0. -1.
        2   -1    0    0  501    0  0.00000000000E+00  0.00000000000E+00 -0.49672151731E+03  0.49672151732E+03  0.25500000920E-02 0.  1.
    10030    2    1    2    0    0  0.00000000000E+00  0.00000000000E+00  0.22476815364E+04  0.32411245710E+04  0.23351265910E+04 0.  0.
        1    1    3    3  502    0  0.10313774952E+04 -0.51461161098E+03  0.13821681737E+04  0.17997092843E+04  0.50400001928E-02 0. -1.
       -1    1    3    3    0  502 -0.10313774952E+04  0.51461161098E+03  0.86551336265E+03  0.14414152867E+04  0.50400001928E-02 0.  1.
</event>
<event>
 5   0  0.1968318E-05  0.2309637E+04  0.7818609E-02  0.8474131E-01
        1   -1    0    0  501    0  0.00000000000E+00  0.00000000000E+00  0.14054395976E+04  0.14054395976E+04  0.50400001928E-02 0.  1.
       -1   -1    0    0    0  501  0.00000000000E+00  0.00000000000E+00 -0.94888849847E+03  0.94888849848E+03  0.50400001928E-02 0. -1.
    10030    2    1    2    0    0  0.00000000000E+00  0.00000000000E+00  0.45655109909E+03  0.23543280961E+04  0.23096367415E+04 0.  0.
        3    1    3    3  502    0 -0.17307841654E+03 -0.47236579194E+03 -0.83131892894E+03  0.97168757915E+03  0.10100000352E+00 0. -1.
       -3    1    3    3    0  502  0.17307841654E+03  0.47236579194E+03  0.12878700280E+04  0.13826405169E+04  0.10100000352E+00 0.  1.
</event>
<event>
 5   0  0.2042951E-05  0.2323527E+04  0.7818609E-02  0.8468702E-01
       -1   -1    0    0    0  501  0.00000000000E+00  0.00000000000E+00  0.61466894984E+03  0.61466894986E+03  0.50400001928E-02 0. -1.
        1   -1    0    0  501    0  0.00000000000E+00  0.00000000000E+00 -0.21958072654E+04  0.21958072654E+04  0.50400001928E-02 0.  1.
    10030    2    1    2    0    0  0.00000000000E+00  0.00000000000E+00 -0.15811383155E+04  0.28104762152E+04  0.23235270998E+04 0.  0.
        2    1    3    3  502    0 -0.13188087378E+02  0.48392995828E+03  0.48685267473E+03  0.68657676706E+03  0.25500000920E-02 0. -1.
       -2    1    3    3    0  502  0.13188087378E+02 -0.48392995828E+03 -0.20679909902E+04  0.21238994482E+04  0.25500000920E-02 0.  1.
</event>
<event>
 5   0  0.2031860E-05  0.2308715E+04  0.7818609E-02  0.8474493E-01
        1   -1    0    0  501    0  0.00000000000E+00  0.00000000000E+00  0.21764527188E+04  0.21764527188E+04  0.50400001928E-02 0.  1.
       -1   -1    0    0    0  501  0.00000000000E+00  0.00000000000E+00 -0.61225394269E+03  0.61225394272E+03  0.50400001928E-02 0. -1.
    10030    2    1    2    0    0  0.00000000000E+00  0.00000000000E+00  0.15641987761E+04  0.27887066615E+04  0.23087154508E+04 0.  0.
        4    1    3    3  502    0 -0.53170810999E+03  0.10121025749E+04  0.58930712674E+03  0.12862152382E+04  0.12699999809E+01 0. -1.
       -4    1    3    3    0  502  0.53170810999E+03 -0.10121025749E+04  0.97489164934E+03  0.15024914233E+04  0.12699999809E+01 0.  1.
</event>
<event>
 5   0  0.2031860E-05  0.2298729E+04  0.7818609E-02  0.8478423E-01
       -1   -1    0    0    0  501  0.00000000000E+00  0.00000000000E+00  0.12328226662E+04  0.12328226662E+04  0.50400001928E-02 0. -1.
        1   -1    0    0  501    0  0.00000000000E+00  0.00000000000E+00 -0.10715557921E+04  0.10715557921E+04  0.50400001928E-02 0.  1.
    10030    2    1    2    0    0  0.00000000000E+00  0.00000000000E+00  0.16126687413E+03  0.23043784583E+04  0.22987285778E+04 0.  0.
        4    1    3    3  502    0 -0.35503492306E+03 -0.66506515958E+03  0.95033432383E+03  0.12130533389E+04  0.12699999809E+01 0. -1.
       -4    1    3    3    0  502  0.35503492306E+03  0.66506515958E+03 -0.78906744970E+03  0.10913251194E+04  0.12699999809E+01 0.  1.
</event>
<event>
 5   0  0.2085063E-05  0.2309134E+04  0.7818609E-02  0.8474329E-01
       -1   -1    0    0    0  501  0.00000000000E+00  0.00000000000E+00  0.10739034405E+04  0.10739034405E+04  0.50400001928E-02 0.  1.
        1   -1    0    0  501    0  0.00000000000E+00  0.00000000000E+00 -0.12412890776E+04  0.12412890776E+04  0.50400001928E-02 0. -1.
    10030    2    1    2    0    0  0.00000000000E+00  0.00000000000E+00 -0.16738563702E+03  0.23151925181E+04  0.23091337000E+04 0.  0.
        1    1    3    3  502    0 -0.39667342781E+03 -0.10590156302E+04  0.14964232596E+03  0.11407264085E+04  0.50400001928E-02 0.  1.
       -1    1    3    3    0  502  0.39667342781E+03  0.10590156302E+04 -0.31702796298E+03  0.11744661096E+04  0.50400001928E-02 0. -1.
</event>
<event>
 5   0  0.1968318E-05  0.2304230E+04  0.7818609E-02  0.8476255E-01
       -1   -1    0    0    0  501  0.00000000000E+00  0.00000000000E+00  0.46034017276E+03  0.46034017279E+03  0.50400001928E-02 0. -1.
        1   -1    0    0  501    0  0.00000000000E+00  0.00000000000E+00 -0.28834530609E+04  0.28834530609E+04  0.50400001928E-02 0.  1.
    10030    2    1    2    0    0  0.00000000000E+00  0.00000000000E+00 -0.24231128881E+04  0.33437932337E+04  0.23042302665E+04 0.  0.
        3    1    3    3  502    0  0.57754981540E+03  0.48693313171E+03  0.50782165441E+02  0.75713043959E+03  0.10100000352E+00 0. -1.
       -3    1    3    3    0  502 -0.57754981540E+03 -0.48693313171E+03 -0.24738950535E+04  0.25866627941E+04  0.10100000352E+00 0.  1.
</event>
<event>
 5   0  0.2031860E-05  0.2294350E+04  0.7818609E-02  0.8480152E-01
       -1   -1    0    0    0  501  0.00000000000E+00  0.00000000000E+00  0.16624831264E+04  0.16624831264E+04  0.50400001928E-02 0.  1.
        1   -1    0    0  501    0  0.00000000000E+00  0.00000000000E+00 -0.79159313297E+03  0.79159313299E+03  0.50400001928E-02 0. -1.
    10030    2    1    2    0    0  0.00000000000E+00  0.00000000000E+00  0.87088999338E+03  0.24540762593E+04  0.22943497785E+04 0.  0.
        4    1    3    3  502    0 -0.61004305526E+03 -0.32915165873E+03  0.14131450123E+04  0.15739992956E+04  0.12699999809E+01 0.  1.
       -4    1    3    3    0  502  0.61004305526E+03  0.32915165873E+03 -0.54225501893E+03  0.88007696378E+03  0.12699999809E+01 0. -1.
</event>
<event>
 5   0  0.4602447E-05  0.2302521E+04  0.7818609E-02  0.8476928E-01
        2   -1    0    0  501    0  0.00000000000E+00  0.00000000000E+00  0.11212734891E+04  0.11212734891E+04  0.25500000920E-02 0.  1.
       -2   -1    0    0    0  501  0.00000000000E+00  0.00000000000E+00 -0.11820493059E+04  0.11820493059E+04  0.25500000920E-02 0. -1.
    10030    2    1    2    0    0  0.00000000000E+00  0.00000000000E+00 -0.60775816870E+02  0.23033227950E+04  0.23025208355E+04 0.  0.
        3    1    3    3  502    0 -0.80991810565E+03  0.62656507363E+03 -0.55673598222E+03  0.11655496958E+04  0.10100000352E+00 0. -1.
       -3    1    3    3    0  502  0.80991810565E+03 -0.62656507363E+03  0.49596016535E+03  0.11377730992E+04  0.10100000352E+00 0.  1.
</event>
<event>
 5   0  0.2042951E-05  0.1969821E+04  0.7818609E-02  0.8620862E-01
        1   -1    0    0  501    0  0.00000000000E+00  0.00000000000E+00  0.86460045857E+03  0.86460045859E+03  0.50400001928E-02 0.  1.
       -1   -1    0    0    0  501  0.00000000000E+00  0.00000000000E+00 -0.11219615226E+04  0.11219615226E+04  0.50400001928E-02 0. -1.
    10030    2    1    2    0    0  0.00000000000E+00  0.00000000000E+00 -0.25736106404E+03  0.19865619812E+04  0.19698207502E+04 0.  0.
        2    1    3    3  502    0  0.61912918054E+03 -0.30683961807E+02 -0.90055185387E+03  0.10932776817E+04  0.25500000920E-02 0. -1.
       -2    1    3    3    0  502 -0.61912918054E+03  0.30683961807E+02  0.64319078983E+03  0.89328429955E+03  0.25500000920E-02 0.  1.
</event>
<event>
 5   0  0.1968318E-05  0.2353630E+04  0.7818609E-02  0.8457071E-01
        1   -1    0    0  501    0  0.00000000000E+00  0.00000000000E+00  0.20544494359E+04  0.20544494359E+04  0.50400001928E-02 0. -1.
       -1   -1    0    0    0  501  0.00000000000E+00  0.00000000000E+00 -0.67409494700E+03  0.67409494702E+03  0.50400001928E-02 0.  1.
    10030    2    1    2    0    0  0.00000000000E+00  0.00000000000E+00  0.13803544889E+04  0.27285443830E+04  0.23536303734E+04 0.  0.
        3    1    3    3  502    0  0.80102126676E+03  0.14199654981E+03 -0.29562705309E+03  0.86555961937E+03  0.10100000352E+00 0.  1.
       -3    1    3    3    0  502 -0.80102126676E+03 -0.14199654981E+03  0.16759815420E+04  0.18629847636E+04  0.10100000352E+00 0. -1.
</event>
<event>
 5   0  0.2042951E-05  0.2266408E+04  0.7818609E-02  0.8491285E-01
       -1   -1    0    0    0  501  0.00000000000E+00  0.00000000000E+00  0.95380414511E+03  0.95380414512E+03  0.50400001928E-02 0.  1.
        1   -1    0    0  501    0  0.00000000000E+00  0.00000000000E+00 -0.13463474305E+04  0.13463474305E+04  0.50400001928E-02 0. -1.
    10030    2    1    2    0    0  0.00000000000E+00  0.00000000000E+00 -0.39254328538E+03  0.23001515756E+04  0.22664084010E+04 0.  0.
        2    1    3    3  502    0 -0.95848647846E+03 -0.24025063223E+03  0.36672625973E+03  0.10539947084E+04  0.25500000920E-02 0.  1.
       -2    1    3    3    0  502  0.95848647846E+03  0.24025063223E+03 -0.75926954511E+03  0.12461568673E+04  0.25500000920E-02 0. -1.
</event>
<event>
 5   0  0.4605516E-05  0.2319231E+04  0.7818609E-02  0.8470377E-01
       -2   -1    0    0    0  501  0.00000000000E+00  0.00000000000E+00  0.64818421374E+03  0.64818421374E+03  0.25500000920E-02 0. -1.
        2   -1    0    0  501    0  0.00000000000E+00  0.00000000000E+00 -0.20745768599E+04  0.20745768599E+04  0.25500000920E-02 0.  1.
    10030    2    1    2    0    0  0.00000000000E+00  0.00000000000E+00 -0.14263926462E+04  0.27227610737E+04  0.23192308818E+04 0.  0.
        1    1    3    3  502    0 -0.28760259704E+03  0.91832239276E+03 -0.14728312836E+04  0.17593360284E+04  0.50400001928E-02 0.  1.
       -1    1    3    3    0  502  0.28760259704E+03 -0.91832239276E+03  0.46438637365E+02  0.96342504531E+03  0.50400001928E-02 0. -1.
</event>
<event>
 5   0  0.2085063E-05  0.2329132E+04  0.7818609E-02  0.8466523E-01
       -1   -1    0    0    0  501  0.00000000000E+00  0.00000000000E+00  0.45860650710E+03  0.45860650712E+03  0.50400001928E-02 0. -1.
        1   -1    0    0  501    0  0.00000000000E+00  0.00000000000E+00 -0.29572492093E+04  0.29572492093E+04  0.50400001928E-02 0.  1.
    10030    2    1    2    0    0  0.00000000000E+00  0.00000000000E+00 -0.24986427022E+04  0.34158557164E+04  0.23291317958E+04 0.  0.
        1    1    3    3  502    0 -0.25127054985E+02  0.70824335549E+03  0.10595451475E+03  0.71656568346E+03  0.50400001928E-02 0. -1.
       -1    1    3    3    0  502  0.25127054985E+02 -0.70824335549E+03 -0.26045972170E+04  0.26992900330E+04  0.50400001928E-02 0.  1.
</event>
<event>
 5   0  0.4798609E-05  0.2319329E+04  0.7818609E-02  0.8470339E-01
        2   -1    0    0  501    0  0.00000000000E+00  0.00000000000E+00  0.66645460165E+03  0.66645460166E+03  0.25500000920E-02 0. -1.
       -2   -1    0    0    0  501  0.00000000000E+00  0.00000000000E+00 -0.20178750519E+04  0.20178750519E+04  0.25500000920E-02 0.  1.
    10030    2    1    2    0    0  0.00000000000E+00  0.00000000000E+00 -0.13514204503E+04  0.26843296536E+04  0.23193293116E+04 0.  0.
        2    1    3    3  502    0 -0.17196226772E+03  0.10077634429E+04 -0.13092744875E+04  0.16611315005E+04  0.25500000920E-02 0.  1.
       -2    1    3    3    0  502  0.17196226772E+03 -0.10077634429E+04 -0.42145962768E+02  0.10231981531E+04  0.25500000920E-02 0. -1.
</event>
<event>
 5   0  0.1604500E-05  0.2306490E+04  0.7818609E-02  0.8475367E-01
       -3   -1    0    0    0  501  0.00000000000E+00  0.00000000000E+00  0.72905639553E+03  0.72905640252E+03  0.10100000352E+00 0. -1.
        3   -1    0    0  501    0  0.00000000000E+00  0.00000000000E+00 -0.18242405112E+04  0.18242405140E+04  0.10100000352E+00 0.  1.
    10030    2    1    2    0    0  0.00000000000E+00  0.00000000000E+00 -0.10951841157E+04  0.25532969165E+04  0.23064901684E+04 0.  0.
        2    1    3    3  502    0 -0.55964960759E+03 -0.53911138779E+03  0.39572034159E+03  0.87203403630E+03  0.25500000920E-02 0. -1.
       -2    1    3    3    0  502  0.55964960759E+03  0.53911138779E+03 -0.14909044573E+04  0.16812628802E+04  0.25500000920E-02 0.  1.
</event>
<event>
 5   0  0.2085063E-05  0.2291017E+04  0.7818609E-02  0.8481472E-01
       -1   -1    0    0    0  501  0.00000000000E+00  0.00000000000E+00  0.12982132603E+04  0.12982132603E+04  0.50400001928E-02 0.  1.
        1   -1    0    0  501    0  0.00000000000E+00  0.00000000000E+00 -0.10107656026E+04  0.10107656026E+04  0.50400001928E-02 0. -1.
    10030    2    1    2    0    0  0.00000000000E+00  0.00000000000E+00  0.28744765772E+03  0.23089788629E+04  0.22910166375E+04 0.  0.
        1    1    3    3  502    0  0.43262358755E+03 -0.10585478990E+04  0.76097178992E+02  0.11460705055E+04  0.50400001928E-02 0.  1.
       -1    1    3    3    0  502 -0.43262358755E+03  0.10585478990E+04  0.21135047873E+03  0.11629083574E+04  0.50400001928E-02 0. -1.
</event>
<event>
 5   0  0.1968318E-05  0.2371490E+04  0.7818609E-02  0.8450255E-01
        1   -1    0    0  501    0  0.00000000000E+00  0.00000000000E+00  0.10420344766E+04  0.10420344766E+04  0.50400001928E-02 0.  1.
       -1   -1    0    0    0  501  0.00000000000E+00  0.00000000000E+00 -0.13492755732E+04  0.13492755732E+04  0.50400001928E-02 0. -1.
    10030    2    1    2    0    0  0.00000000000E+00  0.00000000000E+00 -0.30724109663E+03  0.23913100498E+04  0.23714903885E+04 0.  0.
        3    1    3    3  502    0  0.48726131021E+03 -0.99598762267E+03  0.27010168329E+03  0.11412142036E+04  0.10100000352E+00 0.  1.
       -3    1    3    3    0  502 -0.48726131021E+03  0.99598762267E+03 -0.57734277992E+03  0.12500958462E+04  0.10100000352E+00 0. -1.
</event>
<event>
 5   0  0.4602447E-05  0.2243428E+04  0.7818609E-02  0.8500567E-01
        2   -1    0    0  501    0  0.00000000000E+00  0.00000000000E+00  0.17467510933E+04  0.17467510933E+04  0.25500000920E-02 0.  1.
       -2   -1    0    0    0  501  0.00000000000E+00  0.00000000000E+00 -0.72033310870E+03  0.72033310870E+03  0.25500000920E-02 0. -1.
    10030    2    1    2    0    0  0.00000000000E+00  0.00000000000E+00  0.10264179846E+04  0.24670842020E+04  0.22434283097E+04 0.  0.
        3    1    3    3  502    0  0.43567319992E+02  0.10912305827E+04  0.79478287644E+03  0.13506895005E+04  0.10100000352E+00 0.  1.
       -3    1    3    3    0  502 -0.43567319992E+02 -0.10912305827E+04  0.23163510816E+03  0.11163947015E+04  0.10100000352E+00 0. -1.
</event>
<event>
 5   0  0.4505107E-05  0.2311834E+04  0.7818609E-02  0.8473270E-01
       -2   -1    0    0    0  501  0.00000000000E+00  0.00000000000E+00  0.13227959509E+04  0.13227959509E+04  0.25500000920E-02 0. -1.
        2   -1    0    0  501    0  0.00000000000E+00  0.00000000000E+00 -0.10100908423E+04  0.10100908423E+04  0.25500000920E-02 0.  1.
    10030    2    1    2    0    0  0.00000000000E+00  0.00000000000E+00  0.31270510859E+03  0.23328867932E+04  0.23118339701E+04 0.  0.
        4    1    3    3  502    0 -0.14301202033E+03  0.11445878713E+04  0.23192534021E+03  0.11765733336E+04  0.12699999809E+01 0. -1.
       -4    1    3    3    0  502  0.14301202033E+03 -0.11445878713E+04  0.80779768380E+02  0.11563134596E+04  0.12699999809E+01 0.  1.
</event>
<event>
 5   0  0.2085063E-05  0.2305625E+04  0.7818609E-02  0.8475707E-01
        1   -1    0    0  501    0  0.00000000000E+00  0.00000000000E+00  0.13511516934E+04  0.13511516934E+04  0.50400001928E-02 0.  1.
       -1   -1    0    0    0  501  0.00000000000E+00  0.00000000000E+00 -0.98358813651E+03  0.98358813653E+03  0.50400001928E-02 0. -1.
    10030    2    1    2    0    0  0.00000000000E+00  0.00000000000E+00  0.36756355690E+03  0.23347398299E+04  0.23056251007E+04 0.  0.
        1    1    3    3  502    0  0.81762317807E+03 -0.74825725465E+03 -0.13736682604E+03  0.11168107384E+04  0.50400001928E-02 0. -1.
       -1    1    3    3    0  502 -0.81762317807E+03  0.74825725465E+03  0.50493038294E+03  0.12179290916E+04  0.50400001928E-02 0.  1.
</event>
<event>
 5   0  0.2043885E-05  0.2304518E+04  0.7818609E-02  0.8476142E-01
       -1   -1    0    0    0  501  0.00000000000E+00  0.00000000000E+00  0.10536021031E+04  0.10536021031E+04  0.50400001928E-02 0. -1.
        1   -1    0    0  501    0  0.00000000000E+00  0.00000000000E+00 -0.12601538071E+04  0.12601538071E+04  0.50400001928E-02 0.  1.
    10030    2    1    2    0    0  0.00000000000E+00  0.00000000000E+00 -0.20655170400E+03  0.23137559102E+04  0.23045179118E+04 0.  0.
        5    1    3    3  502    0  0.75687343918E+03 -0.55162740559E+03  0.57062894259E+03  0.10967176837E+04  0.46999998093E+01 0. -1.
       -5    1    3    3    0  502 -0.75687343918E+03  0.55162740559E+03 -0.77718064658E+03  0.12170382266E+04  0.46999998093E+01 0.  1.
</event>
<event>
 5   0  0.4602447E-05  0.2340659E+04  0.7818609E-02  0.8462060E-01
       -2   -1    0    0    0  501  0.00000000000E+00  0.00000000000E+00  0.82334077092E+03  0.82334077092E+03  0.25500000920E-02 0.  1.
        2   -1    0    0  501    0  0.00000000000E+00  0.00000000000E+00 -0.16635535114E+04  0.16635535114E+04  0.25500000920E-02 0. -1.
    10030    2    1    2    0    0  0.00000000000E+00  0.00000000000E+00 -0.84021274043E+03  0.24868942823E+04  0.23406592494E+04 0.  0.
        3    1    3    3  502    0  0.41345011159E+03 -0.89438790050E+03 -0.10910670816E+04  0.14701354013E+04  0.10100000352E+00 0. -1.
       -3    1    3    3    0  502 -0.41345011159E+03  0.89438790050E+03  0.25085434120E+03  0.10167588810E+04  0.10100000352E+00 0.  1.
</event>
<event>
 5   0  0.2031860E-05  0.2221344E+04  0.7818609E-02  0.8509597E-01
        1   -1    0    0  501    0  0.00000000000E+00  0.00000000000E+00  0.95156836729E+03  0.95156836730E+03  0.50400001928E-02 0.  1.
       -1   -1    0    0    0  501  0.00000000000E+00  0.00000000000E+00 -0.12963775787E+04  0.12963775787E+04  0.50400001928E-02 0. -1.
    10030    2    1    2    0    0  0.00000000000E+00  0.00000000000E+00 -0.34480921140E+03  0.22479459460E+04  0.22213436438E+04 0.  0.
        4    1    3    3  502    0  0.29156114990E+03  0.95525989497E+03  0.31927495495E+03  0.10485549489E+04  0.12699999809E+01 0.  1.
       -4    1    3    3    0  502 -0.29156114990E+03 -0.95525989497E+03 -0.66408416635E+03  0.11993909971E+04  0.12699999809E+01 0. -1.
</event>
<event>
 5   0  0.4602447E-05  0.2292400E+04  0.7818609E-02  0.8480924E-01
        2   -1    0    0  501    0  0.00000000000E+00  0.00000000000E+00  0.10873524072E+04  0.10873524072E+04  0.25500000920E-02 0. -1.
       -2   -1    0    0    0  501  0.00000000000E+00  0.00000000000E+00 -0.12082324534E+04  0.12082324534E+04  0.25500000920E-02 0.  1.
    10030    2    1    2    0    0  0.00000000000E+00  0.00000000000E+00 -0.12088004614E+03  0.22955848606E+04  0.22924000233E+04 0.  0.
        3    1    3    3  502    0 -0.62753284019E+03  0.21523287864E+01  0.90004442455E+03  0.10972156007E+04  0.10100000352E+00 0. -1.
       -3    1    3    3    0  502  0.62753284019E+03 -0.21523287864E+01 -0.10209244707E+04  0.11983692599E+04  0.10100000352E+00 0.  1.
</event>
<event>
 5   0  0.2043885E-05  0.2343234E+04  0.7818609E-02  0.8461067E-01
       -1   -1    0    0    0  501  0.00000000000E+00  0.00000000000E+00  0.70098745563E+03  0.70098745565E+03  0.50400001928E-02 0. -1.
        1   -1    0    0  501    0  0.00000000000E+00  0.00000000000E+00 -0.19582174748E+04  0.19582174748E+04  0.50400001928E-02 0.  1.
    10030    2    1    2    0    0  0.00000000000E+00  0.00000000000E+00 -0.12572300192E+04  0.26592049305E+04  0.23432335652E+04 0.  0.
        5    1    3    3  502    0  0.11529928084E+04 -0.14994293929E+03 -0.46499073243E+03  0.12522434957E+04  0.46999998093E+01 0.  1.
       -5    1    3    3    0  502 -0.11529928084E+04  0.14994293929E+03 -0.79223928677E+03  0.14069614347E+04  0.46999998093E+01 0. -1.
</event>
<event>
 5   0  0.2042951E-05  0.2300701E+04  0.7818609E-02  0.8477645E-01
       -1   -1    0    0    0  501  0.00000000000E+00  0.00000000000E+00  0.12881145978E+04  0.12881145978E+04  0.50400001928E-02 0. -1.
        1   -1    0    0  501    0  0.00000000000E+00  0.00000000000E+00 -0.10273200100E+04  0.10273200100E+04  0.50400001928E-02 0.  1.
    10030    2    1    2    0    0  0.00000000000E+00  0.00000000000E+00  0.26079458782E+03  0.23154346078E+04  0.23007006772E+04 0.  0.
        2    1    3    3  502    0  0.47029364741E+03 -0.96098523408E+03  0.55575892314E+03  0.12056271047E+04  0.25500000920E-02 0.  1.
       -2    1    3    3    0  502 -0.47029364741E+03  0.96098523408E+03 -0.29496433532E+03  0.11098075031E+04  0.25500000920E-02 0. -1.
</event>
<event>
 5   0  0.4436695E-05  0.2288777E+04  0.7818609E-02  0.8482359E-01
       -2   -1    0    0    0  501  0.00000000000E+00  0.00000000000E+00  0.14923248443E+04  0.14923248444E+04  0.25500000920E-02 0.  1.
        2   -1    0    0  501    0  0.00000000000E+00  0.00000000000E+00 -0.87757386486E+03  0.87757386487E+03  0.25500000920E-02 0. -1.
    10030    2    1    2    0    0  0.00000000000E+00  0.00000000000E+00  0.61475097948E+03  0.23698987092E+04  0.22887772118E+04 0.  0.
        5    1    3    3  502    0  0.18203311314E+03 -0.34847413350E+03  0.14201917016E+04  0.14736135298E+04  0.46999998093E+01 0.  1.
       -5    1    3    3    0  502 -0.18203311314E+03  0.34847413350E+03 -0.80544072210E+03  0.89628517940E+03  0.46999998093E+01 0. -1.
</event>
<event>
 5   0  0.2085063E-05  0.2302114E+04  0.7818609E-02  0.8477088E-01
        1   -1    0    0  501    0  0.00000000000E+00  0.00000000000E+00  0.13961444420E+04  0.13961444420E+04  0.50400001928E-02 0.  1.
       -1   -1    0    0    0  501  0.00000000000E+00  0.00000000000E+00 -0.94899325805E+03  0.94899325807E+03  0.50400001928E-02 0. -1.
    10030    2    1    2    0    0  0.00000000000E+00  0.00000000000E+00  0.44715118390E+03  0.23451377000E+04  0.23021135182E+04 0.  0.
        1    1    3    3  502    0 -0.45333760353E+02  0.11085307648E+04  0.53595961751E+03  0.12321316155E+04  0.50400001928E-02 0.  1.
       -1    1    3    3    0  502  0.45333760353E+02 -0.11085307648E+04 -0.88808433612E+02  0.11130060845E+04  0.50400001928E-02 0. -1.
</event>
<event>
 5   0  0.2085063E-05  0.2325405E+04  0.7818609E-02  0.8467971E-01
        1   -1    0    0  501    0  0.00000000000E+00  0.00000000000E+00  0.25596996775E+04  0.25596996775E+04  0.50400001928E-02 0. -1.
       -1   -1    0    0    0  501  0.00000000000E+00  0.00000000000E+00 -0.52813892251E+03  0.52813892253E+03  0.50400001928E-02 0.  1.
    10030    2    1    2    0    0  0.00000000000E+00  0.00000000000E+00  0.20315607550E+04  0.30878386001E+04  0.23254049365E+04 0.  0.
        1    1    3    3  502    0 -0.22090895198E+03 -0.41739281781E+03  0.24266144771E+04  0.24721398322E+04  0.50400001928E-02 0. -1.
       -1    1    3    3    0  502  0.22090895198E+03  0.41739281781E+03 -0.39505372207E+03  0.61569876788E+03  0.50400001928E-02 0.  1.
</event>
<event>
 5   0  0.4602447E-05  0.2321929E+04  0.7818609E-02  0.8469325E-01
       -2   -1    0    0    0  501  0.00000000000E+00  0.00000000000E+00  0.18350431942E+04  0.18350431942E+04  0.25500000920E-02 0. -1.
        2   -1    0    0  501    0  0.00000000000E+00  0.00000000000E+00 -0.73449941014E+03  0.73449941015E+03  0.25500000920E-02 0.  1.
    10030    2    1    2    0    0  0.00000000000E+00  0.00000000000E+00  0.11005437840E+04  0.25695426043E+04  0.23219286326E+04 0.  0.
        3    1    3    3  502    0  0.72739384444E+03 -0.26154656927E+03  0.15088621931E+04  0.16953387687E+04  0.10100000352E+00 0. -1.
       -3    1    3    3    0  502 -0.72739384444E+03  0.26154656927E+03 -0.40831840905E+03  0.87420383560E+03  0.10100000352E+00 0.  1.
</event>
<event>
 5   0  0.2031860E-05  0.2519006E+04  0.7818609E-02  0.8396246E-01
       -1   -1    0    0    0  501  0.00000000000E+00  0.00000000000E+00  0.11005256775E+04  0.11005256776E+04  0.50400001928E-02 0. -1.
        1   -1    0    0  501    0  0.00000000000E+00  0.00000000000E+00 -0.14414460431E+04  0.14414460431E+04  0.50400001928E-02 0.  1.
    10030    2    1    2    0    0  0.00000000000E+00  0.00000000000E+00 -0.34092036559E+03  0.25419717207E+04  0.25190064575E+04 0.  0.
        4    1    3    3  502    0  0.59850496615E+03  0.11075175329E+04 -0.13081473013E+03  0.12656687508E+04  0.12699999809E+01 0.  1.
       -4    1    3    3    0  502 -0.59850496615E+03 -0.11075175329E+04 -0.21010563546E+03  0.12763029699E+04  0.12699999809E+01 0. -1.
</event>
<event>
 5   0  0.2085063E-05  0.2264028E+04  0.7818609E-02  0.8492241E-01
       -1   -1    0    0    0  501  0.00000000000E+00  0.00000000000E+00  0.78587356152E+03  0.78587356153E+03  0.50400001928E-02 0.  1.
        1   -1    0    0  501    0  0.00000000000E+00  0.00000000000E+00 -0.16306133909E+04  0.16306133909E+04  0.50400001928E-02 0. -1.
    10030    2    1    2    0    0  0.00000000000E+00  0.00000000000E+00 -0.84473982940E+03  0.24164869525E+04  0.22640282269E+04 0.  0.
        1    1    3    3  502    0 -0.48516552291E+03 -0.43771026443E+03 -0.14089982684E+04  0.15531426143E+04  0.50400001928E-02 0. -1.
       -1    1    3    3    0  502  0.48516552291E+03  0.43771026443E+03  0.56425843896E+03  0.86334433812E+03  0.50400001928E-02 0.  1.
</event>
<event>
 5   0  0.4436695E-05  0.2290201E+04  0.7818609E-02  0.8481795E-01
        2   -1    0    0  501    0  0.00000000000E+00  0.00000000000E+00  0.10965893777E+04  0.10965893777E+04  0.25500000920E-02 0.  1.
       -2   -1    0    0    0  501  0.00000000000E+00  0.00000000000E+00 -0.11957580402E+04  0.11957580402E+04  0.25500000920E-02 0. -1.
    10030    2    1    2    0    0  0.00000000000E+00  0.00000000000E+00 -0.99168662518E+02  0.22923474179E+04  0.22902013582E+04 0.  0.
        5    1    3    3  502    0 -0.80288151341E+03  0.72040705889E+03 -0.43416881305E+03  0.11628111211E+04  0.46999998093E+01 0. -1.
       -5    1    3    3    0  502  0.80288151341E+03 -0.72040705889E+03  0.33500015053E+03  0.11295362969E+04  0.46999998093E+01 0.  1.
</event>
<event>
 5   0  0.2043885E-05  0.2265063E+04  0.7818609E-02  0.8491825E-01
       -1   -1    0    0    0  501  0.00000000000E+00  0.00000000000E+00  0.64389896028E+03  0.64389896030E+03  0.50400001928E-02 0. -1.
        1   -1    0    0  501    0  0.00000000000E+00  0.00000000000E+00 -0.19919696388E+04  0.19919696388E+04  0.50400001928E-02 0.  1.
    10030    2    1    2    0    0  0.00000000000E+00  0.00000000000E+00 -0.13480706785E+04  0.26358685991E+04  0.22650626299E+04 0.  0.
        5    1    3    3  502    0  0.38663964645E+03  0.10368986577E+04 -0.39388386072E+03  0.11746555360E+04  0.46999998093E+01 0.  1.
       -5    1    3    3    0  502 -0.38663964645E+03 -0.10368986577E+04 -0.95418681780E+03  0.14612130631E+04  0.46999998093E+01 0. -1.
</event>
<event>
 5   0  0.4602447E-05  0.2341375E+04  0.7818609E-02  0.8461784E-01
       -2   -1    0    0    0  501  0.00000000000E+00  0.00000000000E+00  0.49207444334E+03  0.49207444335E+03  0.25500000920E-02 0.  1.
        2   -1    0    0  501    0  0.00000000000E+00  0.00000000000E+00 -0.27851655980E+04  0.27851655980E+04  0.25500000920E-02 0. -1.
    10030    2    1    2    0    0  0.00000000000E+00  0.00000000000E+00 -0.22930911546E+04  0.32772400413E+04  0.23413746486E+04 0.  0.
        3    1    3    3  502    0 -0.26547095080E+03 -0.63663957280E+03  0.17743584551E+03  0.71222767487E+03  0.10100000352E+00 0.  1.
       -3    1    3    3    0  502  0.26547095080E+03  0.63663957280E+03 -0.24705270002E+04  0.25650123665E+04  0.10100000352E+00 0. -1.
</event>
<event>
 5   0  0.2042951E-05  0.2291170E+04  0.7818609E-02  0.8481411E-01
        1   -1    0    0  501    0  0.00000000000E+00  0.00000000000E+00  0.13395799258E+04  0.13395799258E+04  0.50400001928E-02 0. -1.
       -1   -1    0    0    0  501  0.00000000000E+00  0.00000000000E+00 -0.97968398843E+03  0.97968398844E+03  0.50400001928E-02 0.  1.
    10030    2    1    2    0    0  0.00000000000E+00  0.00000000000E+00  0.35989593740E+03  0.23192639143E+04  0.22911700108E+04 0.  0.
        2    1    3    3  502    0 -0.32856384620E+03  0.67692620965E+02 -0.92885005645E+03  0.98757223500E+03  0.25500000920E-02 0.  1.
       -2    1    3    3    0  502  0.32856384620E+03 -0.67692620965E+02  0.12887459939E+04  0.13316916793E+04  0.25500000920E-02 0. -1.
</event>
<event>
 5   0  0.2031860E-05  0.2338710E+04  0.7818609E-02  0.8462813E-01
       -1   -1    0    0    0  501  0.00000000000E+00  0.00000000000E+00  0.11368404265E+04  0.11368404265E+04  0.50400001928E-02 0.  1.
        1   -1    0    0  501    0  0.00000000000E+00  0.00000000000E+00 -0.12027998356E+04  0.12027998357E+04  0.50400001928E-02 0. -1.
    10030    2    1    2    0    0  0.00000000000E+00  0.00000000000E+00 -0.65959409157E+02  0.23396402621E+04  0.23387103097E+04 0.  0.
        4    1    3    3  502    0 -0.13793251236E+03  0.56285282706E+02  0.11273075274E+04  0.11371091791E+04  0.12699999809E+01 0.  1.
       -4    1    3    3    0  502  0.13793251236E+03 -0.56285282706E+02 -0.11932669365E+04  0.12025310831E+04  0.12699999809E+01 0. -1.
</event>
<event>
 5   0  0.2085063E-05  0.2310566E+04  0.7818609E-02  0.8473767E-01
       -1   -1    0    0    0  501  0.00000000000E+00  0.00000000000E+00  0.92758257110E+03  0.92758257112E+03  0.50400001928E-02 0.  1.
        1   -1    0    0  501    0  0.00000000000E+00  0.00000000000E+00 -0.14388783781E+04  0.14388783781E+04  0.50400001928E-02 0. -1.
    10030    2    1    2    0    0  0.00000000000E+00  0.00000000000E+00 -0.51129580701E+03  0.23664609492E+04  0.23105657364E+04 0.  0.
        1    1    3    3  502    0 -0.28370014065E+03 -0.94420307638E+03 -0.87243999584E+03  0.13164941191E+04  0.50400001928E-02 0.  1.
       -1    1    3    3    0  502  0.28370014065E+03  0.94420307638E+03  0.36114418883E+03  0.10499668301E+04  0.50400001928E-02 0. -1.
</event>
<event>
 5   0  0.2031860E-05  0.2304629E+04  0.7818609E-02  0.8476098E-01
        1   -1    0    0  501    0  0.00000000000E+00  0.00000000000E+00  0.18140072365E+04  0.18140072366E+04  0.50400001928E-02 0.  1.
       -1   -1    0    0    0  501  0.00000000000E+00  0.00000000000E+00 -0.73198659257E+03  0.73198659259E+03  0.50400001928E-02 0. -1.
    10030    2    1    2    0    0  0.00000000000E+00  0.00000000000E+00  0.10820206440E+04  0.25459938291E+04  0.23046292335E+04 0.  0.
        4    1    3    3  502    0  0.54629884289E+03 -0.75825087078E+03  0.12857334144E+04  0.15894964091E+04  0.12699999809E+01 0.  1.
       -4    1    3    3    0  502 -0.54629884289E+03  0.75825087078E+03 -0.20371277042E+03  0.95649742003E+03  0.12699999809E+01 0. -1.
</event>
<event>
 5   0  0.4798609E-05  0.2298801E+04  0.7818609E-02  0.8478394E-01
       -2   -1    0    0    0  501  0.00000000000E+00  0.00000000000E+00  0.95141721664E+03  0.95141721664E+03  0.25500000920E-02 0.  1.
        2   -1    0    0  501    0  0.00000000000E+00  0.00000000000E+00 -0.13885832943E+04  0.13885832943E+04  0.25500000920E-02 0. -1.
    10030    2    1    2    0    0  0.00000000000E+00  0.00000000000E+00 -0.43716607765E+03  0.23400005109E+04  0.22988014729E+04 0.  0.
        2    1    3    3  502    0 -0.25809428794E+03  0.34245293375E+03  0.86694155319E+03  0.96719921937E+03  0.25500000920E-02 0.  1.
       -2    1    3    3    0  502  0.25809428794E+03 -0.34245293375E+03 -0.13041076308E+04  0.13728012916E+04  0.25500000920E-02 0. -1.
</event>
<event>
 5   0  0.4605516E-05  0.2302592E+04  0.7818609E-02  0.8476900E-01
        2   -1    0    0  501    0  0.00000000000E+00  0.00000000000E+00  0.14791627760E+04  0.14791627760E+04  0.25500000920E-02 0. -1.
       -2   -1    0    0    0  501  0.00000000000E+00  0.00000000000E+00 -0.89610291939E+03  0.89610291940E+03  0.25500000920E-02 0.  1.
    10030    2    1    2    0    0  0.00000000000E+00  0.00000000000E+00  0.58305985659E+03  0.23752656954E+04  0.23025916545E+04 0.  0.
        1    1    3    3  502    0 -0.56633242702E+03 -0.66321941380E+03  0.10668429674E+04  0.13779500447E+04  0.50400001928E-02 0. -1.
       -1    1    3    3    0  502  0.56633242702E+03  0.66321941380E+03 -0.48378311077E+03  0.99731565065E+03  0.50400001928E-02 0.  1.
</event>
<event>
 5   0  0.4602447E-05  0.2349420E+04  0.7818609E-02  0.8458687E-01
       -2   -1    0    0    0  501  0.00000000000E+00  0.00000000000E+00  0.71706419902E+03  0.71706419902E+03  0.25500000920E-02 0. -1.
        2   -1    0    0  501    0  0.00000000000E+00  0.00000000000E+00 -0.19244349699E+04  0.19244349699E+04  0.25500000920E-02 0.  1.
    10030    2    1    2    0    0  0.00000000000E+00  0.00000000000E+00 -0.12073707708E+04  0.26414991689E+04  0.23494198605E+04 0.  0.
        3    1    3    3  502    0  0.47781122169E+03 -0.26701852839E+02  0.60249900832E+03  0.76942941050E+03  0.10100000352E+00 0. -1.
       -3    1    3    3    0  502 -0.47781122169E+03  0.26701852839E+02 -0.18098697792E+04  0.18720697584E+04  0.10100000352E+00 0.  1.
</event>
<event>
 5   0  0.4605516E-05  0.2276627E+04  0.7818609E-02  0.8487194E-01
        2   -1    0    0  501    0  0.00000000000E+00  0.00000000000E+00  0.21621862659E+04  0.21621862659E+04  0.25500000920E-02 0. -1.
       -2   -1    0    0    0  501  0.00000000000E+00  0.00000000000E+00 -0.59928138190E+03  0.59928138190E+03  0.25500000920E-02 0.  1.
    10030    2    1    2    0    0  0.00000000000E+00  0.00000000000E+00  0.15629048840E+04  0.27614676478E+04  0.22766273066E+04 0.  0.
        1    1    3    3  502    0 -0.26696794831E+03 -0.96827772910E+03  0.13172425968E+03  0.10130078611E+04  0.50400001928E-02 0.  1.
       -1    1    3    3    0  502  0.26696794831E+03  0.96827772910E+03  0.14311806243E+04  0.17484597866E+04  0.50400001928E-02 0. -1.
</event>
<event>
 5   0  0.4505107E-05  0.2301581E+04  0.7818609E-02  0.8477298E-01
        2   -1    0    0  501    0  0.00000000000E+00  0.00000000000E+00  0.18613580200E+04  0.18613580200E+04  0.25500000920E-02 0.  1.
       -2   -1    0    0    0  501  0.00000000000E+00  0.00000000000E+00 -0.71148006367E+03  0.71148006367E+03  0.25500000920E-02 0. -1.
    10030    2    1    2    0    0  0.00000000000E+00  0.00000000000E+00  0.11498779564E+04  0.25728380837E+04  0.23015813022E+04 0.  0.
        4    1    3    3  502    0  0.12788391462E+03 -0.64300312975E+03  0.16321916245E+04  0.17589367335E+04  0.12699999809E+01 0.  1.
       -4    1    3    3    0  502 -0.12788391462E+03  0.64300312975E+03 -0.48231366813E+03  0.81390135020E+03  0.12699999809E+01 0. -1.
</event>
<event>
 5   0  0.1968318E-05  0.2290157E+04  0.7818609E-02  0.8481812E-01
       -1   -1    0    0    0  501  0.00000000000E+00  0.00000000000E+00  0.56183173067E+03  0.56183173069E+03  0.50400001928E-02 0.  1.
        1   -1    0    0  501    0  0.00000000000E+00  0.00000000000E+00 -0.23338034103E+04  0.23338034103E+04  0.50400001928E-02 0. -1.
    10030    2    1    2    0    0  0.00000000000E+00  0.00000000000E+00 -0.17719716796E+04  0.28956351410E+04  0.22901570331E+04 0.  0.
        3    1    3    3  502    0  0.73251668116E+03  0.51624116612E+03 -0.17872692264E+04  0.19993541276E+04  0.10100000352E+00 0. -1.
       -3    1    3    3    0  502 -0.73251668116E+03 -0.51624116612E+03  0.15297546785E+02  0.89628101336E+03  0.10100000352E+00 0.  1.
</event>
<event>
 5   0  0.2085063E-05  0.2348198E+04  0.7818609E-02  0.8459156E-01
       -1   -1    0    0    0  501  0.00000000000E+00  0.00000000000E+00  0.13687670727E+04  0.13687670727E+04  0.50400001928E-02 0.  1.
        1   -1    0    0  501    0  0.00000000000E+00  0.00000000000E+00 -0.10071165235E+04  0.10071165235E+04  0.50400001928E-02 0. -1.
    10030    2    1    2    0    0  0.00000000000E+00  0.00000000000E+00  0.36165054920E+03  0.23758835962E+04  0.23481975519E+04 0.  0.
        1    1    3    3  502    0  0.98012646050E+03 -0.76779900680E+02  0.83023776564E+03  0.12867936040E+04  0.50400001928E-02 0.  1.
       -1    1    3    3    0  502 -0.98012646050E+03  0.76779900680E+02 -0.46858721644E+03  0.10890899922E+04  0.50400001928E-02 0. -1.
</event>
<event>
 5   0  0.1604500E-05  0.2318714E+04  0.7818609E-02  0.8470579E-01
        3   -1    0    0  501    0  0.00000000000E+00  0.00000000000E+00  0.14289049707E+04  0.14289049742E+04  0.10100000352E+00 0.  1.
       -3   -1    0    0    0  501  0.00000000000E+00  0.00000000000E+00 -0.94065636116E+03  0.94065636658E+03  0.10100000352E+00 0. -1.
    10030    2    1    2    0    0  0.00000000000E+00  0.00000000000E+00  0.48824860951E+03  0.23695613408E+04  0.23187139201E+04 0.  0.
        2    1    3    3  502    0 -0.10268915075E+03  0.19280982362E+03  0.14076829199E+04  0.14245321662E+04  0.25500000920E-02 0.  1.
       -2    1    3    3    0  502  0.10268915075E+03 -0.19280982362E+03 -0.91943431035E+03  0.94502917458E+03  0.25500000920E-02 0. -1.
</event>
<event>
 5   0  0.2085063E-05  0.2276040E+04  0.7818609E-02  0.8487429E-01
       -1   -1    0    0    0  501  0.00000000000E+00  0.00000000000E+00  0.10014450423E+04  0.10014450423E+04  0.50400001928E-02 0. -1.
        1   -1    0    0  501    0  0.00000000000E+00  0.00000000000E+00 -0.12932205163E+04  0.12932205163E+04  0.50400001928E-02 0.  1.
    10030    2    1    2    0    0  0.00000000000E+00  0.00000000000E+00 -0.29177547401E+03  0.22946655587E+04  0.22760397841E+04 0.  0.
        1    1    3    3  502    0 -0.84640945289E+03  0.28325540867E+03  0.56589738293E+03  0.10568265877E+04  0.50400001928E-02 0. -1.
       -1    1    3    3    0  502  0.84640945289E+03 -0.28325540867E+03 -0.85767285694E+03  0.12378389710E+04  0.50400001928E-02 0.  1.
</event>
<event>
 5   0  0.2031860E-05  0.2289767E+04  0.7818609E-02  0.8481967E-01
       -1   -1    0    0    0  501  0.00000000000E+00  0.00000000000E+00  0.83243532803E+03  0.83243532804E+03  0.50400001928E-02 0. -1.
        1   -1    0    0  501    0  0.00000000000E+00  0.00000000000E+00 -0.15746070541E+04  0.15746070541E+04  0.50400001928E-02 0.  1.
    10030    2    1    2    0    0  0.00000000000E+00  0.00000000000E+00 -0.74217172603E+03  0.24070423821E+04  0.22897672717E+04 0.  0.
        4    1    3    3  502    0 -0.68494810846E+03 -0.15389533045E+03  0.57962313970E+03  0.91038578690E+03  0.12699999809E+01 0. -1.
       -4    1    3    3    0  502  0.68494810846E+03  0.15389533045E+03 -0.13217948657E+04  0.14966565952E+04  0.12699999809E+01 0.  1.
</event>
<event>
 5   0  0.1968318E-05  0.2307995E+04  0.7818609E-02  0.8474775E-01
       -1   -1    0    0    0  501  0.00000000000E+00  0.00000000000E+00  0.98079090001E+03  0.98079090003E+03  0.50400001928E-02 0. -1.
        1   -1    0    0  501    0  0.00000000000E+00  0.00000000000E+00 -0.13577921009E+04  0.13577921009E+04  0.50400001928E-02 0.  1.
    10030    2    1    2    0    0  0.00000000000E+00  0.00000000000E+00 -0.37700120091E+03  0.23385830010E+04  0.23079949192E+04 0.  0.
        3    1    3    3  502    0  0.96306558219E+03  0.63125330236E+03 -0.11177332396E+03  0.11569223541E+04  0.10100000352E+00 0. -1.
       -3    1    3    3    0  502 -0.96306558219E+03 -0.63125330236E+03 -0.26522787695E+03  0.11816606468E+04  0.10100000352E+00 0.  1.
</event>
<event>
 5   0  0.4505107E-05  0.2283842E+04  0.7818609E-02  0.8484319E-01
        2   -1    0    0  501    0  0.00000000000E+00  0.00000000000E+00  0.11165899333E+04  0.11165899333E+04  0.25500000920E-02 0.  1.
       -2   -1    0    0    0  501  0.00000000000E+00  0.00000000000E+00 -0.11678264951E+04  0.11678264951E+04  0.25500000920E-02 0. -1.
    10030    2    1    2    0    0  0.00000000000E+00  0.00000000000E+00 -0.51236561721E+02  0.22844164284E+04  0.22838417706E+04 0.  0.
        4    1    3    3  502    0 -0.70264040647E+02  0.36345115298E+03 -0.11061437297E+04  0.11664430289E+04  0.12699999809E+01 0. -1.
       -4    1    3    3    0  502  0.70264040647E+02 -0.36345115298E+03  0.10549071680E+04  0.11179733995E+04  0.12699999809E+01 0.  1.
</event>
<event>
 5   0  0.2042951E-05  0.2349181E+04  0.7818609E-02  0.8458778E-01
        1   -1    0    0  501    0  0.00000000000E+00  0.00000000000E+00  0.18319103514E+04  0.18319103514E+04  0.50400001928E-02 0. -1.
       -1   -1    0    0    0  501  0.00000000000E+00  0.00000000000E+00 -0.75312786448E+03  0.75312786450E+03  0.50400001928E-02 0.  1.
    10030    2    1    2    0    0  0.00000000000E+00  0.00000000000E+00  0.10787824869E+04  0.25850382159E+04  0.23491809048E+04 0.  0.
        2    1    3    3  502    0 -0.77859848841E+02  0.85932007444E+03  0.14163826797E+04  0.16585032535E+04  0.25500000920E-02 0. -1.
       -2    1    3    3    0  502  0.77859848841E+02 -0.85932007444E+03 -0.33760019279E+03  0.92653496242E+03  0.25500000920E-02 0.  1.
</event>
<event>
 5   0  0.1968318E-05  0.2303196E+04  0.7818609E-02  0.8476662E-01
        1   -1    0    0  501    0  0.00000000000E+00  0.00000000000E+00  0.16740892112E+04  0.16740892112E+04  0.50400001928E-02 0.  1.
       -1   -1    0    0    0  501  0.00000000000E+00  0.00000000000E+00 -0.79217907705E+03  0.79217907707E+03  0.50400001928E-02 0. -1.
    10030    2    1    2    0    0  0.00000000000E+00  0.00000000000E+00  0.88191013417E+03  0.24662682883E+04  0.23031964278E+04 0.  0.
        3    1    3    3  502    0 -0.26687201063E+03 -0.98327965716E+03  0.10157265343E+04  0.14386660338E+04  0.10100000352E+00 0.  1.
       -3    1    3    3    0  502  0.26687201063E+03  0.98327965716E+03 -0.13381640011E+03  0.10276022545E+04  0.10100000352E+00 0. -1.
</event>
<event>
 5   0  0.4436695E-05  0.2308198E+04  0.7818609E-02  0.8474696E-01
        2   -1    0    0  501    0  0.00000000000E+00  0.00000000000E+00  0.24748645816E+04  0.24748645816E+04  0.25500000920E-02 0.  1.
       -2   -1    0    0    0  501  0.00000000000E+00  0.00000000000E+00 -0.53818894683E+03  0.53818894684E+03  0.25500000920E-02 0. -1.
    10030    2    1    2    0    0  0.00000000000E+00  0.00000000000E+00  0.19366756348E+04  0.30130535284E+04  0.23081982261E+04 0.  0.
        5    1    3    3  502    0  0.35689023947E+03 -0.10257184993E+04  0.14780236619E+04  0.18341333424E+04  0.46999998093E+01 0.  1.
       -5    1    3    3    0  502 -0.35689023947E+03  0.10257184993E+04  0.45865197289E+03  0.11789201860E+04  0.46999998093E+01 0. -1.
</event>
<event>
 5   0  0.2042951E-05  0.2048936E+04  0.7818609E-02  0.8584077E-01
        1   -1    0    0  501    0  0.00000000000E+00  0.00000000000E+00  0.10011398660E+04  0.10011398660E+04  0.50400001928E-02 0.  1.
       -1   -1    0    0    0  501  0.00000000000E+00  0.00000000000E+00 -0.10483392115E+04  0.10483392116E+04  0.50400001928E-02 0. -1.
    10030    2    1    2    0    0  0.00000000000E+00  0.00000000000E+00 -0.47199345513E+02  0.20494790776E+04  0.20489355069E+04 0.  0.
        2    1    3    3  502    0 -0.49806022262E+03  0.43102440119E+03  0.76126648041E+03  0.10066641317E+04  0.25500000920E-02 0.  1.
       -2    1    3    3    0  502  0.49806022262E+03 -0.43102440119E+03 -0.80846582593E+03  0.10428149459E+04  0.25500000920E-02 0. -1.
</event>
<event>
 5   0  0.2043885E-05  0.2324639E+04  0.7818609E-02  0.8468269E-01
       -1   -1    0    0    0  501  0.00000000000E+00  0.00000000000E+00  0.79467041863E+03  0.79467041865E+03  0.50400001928E-02 0.  1.
        1   -1    0    0  501    0  0.00000000000E+00  0.00000000000E+00 -0.17000586353E+04  0.17000586353E+04  0.50400001928E-02 0. -1.
    10030    2    1    2    0    0  0.00000000000E+00  0.00000000000E+00 -0.90538821669E+03  0.24947290540E+04  0.23246387310E+04 0.  0.
        5    1    3    3  502    0  0.11118711262E+04  0.57714484357E+02 -0.81084285873E+03  0.13773440364E+04  0.46999998093E+01 0.  1.
       -5    1    3    3    0  502 -0.11118711262E+04 -0.57714484357E+02 -0.94545357961E+02  0.11173850176E+04  0.46999998093E+01 0. -1.
</event>
<event>
 5   0  0.2043885E-05  0.2295549E+04  0.7818609E-02  0.8479678E-01
       -1   -1    0    0    0  501  0.00000000000E+00  0.00000000000E+00  0.81255852425E+03  0.81255852427E+03  0.50400001928E-02 0. -1.
        1   -1    0    0  501    0  0.00000000000E+00  0.00000000000E+00 -0.16212817571E+04  0.16212817571E+04  0.50400001928E-02 0.  1.
    10030    2    1    2    0    0  0.00000000000E+00  0.00000000000E+00 -0.80872323288E+03  0.24338402814E+04  0.22955490080E+04 0.  0.
        5    1    3    3  502    0  0.10365571294E+04  0.28631858629E+03 -0.82969653348E+03  0.13582516125E+04  0.46999998093E+01 0.  1.
       -5    1    3    3    0  502 -0.10365571294E+04 -0.28631858629E+03  0.20973300595E+02  0.10755886689E+04  0.46999998093E+01 0. -1.
</event>
<event>
 5   0  0.4798609E-05  0.2381457E+04  0.7818609E-02  0.8446479E-01
       -2   -1    0    0    0  501  0.00000000000E+00  0.00000000000E+00  0.77766750639E+03  0.77766750640E+03  0.25500000920E-02 0. -1.
        2   -1    0    0  501    0  0.00000000000E+00  0.00000000000E+00 -0.18231877383E+04  0.18231877383E+04  0.25500000920E-02 0.  1.
    10030    2    1    2    0    0  0.00000000000E+00  0.00000000000E+00 -0.10455202319E+04  0.26008552447E+04  0.23814565813E+04 0.  0.
        2    1    3    3  502    0 -0.21111964386E+03 -0.73192984529E+03 -0.15222457750E+04  0.17022117971E+04  0.25500000920E-02 0.  1.
       -2    1    3    3    0  502  0.21111964386E+03  0.73192984529E+03  0.47672554315E+03  0.89864344761E+03  0.25500000920E-02 0. -1.
</event>
<event>
 5   0  0.4798609E-05  0.2307240E+04  0.7818609E-02  0.8475072E-01
        2   -1    0    0  501    0  0.00000000000E+00  0.00000000000E+00  0.19658529487E+04  0.19658529487E+04  0.25500000920E-02 0. -1.
       -2   -1    0    0    0  501  0.00000000000E+00  0.00000000000E+00 -0.67697799928E+03  0.67697799928E+03  0.25500000920E-02 0.  1.
    10030    2    1    2    0    0  0.00000000000E+00  0.00000000000E+00  0.12888749494E+04  0.26428309480E+04  0.23072400795E+04 0.  0.
        2    1    3    3  502    0  0.24670447018E+03 -0.77236539052E+03 -0.29555011138E+03  0.86299551587E+03  0.25500000920E-02 0.  1.
       -2    1    3    3    0  502 -0.24670447018E+03  0.77236539052E+03  0.15844250608E+04  0.17798354321E+04  0.25500000920E-02 0. -1.
</event>
<event>
 5   0  0.4436695E-05  0.2317016E+04  0.7818609E-02  0.8471242E-01
        2   -1    0    0  501    0  0.00000000000E+00  0.00000000000E+00  0.18575894119E+04  0.18575894119E+04  0.25500000920E-02 0. -1.
       -2   -1    0    0    0  501  0.00000000000E+00  0.00000000000E+00 -0.72251744167E+03  0.72251744168E+03  0.25500000920E-02 0.  1.
    10030    2    1    2    0    0  0.00000000000E+00  0.00000000000E+00  0.11350719702E+04  0.25801068535E+04  0.23170159685E+04 0.  0.
        5    1    3    3  502    0 -0.60066027686E+03  0.28119780300E+03  0.16252615426E+04  0.17553809115E+04  0.46999998093E+01 0. -1.
       -5    1    3    3    0  502  0.60066027686E+03 -0.28119780300E+03 -0.49018957240E+03  0.82472594205E+03  0.46999998093E+01 0.  1.
</event>
<event>
 5   0  0.4505107E-05  0.2326390E+04  0.7818609E-02  0.8467588E-01
       -2   -1    0    0    0  501  0.00000000000E+00  0.00000000000E+00  0.72653237188E+03  0.72653237189E+03  0.25500000920E-02 0. -1.
        2   -1    0    0  501    0  0.00000000000E+00  0.00000000000E+00 -0.18623015901E+04  0.18623015901E+04  0.25500000920E-02 0.  1.
    10030    2    1    2    0    0  0.00000000000E+00  0.00000000000E+00 -0.11357692182E+04  0.25888339620E+04  0.23263898138E+04 0.  0.
        4    1    3    3  502    0  0.36645249829E+03 -0.11039023007E+04 -0.55504835315E+03  0.12887854787E+04  0.12699999809E+01 0. -1.
       -4    1    3    3    0  502 -0.36645249829E+03  0.11039023007E+04 -0.58072086510E+03  0.13000484833E+04  0.12699999809E+01 0.  1.
</event>
<event>
 5   0  0.2085063E-05  0.2283640E+04  0.7818609E-02  0.8484400E-01
        1   -1    0    0  501    0  0.00000000000E+00  0.00000000000E+00  0.22659526758E+04  0.22659526758E+04  0.50400001928E-02 0.  1.
       -1   -1    0    0    0  501  0.00000000000E+00  0.00000000000E+00 -0.57536643789E+03  0.57536643791E+03  0.50400001928E-02 0. -1.
    10030    2    1    2    0    0  0.00000000000E+00  0.00000000000E+00  0.16905862379E+04  0.28413191137E+04  0.22836401814E+04 0.  0.
        1    1    3    3  502    0 -0.26006683112E+03  0.10979584904E+04  0.10629599184E+04  0.15501714071E+04  0.50400001928E-02 0. -1.
       -1    1    3    3    0  502  0.26006683112E+03 -0.10979584904E+04  0.62762631948E+03  0.12911477066E+04  0.50400001928E-02 0.  1.
</event>
<event>
 5   0  0.4505107E-05  0.2280705E+04  0.7818609E-02  0.8485568E-01
        2   -1    0    0  501    0  0.00000000000E+00  0.00000000000E+00  0.11218010611E+04  0.11218010611E+04  0.25500000920E-02 0.  1.
       -2   -1    0    0    0  501  0.00000000000E+00  0.00000000000E+00 -0.11592106618E+04  0.11592106618E+04  0.25500000920E-02 0. -1.
    10030    2    1    2    0    0  0.00000000000E+00  0.00000000000E+00 -0.37409600654E+02  0.22810117229E+04  0.22807049352E+04 0.  0.
        4    1    3    3  502    0  0.18655500666E+02 -0.66400378147E+03 -0.94573459512E+03  0.11557095599E+04  0.12699999809E+01 0. -1.
       -4    1    3    3    0  502 -0.18655500666E+02  0.66400378147E+03  0.90832499447E+03  0.11253021630E+04  0.12699999809E+01 0.  1.
</event>
<event>
 5   0  0.2031860E-05  0.2294760E+04  0.7818609E-02  0.8479990E-01
        1   -1    0    0  501    0  0.00000000000E+00  0.00000000000E+00  0.13713693558E+04  0.13713693558E+04  0.50400001928E-02 0.  1.
       -1   -1    0    0    0  501  0.00000000000E+00  0.00000000000E+00 -0.95997582906E+03  0.95997582908E+03  0.50400001928E-02 0. -1.
    10030    2    1    2    0    0  0.00000000000E+00  0.00000000000E+00  0.41139352672E+03  0.23313451849E+04  0.22947604967E+04 0.  0.
        4    1    3    3  502    0  0.65888202437E+03  0.65617315943E+03 -0.47717325300E+03  0.10451720736E+04  0.12699999809E+01 0. -1.
       -4    1    3    3    0  502 -0.65888202437E+03 -0.65617315943E+03  0.88856677972E+03  0.12861731113E+04  0.12699999809E+01 0.  1.
</event>
<event>
 5   0  0.4605516E-05  0.2269342E+04  0.7818609E-02  0.8490108E-01
       -2   -1    0    0    0  501  0.00000000000E+00  0.00000000000E+00  0.59751153074E+03  0.59751153074E+03  0.25500000920E-02 0.  1.
        2   -1    0    0  501    0  0.00000000000E+00  0.00000000000E+00 -0.21547333634E+04  0.21547333634E+04  0.25500000920E-02 0. -1.
    10030    2    1    2    0    0  0.00000000000E+00  0.00000000000E+00 -0.15572218326E+04  0.27522448941E+04  0.22693417815E+04 0.  0.
        1    1    3    3  502    0 -0.10702731808E+03  0.76905456576E+03  0.22484596763E+03  0.80836593268E+03  0.50400001928E-02 0.  1.
       -1    1    3    3    0  502  0.10702731808E+03 -0.76905456576E+03 -0.17820678003E+04  0.19438789614E+04  0.50400001928E-02 0. -1.
</event>
<event>
 5   0  0.1968318E-05  0.2253737E+04  0.7818609E-02  0.8496388E-01
       -1   -1    0    0    0  501  0.00000000000E+00  0.00000000000E+00  0.14425491777E+04  0.14425491777E+04  0.50400001928E-02 0.  1.
        1   -1    0    0  501    0  0.00000000000E+00  0.00000000000E+00 -0.88027026732E+03  0.88027026733E+03  0.50400001928E-02 0. -1.
    10030    2    1    2    0    0  0.00000000000E+00  0.00000000000E+00  0.56227891037E+03  0.23228194450E+04  0.22537374739E+04 0.  0.
        3    1    3    3  502    0 -0.21983679466E+03  0.15410458730E+03 -0.84682764204E+03  0.88836563736E+03  0.10100000352E+00 0. -1.
       -3    1    3    3    0  502  0.21983679466E+03 -0.15410458730E+03  0.14091065524E+04  0.14344538077E+04  0.10100000352E+00 0.  1.
</event>
<event>
 5   0  0.4602447E-05  0.2150270E+04  0.7818609E-02  0.8539417E-01
        2   -1    0    0  501    0  0.00000000000E+00  0.00000000000E+00  0.13716814484E+04  0.13716814484E+04  0.25500000920E-02 0. -1.
       -2   -1    0    0    0  501  0.00000000000E+00  0.00000000000E+00 -0.84269945753E+03  0.84269945753E+03  0.25500000920E-02 0.  1.
    10030    2    1    2    0    0  0.00000000000E+00  0.00000000000E+00  0.52898199091E+03  0.22143809060E+04  0.21502699482E+04 0.  0.
        3    1    3    3  502    0  0.45848786792E+03 -0.96782027388E+03  0.16664231100E+03  0.10838158873E+04  0.10100000352E+00 0. -1.
       -3    1    3    3    0  502 -0.45848786792E+03  0.96782027388E+03  0.36233967991E+03  0.11305650187E+04  0.10100000352E+00 0.  1.
</event>
<event>
 5   0  0.2043885E-05  0.2365496E+04  0.7818609E-02  0.8452535E-01
        1   -1    0    0  501    0  0.00000000000E+00  0.00000000000E+00  0.13226223646E+04  0.13226223647E+04  0.50400001928E-02 0. -1.
       -1   -1    0    0    0  501  0.00000000000E+00  0.00000000000E+00 -0.10576665194E+04  0.10576665194E+04  0.50400001928E-02 0.  1.
    10030    2    1    2    0    0  0.00000000000E+00  0.00000000000E+00  0.26495584524E+03  0.23802888841E+04  0.23654964747E+04 0.  0.
        5    1    3    3  502    0  0.51802791525E+02 -0.11810591047E+04  0.16857935866E+03  0.11941629822E+04  0.46999998093E+01 0.  1.
       -5    1    3    3    0  502 -0.51802791525E+02  0.11810591047E+04  0.96376486576E+02  0.11861259019E+04  0.46999998093E+01 0. -1.
</event>
<event>
 5   0  0.4605516E-05  0.2218499E+04  0.7818609E-02  0.8510768E-01
        2   -1    0    0  501    0  0.00000000000E+00  0.00000000000E+00  0.10488998822E+04  0.10488998822E+04  0.25500000920E-02 0. -1.
       -2   -1    0    0    0  501  0.00000000000E+00  0.00000000000E+00 -0.11730714489E+04  0.11730714489E+04  0.25500000920E-02 0.  1.
    10030    2    1    2    0    0  0.00000000000E+00  0.00000000000E+00 -0.12417156666E+03  0.22219713310E+04  0.22184990462E+04 0.  0.
        1    1    3    3  502    0  0.40329668104E+03  0.38721897443E+03  0.89745741295E+03  0.10573630196E+04  0.50400001928E-02 0. -1.
       -1    1    3    3    0  502 -0.40329668104E+03 -0.38721897443E+03 -0.10216289796E+04  0.11646083115E+04  0.50400001928E-02 0.  1.
</event>
<event>
 5   0  0.4602447E-05  0.2298079E+04  0.7818609E-02  0.8478679E-01
        2   -1    0    0  501    0  0.00000000000E+00  0.00000000000E+00  0.16384560876E+04  0.16384560876E+04  0.25500000920E-02 0.  1.
       -2   -1    0    0    0  501  0.00000000000E+00  0.00000000000E+00 -0.80581472908E+03  0.80581472908E+03  0.25500000920E-02 0. -1.
    10030    2    1    2    0    0  0.00000000000E+00  0.00000000000E+00  0.83264135848E+03  0.24442708166E+04  0.22980792400E+04 0.  0.
        3    1    3    3  502    0  0.51624580592E+03 -0.95108178946E+03  0.82719233995E+03  0.13620989244E+04  0.10100000352E+00 0.  1.
       -3    1    3    3    0  502 -0.51624580592E+03  0.95108178946E+03  0.54490185364E+01  0.10821718922E+04  0.10100000352E+00 0. -1.
</event>
<event>
 5   0  0.1604500E-05  0.2326607E+04  0.7818609E-02  0.8467504E-01
        3   -1    0    0  501    0  0.00000000000E+00  0.00000000000E+00  0.18547953973E+04  0.18547954000E+04  0.10100000352E+00 0. -1.
       -3   -1    0    0    0  501  0.00000000000E+00  0.00000000000E+00 -0.72960878664E+03  0.72960879363E+03  0.10100000352E+00 0.  1.
    10030    2    1    2    0    0  0.00000000000E+00  0.00000000000E+00  0.11251866106E+04  0.25844041936E+04  0.23266069989E+04 0.  0.
        2    1    3    3  502    0  0.75383874526E+03  0.42334153275E+03 -0.30196910818E+03  0.91579268915E+03  0.25500000920E-02 0.  1.
       -2    1    3    3    0  502 -0.75383874526E+03 -0.42334153275E+03  0.14271557188E+04  0.16686115045E+04  0.25500000920E-02 0. -1.
</event>
<event>
 5   0  0.2031860E-05  0.2346046E+04  0.7818609E-02  0.8459984E-01
       -1   -1    0    0    0  501  0.00000000000E+00  0.00000000000E+00  0.78302824426E+03  0.78302824427E+03  0.50400001928E-02 0.  1.
        1   -1    0    0  501    0  0.00000000000E+00  0.00000000000E+00 -0.17572585144E+04  0.17572585144E+04  0.50400001928E-02 0. -1.
    10030    2    1    2    0    0  0.00000000000E+00  0.00000000000E+00 -0.97423027013E+03  0.25402867587E+04  0.23460460774E+04 0.  0.
        4    1    3    3  502    0  0.73479141226E+03 -0.81217404634E+03 -0.32294436230E+02  0.10957142167E+04  0.12699999809E+01 0. -1.
       -4    1    3    3    0  502 -0.73479141226E+03  0.81217404634E+03 -0.94193583390E+03  0.14445725420E+04  0.12699999809E+01 0.  1.
</event>
<event>
 5   0  0.2042951E-05  0.2297468E+04  0.7818609E-02  0.8478920E-01
        1   -1    0    0  501    0  0.00000000000E+00  0.00000000000E+00  0.12344221565E+04  0.12344221565E+04  0.50400001928E-02 0.  1.
       -1   -1    0    0    0  501  0.00000000000E+00  0.00000000000E+00 -0.10689943094E+04  0.10689943094E+04  0.50400001928E-02 0. -1.
    10030    2    1    2    0    0  0.00000000000E+00  0.00000000000E+00  0.16542784711E+03  0.23034164659E+04  0.22974683986E+04 0.  0.
        2    1    3    3  502    0 -0.56795206299E+03 -0.28201005486E+03 -0.87762346479E+03  0.10827382707E+04  0.25500000920E-02 0. -1.
       -2    1    3    3    0  502  0.56795206299E+03  0.28201005486E+03  0.10430513119E+04  0.12206781952E+04  0.25500000920E-02 0.  1.
</event>
<event>
 5   0  0.4505107E-05  0.2298504E+04  0.7818609E-02  0.8478511E-01
        2   -1    0    0  501    0  0.00000000000E+00  0.00000000000E+00  0.12390363685E+04  0.12390363685E+04  0.25500000920E-02 0.  1.
       -2   -1    0    0    0  501  0.00000000000E+00  0.00000000000E+00 -0.10659738731E+04  0.10659738732E+04  0.25500000920E-02 0. -1.
    10030    2    1    2    0    0  0.00000000000E+00  0.00000000000E+00  0.17306249536E+03  0.23050102417E+04  0.22985042064E+04 0.  0.
        4    1    3    3  502    0  0.10218136213E+04  0.39174316329E+03 -0.26547941952E+03  0.11260758047E+04  0.12699999809E+01 0.  1.
       -4    1    3    3    0  502 -0.10218136213E+04 -0.39174316329E+03  0.43854191488E+03  0.11789344370E+04  0.12699999809E+01 0. -1.
</event>
<event>
 5   0  0.4605516E-05  0.2229548E+04  0.7818609E-02  0.8506229E-01
       -2   -1    0    0    0  501  0.00000000000E+00  0.00000000000E+00  0.52715706182E+03  0.52715706183E+03  0.25500000920E-02 0.  1.
        2   -1    0    0  501    0  0.00000000000E+00  0.00000000000E+00 -0.23574009118E+04  0.23574009118E+04  0.25500000920E-02 0. -1.
    10030    2    1    2    0    0  0.00000000000E+00  0.00000000000E+00 -0.18302438500E+04  0.28845579736E+04  0.22295475220E+04 0.  0.
        1    1    3    3  502    0 -0.87766426587E+03 -0.63189969312E+03 -0.56525199316E+03  0.12202875077E+04  0.50400001928E-02 0.  1.
       -1    1    3    3    0  502  0.87766426587E+03  0.63189969312E+03 -0.12649918568E+04  0.16642704659E+04  0.50400001928E-02 0. -1.
</event>
<event>
 5   0  0.2085063E-05  0.2301811E+04  0.7818609E-02  0.8477207E-01
       -1   -1    0    0    0  501  0.00000000000E+00  0.00000000000E+00  0.80793833334E+03  0.80793833336E+03  0.50400001928E-02 0. -1.
        1   -1    0    0  501    0  0.00000000000E+00  0.00000000000E+00 -0.16394613864E+04  0.16394613864E+04  0.50400001928E-02 0.  1.
    10030    2    1    2    0    0  0.00000000000E+00  0.00000000000E+00 -0.83152305304E+03  0.24473997197E+04  0.23018112000E+04 0.  0.
        1    1    3    3  502    0 -0.47115854270E+03  0.16431331214E+03 -0.15184668877E+04  0.15983525662E+04  0.50400001928E-02 0.  1.
       -1    1    3    3    0  502  0.47115854270E+03 -0.16431331214E+03  0.68694383466E+03  0.84904715352E+03  0.50400001928E-02 0. -1.
</event>
<event>
 5   0  0.4436695E-05  0.2284456E+04  0.7818609E-02  0.8484075E-01
       -2   -1    0    0    0  501  0.00000000000E+00  0.00000000000E+00  0.69807915452E+03  0.69807915453E+03  0.25500000920E-02 0.  1.
        2   -1    0    0  501    0  0.00000000000E+00  0.00000000000E+00 -0.18689635470E+04  0.18689635470E+04  0.25500000920E-02 0. -1.
    10030    2    1    2    0    0  0.00000000000E+00  0.00000000000E+00 -0.11708843924E+04  0.25670427015E+04  0.22844557275E+04 0.  0.
        5    1    3    3  502    0  0.76757646022E+02  0.10740017207E+04 -0.15712090864E+03  0.10881546316E+04  0.46999998093E+01 0.  1.
       -5    1    3    3    0  502 -0.76757646022E+02 -0.10740017207E+04 -0.10137634838E+04  0.14788880699E+04  0.46999998093E+01 0. -1.
</event>
<event>
 5   0  0.2031860E-05  0.2221065E+04  0.7818609E-02  0.8509711E-01
        1   -1    0    0  501    0  0.00000000000E+00  0.00000000000E+00  0.12427827089E+04  0.12427827089E+04  0.50400001928E-02 0.  1.
       -1   -1    0    0    0  501  0.00000000000E+00  0.00000000000E+00 -0.99235600428E+03  0.99235600429E+03  0.50400001928E-02 0. -1.
    10030    2    1    2    0    0  0.00000000000E+00  0.00000000000E+00  0.25042670461E+03  0.22351387132E+04  0.22210654049E+04 0.  0.
        4    1    3    3  502    0  0.10642644442E+04 -0.30981527807E+03  0.19374002486E+03  0.11252471390E+04  0.12699999809E+01 0.  1.
       -4    1    3    3    0  502 -0.10642644442E+04  0.30981527807E+03  0.56686679748E+02  0.11098915741E+04  0.12699999809E+01 0. -1.
</event>
<event>
 5   0  0.1968318E-05  0.2280712E+04  0.7818609E-02  0.8485565E-01
       -1   -1    0    0    0  501  0.00000000000E+00  0.00000000000E+00  0.19067617173E+04  0.19067617173E+04  0.50400001928E-02 0.  1.
        1   -1    0    0  501    0  0.00000000000E+00  0.00000000000E+00 -0.68199994190E+03  0.68199994192E+03  0.50400001928E-02 0. -1.
    10030    2    1    2    0    0  0.00000000000E+00  0.00000000000E+00  0.12247617754E+04  0.25887616592E+04  0.22807116262E+04 0.  0.
        3    1    3    3  502    0  0.65412692052E+03  0.61711579626E+03  0.14083031702E+04  0.16709373906E+04  0.10100000352E+00 0.  1.
       -3    1    3    3    0  502 -0.65412692052E+03 -0.61711579626E+03 -0.18354139479E+03  0.91782426855E+03  0.10100000352E+00 0. -1.
</event>
<event>
 5   0  0.2042951E-05  0.2298425E+04  0.7818609E-02  0.8478542E-01
       -1   -1    0    0    0  501  0.00000000000E+00  0.00000000000E+00  0.73917054143E+03  0.73917054145E+03  0.50400001928E-02 0.  1.
        1   -1    0    0  501    0  0.00000000000E+00  0.00000000000E+00 -0.17867182862E+04  0.17867182862E+04  0.50400001928E-02 0. -1.
    10030    2    1    2    0    0  0.00000000000E+00  0.00000000000E+00 -0.10475477447E+04  0.25258888276E+04  0.22984251330E+04 0.  0.
        2    1    3    3  502    0 -0.27985528986E+03 -0.82641063278E+03 -0.13457350658E+04  0.16038317819E+04  0.25500000920E-02 0. -1.
       -2    1    3    3    0  502  0.27985528986E+03  0.82641063278E+03  0.29818732103E+03  0.92205704578E+03  0.25500000920E-02 0.  1.
</event>
<event>
 5   0  0.4505107E-05  0.2309214E+04  0.7818609E-02  0.8474297E-01
       -2   -1    0    0    0  501  0.00000000000E+00  0.00000000000E+00  0.74359230748E+03  0.74359230748E+03  0.25500000920E-02 0. -1.
        2   -1    0    0  501    0  0.00000000000E+00  0.00000000000E+00 -0.17928075231E+04  0.17928075231E+04  0.25500000920E-02 0.  1.
    10030    2    1    2    0    0  0.00000000000E+00  0.00000000000E+00 -0.10492152156E+04  0.25363998306E+04  0.23092144837E+04 0.  0.
        4    1    3    3  502    0  0.21679905249E+03  0.30447625790E+03 -0.17245158410E+04  0.17645577688E+04  0.12699999809E+01 0.  1.
       -4    1    3    3    0  502 -0.21679905249E+03 -0.30447625790E+03  0.67530062536E+03  0.77184206176E+03  0.12699999809E+01 0. -1.
</event>
<event>
 5   0  0.2085063E-05  0.2284741E+04  0.7818609E-02  0.8483962E-01
       -1   -1    0    0    0  501  0.00000000000E+00  0.00000000000E+00  0.67855667694E+03  0.67855667696E+03  0.50400001928E-02 0. -1.
        1   -1    0    0  501    0  0.00000000000E+00  0.00000000000E+00 -0.19232156372E+04  0.19232156372E+04  0.50400001928E-02 0.  1.
    10030    2    1    2    0    0  0.00000000000E+00  0.00000000000E+00 -0.12446589602E+04  0.26017723141E+04  0.22847413961E+04 0.  0.
        1    1    3    3  502    0  0.11588594929E+03 -0.10033233145E+04 -0.12301795034E+04  0.15916748528E+04  0.50400001928E-02 0.  1.
       -1    1    3    3    0  502 -0.11588594929E+03  0.10033233145E+04 -0.14479456818E+02  0.10100974613E+04  0.50400001928E-02 0. -1.
</event>
<event>
 5   0  0.1968318E-05  0.2300002E+04  0.7818609E-02  0.8477920E-01
        1   -1    0    0  501    0  0.00000000000E+00  0.00000000000E+00  0.13187087735E+04  0.13187087735E+04  0.50400001928E-02 0.  1.
       -1   -1    0    0    0  501  0.00000000000E+00  0.00000000000E+00 -0.10028766386E+04  0.10028766386E+04  0.50400001928E-02 0. -1.
    10030    2    1    2    0    0  0.00000000000E+00  0.00000000000E+00  0.31583213490E+03  0.23215854121E+04  0.23000019322E+04 0.  0.
        3    1    3    3  502    0  0.61280932483E+03 -0.94461412891E+03 -0.78096611526E+02  0.11286851696E+04  0.10100000352E+00 0.  1.
       -3    1    3    3    0  502 -0.61280932483E+03  0.94461412891E+03  0.39392874643E+03  0.11929002425E+04  0.10100000352E+00 0. -1.
</event>
<event>
 5   0  0.4798609E-05  0.2301787E+04  0.7818609E-02  0.8477217E-01
       -2   -1    0    0    0  501  0.00000000000E+00  0.00000000000E+00  0.87617954584E+03  0.87617954584E+03  0.25500000920E-02 0.  1.
        2   -1    0    0  501    0  0.00000000000E+00  0.00000000000E+00 -0.15117402681E+04  0.15117402681E+04  0.25500000920E-02 0. -1.
    10030    2    1    2    0    0  0.00000000000E+00  0.00000000000E+00 -0.63556072229E+03  0.23879198140E+04  0.23017870462E+04 0.  0.
        2    1    3    3  502    0 -0.69525208037E+03  0.29074998960E+03  0.58462288554E+03  0.95377928789E+03  0.25500000920E-02 0.  1.
       -2    1    3    3    0  502  0.69525208037E+03 -0.29074998960E+03 -0.12201836078E+04  0.14341405261E+04  0.25500000920E-02 0. -1.
</event>
<event>
 5   0  0.4505107E-05  0.2278735E+04  0.7818609E-02  0.8486353E-01
        2   -1    0    0  501    0  0.00000000000E+00  0.00000000000E+00  0.12216585988E+04  0.12216585988E+04  0.25500000920E-02 0. -1.
       -2   -1    0    0    0  501  0.00000000000E+00  0.00000000000E+00 -0.10626192229E+04  0.10626192229E+04  0.25500000920E-02 0.  1.
    10030    2    1    2    0    0  0.00000000000E+00  0.00000000000E+00  0.15903937591E+03  0.22842778217E+04  0.22787346585E+04 0.  0.
        4    1    3    3  502    0 -0.98332089204E+03  0.43580369684E+03 -0.29730891113E+03  0.11159027917E+04  0.12699999809E+01 0. -1.
       -4    1    3    3    0  502  0.98332089204E+03 -0.43580369684E+03  0.45634828705E+03  0.11683750301E+04  0.12699999809E+01 0.  1.
</event>
<event>
 5   0  0.2043885E-05  0.2284903E+04  0.7818609E-02  0.8483898E-01
        1   -1    0    0  501    0  0.00000000000E+00  0.00000000000E+00  0.49459415470E+03  0.49459415473E+03  0.50400001928E-02 0.  1.
       -1   -1    0    0    0  501  0.00000000000E+00  0.00000000000E+00 -0.26389217588E+04  0.26389217588E+04  0.50400001928E-02 0. -1.
    10030    2    1    2    0    0  0.00000000000E+00  0.00000000000E+00 -0.21443276041E+04  0.31335159136E+04  0.22849028659E+04 0.  0.
        5    1    3    3  502    0  0.61291556859E+03  0.52492902444E+03  0.36854795214E+02  0.80783435236E+03  0.46999998093E+01 0.  1.
       -5    1    3    3    0  502 -0.61291556859E+03 -0.52492902444E+03 -0.21811823994E+04  0.23256815612E+04  0.46999998093E+01 0. -1.
</event>
<event>
 5   0  0.4505107E-05  0.2325016E+04  0.7818609E-02  0.8468123E-01
        2   -1    0    0  501    0  0.00000000000E+00  0.00000000000E+00  0.26083056958E+04  0.26083056958E+04  0.25500000920E-02 0. -1.
       -2   -1    0    0    0  501  0.00000000000E+00  0.00000000000E+00 -0.51812348288E+03  0.51812348288E+03  0.25500000920E-02 0.  1.
    10030    2    1    2    0    0  0.00000000000E+00  0.00000000000E+00  0.20901822129E+04  0.31264291787E+04  0.23250156400E+04 0.  0.
        4    1    3    3  502    0  0.28597471377E+03  0.11017962827E+04  0.13624105155E+04  0.17753592908E+04  0.12699999809E+01 0.  1.
       -4    1    3    3    0  502 -0.28597471377E+03 -0.11017962827E+04  0.72777169739E+03  0.13510698879E+04  0.12699999809E+01 0. -1.
</event>
<event>
 5   0  0.2042951E-05  0.2698750E+04  0.7818609E-02  0.8335411E-01
        1   -1    0    0  501    0  0.00000000000E+00  0.00000000000E+00  0.16425349481E+04  0.16425349481E+04  0.50400001928E-02 0.  1.
       -1   -1    0    0    0  501  0.00000000000E+00  0.00000000000E+00 -0.11085379580E+04  0.11085379580E+04  0.50400001928E-02 0. -1.
    10030    2    1    2    0    0  0.00000000000E+00  0.00000000000E+00  0.53399699010E+03  0.27510729060E+04  0.26987495899E+04 0.  0.
        2    1    3    3  502    0 -0.62413037438E+03  0.11014180010E+04 -0.20912444845E+03  0.12831186119E+04  0.25500000920E-02 0. -1.
       -2    1    3    3    0  502  0.62413037438E+03 -0.11014180010E+04  0.74312143855E+03  0.14679542941E+04  0.25500000920E-02 0.  1.
</event>
<event>
 5   0  0.4436695E-05  0.2314559E+04  0.7818609E-02  0.8472203E-01
        2   -1    0    0  501    0  0.00000000000E+00  0.00000000000E+00  0.15815346313E+04  0.15815346313E+04  0.25500000920E-02 0. -1.
       -2   -1    0    0    0  501  0.00000000000E+00  0.00000000000E+00 -0.84683339631E+03  0.84683339631E+03  0.25500000920E-02 0.  1.
    10030    2    1    2    0    0  0.00000000000E+00  0.00000000000E+00  0.73470123503E+03  0.24283680277E+04  0.23145594339E+04 0.  0.
        5    1    3    3  502    0  0.35884234570E+03  0.49732386762E+03 -0.66232127765E+03  0.90265742295E+03  0.46999998093E+01 0.  1.
       -5    1    3    3    0  502 -0.35884234570E+03 -0.49732386762E+03  0.13970225127E+04  0.15257106047E+04  0.46999998093E+01 0. -1.
</event>
<event>
 5   0  0.2031860E-05  0.2291046E+04  0.7818609E-02  0.8481460E-01
        1   -1    0    0  501    0  0.00000000000E+00  0.00000000000E+00  0.26389823647E+04  0.26389823647E+04  0.50400001928E-02 0.  1.
       -1   -1    0    0    0  501  0.00000000000E+00  0.00000000000E+00 -0.49724598747E+03  0.49724598750E+03  0.50400001928E-02 0. -1.
    10030    2    1    2    0    0  0.00000000000E+00  0.00000000000E+00  0.21417363772E+04  0.31362283522E+04  0.22910463914E+04 0.  0.
        4    1    3    3  502    0 -0.10177240731E+04 -0.23871161677E+03  0.17121775255E+04  0.20060655564E+04  0.12699999809E+01 0.  1.
       -4    1    3    3    0  502  0.10177240731E+04  0.23871161677E+03  0.42955885176E+03  0.11301627958E+04  0.12699999809E+01 0. -1.
</event>
<event>
 5   0  0.4602447E-05  0.2432020E+04  0.7818609E-02  0.8427612E-01
       -2   -1    0    0    0  501  0.00000000000E+00  0.00000000000E+00  0.88408914166E+03  0.88408914167E+03  0.25500000920E-02 0. -1.
        2   -1    0    0  501    0  0.00000000000E+00  0.00000000000E+00 -0.16725459647E+04  0.16725459647E+04  0.25500000920E-02 0.  1.
    10030    2    1    2    0    0  0.00000000000E+00  0.00000000000E+00 -0.78845682300E+03  0.25566351063E+04  0.24320195117E+04 0.  0.
        3    1    3    3  502    0  0.13362001542E+03  0.51102026834E+03 -0.15456518640E+04  0.16334122927E+04  0.10100000352E+00 0.  1.
       -3    1    3    3    0  502 -0.13362001542E+03 -0.51102026834E+03  0.75719504101E+03  0.92322281358E+03  0.10100000352E+00 0. -1.
</event>
<event>
 5   0  0.1604500E-05  0.2302993E+04  0.7818609E-02  0.8476742E-01
        4   -1    0    0  501    0  0.00000000000E+00  0.00000000000E+00  0.11307883493E+04  0.11307890625E+04  0.12699999809E+01 0. -1.
       -4   -1    0    0    0  501  0.00000000000E+00  0.00000000000E+00 -0.11725824288E+04  0.11725831166E+04  0.12699999809E+01 0.  1.
    10030    2    1    2    0    0  0.00000000000E+00  0.00000000000E+00 -0.41794079549E+02  0.23033721790E+04  0.23029929766E+04 0.  0.
        3    1    3    3  502    0 -0.10955531241E+04 -0.39292499654E+02 -0.37332362243E+03  0.11580807767E+04  0.10100000352E+00 0.  1.
       -3    1    3    3    0  502  0.10955531241E+04  0.39292499654E+02  0.33152954288E+03  0.11452914023E+04  0.10100000352E+00 0. -1.
</event>
<event>
 5   0  0.4798609E-05  0.2296311E+04  0.7818609E-02  0.8479377E-01
       -2   -1    0    0    0  501  0.00000000000E+00  0.00000000000E+00  0.81048034504E+03  0.81048034505E+03  0.25500000920E-02 0. -1.
        2   -1    0    0  501    0  0.00000000000E+00  0.00000000000E+00 -0.16265178602E+04  0.16265178602E+04  0.25500000920E-02 0.  1.
    10030    2    1    2    0    0  0.00000000000E+00  0.00000000000E+00 -0.81603751512E+03  0.24369982052E+04  0.22963107425E+04 0.  0.
        2    1    3    3  502    0 -0.11133202944E+04  0.85706922483E+01 -0.70575131314E+03  0.13181959076E+04  0.25500000920E-02 0. -1.
       -2    1    3    3    0  502  0.11133202944E+04 -0.85706922483E+01 -0.11028620198E+03  0.11188022976E+04  0.25500000920E-02 0.  1.
</event>
<event>
 5   0  0.1604500E-05  0.2286020E+04  0.7818609E-02  0.8483454E-01
       -3   -1    0    0    0  501  0.00000000000E+00  0.00000000000E+00  0.14194191728E+04  0.14194191764E+04  0.10100000352E+00 0.  1.
        3   -1    0    0  501    0  0.00000000000E+00  0.00000000000E+00 -0.92042735063E+03  0.92042735618E+03  0.10100000352E+00 0. -1.
    10030    2    1    2    0    0  0.00000000000E+00  0.00000000000E+00  0.49899182215E+03  0.23398465326E+04  0.22860203318E+04 0.  0.
        1    1    3    3  502    0 -0.13869747720E+03  0.69962184144E+02  0.14085640592E+04  0.14171042327E+04  0.50400001928E-02 0.  1.
       -1    1    3    3    0  502  0.13869747720E+03 -0.69962184144E+02 -0.90957223709E+03  0.92274229983E+03  0.50400001928E-02 0. -1.
</event>
<event>
 5   0  0.4505107E-05  0.2294422E+04  0.7818609E-02  0.8480124E-01
       -2   -1    0    0    0  501  0.00000000000E+00  0.00000000000E+00  0.10820345102E+04  0.10820345102E+04  0.25500000920E-02 0. -1.
        2   -1    0    0  501    0  0.00000000000E+00  0.00000000000E+00 -0.12163130101E+04  0.12163130101E+04  0.25500000920E-02 0.  1.
    10030    2    1    2    0    0  0.00000000000E+00  0.00000000000E+00 -0.13427849984E+03  0.22983475203E+04  0.22944216283E+04 0.  0.
        4    1    3    3  502    0  0.22867727322E+03  0.96958696409E+03  0.50277964495E+03  0.11158768572E+04  0.12699999809E+01 0. -1.
       -4    1    3    3    0  502 -0.22867727322E+03 -0.96958696409E+03 -0.63705814479E+03  0.11824706630E+04  0.12699999809E+01 0.  1.
</event>
<event>
 5   0  0.4436695E-05  0.2292893E+04  0.7818609E-02  0.8480728E-01
       -2   -1    0    0    0  501  0.00000000000E+00  0.00000000000E+00  0.11290312771E+04  0.11290312771E+04  0.25500000920E-02 0.  1.
        2   -1    0    0  501    0  0.00000000000E+00  0.00000000000E+00 -0.11641307635E+04  0.11641307635E+04  0.25500000920E-02 0. -1.
    10030    2    1    2    0    0  0.00000000000E+00  0.00000000000E+00 -0.35099486477E+02  0.22931620406E+04  0.22928934058E+04 0.  0.
        5    1    3    3  502    0  0.73255070694E+02  0.60477398449E+03 -0.98884840895E+03  0.11614478652E+04  0.46999998093E+01 0. -1.
       -5    1    3    3    0  502 -0.73255070694E+02 -0.60477398449E+03  0.95374892248E+03  0.11317141754E+04  0.46999998093E+01 0.  1.
</event>
<event>
 5   0  0.2031860E-05  0.2282786E+04  0.7818609E-02  0.8484739E-01
       -1   -1    0    0    0  501  0.00000000000E+00  0.00000000000E+00  0.73784817531E+03  0.73784817533E+03  0.50400001928E-02 0. -1.
        1   -1    0    0  501    0  0.00000000000E+00  0.00000000000E+00 -0.17656448120E+04  0.17656448120E+04  0.50400001928E-02 0.  1.
    10030    2    1    2    0    0  0.00000000000E+00  0.00000000000E+00 -0.10277966367E+04  0.25034929874E+04  0.22827858444E+04 0.  0.
        4    1    3    3  502    0  0.54316100424E+03 -0.58803524083E+03 -0.14061745723E+04  0.16180660869E+04  0.12699999809E+01 0.  1.
       -4    1    3    3    0  502 -0.54316100424E+03  0.58803524083E+03  0.37837793559E+03  0.88542690044E+03  0.12699999809E+01 0. -1.
</event>
<event>
 5   0  0.2042951E-05  0.2299629E+04  0.7818609E-02  0.8478068E-01
        1   -1    0    0  501    0  0.00000000000E+00  0.00000000000E+00  0.13494656451E+04  0.13494656451E+04  0.50400001928E-02 0. -1.
       -1   -1    0    0    0  501  0.00000000000E+00  0.00000000000E+00 -0.97970099696E+03  0.97970099697E+03  0.50400001928E-02 0.  1.
    10030    2    1    2    0    0  0.00000000000E+00  0.00000000000E+00  0.36976464818E+03  0.23291666421E+04  0.22996285247E+04 0.  0.
        2    1    3    3  502    0  0.50663819103E+03 -0.40808414207E+03 -0.77537670166E+03  0.10121383073E+04  0.25500000920E-02 0.  1.
       -2    1    3    3    0  502 -0.50663819103E+03  0.40808414207E+03  0.11451413498E+04  0.13170283348E+04  0.25500000920E-02 0. -1.
</event>
<event>
 5   0  0.4436695E-05  0.2316087E+04  0.7818609E-02  0.8471605E-01
        2   -1    0    0  501    0  0.00000000000E+00  0.00000000000E+00  0.77865362517E+03  0.77865362518E+03  0.25500000920E-02 0.  1.
       -2   -1    0    0    0  501  0.00000000000E+00  0.00000000000E+00 -0.17222871667E+04  0.17222871667E+04  0.25500000920E-02 0. -1.
    10030    2    1    2    0    0  0.00000000000E+00  0.00000000000E+00 -0.94363354153E+03  0.25009407919E+04  0.23160873437E+04 0.  0.
        5    1    3    3  502    0 -0.12758799157E+03  0.79536218000E+03  0.42654814061E+03  0.91150704836E+03  0.46999998093E+01 0.  1.
       -5    1    3    3    0  502  0.12758799157E+03 -0.79536218000E+03 -0.13701816821E+04  0.15894337435E+04  0.46999998093E+01 0. -1.
</event>
<event>
 5   0  0.1968318E-05  0.2244412E+04  0.7818609E-02  0.8500167E-01
        1   -1    0    0  501    0  0.00000000000E+00  0.00000000000E+00  0.13010247965E+04  0.13010247965E+04  0.50400001928E-02 0.  1.
       -1   -1    0    0    0  501  0.00000000000E+00  0.00000000000E+00 -0.96796492295E+03  0.96796492297E+03  0.50400001928E-02 0. -1.
    10030    2    1    2    0    0  0.00000000000E+00  0.00000000000E+00  0.33305987352E+03  0.22689897194E+04  0.22444120539E+04 0.  0.
        3    1    3    3  502    0  0.20521634432E+03 -0.35995051307E+03  0.12208638078E+04  0.12892581461E+04  0.10100000352E+00 0.  1.
       -3    1    3    3    0  502 -0.20521634432E+03  0.35995051307E+03 -0.88780393431E+03  0.97973157334E+03  0.10100000352E+00 0. -1.
</event>
<event>
 5   0  0.4605516E-05  0.2243241E+04  0.7818609E-02  0.8500643E-01
       -2   -1    0    0    0  501  0.00000000000E+00  0.00000000000E+00  0.54373340864E+03  0.54373340865E+03  0.25500000920E-02 0.  1.
        2   -1    0    0  501    0  0.00000000000E+00  0.00000000000E+00 -0.23136941365E+04  0.23136941365E+04  0.25500000920E-02 0. -1.
    10030    2    1    2    0    0  0.00000000000E+00  0.00000000000E+00 -0.17699607279E+04  0.28574275452E+04  0.22432412259E+04 0.  0.
        1    1    3    3  502    0 -0.33558662847E+03 -0.19937464905E+03  0.45442139826E+03  0.59905545913E+03  0.50400001928E-02 0.  1.
       -1    1    3    3    0  502  0.33558662847E+03  0.19937464905E+03 -0.22243821261E+04  0.22583720860E+04  0.50400001928E-02 0. -1.
</event>
<event>
 5   0  0.2085063E-05  0.2311863E+04  0.7818609E-02  0.8473258E-01
       -1   -1    0    0    0  501  0.00000000000E+00  0.00000000000E+00  0.97490469373E+03  0.97490469374E+03  0.50400001928E-02 0.  1.
        1   -1    0    0  501    0  0.00000000000E+00  0.00000000000E+00 -0.13705721847E+04  0.13705721847E+04  0.50400001928E-02 0. -1.
    10030    2    1    2    0    0  0.00000000000E+00  0.00000000000E+00 -0.39566749100E+03  0.23454768785E+04  0.23118626741E+04 0.  0.
        1    1    3    3  502    0  0.10141265825E+04  0.23282303442E+03 -0.70866033273E+03  0.12589117356E+04  0.50400001928E-02 0. -1.
       -1    1    3    3    0  502 -0.10141265825E+04 -0.23282303442E+03  0.31299284173E+03  0.10865651429E+04  0.50400001928E-02 0.  1.
</event>
<event>
 5   0  0.4605516E-05  0.2298357E+04  0.7818609E-02  0.8478569E-01
       -2   -1    0    0    0  501  0.00000000000E+00  0.00000000000E+00  0.98088594698E+03  0.98088594698E+03  0.25500000920E-02 0. -1.
        2   -1    0    0  501    0  0.00000000000E+00  0.00000000000E+00 -0.13463456886E+04  0.13463456886E+04  0.25500000920E-02 0.  1.
    10030    2    1    2    0    0  0.00000000000E+00  0.00000000000E+00 -0.36545974167E+03  0.23272316356E+04  0.22983572967E+04 0.  0.
        1    1    3    3  502    0 -0.51992975152E+03  0.53558380305E+03 -0.10674542406E+04  0.13025496200E+04  0.50400001928E-02 0.  1.
       -1    1    3    3    0  502  0.51992975152E+03 -0.53558380305E+03  0.70199449897E+03  0.10246820157E+04  0.50400001928E-02 0. -1.
</event>
<event>
 5   0  0.4605516E-05  0.2305603E+04  0.7818609E-02  0.8475715E-01
       -2   -1    0    0    0  501  0.00000000000E+00  0.00000000000E+00  0.13810056415E+04  0.13810056415E+04  0.25500000920E-02 0. -1.
        2   -1    0    0  501    0  0.00000000000E+00  0.00000000000E+00 -0.96230689773E+03  0.96230689774E+03  0.25500000920E-02 0.  1.
    10030    2    1    2    0    0  0.00000000000E+00  0.00000000000E+00  0.41869874373E+03  0.23433125392E+04  0.23056029620E+04 0.  0.
        1    1    3    3  502    0  0.25247221403E+03 -0.95616770895E+03 -0.39275221425E+03  0.10640738735E+04  0.50400001928E-02 0.  1.
       -1    1    3    3    0  502 -0.25247221403E+03  0.95616770895E+03  0.81145095798E+03  0.12792386657E+04  0.50400001928E-02 0. -1.
</event>
<event>
 5   0  0.4436695E-05  0.2295623E+04  0.7818609E-02  0.8479649E-01
       -2   -1    0    0    0  501  0.00000000000E+00  0.00000000000E+00  0.64486950491E+03  0.64486950492E+03  0.25500000920E-02 0.  1.
        2   -1    0    0  501    0  0.00000000000E+00  0.00000000000E+00 -0.20430037293E+04  0.20430037293E+04  0.25500000920E-02 0. -1.
    10030    2    1    2    0    0  0.00000000000E+00  0.00000000000E+00 -0.13981342244E+04  0.26878732342E+04  0.22956226201E+04 0.  0.
        5    1    3    3  502    0  0.77116564436E+03  0.46430274275E+03 -0.15329159017E+04  0.17776745315E+04  0.46999998093E+01 0. -1.
       -5    1    3    3    0  502 -0.77116564436E+03 -0.46430274275E+03  0.13478167735E+03  0.91019870277E+03  0.46999998093E+01 0.  1.
</event>
<event>
 5   0  0.4602447E-05  0.2348555E+04  0.7818609E-02  0.8459019E-01
       -2   -1    0    0    0  501  0.00000000000E+00  0.00000000000E+00  0.93982230956E+03  0.93982230957E+03  0.25500000920E-02 0.  1.
        2   -1    0    0  501    0  0.00000000000E+00  0.00000000000E+00 -0.14672219690E+04  0.14672219690E+04  0.25500000920E-02 0. -1.
    10030    2    1    2    0    0  0.00000000000E+00  0.00000000000E+00 -0.52739965941E+03  0.24070442785E+04  0.23485552491E+04 0.  0.
        3    1    3    3  502    0 -0.44312358079E+02  0.10693146431E+04 -0.75898478736E+03  0.13120424188E+04  0.10100000352E+00 0. -1.
       -3    1    3    3    0  502  0.44312358079E+02 -0.10693146431E+04  0.23158512796E+03  0.10950018597E+04  0.10100000352E+00 0.  1.
</event>
<event>
 5   0  0.2042951E-05  0.2297842E+04  0.7818609E-02  0.8478773E-01
        1   -1    0    0  501    0  0.00000000000E+00  0.00000000000E+00  0.16183435428E+04  0.16183435428E+04  0.50400001928E-02 0. -1.
       -1   -1    0    0    0  501  0.00000000000E+00  0.00000000000E+00 -0.81566071773E+03  0.81566071774E+03  0.50400001928E-02 0.  1.
    10030    2    1    2    0    0  0.00000000000E+00  0.00000000000E+00  0.80268282504E+03  0.24340042605E+04  0.22978418185E+04 0.  0.
        2    1    3    3  502    0 -0.88393367445E+03  0.48122772113E+03  0.98834586157E+03  0.14105837098E+04  0.25500000920E-02 0. -1.
       -2    1    3    3    0  502  0.88393367445E+03 -0.48122772113E+03 -0.18566303652E+03  0.10234205507E+04  0.25500000920E-02 0.  1.
</event>
<event>
 5   0  0.1968318E-05  0.2305120E+04  0.7818609E-02  0.8475905E-01
       -1   -1    0    0    0  501  0.00000000000E+00  0.00000000000E+00  0.79514728461E+03  0.79514728462E+03  0.50400001928E-02 0. -1.
        1   -1    0    0  501    0  0.00000000000E+00  0.00000000000E+00 -0.16706275037E+04  0.16706275037E+04  0.50400001928E-02 0.  1.
    10030    2    1    2    0    0  0.00000000000E+00  0.00000000000E+00 -0.87548021908E+03  0.24657747883E+04  0.23051203207E+04 0.  0.
        3    1    3    3  502    0  0.26536278773E+03  0.53244599257E+03  0.61821632096E+03  0.85796711697E+03  0.10100000352E+00 0. -1.
       -3    1    3    3    0  502 -0.26536278773E+03 -0.53244599257E+03 -0.14936965400E+04  0.16078076713E+04  0.10100000352E+00 0.  1.
</event>
<event>
 5   0  0.1604500E-05  0.2300914E+04  0.7818609E-02  0.8477561E-01
       -3   -1    0    0    0  501  0.00000000000E+00  0.00000000000E+00  0.11860023191E+04  0.11860023234E+04  0.10100000352E+00 0. -1.
        3   -1    0    0  501    0  0.00000000000E+00  0.00000000000E+00 -0.11159768205E+04  0.11159768251E+04  0.10100000352E+00 0.  1.
    10030    2    1    2    0    0  0.00000000000E+00  0.00000000000E+00  0.70025498558E+02  0.23019791485E+04  0.23009138249E+04 0.  0.
        5    1    3    3  502    0 -0.20693871453E+03 -0.79590024214E+03 -0.76987710729E+03  0.11265050720E+04  0.46999998093E+01 0.  1.
       -5    1    3    3    0  502  0.20693871453E+03  0.79590024214E+03  0.83990260585E+03  0.11754740764E+04  0.46999998093E+01 0. -1.
</event>
<event>
 5   0  0.2042951E-05  0.2213873E+04  0.7818609E-02  0.8512676E-01
        1   -1    0    0  501    0  0.00000000000E+00  0.00000000000E+00  0.13655664915E+04  0.13655664915E+04  0.50400001928E-02 0. -1.
       -1   -1    0    0    0  501  0.00000000000E+00  0.00000000000E+00 -0.89728972442E+03  0.89728972443E+03  0.50400001928E-02 0.  1.
    10030    2    1    2    0    0  0.00000000000E+00  0.00000000000E+00  0.46827676710E+03  0.22628562160E+04  0.22138733305E+04 0.  0.
        2    1    3    3  502    0  0.41832815887E+03 -0.52462074077E+03 -0.66572879466E+03  0.94520907645E+03  0.25500000920E-02 0.  1.
       -2    1    3    3    0  502 -0.41832815887E+03  0.52462074077E+03  0.11340055618E+04  0.13176471395E+04  0.25500000920E-02 0. -1.
</event>
<event>
 5   0  0.2085063E-05  0.2405597E+04  0.7818609E-02  0.8437411E-01
       -1   -1    0    0    0  501  0.00000000000E+00  0.00000000000E+00  0.14157772775E+04  0.14157772775E+04  0.50400001928E-02 0.  1.
        1   -1    0    0  501    0  0.00000000000E+00  0.00000000000E+00 -0.10218582676E+04  0.10218582676E+04  0.50400001928E-02 0. -1.
    10030    2    1    2    0    0  0.00000000000E+00  0.00000000000E+00  0.39391900997E+03  0.24376355451E+04  0.24055965714E+04 0.  0.
        1    1    3    3  502    0  0.73593845433E+03 -0.38383502510E+03  0.10790641742E+04  0.13613648398E+04  0.50400001928E-02 0.  1.
       -1    1    3    3    0  502 -0.73593845433E+03  0.38383502510E+03 -0.68514516419E+03  0.10762707053E+04  0.50400001928E-02 0. -1.
</event>
<event>
 5   0  0.4605516E-05  0.2330591E+04  0.7818609E-02  0.8465956E-01
       -2   -1    0    0    0  501  0.00000000000E+00  0.00000000000E+00  0.10164947629E+04  0.10164947629E+04  0.25500000920E-02 0.  1.
        2   -1    0    0  501    0  0.00000000000E+00  0.00000000000E+00 -0.13358787257E+04  0.13358787257E+04  0.25500000920E-02 0. -1.
    10030    2    1    2    0    0  0.00000000000E+00  0.00000000000E+00 -0.31938396275E+03  0.23523734886E+04  0.23305911083E+04 0.  0.
        1    1    3    3  502    0 -0.65127072217E+03  0.63407945462E+03 -0.89568707298E+03  0.12761134907E+04  0.50400001928E-02 0. -1.
       -1    1    3    3    0  502  0.65127072217E+03 -0.63407945462E+03  0.57630311022E+03  0.10762599980E+04  0.50400001928E-02 0.  1.
</event>
<event>
 5   0  0.1968318E-05  0.2297956E+04  0.7818609E-02  0.8478727E-01
        1   -1    0    0  501    0  0.00000000000E+00  0.00000000000E+00  0.70526605047E+03  0.70526605049E+03  0.50400001928E-02 0.  1.
       -1   -1    0    0    0  501  0.00000000000E+00  0.00000000000E+00 -0.18718481489E+04  0.18718481489E+04  0.50400001928E-02 0. -1.
    10030    2    1    2    0    0  0.00000000000E+00  0.00000000000E+00 -0.11665820984E+04  0.25771141994E+04  0.22979564409E+04 0.  0.
        3    1    3    3  502    0  0.74058174388E+00 -0.10192148941E+04 -0.11781532943E+04  0.15578333492E+04  0.10100000352E+00 0. -1.
       -3    1    3    3    0  502 -0.74058174388E+00  0.10192148941E+04  0.11571195930E+02  0.10192808502E+04  0.10100000352E+00 0.  1.
</event>
<event>
 5   0  0.4798609E-05  0.1942133E+04  0.7818609E-02  0.8634164E-01
       -2   -1    0    0    0  501  0.00000000000E+00  0.00000000000E+00  0.11066159990E+04  0.11066159990E+04  0.25500000920E-02 0.  1.
        2   -1    0    0  501    0  0.00000000000E+00  0.00000000000E+00 -0.85212035638E+03  0.85212035639E+03  0.25500000920E-02 0. -1.
    10030    2    1    2    0    0  0.00000000000E+00  0.00000000000E+00  0.25449564258E+03  0.19587363554E+04  0.19421328682E+04 0.  0.
        2    1    3    3  502    0 -0.90314045202E+03  0.33493018334E+03  0.25129983460E+03  0.99548606754E+03  0.25500000920E-02 0. -1.
       -2    1    3    3    0  502  0.90314045202E+03 -0.33493018334E+03  0.31958079874E+01  0.96325028782E+03  0.25500000920E-02 0.  1.
</event>
<event>
 5   0  0.2043885E-05  0.2289788E+04  0.7818609E-02  0.8481959E-01
       -1   -1    0    0    0  501  0.00000000000E+00  0.00000000000E+00  0.17924685722E+04  0.17924685722E+04  0.50400001928E-02 0.  1.
        1   -1    0    0  501    0  0.00000000000E+00  0.00000000000E+00 -0.73127179470E+03  0.73127179472E+03  0.50400001928E-02 0. -1.
    10030    2    1    2    0    0  0.00000000000E+00  0.00000000000E+00  0.10611967775E+04  0.25237403669E+04  0.22897875096E+04 0.  0.
        5    1    3    3  502    0  0.47332183256E+03  0.97485730456E+03  0.12357092098E+03  0.10907209469E+04  0.46999998093E+01 0.  1.
       -5    1    3    3    0  502 -0.47332183256E+03 -0.97485730456E+03  0.93762585651E+03  0.14330194200E+04  0.46999998093E+01 0. -1.
</event>
<event>
 5   0  0.4505107E-05  0.2291150E+04  0.7818609E-02  0.8481419E-01
       -2   -1    0    0    0  501  0.00000000000E+00  0.00000000000E+00  0.11093782033E+04  0.11093782033E+04  0.25500000920E-02 0. -1.
        2   -1    0    0  501    0  0.00000000000E+00  0.00000000000E+00 -0.11829531624E+04  0.11829531624E+04  0.25500000920E-02 0.  1.
    10030    2    1    2    0    0  0.00000000000E+00  0.00000000000E+00 -0.73574959105E+02  0.22923313657E+04  0.22911503258E+04 0.  0.
        4    1    3    3  502    0 -0.47743979739E+03 -0.38839910380E+03  0.92990838975E+03  0.11151384892E+04  0.12699999809E+01 0. -1.
       -4    1    3    3    0  502  0.47743979739E+03  0.38839910380E+03 -0.10034833489E+04  0.11771928764E+04  0.12699999809E+01 0.  1.
</event>
<event>
 5   0  0.4605516E-05  0.2294973E+04  0.7818609E-02  0.8479906E-01
       -2   -1    0    0    0  501  0.00000000000E+00  0.00000000000E+00  0.12272980223E+04  0.12272980223E+04  0.25500000920E-02 0.  1.
        2   -1    0    0  501    0  0.00000000000E+00  0.00000000000E+00 -0.10728648625E+04  0.10728648625E+04  0.25500000920E-02 0. -1.
    10030    2    1    2    0    0  0.00000000000E+00  0.00000000000E+00  0.15443315981E+03  0.23001628848E+04  0.22949727004E+04 0.  0.
        1    1    3    3  502    0  0.12291174299E+03 -0.41255735250E+03  0.11433016294E+04  0.12216584963E+04  0.50400001928E-02 0.  1.
       -1    1    3    3    0  502 -0.12291174299E+03  0.41255735250E+03 -0.98886846963E+03  0.10785043885E+04  0.50400001928E-02 0. -1.
</event>
<event>
 5   0  0.4605516E-05  0.2292932E+04  0.7818609E-02  0.8480713E-01
        2   -1    0    0  501    0  0.00000000000E+00  0.00000000000E+00  0.17730234221E+04  0.17730234221E+04  0.25500000920E-02 0.  1.
       -2   -1    0    0    0  501  0.00000000000E+00  0.00000000000E+00 -0.74132379864E+03  0.74132379864E+03  0.25500000920E-02 0. -1.
    10030    2    1    2    0    0  0.00000000000E+00  0.00000000000E+00  0.10316996235E+04  0.25143472208E+04  0.22929321476E+04 0.  0.
        1    1    3    3  502    0  0.64367624368E+03  0.54413267633E+03 -0.33636115483E+03  0.90749011159E+03  0.50400001928E-02 0. -1.
       -1    1    3    3    0  502 -0.64367624368E+03 -0.54413267633E+03  0.13680607783E+04  0.16068571092E+04  0.50400001928E-02 0.  1.
</event>
<event>
 5   0  0.2031860E-05  0.2314097E+04  0.7818609E-02  0.8472383E-01
       -1   -1    0    0    0  501  0.00000000000E+00  0.00000000000E+00  0.88843420947E+03  0.88843420948E+03  0.50400001928E-02 0. -1.
        1   -1    0    0  501    0  0.00000000000E+00  0.00000000000E+00 -0.15068773842E+04  0.15068773842E+04  0.50400001928E-02 0.  1.
    10030    2    1    2    0    0  0.00000000000E+00  0.00000000000E+00 -0.61844317475E+03  0.23953115937E+04  0.23140971610E+04 0.  0.
        4    1    3    3  502    0 -0.20945974900E+03  0.83484183506E+03 -0.11096158652E+04  0.14043088183E+04  0.12699999809E+01 0.  1.
       -4    1    3    3    0  502  0.20945974900E+03 -0.83484183506E+03  0.49117269048E+03  0.99100277537E+03  0.12699999809E+01 0. -1.
</event>
<event>
 5   0  0.4505107E-05  0.2470981E+04  0.7818609E-02  0.8413397E-01
       -2   -1    0    0    0  501  0.00000000000E+00  0.00000000000E+00  0.10159099334E+04  0.10159099334E+04  0.25500000920E-02 0. -1.
        2   -1    0    0  501    0  0.00000000000E+00  0.00000000000E+00 -0.15025320284E+04  0.15025320284E+04  0.25500000920E-02 0.  1.
    10030    2    1    2    0    0  0.00000000000E+00  0.00000000000E+00 -0.48662209502E+03  0.25184419617E+04  0.24709813539E+04 0.  0.
        4    1    3    3  502    0 -0.36372766235E+02  0.44135217917E+03  0.93223780459E+03  0.10320773524E+04  0.12699999809E+01 0. -1.
       -4    1    3    3    0  502  0.36372766235E+02 -0.44135217917E+03 -0.14188598996E+04  0.14863646093E+04  0.12699999809E+01 0.  1.
</event>
<event>
 5   0  0.4505107E-05  0.2294542E+04  0.7818609E-02  0.8480076E-01
        2   -1    0    0  501    0  0.00000000000E+00  0.00000000000E+00  0.13191897768E+04  0.13191897768E+04  0.25500000920E-02 0.  1.
       -2   -1    0    0    0  501  0.00000000000E+00  0.00000000000E+00 -0.99775653419E+03  0.99775653419E+03  0.25500000920E-02 0. -1.
    10030    2    1    2    0    0  0.00000000000E+00  0.00000000000E+00  0.32143324264E+03  0.23169463110E+04  0.22945415400E+04 0.  0.
        4    1    3    3  502    0 -0.64812429381E+03 -0.88293041909E+03 -0.18408114574E+03  0.11106388730E+04  0.12699999809E+01 0. -1.
       -4    1    3    3    0  502  0.64812429381E+03  0.88293041909E+03  0.50551438839E+03  0.12063074380E+04  0.12699999809E+01 0.  1.
</event>
<event>
 5   0  0.2042951E-05  0.2289983E+04  0.7818609E-02  0.8481881E-01
        1   -1    0    0  501    0  0.00000000000E+00  0.00000000000E+00  0.12960418624E+04  0.12960418625E+04  0.50400001928E-02 0. -1.
       -1   -1    0    0    0  501  0.00000000000E+00  0.00000000000E+00 -0.10115456703E+04  0.10115456703E+04  0.50400001928E-02 0.  1.
    10030    2    1    2    0    0  0.00000000000E+00  0.00000000000E+00  0.28449619220E+03  0.23075875327E+04  0.22899829995E+04 0.  0.
        2    1    3    3  502    0 -0.32785673309E+03 -0.10142188528E+04  0.56364423687E+03  0.12057465507E+04  0.25500000920E-02 0. -1.
       -2    1    3    3    0  502  0.32785673309E+03  0.10142188528E+04 -0.27914804467E+03  0.11018409820E+04  0.25500000920E-02 0.  1.
</event>
<event>
 5   0  0.4605516E-05  0.2324760E+04  0.7818609E-02  0.8468222E-01
        2   -1    0    0  501    0  0.00000000000E+00  0.00000000000E+00  0.13044425870E+04  0.13044425870E+04  0.25500000920E-02 0.  1.
       -2   -1    0    0    0  501  0.00000000000E+00  0.00000000000E+00 -0.10357891394E+04  0.10357891395E+04  0.25500000920E-02 0. -1.
    10030    2    1    2    0    0  0.00000000000E+00  0.00000000000E+00  0.26865344756E+03  0.23402317265E+04  0.23247601723E+04 0.  0.
        1    1    3    3  502    0 -0.96387649510E+03  0.64963358358E+03  0.12751605461E+03  0.11693340134E+04  0.50400001928E-02 0.  1.
       -1    1    3    3    0  502  0.96387649510E+03 -0.64963358358E+03  0.14113739295E+03  0.11708977131E+04  0.50400001928E-02 0. -1.
</event>
<event>
 5   0  0.2043885E-05  0.2291687E+04  0.7818609E-02  0.8481206E-01
        1   -1    0    0  501    0  0.00000000000E+00  0.00000000000E+00  0.13973381832E+04  0.13973381832E+04  0.50400001928E-02 0. -1.
       -1   -1    0    0    0  501  0.00000000000E+00  0.00000000000E+00 -0.93961275400E+03  0.93961275401E+03  0.50400001928E-02 0.  1.
    10030    2    1    2    0    0  0.00000000000E+00  0.00000000000E+00  0.45772542918E+03  0.23369509372E+04  0.22916865218E+04 0.  0.
        5    1    3    3  502    0 -0.81168179139E+03 -0.61851779057E+01 -0.59585666702E+03  0.10069423243E+04  0.46999998093E+01 0.  1.
       -5    1    3    3    0  502  0.81168179139E+03  0.61851779057E+01  0.10535820962E+04  0.13300086129E+04  0.46999998093E+01 0. -1.
</event>
<event>
 5   0  0.2043885E-05  0.2272498E+04  0.7818609E-02  0.8488844E-01
        1   -1    0    0  501    0  0.00000000000E+00  0.00000000000E+00  0.13965124439E+04  0.13965124439E+04  0.50400001928E-02 0. -1.
       -1   -1    0    0    0  501  0.00000000000E+00  0.00000000000E+00 -0.92449023738E+03  0.92449023740E+03  0.50400001928E-02 0.  1.
    10030    2    1    2    0    0  0.00000000000E+00  0.00000000000E+00  0.47202220651E+03  0.23210026813E+04  0.22724982911E+04 0.  0.
        5    1    3    3  502    0  0.11202126609E+03 -0.10572434133E+04  0.64547663541E+03  0.12437743267E+04  0.46999998093E+01 0. -1.
       -5    1    3    3    0  502 -0.11202126609E+03  0.10572434133E+04 -0.17345442890E+03  0.10772283546E+04  0.46999998093E+01 0.  1.
</event>
<event>
 5   0  0.2043885E-05  0.2286902E+04  0.7818609E-02  0.8483103E-01
        1   -1    0    0  501    0  0.00000000000E+00  0.00000000000E+00  0.15101889850E+04  0.15101889851E+04  0.50400001928E-02 0.  1.
       -1   -1    0    0    0  501  0.00000000000E+00  0.00000000000E+00 -0.86577270111E+03  0.86577270113E+03  0.50400001928E-02 0. -1.
    10030    2    1    2    0    0  0.00000000000E+00  0.00000000000E+00  0.64441628394E+03  0.23759616862E+04  0.22869021814E+04 0.  0.
        5    1    3    3  502    0 -0.70546745637E+03  0.30267444942E+03  0.12026549054E+04  0.14267785622E+04  0.46999998093E+01 0.  1.
       -5    1    3    3    0  502  0.70546745637E+03 -0.30267444942E+03 -0.55823862141E+03  0.94918312394E+03  0.46999998093E+01 0. -1.
</event>
<event>
 5   0  0.2042951E-05  0.2291797E+04  0.7818609E-02  0.8481163E-01
        1   -1    0    0  501    0  0.00000000000E+00  0.00000000000E+00  0.14426573711E+04  0.14426573711E+04  0.50400001928E-02 0.  1.
       -1   -1    0    0    0  501  0.00000000000E+00  0.00000000000E+00 -0.91018342112E+03  0.91018342113E+03  0.50400001928E-02 0. -1.
    10030    2    1    2    0    0  0.00000000000E+00  0.00000000000E+00  0.53247395001E+03  0.23528407923E+04  0.22917965194E+04 0.  0.
        2    1    3    3  502    0  0.97431932730E+02 -0.95162952709E+03 -0.38143209380E+03  0.10298457071E+04  0.25500000920E-02 0. -1.
       -2    1    3    3    0  502 -0.97431932730E+02  0.95162952709E+03  0.91390604381E+03  0.13229950851E+04  0.25500000920E-02 0.  1.
</event>
<event>
 5   0  0.4602447E-05  0.2312447E+04  0.7818609E-02  0.8473030E-01
        2   -1    0    0  501    0  0.00000000000E+00  0.00000000000E+00  0.10757142642E+04  0.10757142642E+04  0.25500000920E-02 0. -1.
       -2   -1    0    0    0  501  0.00000000000E+00  0.00000000000E+00 -0.12427582118E+04  0.12427582118E+04  0.25500000920E-02 0.  1.
    10030    2    1    2    0    0  0.00000000000E+00  0.00000000000E+00 -0.16704394764E+03  0.23184724761E+04  0.23124469598E+04 0.  0.
        3    1    3    3  502    0  0.74623753968E+03  0.72942341862E+03 -0.58273880378E+03  0.11952043812E+04  0.10100000352E+00 0.  1.
       -3    1    3    3    0  502 -0.74623753968E+03 -0.72942341862E+03  0.41569485614E+03  0.11232680948E+04  0.10100000352E+00 0. -1.
</event>
<event>
 5   0  0.4436695E-05  0.2303361E+04  0.7818609E-02  0.8476597E-01
        2   -1    0    0  501    0  0.00000000000E+00  0.00000000000E+00  0.10654590996E+04  0.10654590996E+04  0.25500000920E-02 0. -1.
       -2   -1    0    0    0  501  0.00000000000E+00  0.00000000000E+00 -0.12448794739E+04  0.12448794739E+04  0.25500000920E-02 0.  1.
    10030    2    1    2    0    0  0.00000000000E+00  0.00000000000E+00 -0.17942037433E+03  0.23103385736E+04  0.23033611644E+04 0.  0.
        5    1    3    3  502    0 -0.62278216217E+03 -0.91688329763E+03  0.22398866027E+03  0.11308075048E+04  0.46999998093E+01 0.  1.
       -5    1    3    3    0  502  0.62278216217E+03  0.91688329763E+03 -0.40340903460E+03  0.11795310688E+04  0.46999998093E+01 0. -1.
</event>
<event>
 5   0  0.4798609E-05  0.2280678E+04  0.7818609E-02  0.8485579E-01
       -2   -1    0    0    0  501  0.00000000000E+00  0.00000000000E+00  0.62045841509E+03  0.62045841509E+03  0.25500000920E-02 0. -1.
        2   -1    0    0  501    0  0.00000000000E+00  0.00000000000E+00 -0.20958256730E+04  0.20958256730E+04  0.25500000920E-02 0.  1.
    10030    2    1    2    0    0  0.00000000000E+00  0.00000000000E+00 -0.14753672579E+04  0.27162840881E+04  0.22806776847E+04 0.  0.
        2    1    3    3  502    0 -0.85471203808E+03 -0.54053341098E+03 -0.13652660668E+04  0.16990175013E+04  0.25500000920E-02 0.  1.
       -2    1    3    3    0  502  0.85471203808E+03  0.54053341098E+03 -0.11010119111E+03  0.10172665868E+04  0.25500000920E-02 0. -1.
</event>
<event>
 5   0  0.2042951E-05  0.2301069E+04  0.7818609E-02  0.8477500E-01
        1   -1    0    0  501    0  0.00000000000E+00  0.00000000000E+00  0.16933861257E+04  0.16933861257E+04  0.50400001928E-02 0.  1.
       -1   -1    0    0    0  501  0.00000000000E+00  0.00000000000E+00 -0.78170605954E+03  0.78170605956E+03  0.50400001928E-02 0. -1.
    10030    2    1    2    0    0  0.00000000000E+00  0.00000000000E+00  0.91168006620E+03  0.24750921853E+04  0.23010694867E+04 0.  0.
        2    1    3    3  502    0  0.10681323201E+04  0.22108343970E+02 -0.34599025246E+01  0.10683666988E+04  0.25500000920E-02 0. -1.
       -2    1    3    3    0  502 -0.10681323201E+04 -0.22108343970E+02  0.91513996872E+03  0.14067254865E+04  0.25500000920E-02 0.  1.
</event>
<event>
 5   0  0.4605516E-05  0.2297521E+04  0.7818609E-02  0.8478899E-01
       -2   -1    0    0    0  501  0.00000000000E+00  0.00000000000E+00  0.90027509184E+03  0.90027509184E+03  0.25500000920E-02 0. -1.
        2   -1    0    0  501    0  0.00000000000E+00  0.00000000000E+00 -0.14658302390E+04  0.14658302390E+04  0.25500000920E-02 0.  1.
    10030    2    1    2    0    0  0.00000000000E+00  0.00000000000E+00 -0.56555514713E+03  0.23661053308E+04  0.22975207969E+04 0.  0.
        1    1    3    3  502    0 -0.16279604549E+03  0.23688305784E+03 -0.14281995113E+04  0.14568356049E+04  0.50400001928E-02 0.  1.
       -1    1    3    3    0  502  0.16279604549E+03 -0.23688305784E+03  0.86264436415E+03  0.90926972596E+03  0.50400001928E-02 0. -1.
</event>
<event>
 5   0  0.2042951E-05  0.2254569E+04  0.7818609E-02  0.8496052E-01
       -1   -1    0    0    0  501  0.00000000000E+00  0.00000000000E+00  0.91572414706E+03  0.91572414707E+03  0.50400001928E-02 0. -1.
        1   -1    0    0  501    0  0.00000000000E+00  0.00000000000E+00 -0.13877216128E+04  0.13877216128E+04  0.50400001928E-02 0.  1.
    10030    2    1    2    0    0  0.00000000000E+00  0.00000000000E+00 -0.47199746576E+03  0.23034457599E+04  0.22545688637E+04 0.  0.
        2    1    3    3  502    0 -0.10675129969E+04 -0.85503222039E+02 -0.59558823460E+03  0.12254061142E+04  0.25500000920E-02 0.  1.
       -2    1    3    3    0  502  0.10675129969E+04  0.85503222039E+02  0.12359076883E+03  0.10780396457E+04  0.25500000920E-02 0. -1.
</event>
<event>
 5   0  0.2085063E-05  0.2303717E+04  0.7818609E-02  0.8476457E-01
        1   -1    0    0  501    0  0.00000000000E+00  0.00000000000E+00  0.11337593684E+04  0.11337593684E+04  0.50400001928E-02 0. -1.
       -1   -1    0    0    0  501  0.00000000000E+00  0.00000000000E+00 -0.11702461943E+04  0.11702461943E+04  0.50400001928E-02 0.  1.
    10030    2    1    2    0    0  0.00000000000E+00  0.00000000000E+00 -0.36486825881E+02  0.23040055627E+04  0.23037166372E+04 0.  0.
        1    1    3    3  502    0  0.43500707934E+03  0.41571035072E+03 -0.10005739755E+04  0.11675592213E+04  0.50400001928E-02 0.  1.
       -1    1    3    3    0  502 -0.43500707934E+03 -0.41571035072E+03  0.96408714960E+03  0.11364463414E+04  0.50400001928E-02 0. -1.
</event>
<event>
 5   0  0.1968318E-05  0.2291256E+04  0.7818609E-02  0.8481377E-01
        1   -1    0    0  501    0  0.00000000000E+00  0.00000000000E+00  0.14524261676E+04  0.14524261676E+04  0.50400001928E-02 0. -1.
       -1   -1    0    0    0  501  0.00000000000E+00  0.00000000000E+00 -0.90363555908E+03  0.90363555909E+03  0.50400001928E-02 0.  1.
    10030    2    1    2    0    0  0.00000000000E+00  0.00000000000E+00  0.54879060847E+03  0.23560617267E+04  0.22912563645E+04 0.  0.
        3    1    3    3  502    0  0.69500721363E+03 -0.29754526184E+03  0.11594936329E+04  0.13841942439E+04  0.10100000352E+00 0. -1.
       -3    1    3    3    0  502 -0.69500721363E+03  0.29754526184E+03 -0.61070302443E+03  0.97186748278E+03  0.10100000352E+00 0.  1.
</event>
<event>
 5   0  0.2042951E-05  0.2260512E+04  0.7818609E-02  0.8493656E-01
       -1   -1    0    0    0  501  0.00000000000E+00  0.00000000000E+00  0.15404900986E+04  0.15404900986E+04  0.50400001928E-02 0. -1.
        1   -1    0    0  501    0  0.00000000000E+00  0.00000000000E+00 -0.82926738529E+03  0.82926738531E+03  0.50400001928E-02 0.  1.
    10030    2    1    2    0    0  0.00000000000E+00  0.00000000000E+00  0.71122271335E+03  0.23697574840E+04  0.22605116201E+04 0.  0.
        2    1    3    3  502    0  0.36376641089E+03 -0.43511406589E+03 -0.66930168929E+03  0.87727703909E+03  0.25500000920E-02 0.  1.
       -2    1    3    3    0  502 -0.36376641089E+03  0.43511406589E+03  0.13805244026E+04  0.14924804449E+04  0.25500000920E-02 0. -1.
</event>
<event>
 5   0  0.1968318E-05  0.2293156E+04  0.7818609E-02  0.8480625E-01
        1   -1    0    0  501    0  0.00000000000E+00  0.00000000000E+00  0.19557002261E+04  0.19557002261E+04  0.50400001928E-02 0. -1.
       -1   -1    0    0    0  501  0.00000000000E+00  0.00000000000E+00 -0.67220965375E+03  0.67220965377E+03  0.50400001928E-02 0.  1.
    10030    2    1    2    0    0  0.00000000000E+00  0.00000000000E+00  0.12834905723E+04  0.26279098799E+04  0.22931555306E+04 0.  0.
        3    1    3    3  502    0 -0.56400314243E+03  0.21552161138E+03  0.17587619751E+04  0.18595141315E+04  0.10100000352E+00 0. -1.
       -3    1    3    3    0  502  0.56400314243E+03 -0.21552161138E+03 -0.47527140282E+03  0.76839574841E+03  0.10100000352E+00 0.  1.
</event>
<event>
 5   0  0.2031860E-05  0.2384267E+04  0.7818609E-02  0.8445417E-01
        1   -1    0    0  501    0  0.00000000000E+00  0.00000000000E+00  0.92743584565E+03  0.92743584566E+03  0.50400001928E-02 0.  1.
       -1   -1    0    0    0  501  0.00000000000E+00  0.00000000000E+00 -0.15323785692E+04  0.15323785692E+04  0.50400001928E-02 0. -1.
    10030    2    1    2    0    0  0.00000000000E+00  0.00000000000E+00 -0.60494272358E+03  0.24598144149E+04  0.23842674466E+04 0.  0.
        4    1    3    3  502    0 -0.84041559513E+03  0.37313724915E+03 -0.10852287292E+04  0.14224109065E+04  0.12699999809E+01 0. -1.
       -4    1    3    3    0  502  0.84041559513E+03 -0.37313724915E+03  0.48028600561E+03  0.10374035084E+04  0.12699999809E+01 0.  1.
</event>
<event>
 5   0  0.2042951E-05  0.2294285E+04  0.7818609E-02  0.8480178E-01
       -1   -1    0    0    0  501  0.00000000000E+00  0.00000000000E+00  0.28510418074E+04  0.28510418074E+04  0.50400001928E-02 0.  1.
        1   -1    0    0  501    0  0.00000000000E+00  0.00000000000E+00 -0.46156304964E+03  0.46156304967E+03  0.50400001928E-02 0. -1.
    10030    2    1    2    0    0  0.00000000000E+00  0.00000000000E+00  0.23894787578E+04  0.33126048571E+04  0.22942846827E+04 0.  0.
        2    1    3    3  502    0 -0.60325226931E+02  0.10979413899E+04  0.72283837889E+03  0.13159064369E+04  0.25500000920E-02 0. -1.
       -2    1    3    3    0  502  0.60325226931E+02 -0.10979413899E+04  0.16666403789E+04  0.19966984202E+04  0.25500000920E-02 0.  1.
</event>
<event>
 5   0  0.4798609E-05  0.2349595E+04  0.7818609E-02  0.8458619E-01
       -2   -1    0    0    0  501  0.00000000000E+00  0.00000000000E+00  0.73231847619E+03  0.73231847619E+03  0.25500000920E-02 0.  1.
        2   -1    0    0  501    0  0.00000000000E+00  0.00000000000E+00 -0.18846299909E+04  0.18846299909E+04  0.25500000920E-02 0. -1.
    10030    2    1    2    0    0  0.00000000000E+00  0.00000000000E+00 -0.11523115147E+04  0.26169484671E+04  0.23495951678E+04 0.  0.
        2    1    3    3  502    0 -0.10550818437E+04  0.55730420136E+02 -0.40488229002E+01  0.10565604429E+04  0.25500000920E-02 0.  1.
       -2    1    3    3    0  502  0.10550818437E+04 -0.55730420136E+02 -0.11482626918E+04  0.15603880242E+04  0.25500000920E-02 0. -1.
</event>
<event>
 5   0  0.2042951E-05  0.2302153E+04  0.7818609E-02  0.8477073E-01
       -1   -1    0    0    0  501  0.00000000000E+00  0.00000000000E+00  0.10323827237E+04  0.10323827237E+04  0.50400001928E-02 0. -1.
        1   -1    0    0  501    0  0.00000000000E+00  0.00000000000E+00 -0.12834169115E+04  0.12834169115E+04  0.50400001928E-02 0.  1.
    10030    2    1    2    0    0  0.00000000000E+00  0.00000000000E+00 -0.25103418778E+03  0.23157996352E+04  0.23021532936E+04 0.  0.
        2    1    3    3  502    0  0.45895237880E+03 -0.13069452608E+03 -0.11792276686E+04  0.12721227298E+04  0.25500000920E-02 0.  1.
       -2    1    3    3    0  502 -0.45895237880E+03  0.13069452608E+03  0.92819348082E+03  0.10436769055E+04  0.25500000920E-02 0. -1.
</event>
<event>
 5   0  0.2043885E-05  0.2231636E+04  0.7818609E-02  0.8505375E-01
        1   -1    0    0  501    0  0.00000000000E+00  0.00000000000E+00  0.91051078586E+03  0.91051078588E+03  0.50400001928E-02 0. -1.
       -1   -1    0    0    0  501  0.00000000000E+00  0.00000000000E+00 -0.13674196293E+04  0.13674196293E+04  0.50400001928E-02 0.  1.
    10030    2    1    2    0    0  0.00000000000E+00  0.00000000000E+00 -0.45690884342E+03  0.22779304152E+04  0.22316364590E+04 0.  0.
        5    1    3    3  502    0 -0.43270318933E+03 -0.96486399411E+03  0.13507055705E+03  0.10660491183E+04  0.46999998093E+01 0. -1.
       -5    1    3    3    0  502  0.43270318933E+03  0.96486399411E+03 -0.59197940047E+03  0.12118812969E+04  0.46999998093E+01 0.  1.
</event>
<event>
 5   0  0.1604500E-05  0.2029581E+04  0.7818609E-02  0.8592914E-01
       -3   -1    0    0    0  501  0.00000000000E+00  0.00000000000E+00  0.83376856665E+03  0.83376857277E+03  0.10100000352E+00 0. -1.
        3   -1    0    0  501    0  0.00000000000E+00  0.00000000000E+00 -0.12351144669E+04  0.12351144710E+04  0.10100000352E+00 0.  1.
    10030    2    1    2    0    0  0.00000000000E+00  0.00000000000E+00 -0.40134590025E+03  0.20688830438E+04  0.20295808723E+04 0.  0.
        3    1    3    3  502    0 -0.59280122017E+03  0.10934620273E+03  0.63148691092E+03  0.87300951172E+03  0.10100000352E+00 0. -1.
       -3    1    3    3    0  502  0.59280122017E+03 -0.10934620273E+03 -0.10328328112E+04  0.11958735321E+04  0.10100000352E+00 0.  1.
</event>
<event>
 5   0  0.4602447E-05  0.2643198E+04  0.7818609E-02  0.8353674E-01
       -2   -1    0    0    0  501  0.00000000000E+00  0.00000000000E+00  0.10824183736E+04  0.10824183736E+04  0.25500000920E-02 0.  1.
        2   -1    0    0  501    0  0.00000000000E+00  0.00000000000E+00 -0.16136308813E+04  0.16136308813E+04  0.25500000920E-02 0. -1.
    10030    2    1    2    0    0  0.00000000000E+00  0.00000000000E+00 -0.53121250770E+03  0.26960492549E+04  0.26431978467E+04 0.  0.
        3    1    3    3  502    0  0.11898359117E+04  0.56655559907E+03 -0.16396967424E+03  0.13279987981E+04  0.10100000352E+00 0.  1.
       -3    1    3    3    0  502 -0.11898359117E+04 -0.56655559907E+03 -0.36724283347E+03  0.13680504568E+04  0.10100000352E+00 0. -1.
</event>
<event>
 5   0  0.4602447E-05  0.2353952E+04  0.7818609E-02  0.8456947E-01
        2   -1    0    0  501    0  0.00000000000E+00  0.00000000000E+00  0.23136232375E+04  0.23136232375E+04  0.25500000920E-02 0.  1.
       -2   -1    0    0    0  501  0.00000000000E+00  0.00000000000E+00 -0.59874603861E+03  0.59874603861E+03  0.25500000920E-02 0. -1.
    10030    2    1    2    0    0  0.00000000000E+00  0.00000000000E+00  0.17148771989E+04  0.29123692761E+04  0.23539522071E+04 0.  0.
        3    1    3    3  502    0 -0.65838899185E+03 -0.55368723860E+03  0.18512525868E+04  0.20413676232E+04  0.10100000352E+00 0.  1.
       -3    1    3    3    0  502  0.65838899185E+03  0.55368723860E+03 -0.13637538788E+03  0.87100165292E+03  0.10100000352E+00 0. -1.
</event>
<event>
 5   0  0.4505107E-05  0.2261917E+04  0.7818609E-02  0.8493090E-01
        2   -1    0    0  501    0  0.00000000000E+00  0.00000000000E+00  0.18249084993E+04  0.18249084993E+04  0.25500000920E-02 0.  1.
       -2   -1    0    0    0  501  0.00000000000E+00  0.00000000000E+00 -0.70089376837E+03  0.70089376838E+03  0.25500000920E-02 0. -1.
    10030    2    1    2    0    0  0.00000000000E+00  0.00000000000E+00  0.11240147309E+04  0.25258022677E+04  0.22619168818E+04 0.  0.
        4    1    3    3  502    0  0.58262740552E+02 -0.67784829036E+03  0.15708397494E+04  0.17118446142E+04  0.12699999809E+01 0.  1.
       -4    1    3    3    0  502 -0.58262740552E+02  0.67784829036E+03 -0.44682501851E+03  0.81395765353E+03  0.12699999809E+01 0. -1.
</event>
<event>
 5   0  0.4602447E-05  0.2306779E+04  0.7818609E-02  0.8475253E-01
       -2   -1    0    0    0  501  0.00000000000E+00  0.00000000000E+00  0.11847747806E+04  0.11847747806E+04  0.25500000920E-02 0. -1.
        2   -1    0    0  501    0  0.00000000000E+00  0.00000000000E+00 -0.11228351690E+04  0.11228351690E+04  0.25500000920E-02 0.  1.
    10030    2    1    2    0    0  0.00000000000E+00  0.00000000000E+00  0.61939611578E+02  0.23076099496E+04  0.23067785251E+04 0.  0.
        3    1    3    3  502    0 -0.10664583567E+01  0.42576876725E+03 -0.10413431286E+04  0.11250225341E+04  0.10100000352E+00 0.  1.
       -3    1    3    3    0  502  0.10664583567E+01 -0.42576876725E+03  0.11032827402E+04  0.11825874155E+04  0.10100000352E+00 0. -1.
</event>
<event>
 5   0  0.4605516E-05  0.2288450E+04  0.7818609E-02  0.8482489E-01
       -2   -1    0    0    0  501  0.00000000000E+00  0.00000000000E+00  0.84243976615E+03  0.84243976615E+03  0.25500000920E-02 0.  1.
        2   -1    0    0  501    0  0.00000000000E+00  0.00000000000E+00 -0.15541181837E+04  0.15541181838E+04  0.25500000920E-02 0. -1.
    10030    2    1    2    0    0  0.00000000000E+00  0.00000000000E+00 -0.71167841760E+03  0.23965579499E+04  0.22884500950E+04 0.  0.
        1    1    3    3  502    0 -0.81811095455E+03  0.55022186892E+02  0.47993361388E+03  0.95008907412E+03  0.50400001928E-02 0.  1.
       -1    1    3    3    0  502  0.81811095455E+03 -0.55022186892E+02 -0.11916120315E+04  0.14464688758E+04  0.50400001928E-02 0. -1.
</event>
<event>
 5   0  0.4602447E-05  0.2278206E+04  0.7818609E-02  0.8486564E-01
       -2   -1    0    0    0  501  0.00000000000E+00  0.00000000000E+00  0.99473824080E+03  0.99473824080E+03  0.25500000920E-02 0. -1.
        2   -1    0    0  501    0  0.00000000000E+00  0.00000000000E+00 -0.13044190032E+04  0.13044190032E+04  0.25500000920E-02 0.  1.
    10030    2    1    2    0    0  0.00000000000E+00  0.00000000000E+00 -0.30968076237E+03  0.22991572440E+04  0.22782058419E+04 0.  0.
        3    1    3    3  502    0 -0.83790141041E+03  0.26212400578E+03 -0.88730268125E+03  0.12482362863E+04  0.10100000352E+00 0.  1.
       -3    1    3    3    0  502  0.83790141041E+03 -0.26212400578E+03  0.57762191889E+03  0.10509209577E+04  0.10100000352E+00 0. -1.
</event>
<event>
 5   0  0.4436695E-05  0.2207466E+04  0.7818609E-02  0.8515327E-01
       -2   -1    0    0    0  501  0.00000000000E+00  0.00000000000E+00  0.75261251120E+03  0.75261251121E+03  0.25500000920E-02 0.  1.
        2   -1    0    0  501    0  0.00000000000E+00  0.00000000000E+00 -0.16186630671E+04  0.16186630671E+04  0.25500000920E-02 0. -1.
    10030    2    1    2    0    0  0.00000000000E+00  0.00000000000E+00 -0.86605055590E+03  0.23712755783E+04  0.22074655836E+04 0.  0.
        5    1    3    3  502    0 -0.40785839952E+03 -0.50389571052E+02 -0.15334018065E+04  0.15875234717E+04  0.46999998093E+01 0. -1.
       -5    1    3    3    0  502  0.40785839952E+03  0.50389571052E+02  0.66735125062E+03  0.78375210662E+03  0.46999998093E+01 0.  1.
</event>
<event>
 5   0  0.1968318E-05  0.2270949E+04  0.7818609E-02  0.8489464E-01
        1   -1    0    0  501    0  0.00000000000E+00  0.00000000000E+00  0.68331500893E+03  0.68331500895E+03  0.50400001928E-02 0. -1.
       -1   -1    0    0    0  501  0.00000000000E+00  0.00000000000E+00 -0.18868344912E+04  0.18868344912E+04  0.50400001928E-02 0.  1.
    10030    2    1    2    0    0  0.00000000000E+00  0.00000000000E+00 -0.12035194822E+04  0.25701495001E+04  0.22709489886E+04 0.  0.
        3    1    3    3  502    0 -0.30754740337E+03 -0.45106655572E+03 -0.17285521021E+04  0.18127158693E+04  0.10100000352E+00 0.  1.
       -3    1    3    3    0  502  0.30754740337E+03  0.45106655572E+03  0.52503261984E+03  0.75743363082E+03  0.10100000352E+00 0. -1.
</event>
<event>
 5   0  0.2085063E-05  0.2266674E+04  0.7818609E-02  0.8491178E-01
       -1   -1    0    0    0  501  0.00000000000E+00  0.00000000000E+00  0.72405252233E+03  0.72405252235E+03  0.50400001928E-02 0. -1.
        1   -1    0    0  501    0  0.00000000000E+00  0.00000000000E+00 -0.17739776148E+04  0.17739776148E+04  0.50400001928E-02 0.  1.
    10030    2    1    2    0    0  0.00000000000E+00  0.00000000000E+00 -0.10499250925E+04  0.24980301371E+04  0.22666741862E+04 0.  0.
        1    1    3    3  502    0 -0.24526449628E+03  0.14730266135E+02 -0.17442713478E+04  0.17614920348E+04  0.50400001928E-02 0.  1.
       -1    1    3    3    0  502  0.24526449628E+03 -0.14730266135E+02  0.69434625534E+03  0.73653810235E+03  0.50400001928E-02 0. -1.
</event>
<event>
 5   0  0.1968318E-05  0.2327283E+04  0.7818609E-02  0.8467241E-01
       -1   -1    0    0    0  501  0.00000000000E+00  0.00000000000E+00  0.12073560435E+04  0.12073560435E+04  0.50400001928E-02 0. -1.
        1   -1    0    0  501    0  0.00000000000E+00  0.00000000000E+00 -0.11215093461E+04  0.11215093461E+04  0.50400001928E-02 0.  1.
    10030    2    1    2    0    0  0.00000000000E+00  0.00000000000E+00  0.85846697448E+02  0.23288653896E+04  0.23272826102E+04 0.  0.
        3    1    3    3  502    0  0.52942773603E+03 -0.49463993254E+03 -0.86824447654E+03  0.11308452024E+04  0.10100000352E+00 0.  1.
       -3    1    3    3    0  502 -0.52942773603E+03  0.49463993254E+03  0.95409117399E+03  0.11980201872E+04  0.10100000352E+00 0. -1.
</event>
<event>
 5   0  0.2085063E-05  0.2325514E+04  0.7818609E-02  0.8467929E-01
        1   -1    0    0  501    0  0.00000000000E+00  0.00000000000E+00  0.12691145359E+04  0.12691145360E+04  0.50400001928E-02 0.  1.
       -1   -1    0    0    0  501  0.00000000000E+00  0.00000000000E+00 -0.10653123957E+04  0.10653123957E+04  0.50400001928E-02 0. -1.
    10030    2    1    2    0    0  0.00000000000E+00  0.00000000000E+00  0.20380214025E+03  0.23344269317E+04  0.23255136609E+04 0.  0.
        1    1    3    3  502    0  0.57630735504E+03 -0.18049967781E+03  0.10993357193E+04  0.12542923602E+04  0.50400001928E-02 0.  1.
       -1    1    3    3    0  502 -0.57630735504E+03  0.18049967781E+03 -0.89553357906E+03  0.10801345714E+04  0.50400001928E-02 0. -1.
</event>
<event>
 5   0  0.2031860E-05  0.2305081E+04  0.7818609E-02  0.8475920E-01
        1   -1    0    0  501    0  0.00000000000E+00  0.00000000000E+00  0.13748499757E+04  0.13748499757E+04  0.50400001928E-02 0.  1.
       -1   -1    0    0    0  501  0.00000000000E+00  0.00000000000E+00 -0.96617801023E+03  0.96617801025E+03  0.50400001928E-02 0. -1.
    10030    2    1    2    0    0  0.00000000000E+00  0.00000000000E+00  0.40867196548E+03  0.23410279860E+04  0.23050811820E+04 0.  0.
        4    1    3    3  502    0 -0.27335141273E+03  0.87683977374E+03 -0.50278280580E+03  0.10470726557E+04  0.12699999809E+01 0. -1.
       -4    1    3    3    0  502  0.27335141273E+03 -0.87683977374E+03  0.91145477128E+03  0.12939553302E+04  0.12699999809E+01 0.  1.
</event>
<event>
 5   0  0.4505107E-05  0.2291640E+04  0.7818609E-02  0.8481225E-01
       -2   -1    0    0    0  501  0.00000000000E+00  0.00000000000E+00  0.13229865185E+04  0.13229865185E+04  0.25500000920E-02 0. -1.
        2   -1    0    0  501    0  0.00000000000E+00  0.00000000000E+00 -0.99237831742E+03  0.99237831743E+03  0.25500000920E-02 0.  1.
    10030    2    1    2    0    0  0.00000000000E+00  0.00000000000E+00  0.33060820109E+03  0.23153648359E+04  0.22916397057E+04 0.  0.
        4    1    3    3  502    0  0.91795587484E+03 -0.12567131062E+03 -0.51581559430E+03  0.10604261439E+04  0.12699999809E+01 0. -1.
       -4    1    3    3    0  502 -0.91795587484E+03  0.12567131062E+03  0.84642379539E+03  0.12549386920E+04  0.12699999809E+01 0.  1.
</event>
<event>
 5   0  0.4436695E-05  0.2271690E+04  0.7818609E-02  0.8489168E-01
        2   -1    0    0  501    0  0.00000000000E+00  0.00000000000E+00  0.17539702099E+04  0.17539702099E+04  0.25500000920E-02 0. -1.
       -2   -1    0    0    0  501  0.00000000000E+00  0.00000000000E+00 -0.73555620787E+03  0.73555620788E+03  0.25500000920E-02 0.  1.
    10030    2    1    2    0    0  0.00000000000E+00  0.00000000000E+00  0.10184140020E+04  0.24895264178E+04  0.22716898348E+04 0.  0.
        5    1    3    3  502    0 -0.10971451147E+04 -0.59254234644E+02  0.19370599525E+03  0.11156982431E+04  0.46999998093E+01 0. -1.
       -5    1    3    3    0  502  0.10971451147E+04  0.59254234644E+02  0.82470800679E+03  0.13738281747E+04  0.46999998093E+01 0.  1.
</event>
<event>
 5   0  0.2085063E-05  0.2238750E+04  0.7818609E-02  0.8502471E-01
        1   -1    0    0  501    0  0.00000000000E+00  0.00000000000E+00  0.16772233131E+04  0.16772233131E+04  0.50400001928E-02 0. -1.
       -1   -1    0    0    0  501  0.00000000000E+00  0.00000000000E+00 -0.74706799223E+03  0.74706799224E+03  0.50400001928E-02 0.  1.
    10030    2    1    2    0    0  0.00000000000E+00  0.00000000000E+00  0.93015532090E+03  0.24242913054E+04  0.22387495198E+04 0.  0.
        1    1    3    3  502    0  0.25887183162E+03 -0.41755954165E+03  0.15542334107E+04  0.16300343834E+04  0.50400001928E-02 0. -1.
       -1    1    3    3    0  502 -0.25887183162E+03  0.41755954165E+03 -0.62407808977E+03  0.79425692203E+03  0.50400001928E-02 0.  1.
</event>
<event>
 5   0  0.4602447E-05  0.2319769E+04  0.7818609E-02  0.8470167E-01
       -2   -1    0    0    0  501  0.00000000000E+00  0.00000000000E+00  0.62930262006E+03  0.62930262007E+03  0.25500000920E-02 0. -1.
        2   -1    0    0  501    0  0.00000000000E+00  0.00000000000E+00 -0.21378138407E+04  0.21378138407E+04  0.25500000920E-02 0.  1.
    10030    2    1    2    0    0  0.00000000000E+00  0.00000000000E+00 -0.15085112206E+04  0.27671164607E+04  0.23197688257E+04 0.  0.
        3    1    3    3  502    0  0.92444112555E+02  0.15642815868E+02 -0.21332862328E+04  0.21353455863E+04  0.10100000352E+00 0.  1.
       -3    1    3    3    0  502 -0.92444112555E+02 -0.15642815868E+02  0.62477501224E+03  0.63177087441E+03  0.10100000352E+00 0. -1.
</event>
<event>
 5   0  0.4605516E-05  0.2302220E+04  0.7818609E-02  0.8477046E-01
       -2   -1    0    0    0  501  0.00000000000E+00  0.00000000000E+00  0.74045968759E+03  0.74045968759E+03  0.25500000920E-02 0. -1.
        2   -1    0    0  501    0  0.00000000000E+00  0.00000000000E+00 -0.17895022304E+04  0.17895022304E+04  0.25500000920E-02 0.  1.
    10030    2    1    2    0    0  0.00000000000E+00  0.00000000000E+00 -0.10490425429E+04  0.25299619180E+04  0.23022200264E+04 0.  0.
        1    1    3    3  502    0  0.65733825155E+03 -0.31151169286E+03  0.45587619332E+03  0.85846153985E+03  0.50400001928E-02 0. -1.
       -1    1    3    3    0  502 -0.65733825155E+03  0.31151169286E+03 -0.15049187362E+04  0.16715003782E+04  0.50400001928E-02 0.  1.
</event>
<event>
 5   0  0.4798609E-05  0.2353370E+04  0.7818609E-02  0.8457170E-01
       -2   -1    0    0    0  501  0.00000000000E+00  0.00000000000E+00  0.74461205214E+03  0.74461205215E+03  0.25500000920E-02 0.  1.
        2   -1    0    0  501    0  0.00000000000E+00  0.00000000000E+00 -0.18594757792E+04  0.18594757792E+04  0.25500000920E-02 0. -1.
    10030    2    1    2    0    0  0.00000000000E+00  0.00000000000E+00 -0.11148637270E+04  0.26040878313E+04  0.23533704136E+04 0.  0.
        2    1    3    3  502    0 -0.94093688617E+03  0.63816450506E+03 -0.22185426852E+03  0.11583762237E+04  0.25500000920E-02 0. -1.
       -2    1    3    3    0  502  0.94093688617E+03 -0.63816450506E+03 -0.89300945853E+03  0.14457116076E+04  0.25500000920E-02 0.  1.
</event>
<event>
 5   0  0.2042951E-05  0.2260634E+04  0.7818609E-02  0.8493606E-01
       -1   -1    0    0    0  501  0.00000000000E+00  0.00000000000E+00  0.11712584214E+04  0.11712584214E+04  0.50400001928E-02 0.  1.
        1   -1    0    0  501    0  0.00000000000E+00  0.00000000000E+00 -0.10908066759E+04  0.10908066759E+04  0.50400001928E-02 0. -1.
    10030    2    1    2    0    0  0.00000000000E+00  0.00000000000E+00  0.80451745435E+02  0.22620650973E+04  0.22606339865E+04 0.  0.
        2    1    3    3  502    0 -0.40020808853E+03  0.10537486015E+04  0.12432594645E+03  0.11340236198E+04  0.25500000920E-02 0. -1.
       -2    1    3    3    0  502  0.40020808853E+03 -0.10537486015E+04 -0.43874201016E+02  0.11280414775E+04  0.25500000920E-02 0.  1.
</event>
<event>
 5   0  0.2031860E-05  0.2302517E+04  0.7818609E-02  0.8476930E-01
       -1   -1    0    0    0  501  0.00000000000E+00  0.00000000000E+00  0.87299504134E+03  0.87299504135E+03  0.50400001928E-02 0. -1.
        1   -1    0    0  501    0  0.00000000000E+00  0.00000000000E+00 -0.15182167120E+04  0.15182167120E+04  0.50400001928E-02 0.  1.
    10030    2    1    2    0    0  0.00000000000E+00  0.00000000000E+00 -0.64522167063E+03  0.23912117533E+04  0.23025165895E+04 0.  0.
        4    1    3    3  502    0 -0.35107836280E+03  0.71025647811E+03  0.54483320071E+03  0.96154308849E+03  0.12699999809E+01 0. -1.
       -4    1    3    3    0  502  0.35107836280E+03 -0.71025647811E+03 -0.11900548713E+04  0.14296686648E+04  0.12699999809E+01 0.  1.
</event>
<event>
 5   0  0.4436695E-05  0.2312017E+04  0.7818609E-02  0.8473198E-01
        2   -1    0    0  501    0  0.00000000000E+00  0.00000000000E+00  0.16727196610E+04  0.16727196610E+04  0.25500000920E-02 0. -1.
       -2   -1    0    0    0  501  0.00000000000E+00  0.00000000000E+00 -0.79891217438E+03  0.79891217439E+03  0.25500000920E-02 0.  1.
    10030    2    1    2    0    0  0.00000000000E+00  0.00000000000E+00  0.87380748658E+03  0.24716318353E+04  0.23120173888E+04 0.  0.
        5    1    3    3  502    0  0.59701011679E+03  0.11581940403E+03 -0.61407357491E+03  0.86425902327E+03  0.46999998093E+01 0.  1.
       -5    1    3    3    0  502 -0.59701011679E+03 -0.11581940403E+03  0.14878810615E+04  0.16073728121E+04  0.46999998093E+01 0. -1.
</event>
<event>
 5   0  0.1604500E-05  0.2315898E+04  0.7818609E-02  0.8471679E-01
       -4   -1    0    0    0  501  0.00000000000E+00  0.00000000000E+00  0.13687006592E+04  0.13687012484E+04  0.12699999809E+01 0. -1.
        4   -1    0    0  501    0  0.00000000000E+00  0.00000000000E+00 -0.97964745496E+03  0.97964827816E+03  0.12699999809E+01 0.  1.
    10030    2    1    2    0    0  0.00000000000E+00  0.00000000000E+00  0.38905320422E+03  0.23483495266E+04  0.23158979043E+04 0.  0.
        1    1    3    3  502    0  0.32725100650E+03  0.43977970047E+03  0.12287927393E+04  0.13455225759E+04  0.50400001928E-02 0. -1.
       -1    1    3    3    0  502 -0.32725100650E+03 -0.43977970047E+03 -0.83973953504E+03  0.10028269506E+04  0.50400001928E-02 0.  1.
</event>
<event>
 5   0  0.2043885E-05  0.2281835E+04  0.7818609E-02  0.8485118E-01
        1   -1    0    0  501    0  0.00000000000E+00  0.00000000000E+00  0.10625870979E+04  0.10625870979E+04  0.50400001928E-02 0.  1.
       -1   -1    0    0    0  501  0.00000000000E+00  0.00000000000E+00 -0.12250223857E+04  0.12250223857E+04  0.50400001928E-02 0. -1.
    10030    2    1    2    0    0  0.00000000000E+00  0.00000000000E+00 -0.16243528780E+03  0.22876094836E+04  0.22818352102E+04 0.  0.
        5    1    3    3  502    0  0.88612075121E+03 -0.27112324096E+03 -0.74844905123E+03  0.11911825510E+04  0.46999998093E+01 0. -1.
       -5    1    3    3    0  502 -0.88612075121E+03  0.27112324096E+03  0.58601376343E+03  0.10964269326E+04  0.46999998093E+01 0.  1.
</event>
<event>
 5   0  0.2031860E-05  0.2306136E+04  0.7818609E-02  0.8475506E-01
       -1   -1    0    0    0  501  0.00000000000E+00  0.00000000000E+00  0.97612547382E+03  0.97612547384E+03  0.50400001928E-02 0.  1.
        1   -1    0    0  501    0  0.00000000000E+00  0.00000000000E+00 -0.13620852463E+04  0.13620852463E+04  0.50400001928E-02 0. -1.
    10030    2    1    2    0    0  0.00000000000E+00  0.00000000000E+00 -0.38595977247E+03  0.23382107201E+04  0.23061362548E+04 0.  0.
        4    1    3    3  502    0 -0.98033965821E+03 -0.40190983989E+03  0.26828391242E+03  0.10929662554E+04  0.12699999809E+01 0.  1.
       -4    1    3    3    0  502  0.98033965821E+03  0.40190983989E+03 -0.65424368489E+03  0.12452444647E+04  0.12699999809E+01 0. -1.
</event>
<event>
 5   0  0.1968318E-05  0.2343039E+04  0.7818609E-02  0.8461142E-01
        1   -1    0    0  501    0  0.00000000000E+00  0.00000000000E+00  0.16442361987E+04  0.16442361987E+04  0.50400001928E-02 0. -1.
       -1   -1    0    0    0  501  0.00000000000E+00  0.00000000000E+00 -0.83470872145E+03  0.83470872147E+03  0.50400001928E-02 0.  1.
    10030    2    1    2    0    0  0.00000000000E+00  0.00000000000E+00  0.80952747728E+03  0.24789449202E+04  0.23430393042E+04 0.  0.
        3    1    3    3  502    0 -0.74155687942E+03 -0.90643801157E+03  0.43688615456E+03  0.12499623980E+04  0.10100000352E+00 0.  1.
       -3    1    3    3    0  502  0.74155687942E+03  0.90643801157E+03  0.37264132272E+03  0.12289825222E+04  0.10100000352E+00 0. -1.
</event>
<event>
 5   0  0.2043885E-05  0.2288135E+04  0.7818609E-02  0.8482614E-01
       -1   -1    0    0    0  501  0.00000000000E+00  0.00000000000E+00  0.15059855940E+04  0.15059855940E+04  0.50400001928E-02 0.  1.
        1   -1    0    0  501    0  0.00000000000E+00  0.00000000000E+00 -0.86912516474E+03  0.86912516475E+03  0.50400001928E-02 0. -1.
    10030    2    1    2    0    0  0.00000000000E+00  0.00000000000E+00  0.63686042923E+03  0.23751107587E+04  0.22881345917E+04 0.  0.
        5    1    3    3  502    0  0.59396561772E+03 -0.86524296805E+02 -0.69254549079E+03  0.91647310696E+03  0.46999998093E+01 0. -1.
       -5    1    3    3    0  502 -0.59396561772E+03  0.86524296805E+02  0.13294059200E+04  0.14586376518E+04  0.46999998093E+01 0.  1.
</event>
<event>
 5   0  0.2085063E-05  0.2250300E+04  0.7818609E-02  0.8497779E-01
        1   -1    0    0  501    0  0.00000000000E+00  0.00000000000E+00  0.16020133602E+04  0.16020133603E+04  0.50400001928E-02 0. -1.
       -1   -1    0    0    0  501  0.00000000000E+00  0.00000000000E+00 -0.79023242940E+03  0.79023242942E+03  0.50400001928E-02 0.  1.
    10030    2    1    2    0    0  0.00000000000E+00  0.00000000000E+00  0.81178093084E+03  0.23922457897E+04  0.22503003441E+04 0.  0.
        1    1    3    3  502    0 -0.64673221965E+03 -0.91960358208E+03  0.45378327023E+03  0.12123747640E+04  0.50400001928E-02 0.  1.
       -1    1    3    3    0  502  0.64673221965E+03  0.91960358208E+03  0.35799766061E+03  0.11798710256E+04  0.50400001928E-02 0. -1.
</event>
<event>
 5   0  0.1604500E-05  0.2300622E+04  0.7818609E-02  0.8477676E-01
       -3   -1    0    0    0  501  0.00000000000E+00  0.00000000000E+00  0.17344312727E+04  0.17344312757E+04  0.10100000352E+00 0. -1.
        3   -1    0    0  501    0  0.00000000000E+00  0.00000000000E+00 -0.76290995941E+03  0.76290996609E+03  0.10100000352E+00 0.  1.
    10030    2    1    2    0    0  0.00000000000E+00  0.00000000000E+00  0.97152131334E+03  0.24973412418E+04  0.23006215716E+04 0.  0.
        5    1    3    3  502    0 -0.13981295112E+02 -0.11456626242E+04  0.59675072061E+03  0.12918482255E+04  0.46999998093E+01 0.  1.
       -5    1    3    3    0  502  0.13981295112E+02  0.11456626242E+04  0.37477059273E+03  0.12054930163E+04  0.46999998093E+01 0. -1.
</event>
<event>
 5   0  0.4605516E-05  0.2296571E+04  0.7818609E-02  0.8479274E-01
        2   -1    0    0  501    0  0.00000000000E+00  0.00000000000E+00  0.14441550788E+04  0.14441550788E+04  0.25500000920E-02 0.  1.
       -2   -1    0    0    0  501  0.00000000000E+00  0.00000000000E+00 -0.91303201073E+03  0.91303201073E+03  0.25500000920E-02 0. -1.
    10030    2    1    2    0    0  0.00000000000E+00  0.00000000000E+00  0.53112306807E+03  0.23571870895E+04  0.22965711967E+04 0.  0.
        1    1    3    3  502    0 -0.15675941651E+03  0.10426244878E+04  0.73245293662E+03  0.12837938470E+04  0.50400001928E-02 0.  1.
       -1    1    3    3    0  502  0.15675941651E+03 -0.10426244878E+04 -0.20132986855E+03  0.10733932426E+04  0.50400001928E-02 0. -1.
</event>
<event>
 5   0  0.2085063E-05  0.2396893E+04  0.7818609E-02  0.8440668E-01
        1   -1    0    0  501    0  0.00000000000E+00  0.00000000000E+00  0.10750077038E+04  0.10750077038E+04  0.50400001928E-02 0.  1.
       -1   -1    0    0    0  501  0.00000000000E+00  0.00000000000E+00 -0.13360591754E+04  0.13360591754E+04  0.50400001928E-02 0. -1.
    10030    2    1    2    0    0  0.00000000000E+00  0.00000000000E+00 -0.26105147155E+03  0.24110668792E+04  0.23968929107E+04 0.  0.
        1    1    3    3  502    0  0.53529876127E+03  0.28171433401E+03  0.91017728409E+03  0.10928542530E+04  0.50400001928E-02 0.  1.
       -1    1    3    3    0  502 -0.53529876127E+03 -0.28171433401E+03 -0.11712287556E+04  0.13182126262E+04  0.50400001928E-02 0. -1.
</event>
<event>
 5   0  0.4505107E-05  0.2304167E+04  0.7818609E-02  0.8476280E-01
        2   -1    0    0  501    0  0.00000000000E+00  0.00000000000E+00  0.20225128013E+04  0.20225128013E+04  0.25500000920E-02 0.  1.
       -2   -1    0    0    0  501  0.00000000000E+00  0.00000000000E+00 -0.65626116970E+03  0.65626116970E+03  0.25500000920E-02 0. -1.
    10030    2    1    2    0    0  0.00000000000E+00  0.00000000000E+00  0.13662516316E+04  0.26787739710E+04  0.23041671959E+04 0.  0.
        4    1    3    3  502    0 -0.64965063677E+03  0.94217370397E+03  0.83717404247E+03  0.14179560038E+04  0.12699999809E+01 0. -1.
       -4    1    3    3    0  502  0.64965063677E+03 -0.94217370397E+03  0.52907758912E+03  0.12608179672E+04  0.12699999809E+01 0.  1.
</event>
<event>
 5   0  0.4436695E-05  0.2425201E+04  0.7818609E-02  0.8430129E-01
        2   -1    0    0  501    0  0.00000000000E+00  0.00000000000E+00  0.23338087805E+04  0.23338087805E+04  0.25500000920E-02 0.  1.
       -2   -1    0    0    0  501  0.00000000000E+00  0.00000000000E+00 -0.63004305688E+03  0.63004305689E+03  0.25500000920E-02 0. -1.
    10030    2    1    2    0    0  0.00000000000E+00  0.00000000000E+00  0.17037657236E+04  0.29638518374E+04  0.24252010376E+04 0.  0.
        5    1    3    3  502    0  0.72086234305E+03  0.77090017702E+03  0.12224554951E+03  0.10624950188E+04  0.46999998093E+01 0. -1.
       -5    1    3    3    0  502 -0.72086234305E+03 -0.77090017702E+03  0.15815201741E+04  0.19013568186E+04  0.46999998093E+01 0.  1.
</event>
<event>
 5   0  0.2042951E-05  0.2265384E+04  0.7818609E-02  0.8491696E-01
       -1   -1    0    0    0  501  0.00000000000E+00  0.00000000000E+00  0.66094147495E+03  0.66094147497E+03  0.50400001928E-02 0.  1.
        1   -1    0    0  501    0  0.00000000000E+00  0.00000000000E+00 -0.19411569537E+04  0.19411569537E+04  0.50400001928E-02 0. -1.
    10030    2    1    2    0    0  0.00000000000E+00  0.00000000000E+00 -0.12802154788E+04  0.26020984287E+04  0.22653839764E+04 0.  0.
        2    1    3    3  502    0  0.19123323331E+03  0.49733192867E+03  0.50799948863E+03  0.73618793609E+03  0.25500000920E-02 0.  1.
       -2    1    3    3    0  502 -0.19123323331E+03 -0.49733192867E+03 -0.17882149674E+04  0.18659104926E+04  0.25500000920E-02 0. -1.
</event>
<event>
 5   0  0.2085063E-05  0.2309657E+04  0.7818609E-02  0.8474123E-01
       -1   -1    0    0    0  501  0.00000000000E+00  0.00000000000E+00  0.10317016254E+04  0.10317016254E+04  0.50400001928E-02 0.  1.
        1   -1    0    0  501    0  0.00000000000E+00  0.00000000000E+00 -0.12926496377E+04  0.12926496377E+04  0.50400001928E-02 0. -1.
    10030    2    1    2    0    0  0.00000000000E+00  0.00000000000E+00 -0.26094801229E+03  0.23243512631E+04  0.23096568856E+04 0.  0.
        1    1    3    3  502    0  0.22439335130E+03 -0.90538426211E+03  0.55470690189E+03  0.10852524062E+04  0.50400001928E-02 0.  1.
       -1    1    3    3    0  502 -0.22439335130E+03  0.90538426211E+03 -0.81565491418E+03  0.12390988569E+04  0.50400001928E-02 0. -1.
</event>
<event>
 5   0  0.4798609E-05  0.2275150E+04  0.7818609E-02  0.8487784E-01
        2   -1    0    0  501    0  0.00000000000E+00  0.00000000000E+00  0.12518511081E+04  0.12518511081E+04  0.25500000920E-02 0. -1.
       -2   -1    0    0    0  501  0.00000000000E+00  0.00000000000E+00 -0.10337303447E+04  0.10337303447E+04  0.25500000920E-02 0.  1.
    10030    2    1    2    0    0  0.00000000000E+00  0.00000000000E+00  0.21812076335E+03  0.22855814528E+04  0.22751496456E+04 0.  0.
        2    1    3    3  502    0  0.32360298871E+03  0.48546215920E+03 -0.87198478238E+03  0.10491662704E+04  0.25500000920E-02 0.  1.
       -2    1    3    3    0  502 -0.32360298871E+03 -0.48546215920E+03  0.10901055457E+04  0.12364151824E+04  0.25500000920E-02 0. -1.
</event>
<event>
 5   0  0.1968318E-05  0.2302108E+04  0.7818609E-02  0.8477090E-01
       -1   -1    0    0    0  501  0.00000000000E+00  0.00000000000E+00  0.90624314728E+03  0.90624314729E+03  0.50400001928E-02 0.  1.
        1   -1    0    0  501    0  0.00000000000E+00  0.00000000000E+00 -0.14619976639E+04  0.14619976639E+04  0.50400001928E-02 0. -1.
    10030    2    1    2    0    0  0.00000000000E+00  0.00000000000E+00 -0.55575451659E+03  0.23682408112E+04  0.23021080463E+04 0.  0.
        3    1    3    3  502    0 -0.72533405641E+03  0.36731651132E+03 -0.11160811526E+04  0.13808215172E+04  0.10100000352E+00 0. -1.
       -3    1    3    3    0  502  0.72533405641E+03 -0.36731651132E+03  0.56032663604E+03  0.98741929398E+03  0.10100000352E+00 0.  1.
</event>
<event>
 5   0  0.1968318E-05  0.2094777E+04  0.7818609E-02  0.8563548E-01
       -1   -1    0    0    0  501  0.00000000000E+00  0.00000000000E+00  0.10714232384E+04  0.10714232384E+04  0.50400001928E-02 0. -1.
        1   -1    0    0  501    0  0.00000000000E+00  0.00000000000E+00 -0.10238931876E+04  0.10238931876E+04  0.50400001928E-02 0.  1.
    10030    2    1    2    0    0  0.00000000000E+00  0.00000000000E+00  0.47530050793E+02  0.20953164260E+04  0.20947772720E+04 0.  0.
        3    1    3    3  502    0 -0.10635929306E+03  0.95556755019E+03  0.43932508382E+03  0.10570847561E+04  0.10100000352E+00 0. -1.
       -3    1    3    3    0  502  0.10635929306E+03 -0.95556755019E+03 -0.39179503302E+03  0.10382316699E+04  0.10100000352E+00 0.  1.
</event>
<event>
 5   0  0.4798609E-05  0.2330265E+04  0.7818609E-02  0.8466083E-01
       -2   -1    0    0    0  501  0.00000000000E+00  0.00000000000E+00  0.22176929961E+04  0.22176929961E+04  0.25500000920E-02 0. -1.
        2   -1    0    0  501    0  0.00000000000E+00  0.00000000000E+00 -0.61213787770E+03  0.61213787770E+03  0.25500000920E-02 0.  1.
    10030    2    1    2    0    0  0.00000000000E+00  0.00000000000E+00  0.16055551184E+04  0.28298308738E+04  0.23302651214E+04 0.  0.
        2    1    3    3  502    0  0.77354140891E+03  0.47247713928E+03 -0.86240053849E+02  0.91051540643E+03  0.25500000920E-02 0.  1.
       -2    1    3    3    0  502 -0.77354140891E+03 -0.47247713928E+03  0.16917951722E+04  0.19193154674E+04  0.25500000920E-02 0. -1.
</event>
<event>
 5   0  0.2043885E-05  0.2316106E+04  0.7818609E-02  0.8471598E-01
        1   -1    0    0  501    0  0.00000000000E+00  0.00000000000E+00  0.16342564479E+04  0.16342564479E+04  0.50400001928E-02 0. -1.
       -1   -1    0    0    0  501  0.00000000000E+00  0.00000000000E+00 -0.82060992239E+03  0.82060992241E+03  0.50400001928E-02 0.  1.
    10030    2    1    2    0    0  0.00000000000E+00  0.00000000000E+00  0.81364652550E+03  0.24548663703E+04  0.23161062643E+04 0.  0.
        5    1    3    3  502    0  0.10815516519E+04  0.26700052173E+03  0.74203291735E+03  0.13385358399E+04  0.46999998093E+01 0.  1.
       -5    1    3    3    0  502 -0.10815516519E+04 -0.26700052173E+03  0.71613608148E+02  0.11163305304E+04  0.46999998093E+01 0. -1.
</event>
<event>
 5   0  0.4602447E-05  0.2308258E+04  0.7818609E-02  0.8474672E-01
       -2   -1    0    0    0  501  0.00000000000E+00  0.00000000000E+00  0.99587668891E+03  0.99587668892E+03  0.25500000920E-02 0.  1.
        2   -1    0    0  501    0  0.00000000000E+00  0.00000000000E+00 -0.13375292037E+04  0.13375292037E+04  0.25500000920E-02 0. -1.
    10030    2    1    2    0    0  0.00000000000E+00  0.00000000000E+00 -0.34165251480E+03  0.23334058926E+04  0.23082583519E+04 0.  0.
        3    1    3    3  502    0  0.10513928164E+04  0.15270849426E+03 -0.62658997302E+03  0.12334349367E+04  0.10100000352E+00 0. -1.
       -3    1    3    3    0  502 -0.10513928164E+04 -0.15270849426E+03  0.28493745822E+03  0.10999709559E+04  0.10100000352E+00 0.  1.
</event>
<event>
 5   0  0.4602447E-05  0.2235805E+04  0.7818609E-02  0.8503672E-01
        2   -1    0    0  501    0  0.00000000000E+00  0.00000000000E+00  0.86496397139E+03  0.86496397140E+03  0.25500000920E-02 0. -1.
       -2   -1    0    0    0  501  0.00000000000E+00  0.00000000000E+00 -0.14448065229E+04  0.14448065229E+04  0.25500000920E-02 0.  1.
    10030    2    1    2    0    0  0.00000000000E+00  0.00000000000E+00 -0.57984255150E+03  0.23097704943E+04  0.22358046318E+04 0.  0.
        3    1    3    3  502    0  0.97926897406E+02 -0.83244779947E+03 -0.10540856995E+04  0.13467203452E+04  0.10100000352E+00 0.  1.
       -3    1    3    3    0  502 -0.97926897406E+02  0.83244779947E+03  0.47424314798E+03  0.96305014910E+03  0.10100000352E+00 0. -1.
</event>
<event>
 5   0  0.4798609E-05  0.2398591E+04  0.7818609E-02  0.8440031E-01
        2   -1    0    0  501    0  0.00000000000E+00  0.00000000000E+00  0.10720405246E+04  0.10720405246E+04  0.25500000920E-02 0. -1.
       -2   -1    0    0    0  501  0.00000000000E+00  0.00000000000E+00 -0.13416564475E+04  0.13416564475E+04  0.25500000920E-02 0.  1.
    10030    2    1    2    0    0  0.00000000000E+00  0.00000000000E+00 -0.26961592289E+03  0.24136969721E+04  0.23985913214E+04 0.  0.
        2    1    3    3  502    0  0.11799154228E+04  0.18663550056E+03 -0.27946597209E+02  0.11949118073E+04  0.25500000920E-02 0. -1.
       -2    1    3    3    0  502 -0.11799154228E+04 -0.18663550056E+03 -0.24166932568E+03  0.12187851648E+04  0.25500000920E-02 0.  1.
</event>
<event>
 5   0  0.2031860E-05  0.2309437E+04  0.7818609E-02  0.8474210E-01
        1   -1    0    0  501    0  0.00000000000E+00  0.00000000000E+00  0.14384227868E+04  0.14384227868E+04  0.50400001928E-02 0.  1.
       -1   -1    0    0    0  501  0.00000000000E+00  0.00000000000E+00 -0.92697005419E+03  0.92697005420E+03  0.50400001928E-02 0. -1.
    10030    2    1    2    0    0  0.00000000000E+00  0.00000000000E+00  0.51145273256E+03  0.23653928410E+04  0.23094370298E+04 0.  0.
        4    1    3    3  502    0  0.53343913242E+03 -0.81119767285E+02  0.13013613048E+04  0.14087869190E+04  0.12699999809E+01 0.  1.
       -4    1    3    3    0  502 -0.53343913242E+03  0.81119767285E+02 -0.78990857220E+03  0.95660592199E+03  0.12699999809E+01 0. -1.
</event>
<event>
 5   0  0.4605516E-05  0.2303131E+04  0.7818609E-02  0.8476688E-01
       -2   -1    0    0    0  501  0.00000000000E+00  0.00000000000E+00  0.57450678432E+03  0.57450678432E+03  0.25500000920E-02 0.  1.
        2   -1    0    0  501    0  0.00000000000E+00  0.00000000000E+00 -0.23082454484E+04  0.23082454484E+04  0.25500000920E-02 0. -1.
    10030    2    1    2    0    0  0.00000000000E+00  0.00000000000E+00 -0.17337386641E+04  0.28827522327E+04  0.23031306259E+04 0.  0.
        1    1    3    3  502    0 -0.36043762523E+03 -0.10927345881E+04 -0.80925854207E+03  0.14067279586E+04  0.50400001928E-02 0. -1.
       -1    1    3    3    0  502  0.36043762523E+03  0.10927345881E+04 -0.92448012199E+03  0.14760242741E+04  0.50400001928E-02 0.  1.
</event>
<event>
 5   0  0.4798609E-05  0.2290780E+04  0.7818609E-02  0.8481565E-01
        2   -1    0    0  501    0  0.00000000000E+00  0.00000000000E+00  0.20163815169E+04  0.20163815169E+04  0.25500000920E-02 0.  1.
       -2   -1    0    0    0  501  0.00000000000E+00  0.00000000000E+00 -0.65062973624E+03  0.65062973625E+03  0.25500000920E-02 0. -1.
    10030    2    1    2    0    0  0.00000000000E+00  0.00000000000E+00  0.13657517806E+04  0.26670112531E+04  0.22907795830E+04 0.  0.
        2    1    3    3  502    0  0.68504405270E+03  0.65047578358E+03  0.14369509995E+04  0.17196605113E+04  0.25500000920E-02 0.  1.
       -2    1    3    3    0  502 -0.68504405270E+03 -0.65047578358E+03 -0.71199218920E+02  0.94735074177E+03  0.25500000920E-02 0. -1.
</event>
<event>
 5   0  0.4605516E-05  0.2291779E+04  0.7818609E-02  0.8481170E-01
        2   -1    0    0  501    0  0.00000000000E+00  0.00000000000E+00  0.13960553016E+04  0.13960553016E+04  0.25500000920E-02 0. -1.
       -2   -1    0    0    0  501  0.00000000000E+00  0.00000000000E+00 -0.94055215605E+03  0.94055215606E+03  0.25500000920E-02 0.  1.
    10030    2    1    2    0    0  0.00000000000E+00  0.00000000000E+00  0.45550314556E+03  0.23366074577E+04  0.22917790678E+04 0.  0.
        1    1    3    3  502    0 -0.10395648026E+04 -0.31795100629E+03 -0.14165449772E+03  0.10962909367E+04  0.50400001928E-02 0.  1.
       -1    1    3    3    0  502  0.10395648026E+04  0.31795100629E+03  0.59715764328E+03  0.12403165210E+04  0.50400001928E-02 0. -1.
</event>
<event>
 5   0  0.4602447E-05  0.2244126E+04  0.7818609E-02  0.8500283E-01
       -2   -1    0    0    0  501  0.00000000000E+00  0.00000000000E+00  0.19772845878E+04  0.19772845878E+04  0.25500000920E-02 0. -1.
        2   -1    0    0  501    0  0.00000000000E+00  0.00000000000E+00 -0.63674481067E+03  0.63674481067E+03  0.25500000920E-02 0.  1.
    10030    2    1    2    0    0  0.00000000000E+00  0.00000000000E+00  0.13405397771E+04  0.26140293985E+04  0.22441262892E+04 0.  0.
        3    1    3    3  502    0  0.91502541153E+03 -0.18016894699E+03  0.13970476994E+04  0.16797245720E+04  0.10100000352E+00 0.  1.
       -3    1    3    3    0  502 -0.91502541153E+03  0.18016894699E+03 -0.56507922306E+02  0.93430482643E+03  0.10100000352E+00 0. -1.
</event>
<event>
 5   0  0.2042951E-05  0.2285949E+04  0.7818609E-02  0.8483482E-01
       -1   -1    0    0    0  501  0.00000000000E+00  0.00000000000E+00  0.69928922750E+03  0.69928922751E+03  0.50400001928E-02 0. -1.
        1   -1    0    0  501    0  0.00000000000E+00  0.00000000000E+00 -0.18681696466E+04  0.18681696466E+04  0.50400001928E-02 0.  1.
    10030    2    1    2    0    0  0.00000000000E+00  0.00000000000E+00 -0.11688804191E+04  0.25674588741E+04  0.22859491762E+04 0.  0.
        2    1    3    3  502    0 -0.24011085346E+03 -0.38520988183E+03  0.59371512289E+03  0.74735367944E+03  0.25500000920E-02 0. -1.
       -2    1    3    3    0  502  0.24011085346E+03  0.38520988183E+03 -0.17625955420E+04  0.18201051947E+04  0.25500000920E-02 0.  1.
</event>
<event>
 5   0  0.4605516E-05  0.2265728E+04  0.7818609E-02  0.8491558E-01
       -2   -1    0    0    0  501  0.00000000000E+00  0.00000000000E+00  0.54182928755E+03  0.54182928755E+03  0.25500000920E-02 0. -1.
        2   -1    0    0  501    0  0.00000000000E+00  0.00000000000E+00 -0.23686078639E+04  0.23686078639E+04  0.25500000920E-02 0.  1.
    10030    2    1    2    0    0  0.00000000000E+00  0.00000000000E+00 -0.18267785764E+04  0.29104371515E+04  0.22657282374E+04 0.  0.
        1    1    3    3  502    0 -0.63247159232E+03  0.19808558388E+03 -0.20935828709E+04  0.21959843922E+04  0.50400001928E-02 0.  1.
       -1    1    3    3    0  502  0.63247159232E+03 -0.19808558388E+03  0.26680429450E+03  0.71445275926E+03  0.50400001928E-02 0. -1.
</event>
<event>
 5   0  0.4505107E-05  0.2295296E+04  0.7818609E-02  0.8479778E-01
       -2   -1    0    0    0  501  0.00000000000E+00  0.00000000000E+00  0.99910249603E+03  0.99910249603E+03  0.25500000920E-02 0. -1.
        2   -1    0    0  501    0  0.00000000000E+00  0.00000000000E+00 -0.13182792146E+04  0.13182792146E+04  0.25500000920E-02 0.  1.
    10030    2    1    2    0    0  0.00000000000E+00  0.00000000000E+00 -0.31917671859E+03  0.23173817106E+04  0.22952961062E+04 0.  0.
        4    1    3    3  502    0 -0.17716849386E+03 -0.92277047175E+03 -0.82486760588E+03  0.12503208384E+04  0.12699999809E+01 0. -1.
       -4    1    3    3    0  502  0.17716849386E+03  0.92277047175E+03  0.50569088729E+03  0.10670608723E+04  0.12699999809E+01 0.  1.
</event>
<event>
 5   0  0.2085063E-05  0.2295414E+04  0.7818609E-02  0.8479731E-01
       -1   -1    0    0    0  501  0.00000000000E+00  0.00000000000E+00  0.61131730453E+03  0.61131730455E+03  0.50400001928E-02 0.  1.
        1   -1    0    0  501    0  0.00000000000E+00  0.00000000000E+00 -0.21547431048E+04  0.21547431048E+04  0.50400001928E-02 0. -1.
    10030    2    1    2    0    0  0.00000000000E+00  0.00000000000E+00 -0.15434258003E+04  0.27660604094E+04  0.22954143389E+04 0.  0.
        1    1    3    3  502    0 -0.10527139277E+04  0.20432226909E+03 -0.27885764499E+03  0.11080233704E+04  0.50400001928E-02 0.  1.
       -1    1    3    3    0  502  0.10527139277E+04 -0.20432226909E+03 -0.12645681553E+04  0.16580370390E+04  0.50400001928E-02 0. -1.
</event>
<event>
 5   0  0.2042951E-05  0.2206882E+04  0.7818609E-02  0.8515569E-01
        1   -1    0    0  501    0  0.00000000000E+00  0.00000000000E+00  0.20070708289E+04  0.20070708289E+04  0.50400001928E-02 0. -1.
       -1   -1    0    0    0  501  0.00000000000E+00  0.00000000000E+00 -0.60664633984E+03  0.60664633986E+03  0.50400001928E-02 0.  1.
    10030    2    1    2    0    0  0.00000000000E+00  0.00000000000E+00  0.14004244891E+04  0.26137171688E+04  0.22068821194E+04 0.  0.
        2    1    3    3  502    0 -0.65780947041E+03  0.41736775966E+03  0.16257280149E+04  0.18027481034E+04  0.25500000920E-02 0. -1.
       -2    1    3    3    0  502  0.65780947041E+03 -0.41736775966E+03 -0.22530352579E+03  0.81096906532E+03  0.25500000920E-02 0.  1.
</event>
<event>
 5   0  0.2043885E-05  0.2305042E+04  0.7818609E-02  0.8475936E-01
       -1   -1    0    0    0  501  0.00000000000E+00  0.00000000000E+00  0.62777201683E+03  0.62777201685E+03  0.50400001928E-02 0.  1.
        1   -1    0    0  501    0  0.00000000000E+00  0.00000000000E+00 -0.21159034808E+04  0.21159034808E+04  0.50400001928E-02 0. -1.
    10030    2    1    2    0    0  0.00000000000E+00  0.00000000000E+00 -0.14881314640E+04  0.27436754976E+04  0.23050422951E+04 0.  0.
        5    1    3    3  502    0  0.59868141166E+03 -0.72169895382E+03 -0.15416633205E+04  0.18044435975E+04  0.46999998093E+01 0. -1.
       -5    1    3    3    0  502 -0.59868141166E+03  0.72169895382E+03  0.53531856584E+02  0.93923190016E+03  0.46999998093E+01 0.  1.
</event>
<event>
 5   0  0.1604500E-05  0.2289553E+04  0.7818609E-02  0.8482051E-01
        3   -1    0    0  501    0  0.00000000000E+00  0.00000000000E+00  0.24593170220E+04  0.24593170240E+04  0.10100000352E+00 0.  1.
       -3   -1    0    0    0  501  0.00000000000E+00  0.00000000000E+00 -0.53287710535E+03  0.53287711492E+03  0.10100000352E+00 0. -1.
    10030    2    1    2    0    0  0.00000000000E+00  0.00000000000E+00  0.19264399166E+04  0.29921941390E+04  0.22895534527E+04 0.  0.
        3    1    3    3  502    0  0.95732472047E+03 -0.48836888903E+03  0.44780316657E+03  0.11642604856E+04  0.10100000352E+00 0. -1.
       -3    1    3    3    0  502 -0.95732472047E+03  0.48836888903E+03  0.14786367500E+04  0.18279336533E+04  0.10100000352E+00 0.  1.
</event>
<event>
 5   0  0.1968318E-05  0.2359437E+04  0.7818609E-02  0.8454848E-01
       -1   -1    0    0    0  501  0.00000000000E+00  0.00000000000E+00  0.10151001725E+04  0.10151001725E+04  0.50400001928E-02 0. -1.
        1   -1    0    0  501    0  0.00000000000E+00  0.00000000000E+00 -0.13710323567E+04  0.13710323567E+04  0.50400001928E-02 0.  1.
    10030    2    1    2    0    0  0.00000000000E+00  0.00000000000E+00 -0.35593218425E+03  0.23861325292E+04  0.23594365275E+04 0.  0.
        3    1    3    3  502    0 -0.86775085075E+03 -0.32745825154E+03 -0.91526554814E+03  0.13030469981E+04  0.10100000352E+00 0.  1.
       -3    1    3    3    0  502  0.86775085075E+03  0.32745825154E+03  0.55933336389E+03  0.10830855311E+04  0.10100000352E+00 0. -1.
</event>
<event>
 5   0  0.4505107E-05  0.2243010E+04  0.7818609E-02  0.8500737E-01
       -2   -1    0    0    0  501  0.00000000000E+00  0.00000000000E+00  0.12716556692E+04  0.12716556692E+04  0.25500000920E-02 0.  1.
        2   -1    0    0  501    0  0.00000000000E+00  0.00000000000E+00 -0.98908352214E+03  0.98908352214E+03  0.25500000920E-02 0. -1.
    10030    2    1    2    0    0  0.00000000000E+00  0.00000000000E+00  0.28257214707E+03  0.22607391914E+04  0.22430101812E+04 0.  0.
        4    1    3    3  502    0  0.78494544561E+03  0.68815766254E+03  0.55449201630E+03  0.11820166370E+04  0.12699999809E+01 0. -1.
       -4    1    3    3    0  502 -0.78494544561E+03 -0.68815766254E+03 -0.27191986922E+03  0.10787225544E+04  0.12699999809E+01 0.  1.
</event>
<event>
 5   0  0.2085063E-05  0.2308173E+04  0.7818609E-02  0.8474705E-01
        1   -1    0    0  501    0  0.00000000000E+00  0.00000000000E+00  0.15678214192E+04  0.15678214192E+04  0.50400001928E-02 0.  1.
       -1   -1    0    0    0  501  0.00000000000E+00  0.00000000000E+00 -0.84953299557E+03  0.84953299558E+03  0.50400001928E-02 0. -1.
    10030    2    1    2    0    0  0.00000000000E+00  0.00000000000E+00  0.71828842367E+03  0.24173544148E+04  0.23081733270E+04 0.  0.
        1    1    3    3  502    0 -0.89169187900E+03 -0.60448172570E+03 -0.74448232974E+02  0.10798403137E+04  0.50400001928E-02 0. -1.
       -1    1    3    3    0  502  0.89169187900E+03  0.60448172570E+03  0.79273665664E+03  0.13375141011E+04  0.50400001928E-02 0.  1.
</event>
<event>
 5   0  0.4436695E-05  0.2299744E+04  0.7818609E-02  0.8478022E-01
       -2   -1    0    0    0  501  0.00000000000E+00  0.00000000000E+00  0.61506413140E+03  0.61506413141E+03  0.25500000920E-02 0.  1.
        2   -1    0    0  501    0  0.00000000000E+00  0.00000000000E+00 -0.21497042300E+04  0.21497042300E+04  0.25500000920E-02 0. -1.
    10030    2    1    2    0    0  0.00000000000E+00  0.00000000000E+00 -0.15346400986E+04  0.27647683614E+04  0.22997443032E+04 0.  0.
        5    1    3    3  502    0 -0.10082089926E+04 -0.40349423720E+03 -0.12217652165E+04  0.16346330801E+04  0.46999998093E+01 0. -1.
       -5    1    3    3    0  502  0.10082089926E+04  0.40349423720E+03 -0.31287488216E+03  0.11301352814E+04  0.46999998093E+01 0.  1.
</event>
<event>
 5   0  0.4436695E-05  0.2307295E+04  0.7818609E-02  0.8475051E-01
       -2   -1    0    0    0  501  0.00000000000E+00  0.00000000000E+00  0.12009985265E+04  0.12009985265E+04  0.25500000920E-02 0.  1.
        2   -1    0    0  501    0  0.00000000000E+00  0.00000000000E+00 -0.11081629334E+04  0.11081629334E+04  0.25500000920E-02 0. -1.
    10030    2    1    2    0    0  0.00000000000E+00  0.00000000000E+00  0.92835593033E+02  0.23091614599E+04  0.23072945630E+04 0.  0.
        5    1    3    3  502    0 -0.64659582913E+03 -0.27413266874E+03 -0.86955226114E+03  0.11177558370E+04  0.46999998093E+01 0. -1.
       -5    1    3    3    0  502  0.64659582913E+03  0.27413266874E+03  0.96238785418E+03  0.11914056229E+04  0.46999998093E+01 0.  1.
</event>
<event>
 5   0  0.4436695E-05  0.2310844E+04  0.7818609E-02  0.8473658E-01
       -2   -1    0    0    0  501  0.00000000000E+00  0.00000000000E+00  0.10486275959E+04  0.10486275959E+04  0.25500000920E-02 0.  1.
        2   -1    0    0  501    0  0.00000000000E+00  0.00000000000E+00 -0.12730923840E+04  0.12730923840E+04  0.25500000920E-02 0. -1.
    10030    2    1    2    0    0  0.00000000000E+00  0.00000000000E+00 -0.22446478811E+03  0.23217199799E+04  0.23108438337E+04 0.  0.
        5    1    3    3  502    0 -0.63187320669E+03  0.87697556133E+03  0.29788955532E+03  0.11212092408E+04  0.46999998093E+01 0. -1.
       -5    1    3    3    0  502  0.63187320669E+03 -0.87697556133E+03 -0.52235434342E+03  0.12005107391E+04  0.46999998093E+01 0.  1.
</event>
<event>
 5   0  0.4798609E-05  0.2329807E+04  0.7818609E-02  0.8466260E-01
       -2   -1    0    0    0  501  0.00000000000E+00  0.00000000000E+00  0.10727731671E+04  0.10727731671E+04  0.25500000920E-02 0.  1.
        2   -1    0    0  501    0  0.00000000000E+00  0.00000000000E+00 -0.12649461511E+04  0.12649461511E+04  0.25500000920E-02 0. -1.
    10030    2    1    2    0    0  0.00000000000E+00  0.00000000000E+00 -0.19217298402E+03  0.23377193183E+04  0.23298071069E+04 0.  0.
        2    1    3    3  502    0  0.54531070597E+03  0.21339230083E+03  0.91435889290E+03  0.10857956645E+04  0.25500000920E-02 0.  1.
       -2    1    3    3    0  502 -0.54531070597E+03 -0.21339230083E+03 -0.11065318769E+04  0.12519236537E+04  0.25500000920E-02 0. -1.
</event>
<event>
 5   0  0.2031860E-05  0.2304094E+04  0.7818609E-02  0.8476309E-01
        1   -1    0    0  501    0  0.00000000000E+00  0.00000000000E+00  0.11649974217E+04  0.11649974217E+04  0.50400001928E-02 0.  1.
       -1   -1    0    0    0  501  0.00000000000E+00  0.00000000000E+00 -0.11392408208E+04  0.11392408209E+04  0.50400001928E-02 0. -1.
    10030    2    1    2    0    0  0.00000000000E+00  0.00000000000E+00  0.25756600869E+02  0.23042382426E+04  0.23040942854E+04 0.  0.
        4    1    3    3  502    0  0.45009259864E+03 -0.24887608353E+03  0.10438104752E+04  0.11636428032E+04  0.12699999809E+01 0.  1.
       -4    1    3    3    0  502 -0.45009259864E+03  0.24887608353E+03 -0.10180538744E+04  0.11405954394E+04  0.12699999809E+01 0. -1.
</event>
<event>
 5   0  0.4605516E-05  0.2287093E+04  0.7818609E-02  0.8483028E-01
       -2   -1    0    0    0  501  0.00000000000E+00  0.00000000000E+00  0.13317825931E+04  0.13317825931E+04  0.25500000920E-02 0. -1.
        2   -1    0    0  501    0  0.00000000000E+00  0.00000000000E+00 -0.98191581624E+03  0.98191581625E+03  0.25500000920E-02 0.  1.
    10030    2    1    2    0    0  0.00000000000E+00  0.00000000000E+00  0.34986677683E+03  0.23136984093E+04  0.22870928201E+04 0.  0.
        1    1    3    3  502    0  0.61106210276E+03 -0.82716644135E+02  0.11491834099E+04  0.13041707888E+04  0.50400001928E-02 0. -1.
       -1    1    3    3    0  502 -0.61106210276E+03  0.82716644135E+02 -0.79931663310E+03  0.10095276205E+04  0.50400001928E-02 0.  1.
</event>
<event>
 5   0  0.4436695E-05  0.2317021E+04  0.7818609E-02  0.8471240E-01
       -2   -1    0    0    0  501  0.00000000000E+00  0.00000000000E+00  0.67861325987E+03  0.67861325987E+03  0.25500000920E-02 0. -1.
        2   -1    0    0  501    0  0.00000000000E+00  0.00000000000E+00 -0.19777777606E+04  0.19777777606E+04  0.25500000920E-02 0.  1.
    10030    2    1    2    0    0  0.00000000000E+00  0.00000000000E+00 -0.12991645007E+04  0.26563910205E+04  0.23170206848E+04 0.  0.
        5    1    3    3  502    0 -0.54134769247E+03  0.57100132382E+03 -0.16244339107E+04  0.18049674390E+04  0.46999998093E+01 0.  1.
       -5    1    3    3    0  502  0.54134769247E+03 -0.57100132382E+03  0.32526940994E+03  0.85142358141E+03  0.46999998093E+01 0. -1.
</event>
<event>
 5   0  0.4505107E-05  0.2279356E+04  0.7818609E-02  0.8486106E-01
       -2   -1    0    0    0  501  0.00000000000E+00  0.00000000000E+00  0.80072260620E+03  0.80072260620E+03  0.25500000920E-02 0. -1.
        2   -1    0    0  501    0  0.00000000000E+00  0.00000000000E+00 -0.16221169660E+04  0.16221169661E+04  0.25500000920E-02 0.  1.
    10030    2    1    2    0    0  0.00000000000E+00  0.00000000000E+00 -0.82139435985E+03  0.24228395723E+04  0.22793558078E+04 0.  0.
        4    1    3    3  502    0  0.50221851240E+03  0.73695883222E+03  0.34357176358E+03  0.95570650527E+03  0.12699999809E+01 0. -1.
       -4    1    3    3    0  502 -0.50221851240E+03 -0.73695883222E+03 -0.11649661234E+04  0.14671330670E+04  0.12699999809E+01 0.  1.
</event>
<event>
 5   0  0.4602447E-05  0.2346547E+04  0.7818609E-02  0.8459791E-01
       -2   -1    0    0    0  501  0.00000000000E+00  0.00000000000E+00  0.98333294993E+03  0.98333294994E+03  0.25500000920E-02 0. -1.
        2   -1    0    0  501    0  0.00000000000E+00  0.00000000000E+00 -0.13999024476E+04  0.13999024476E+04  0.25500000920E-02 0.  1.
    10030    2    1    2    0    0  0.00000000000E+00  0.00000000000E+00 -0.41656949765E+03  0.23832353975E+04  0.23465465718E+04 0.  0.
        3    1    3    3  502    0 -0.21954083265E+03 -0.96631274394E+03 -0.84628777665E+03  0.13031352606E+04  0.10100000352E+00 0.  1.
       -3    1    3    3    0  502  0.21954083265E+03  0.96631274394E+03  0.42971827900E+03  0.10801001369E+04  0.10100000352E+00 0. -1.
</event>
<event>
 5   0  0.4436695E-05  0.2305857E+04  0.7818609E-02  0.8475615E-01
       -2   -1    0    0    0  501  0.00000000000E+00  0.00000000000E+00  0.66169951647E+03  0.66169951647E+03  0.25500000920E-02 0. -1.
        2   -1    0    0  501    0  0.00000000000E+00  0.00000000000E+00 -0.20088336508E+04  0.20088336508E+04  0.25500000920E-02 0.  1.
    10030    2    1    2    0    0  0.00000000000E+00  0.00000000000E+00 -0.13471341344E+04  0.26705331673E+04  0.23058571122E+04 0.  0.
        5    1    3    3  502    0  0.57296305091E+03 -0.52150162162E+03  0.31526121369E+03  0.83645820094E+03  0.46999998093E+01 0. -1.
       -5    1    3    3    0  502 -0.57296305091E+03  0.52150162162E+03 -0.16623953481E+04  0.18340749664E+04  0.46999998093E+01 0.  1.
</event>
<event>
 5   0  0.2031860E-05  0.2299088E+04  0.7818609E-02  0.8478281E-01
        1   -1    0    0  501    0  0.00000000000E+00  0.00000000000E+00  0.20308932779E+04  0.20308932779E+04  0.50400001928E-02 0.  1.
       -1   -1    0    0    0  501  0.00000000000E+00  0.00000000000E+00 -0.65067511900E+03  0.65067511901E+03  0.50400001928E-02 0. -1.
    10030    2    1    2    0    0  0.00000000000E+00  0.00000000000E+00  0.13802181589E+04  0.26815683969E+04  0.22990882761E+04 0.  0.
        4    1    3    3  502    0  0.10728611918E+04 -0.36064048863E+03  0.92442127554E+03  0.14613859882E+04  0.12699999809E+01 0. -1.
       -4    1    3    3    0  502 -0.10728611918E+04  0.36064048863E+03  0.45579688332E+03  0.12201824087E+04  0.12699999809E+01 0.  1.
</event>
<event>
 5   0  0.1968318E-05  0.2327584E+04  0.7818609E-02  0.8467124E-01
       -1   -1    0    0    0  501  0.00000000000E+00  0.00000000000E+00  0.72338897471E+03  0.72338897473E+03  0.50400001928E-02 0. -1.
        1   -1    0    0  501    0  0.00000000000E+00  0.00000000000E+00 -0.18723142605E+04  0.18723142605E+04  0.50400001928E-02 0.  1.
    10030    2    1    2    0    0  0.00000000000E+00  0.00000000000E+00 -0.11489252858E+04  0.25957032353E+04  0.23275837199E+04 0.  0.
        3    1    3    3  502    0 -0.19116534726E+02  0.11621180284E+04 -0.50822614611E+03  0.12685336336E+04  0.10100000352E+00 0. -1.
       -3    1    3    3    0  502  0.19116534726E+02 -0.11621180284E+04 -0.64069913972E+03  0.13271696017E+04  0.10100000352E+00 0.  1.
</event>
<event>
 5   0  0.2043885E-05  0.2334934E+04  0.7818609E-02  0.8464273E-01
        1   -1    0    0  501    0  0.00000000000E+00  0.00000000000E+00  0.15041601516E+04  0.15041601516E+04  0.50400001928E-02 0.  1.
       -1   -1    0    0    0  501  0.00000000000E+00  0.00000000000E+00 -0.90614002086E+03  0.90614002088E+03  0.50400001928E-02 0. -1.
    10030    2    1    2    0    0  0.00000000000E+00  0.00000000000E+00  0.59802013071E+03  0.24103001725E+04  0.23349344412E+04 0.  0.
        5    1    3    3  502    0  0.85013643816E+03 -0.72574616543E+03 -0.48789563430E+02  0.11188574403E+04  0.46999998093E+01 0. -1.
       -5    1    3    3    0  502 -0.85013643816E+03  0.72574616543E+03  0.64680969414E+03  0.12914427322E+04  0.46999998093E+01 0.  1.
</event>
<event>
 5   0  0.4605516E-05  0.2307075E+04  0.7818609E-02  0.8475137E-01
       -2   -1    0    0    0  501  0.00000000000E+00  0.00000000000E+00  0.18892599575E+04  0.18892599575E+04  0.25500000920E-02 0. -1.
        2   -1    0    0  501    0  0.00000000000E+00  0.00000000000E+00 -0.70432269907E+03  0.70432269908E+03  0.25500000920E-02 0.  1.
    10030    2    1    2    0    0  0.00000000000E+00  0.00000000000E+00  0.11849372584E+04  0.25935826565E+04  0.23070749208E+04 0.  0.
        1    1    3    3  502    0  0.61211866790E+03  0.74540216641E+03 -0.11882707520E+03  0.97181969887E+03  0.50400001928E-02 0.  1.
       -1    1    3    3    0  502 -0.61211866790E+03 -0.74540216641E+03  0.13037643336E+04  0.16217629577E+04  0.50400001928E-02 0. -1.
</event>
<event>
 5   0  0.4436695E-05  0.2287978E+04  0.7818609E-02  0.8482676E-01
       -2   -1    0    0    0  501  0.00000000000E+00  0.00000000000E+00  0.88140695808E+03  0.88140695809E+03  0.25500000920E-02 0. -1.
        2   -1    0    0  501    0  0.00000000000E+00  0.00000000000E+00 -0.14847976307E+04  0.14847976307E+04  0.25500000920E-02 0.  1.
    10030    2    1    2    0    0  0.00000000000E+00  0.00000000000E+00 -0.60339067260E+03  0.23662045888E+04  0.22879781144E+04 0.  0.
        5    1    3    3  502    0  0.73431305554E+02 -0.11861047772E+03 -0.14759582273E+04  0.14825435511E+04  0.46999998093E+01 0.  1.
       -5    1    3    3    0  502 -0.73431305554E+02  0.11861047772E+03  0.87256755470E+03  0.88366103771E+03  0.46999998093E+01 0. -1.
</event>
<event>
 5   0  0.2043885E-05  0.2298961E+04  0.7818609E-02  0.8478331E-01
        1   -1    0    0  501    0  0.00000000000E+00  0.00000000000E+00  0.18168448699E+04  0.18168448699E+04  0.50400001928E-02 0. -1.
       -1   -1    0    0    0  501  0.00000000000E+00  0.00000000000E+00 -0.72725304025E+03  0.72725304026E+03  0.50400001928E-02 0.  1.
    10030    2    1    2    0    0  0.00000000000E+00  0.00000000000E+00  0.10895918296E+04  0.25440979101E+04  0.22989614658E+04 0.  0.
        5    1    3    3  502    0  0.62872475401E+03  0.80305163058E+03 -0.41923329482E+02  0.10207675510E+04  0.46999998093E+01 0.  1.
       -5    1    3    3    0  502 -0.62872475401E+03 -0.80305163058E+03  0.11315151591E+04  0.15233303591E+04  0.46999998093E+01 0. -1.
</event>
<event>
 5   0  0.2085063E-05  0.2321682E+04  0.7818609E-02  0.8469421E-01
        1   -1    0    0  501    0  0.00000000000E+00  0.00000000000E+00  0.10293657778E+04  0.10293657778E+04  0.50400001928E-02 0. -1.
       -1   -1    0    0    0  501  0.00000000000E+00  0.00000000000E+00 -0.13091086681E+04  0.13091086681E+04  0.50400001928E-02 0.  1.
    10030    2    1    2    0    0  0.00000000000E+00  0.00000000000E+00 -0.27974289027E+03  0.23384744459E+04  0.23216818579E+04 0.  0.
        1    1    3    3  502    0 -0.68950152554E+03 -0.50726486588E+03  0.64990559100E+03  0.10747591708E+04  0.50400001928E-02 0.  1.
       -1    1    3    3    0  502  0.68950152554E+03  0.50726486588E+03 -0.92964848127E+03  0.12637152751E+04  0.50400001928E-02 0. -1.
</event>
<event>
 5   0  0.4505107E-05  0.2314384E+04  0.7818609E-02  0.8472271E-01
        2   -1    0    0  501    0  0.00000000000E+00  0.00000000000E+00  0.21358148188E+04  0.21358148188E+04  0.25500000920E-02 0. -1.
       -2   -1    0    0    0  501  0.00000000000E+00  0.00000000000E+00 -0.62697080109E+03  0.62697080110E+03  0.25500000920E-02 0.  1.
    10030    2    1    2    0    0  0.00000000000E+00  0.00000000000E+00  0.15088440177E+04  0.27627856199E+04  0.23143841755E+04 0.  0.
        4    1    3    3  502    0 -0.41097263962E+03  0.10816705800E+04  0.73831038313E+03  0.13725937450E+04  0.12699999809E+01 0. -1.
       -4    1    3    3    0  502  0.41097263962E+03 -0.10816705800E+04  0.77053363458E+03  0.13901918749E+04  0.12699999809E+01 0.  1.
</event>
<event>
 5   0  0.2085063E-05  0.2307189E+04  0.7818609E-02  0.8475092E-01
        1   -1    0    0  501    0  0.00000000000E+00  0.00000000000E+00  0.13891668674E+04  0.13891668674E+04  0.50400001928E-02 0. -1.
       -1   -1    0    0    0  501  0.00000000000E+00  0.00000000000E+00 -0.95796977390E+03  0.95796977391E+03  0.50400001928E-02 0.  1.
    10030    2    1    2    0    0  0.00000000000E+00  0.00000000000E+00  0.43119709348E+03  0.23471366413E+04  0.23071886528E+04 0.  0.
        1    1    3    3  502    0  0.69664229701E+03 -0.32067495745E+03  0.10922834815E+04  0.13346258361E+04  0.50400001928E-02 0. -1.
       -1    1    3    3    0  502 -0.69664229701E+03  0.32067495745E+03 -0.66108638800E+03  0.10125108052E+04  0.50400001928E-02 0.  1.
</event>
<event>
 5   0  0.4505107E-05  0.2306900E+04  0.7818609E-02  0.8475206E-01
       -2   -1    0    0    0  501  0.00000000000E+00  0.00000000000E+00  0.75271153873E+03  0.75271153874E+03  0.25500000920E-02 0.  1.
        2   -1    0    0  501    0  0.00000000000E+00  0.00000000000E+00 -0.17675386374E+04  0.17675386374E+04  0.25500000920E-02 0. -1.
    10030    2    1    2    0    0  0.00000000000E+00  0.00000000000E+00 -0.10148270987E+04  0.25202501761E+04  0.23068998483E+04 0.  0.
        4    1    3    3  502    0  0.67059470672E+02 -0.80574382626E+03  0.39129946916E+03  0.89824104428E+03  0.12699999809E+01 0.  1.
       -4    1    3    3    0  502 -0.67059470672E+02  0.80574382626E+03 -0.14061265678E+04  0.16220091319E+04  0.12699999809E+01 0. -1.
</event>
<event>
 5   0  0.4605516E-05  0.2301987E+04  0.7818609E-02  0.8477138E-01
       -2   -1    0    0    0  501  0.00000000000E+00  0.00000000000E+00  0.60292684508E+03  0.60292684508E+03  0.25500000920E-02 0.  1.
        2   -1    0    0  501    0  0.00000000000E+00  0.00000000000E+00 -0.21972583459E+04  0.21972583459E+04  0.25500000920E-02 0. -1.
    10030    2    1    2    0    0  0.00000000000E+00  0.00000000000E+00 -0.15943315008E+04  0.28001851909E+04  0.23019870046E+04 0.  0.
        1    1    3    3  502    0 -0.93316826584E+03  0.22303444768E+03 -0.15705633368E+04  0.18404392335E+04  0.50400001928E-02 0. -1.
       -1    1    3    3    0  502  0.93316826584E+03 -0.22303444768E+03 -0.23768163986E+02  0.95974595746E+03  0.50400001928E-02 0.  1.
</event>
<event>
 5   0  0.1604500E-05  0.2313997E+04  0.7818609E-02  0.8472423E-01
       -4   -1    0    0    0  501  0.00000000000E+00  0.00000000000E+00  0.94024032280E+03  0.94024118051E+03  0.12699999809E+01 0.  1.
        4   -1    0    0  501    0  0.00000000000E+00  0.00000000000E+00 -0.14237251655E+04  0.14237257319E+04  0.12699999809E+01 0. -1.
    10030    2    1    2    0    0  0.00000000000E+00  0.00000000000E+00 -0.48348484271E+03  0.23639669125E+04  0.23139969685E+04 0.  0.
        4    1    3    3  502    0  0.22726951781E+03  0.63313639460E+03 -0.12034156188E+04  0.13786674335E+04  0.12699999809E+01 0. -1.
       -4    1    3    3    0  502 -0.22726951781E+03 -0.63313639460E+03  0.71993077608E+03  0.98529947891E+03  0.12699999809E+01 0.  1.
</event>
<event>
 5   0  0.2085063E-05  0.2299657E+04  0.7818609E-02  0.8478056E-01
        1   -1    0    0  501    0  0.00000000000E+00  0.00000000000E+00  0.15048860816E+04  0.15048860817E+04  0.50400001928E-02 0.  1.
       -1   -1    0    0    0  501  0.00000000000E+00  0.00000000000E+00 -0.87854218544E+03  0.87854218546E+03  0.50400001928E-02 0. -1.
    10030    2    1    2    0    0  0.00000000000E+00  0.00000000000E+00  0.62634389620E+03  0.23834282671E+04  0.22996572849E+04 0.  0.
        1    1    3    3  502    0  0.33787254659E+03 -0.36286160055E+03 -0.76205837349E+03  0.90915310236E+03  0.50400001928E-02 0. -1.
       -1    1    3    3    0  502 -0.33787254659E+03  0.36286160055E+03  0.13884022697E+04  0.14742751648E+04  0.50400001928E-02 0.  1.
</event>
<event>
 5   0  0.1604500E-05  0.2291076E+04  0.7818609E-02  0.8481448E-01
       -3   -1    0    0    0  501  0.00000000000E+00  0.00000000000E+00  0.50634918460E+03  0.50634919467E+03  0.10100000352E+00 0.  1.
        3   -1    0    0  501    0  0.00000000000E+00  0.00000000000E+00 -0.25916046097E+04  0.25916046117E+04  0.10100000352E+00 0. -1.
    10030    2    1    2    0    0  0.00000000000E+00  0.00000000000E+00 -0.20852554251E+04  0.30979538064E+04  0.22910756422E+04 0.  0.
        4    1    3    3  502    0  0.37529703356E+03  0.10235811582E+04 -0.15181831061E+04  0.18690767259E+04  0.12699999809E+01 0.  1.
       -4    1    3    3    0  502 -0.37529703356E+03 -0.10235811582E+04 -0.56707231902E+03  0.12288770804E+04  0.12699999809E+01 0. -1.
</event>
<event>
 5   0  0.4505107E-05  0.2242242E+04  0.7818609E-02  0.8501049E-01
       -2   -1    0    0    0  501  0.00000000000E+00  0.00000000000E+00  0.92020763230E+03  0.92020763230E+03  0.25500000920E-02 0.  1.
        2   -1    0    0  501    0  0.00000000000E+00  0.00000000000E+00 -0.13659005145E+04  0.13659005145E+04  0.25500000920E-02 0. -1.
    10030    2    1    2    0    0  0.00000000000E+00  0.00000000000E+00 -0.44569288217E+03  0.22861081468E+04  0.22422418053E+04 0.  0.
        4    1    3    3  502    0 -0.10377385410E+04 -0.41723513608E+03 -0.30131990956E+03  0.11583530287E+04  0.12699999809E+01 0.  1.
       -4    1    3    3    0  502  0.10377385410E+04  0.41723513608E+03 -0.14437297261E+03  0.11277551181E+04  0.12699999809E+01 0. -1.
</event>
<event>
 5   0  0.2031860E-05  0.2310443E+04  0.7818609E-02  0.8473815E-01
        1   -1    0    0  501    0  0.00000000000E+00  0.00000000000E+00  0.11075671171E+04  0.11075671171E+04  0.50400001928E-02 0. -1.
       -1   -1    0    0    0  501  0.00000000000E+00  0.00000000000E+00 -0.12049266578E+04  0.12049266578E+04  0.50400001928E-02 0.  1.
    10030    2    1    2    0    0  0.00000000000E+00  0.00000000000E+00 -0.97359540655E+02  0.23124937749E+04  0.23104433728E+04 0.  0.
        4    1    3    3  502    0 -0.88223951859E+03 -0.73283259670E+03 -0.18716928252E+03  0.11620775087E+04  0.12699999809E+01 0.  1.
       -4    1    3    3    0  502  0.88223951859E+03  0.73283259670E+03  0.89809741864E+02  0.11504162662E+04  0.12699999809E+01 0. -1.
</event>
<event>
 5   0  0.4505107E-05  0.2290893E+04  0.7818609E-02  0.8481521E-01
        2   -1    0    0  501    0  0.00000000000E+00  0.00000000000E+00  0.20326009905E+04  0.20326009905E+04  0.25500000920E-02 0.  1.
       -2   -1    0    0    0  501  0.00000000000E+00  0.00000000000E+00 -0.64550159067E+03  0.64550159068E+03  0.25500000920E-02 0. -1.
    10030    2    1    2    0    0  0.00000000000E+00  0.00000000000E+00  0.13870993998E+04  0.26781025812E+04  0.22908925532E+04 0.  0.
        4    1    3    3  502    0 -0.51725962784E+03 -0.91591631195E+03  0.12236018076E+04  0.16135870629E+04  0.12699999809E+01 0.  1.
       -4    1    3    3    0  502  0.51725962784E+03  0.91591631195E+03  0.16349759223E+03  0.10645155183E+04  0.12699999809E+01 0. -1.
</event>
<event>
 5   0  0.2042951E-05  0.2308625E+04  0.7818609E-02  0.8474528E-01
       -1   -1    0    0    0  501  0.00000000000E+00  0.00000000000E+00  0.61744986904E+03  0.61744986906E+03  0.50400001928E-02 0. -1.
        1   -1    0    0  501    0  0.00000000000E+00  0.00000000000E+00 -0.21579680836E+04  0.21579680836E+04  0.50400001928E-02 0.  1.
    10030    2    1    2    0    0  0.00000000000E+00  0.00000000000E+00 -0.15405182146E+04  0.27754179527E+04  0.23086247947E+04 0.  0.
        2    1    3    3  502    0  0.59957586009E+03  0.62452644760E+03 -0.16881197850E+04  0.18971749799E+04  0.25500000920E-02 0.  1.
       -2    1    3    3    0  502 -0.59957586009E+03 -0.62452644760E+03  0.14760157038E+03  0.87824297284E+03  0.25500000920E-02 0. -1.
</event>
<event>
 5   0  0.4605516E-05  0.2280115E+04  0.7818609E-02  0.8485803E-01
       -2   -1    0    0    0  501  0.00000000000E+00  0.00000000000E+00  0.90807946196E+03  0.90807946196E+03  0.25500000920E-02 0.  1.
        2   -1    0    0  501    0  0.00000000000E+00  0.00000000000E+00 -0.14312960861E+04  0.14312960861E+04  0.25500000920E-02 0. -1.
    10030    2    1    2    0    0  0.00000000000E+00  0.00000000000E+00 -0.52321662418E+03  0.23393755481E+04  0.22801145408E+04 0.  0.
        1    1    3    3  502    0 -0.27357693303E+03 -0.94487929910E+03 -0.85285777217E+03  0.13019245784E+04  0.50400001928E-02 0.  1.
       -1    1    3    3    0  502  0.27357693303E+03  0.94487929910E+03  0.32964114799E+03  0.10374509697E+04  0.50400001928E-02 0. -1.
</event>
<event>
 5   0  0.1968318E-05  0.2276407E+04  0.7818609E-02  0.8487282E-01
       -1   -1    0    0    0  501  0.00000000000E+00  0.00000000000E+00  0.72391214493E+03  0.72391214495E+03  0.50400001928E-02 0. -1.
        1   -1    0    0  501    0  0.00000000000E+00  0.00000000000E+00 -0.17895921575E+04  0.17895921575E+04  0.50400001928E-02 0.  1.
    10030    2    1    2    0    0  0.00000000000E+00  0.00000000000E+00 -0.10656800126E+04  0.25135043025E+04  0.22764072547E+04 0.  0.
        3    1    3    3  502    0  0.84493067610E+03  0.15130162604E+03  0.29247911319E+03  0.90683188702E+03  0.10100000352E+00 0.  1.
       -3    1    3    3    0  502 -0.84493067610E+03 -0.15130162604E+03 -0.13581591258E+04  0.16066724155E+04  0.10100000352E+00 0. -1.
</event>
<event>
 5   0  0.2085063E-05  0.2351504E+04  0.7818609E-02  0.8457886E-01
        1   -1    0    0  501    0  0.00000000000E+00  0.00000000000E+00  0.17159328499E+04  0.17159328499E+04  0.50400001928E-02 0.  1.
       -1   -1    0    0    0  501  0.00000000000E+00  0.00000000000E+00 -0.80562188463E+03  0.80562188465E+03  0.50400001928E-02 0. -1.
    10030    2    1    2    0    0  0.00000000000E+00  0.00000000000E+00  0.91031096529E+03  0.25215547346E+04  0.23515042475E+04 0.  0.
        1    1    3    3  502    0  0.10218775921E+04 -0.22084909721E+03 -0.12169143953E+03  0.10525288326E+04  0.50400001928E-02 0. -1.
       -1    1    3    3    0  502 -0.10218775921E+04  0.22084909721E+03  0.10320024048E+04  0.14690259020E+04  0.50400001928E-02 0.  1.
</event>
<event>
 5   0  0.1968318E-05  0.2351369E+04  0.7818609E-02  0.8457938E-01
       -1   -1    0    0    0  501  0.00000000000E+00  0.00000000000E+00  0.10235527488E+04  0.10235527488E+04  0.50400001928E-02 0.  1.
        1   -1    0    0  501    0  0.00000000000E+00  0.00000000000E+00 -0.13504274348E+04  0.13504274348E+04  0.50400001928E-02 0. -1.
    10030    2    1    2    0    0  0.00000000000E+00  0.00000000000E+00 -0.32687468603E+03  0.23739801836E+04  0.23513687188E+04 0.  0.
        3    1    3    3  502    0 -0.38545110907E+03 -0.83313814922E+03 -0.90503605973E+03  0.12891012423E+04  0.10100000352E+00 0. -1.
       -3    1    3    3    0  502  0.38545110907E+03  0.83313814922E+03  0.57816137370E+03  0.10848789414E+04  0.10100000352E+00 0.  1.
</event>
<event>
 5   0  0.4602447E-05  0.2285150E+04  0.7818609E-02  0.8483800E-01
       -2   -1    0    0    0  501  0.00000000000E+00  0.00000000000E+00  0.10329939803E+04  0.10329939803E+04  0.25500000920E-02 0. -1.
        2   -1    0    0  501    0  0.00000000000E+00  0.00000000000E+00 -0.12637799923E+04  0.12637799924E+04  0.25500000920E-02 0.  1.
    10030    2    1    2    0    0  0.00000000000E+00  0.00000000000E+00 -0.23078601207E+03  0.22967739726E+04  0.22851495570E+04 0.  0.
        3    1    3    3  502    0 -0.39851972969E+03  0.35964819988E+03  0.89835678915E+03  0.10465226865E+04  0.10100000352E+00 0. -1.
       -3    1    3    3    0  502  0.39851972969E+03 -0.35964819988E+03 -0.11291428012E+04  0.12502512861E+04  0.10100000352E+00 0.  1.
</event>
<event>
 5   0  0.4798609E-05  0.2297617E+04  0.7818609E-02  0.8478861E-01
       -2   -1    0    0    0  501  0.00000000000E+00  0.00000000000E+00  0.85358554607E+03  0.85358554608E+03  0.25500000920E-02 0. -1.
        2   -1    0    0  501    0  0.00000000000E+00  0.00000000000E+00 -0.15461383633E+04  0.15461383633E+04  0.25500000920E-02 0.  1.
    10030    2    1    2    0    0  0.00000000000E+00  0.00000000000E+00 -0.69255281722E+03  0.23997239094E+04  0.22976173390E+04 0.  0.
        2    1    3    3  502    0 -0.69399660787E+03  0.83497432586E+02  0.60591758487E+03  0.92506174532E+03  0.25500000920E-02 0. -1.
       -2    1    3    3    0  502  0.69399660787E+03 -0.83497432586E+02 -0.12984704021E+04  0.14746621641E+04  0.25500000920E-02 0.  1.
</event>
<event>
 5   0  0.2031860E-05  0.2297527E+04  0.7818609E-02  0.8478897E-01
       -1   -1    0    0    0  501  0.00000000000E+00  0.00000000000E+00  0.14840029411E+04  0.14840029411E+04  0.50400001928E-02 0.  1.
        1   -1    0    0  501    0  0.00000000000E+00  0.00000000000E+00 -0.88925504469E+03  0.88925504471E+03  0.50400001928E-02 0. -1.
    10030    2    1    2    0    0  0.00000000000E+00  0.00000000000E+00  0.59474789640E+03  0.23732579858E+04  0.22975265846E+04 0.  0.
        4    1    3    3  502    0  0.23617884104E+03 -0.20774599486E+03 -0.84390508535E+03  0.90061992500E+03  0.12699999809E+01 0. -1.
       -4    1    3    3    0  502 -0.23617884104E+03  0.20774599486E+03  0.14386529818E+04  0.14726380608E+04  0.12699999809E+01 0.  1.
</event>
<event>
 5   0  0.4605516E-05  0.2303292E+04  0.7818609E-02  0.8476624E-01
       -2   -1    0    0    0  501  0.00000000000E+00  0.00000000000E+00  0.13041957949E+04  0.13041957949E+04  0.25500000920E-02 0. -1.
        2   -1    0    0  501    0  0.00000000000E+00  0.00000000000E+00 -0.10169393001E+04  0.10169393001E+04  0.25500000920E-02 0.  1.
    10030    2    1    2    0    0  0.00000000000E+00  0.00000000000E+00  0.28725649482E+03  0.23211350951E+04  0.23032915221E+04 0.  0.
        1    1    3    3  502    0  0.50165425125E+02  0.47172879671E+03  0.12011593639E+04  0.12914443252E+04  0.50400001928E-02 0. -1.
       -1    1    3    3    0  502 -0.50165425125E+02 -0.47172879671E+03 -0.91390286907E+03  0.10296907699E+04  0.50400001928E-02 0.  1.
</event>
<event>
 5   0  0.4436695E-05  0.2243647E+04  0.7818609E-02  0.8500478E-01
       -2   -1    0    0    0  501  0.00000000000E+00  0.00000000000E+00  0.72223374142E+03  0.72223374142E+03  0.25500000920E-02 0.  1.
        2   -1    0    0  501    0  0.00000000000E+00  0.00000000000E+00 -0.17424933830E+04  0.17424933830E+04  0.25500000920E-02 0. -1.
    10030    2    1    2    0    0  0.00000000000E+00  0.00000000000E+00 -0.10202596416E+04  0.24647271245E+04  0.22436465991E+04 0.  0.
        5    1    3    3  502    0  0.77723408641E+03 -0.19841371397E+03  0.35136679275E+03  0.87575198544E+03  0.46999998093E+01 0.  1.
       -5    1    3    3    0  502 -0.77723408641E+03  0.19841371397E+03 -0.13716264344E+04  0.15889751390E+04  0.46999998093E+01 0. -1.
</event>
<event>
 5   0  0.2031860E-05  0.2205364E+04  0.7818609E-02  0.8516199E-01
       -1   -1    0    0    0  501  0.00000000000E+00  0.00000000000E+00  0.46979301964E+03  0.46979301967E+03  0.50400001928E-02 0. -1.
        1   -1    0    0  501    0  0.00000000000E+00  0.00000000000E+00 -0.25881782177E+04  0.25881782177E+04  0.50400001928E-02 0.  1.
    10030    2    1    2    0    0  0.00000000000E+00  0.00000000000E+00 -0.21183851980E+04  0.30579712373E+04  0.22053644237E+04 0.  0.
        4    1    3    3  502    0 -0.20146906249E+03  0.85607339163E+03 -0.19815252679E+04  0.21679242226E+04  0.12699999809E+01 0.  1.
       -4    1    3    3    0  502  0.20146906249E+03 -0.85607339163E+03 -0.13685993015E+03  0.89004701470E+03  0.12699999809E+01 0. -1.
</event>
<event>
 5   0  0.4605516E-05  0.2030302E+04  0.7818609E-02  0.8592583E-01
        2   -1    0    0  501    0  0.00000000000E+00  0.00000000000E+00  0.19225879178E+04  0.19225879178E+04  0.25500000920E-02 0.  1.
       -2   -1    0    0    0  501  0.00000000000E+00  0.00000000000E+00 -0.53601293966E+03  0.53601293966E+03  0.25500000920E-02 0. -1.
    10030    2    1    2    0    0  0.00000000000E+00  0.00000000000E+00  0.13865749781E+04  0.24586008574E+04  0.20303024421E+04 0.  0.
        1    1    3    3  502    0  0.89680811873E+03  0.12383269997E+03  0.13712818285E+03  0.91564375057E+03  0.50400001928E-02 0. -1.
       -1    1    3    3    0  502 -0.89680811873E+03 -0.12383269997E+03  0.12494467953E+04  0.15429571069E+04  0.50400001928E-02 0.  1.
</event>
<event>
 5   0  0.2085063E-05  0.2291266E+04  0.7818609E-02  0.8481373E-01
       -1   -1    0    0    0  501  0.00000000000E+00  0.00000000000E+00  0.14884395743E+04  0.14884395743E+04  0.50400001928E-02 0. -1.
        1   -1    0    0  501    0  0.00000000000E+00  0.00000000000E+00 -0.88177903676E+03  0.88177903677E+03  0.50400001928E-02 0.  1.
    10030    2    1    2    0    0  0.00000000000E+00  0.00000000000E+00  0.60666053756E+03  0.23702186111E+04  0.22912658633E+04 0.  0.
        1    1    3    3  502    0  0.62323643223E+03  0.22593862814E+03  0.12698723395E+04  0.14324970062E+04  0.50400001928E-02 0. -1.
       -1    1    3    3    0  502 -0.62323643223E+03 -0.22593862814E+03 -0.66321180190E+03  0.93772160493E+03  0.50400001928E-02 0.  1.
</event>
<event>
 5   0  0.4605516E-05  0.2293244E+04  0.7818609E-02  0.8480590E-01
       -2   -1    0    0    0  501  0.00000000000E+00  0.00000000000E+00  0.51858520471E+03  0.51858520472E+03  0.25500000920E-02 0.  1.
        2   -1    0    0  501    0  0.00000000000E+00  0.00000000000E+00 -0.25352484087E+04  0.25352484087E+04  0.25500000920E-02 0. -1.
    10030    2    1    2    0    0  0.00000000000E+00  0.00000000000E+00 -0.20166632040E+04  0.30538336135E+04  0.22932442653E+04 0.  0.
        1    1    3    3  502    0  0.53466647011E+03 -0.81827606403E+03 -0.18065517297E+04  0.20540382429E+04  0.50400001928E-02 0. -1.
       -1    1    3    3    0  502 -0.53466647011E+03  0.81827606403E+03 -0.21011147428E+03  0.99979537050E+03  0.50400001928E-02 0.  1.
</event>
<event>
 5   0  0.2031860E-05  0.2297305E+04  0.7818609E-02  0.8478984E-01
       -1   -1    0    0    0  501  0.00000000000E+00  0.00000000000E+00  0.76142570585E+03  0.76142570587E+03  0.50400001928E-02 0.  1.
        1   -1    0    0  501    0  0.00000000000E+00  0.00000000000E+00 -0.17328057380E+04  0.17328057380E+04  0.50400001928E-02 0. -1.
    10030    2    1    2    0    0  0.00000000000E+00  0.00000000000E+00 -0.97138003218E+03  0.24942314439E+04  0.22973052320E+04 0.  0.
        4    1    3    3  502    0  0.79881630734E+03 -0.45146295530E+03 -0.12359181278E+04  0.15392925402E+04  0.12699999809E+01 0.  1.
       -4    1    3    3    0  502 -0.79881630734E+03  0.45146295530E+03  0.26453809558E+03  0.95493890370E+03  0.12699999809E+01 0. -1.
</event>
<event>
 5   0  0.4798609E-05  0.2329948E+04  0.7818609E-02  0.8466206E-01
       -2   -1    0    0    0  501  0.00000000000E+00  0.00000000000E+00  0.86799425114E+03  0.86799425114E+03  0.25500000920E-02 0.  1.
        2   -1    0    0  501    0  0.00000000000E+00  0.00000000000E+00 -0.15635642218E+04  0.15635642218E+04  0.25500000920E-02 0. -1.
    10030    2    1    2    0    0  0.00000000000E+00  0.00000000000E+00 -0.69556997069E+03  0.24315584730E+04  0.23299482877E+04 0.  0.
        2    1    3    3  502    0  0.77293053523E+03 -0.67208838048E+03  0.23143327026E+03  0.10500884544E+04  0.25500000920E-02 0.  1.
       -2    1    3    3    0  502 -0.77293053523E+03  0.67208838048E+03 -0.92700324095E+03  0.13814700186E+04  0.25500000920E-02 0. -1.
</event>
<event>
 5   0  0.4798609E-05  0.2347457E+04  0.7818609E-02  0.8459441E-01
        2   -1    0    0  501    0  0.00000000000E+00  0.00000000000E+00  0.14182164302E+04  0.14182164302E+04  0.25500000920E-02 0. -1.
       -2   -1    0    0    0  501  0.00000000000E+00  0.00000000000E+00 -0.97138812335E+03  0.97138812336E+03  0.25500000920E-02 0.  1.
    10030    2    1    2    0    0  0.00000000000E+00  0.00000000000E+00  0.44682830689E+03  0.23896045536E+04  0.23474570042E+04 0.  0.
        2    1    3    3  502    0  0.84748798299E+03  0.78197156957E+03  0.57002085519E+00  0.11531330114E+04  0.25500000920E-02 0.  1.
       -2    1    3    3    0  502 -0.84748798299E+03 -0.78197156957E+03  0.44625828603E+03  0.12364715423E+04  0.25500000920E-02 0. -1.
</event>
<event>
 5   0  0.2031860E-05  0.2283860E+04  0.7818609E-02  0.8484312E-01
       -1   -1    0    0    0  501  0.00000000000E+00  0.00000000000E+00  0.93305212812E+03  0.93305212813E+03  0.50400001928E-02 0. -1.
        1   -1    0    0  501    0  0.00000000000E+00  0.00000000000E+00 -0.13975684960E+04  0.13975684961E+04  0.50400001928E-02 0.  1.
    10030    2    1    2    0    0  0.00000000000E+00  0.00000000000E+00 -0.46451636793E+03  0.23306206242E+04  0.22838601178E+04 0.  0.
        4    1    3    3  502    0  0.12298465846E+03  0.81230782886E+03 -0.10416129744E+04  0.13266229443E+04  0.12699999809E+01 0.  1.
       -4    1    3    3    0  502 -0.12298465846E+03 -0.81230782886E+03  0.57709660649E+03  0.10039976799E+04  0.12699999809E+01 0. -1.
</event>
<event>
 5   0  0.2043885E-05  0.2313203E+04  0.7818609E-02  0.8472733E-01
        1   -1    0    0  501    0  0.00000000000E+00  0.00000000000E+00  0.15401479016E+04  0.15401479016E+04  0.50400001928E-02 0.  1.
       -1   -1    0    0    0  501  0.00000000000E+00  0.00000000000E+00 -0.86857075588E+03  0.86857075590E+03  0.50400001928E-02 0. -1.
    10030    2    1    2    0    0  0.00000000000E+00  0.00000000000E+00  0.67157714569E+03  0.24087186575E+04  0.23132033435E+04 0.  0.
        5    1    3    3  502    0  0.51053291153E+03 -0.71894928745E+03  0.11151403114E+04  0.14216511301E+04  0.46999998093E+01 0.  1.
       -5    1    3    3    0  502 -0.51053291153E+03  0.71894928745E+03 -0.44356316567E+03  0.98706752738E+03  0.46999998093E+01 0. -1.
</event>
<event>
 5   0  0.2042951E-05  0.2289920E+04  0.7818609E-02  0.8481906E-01
       -1   -1    0    0    0  501  0.00000000000E+00  0.00000000000E+00  0.78659221993E+03  0.78659221995E+03  0.50400001928E-02 0.  1.
        1   -1    0    0  501    0  0.00000000000E+00  0.00000000000E+00 -0.16665983116E+04  0.16665983116E+04  0.50400001928E-02 0. -1.
    10030    2    1    2    0    0  0.00000000000E+00  0.00000000000E+00 -0.88000609167E+03  0.24531905316E+04  0.22899198813E+04 0.  0.
        2    1    3    3  502    0 -0.11319531991E+04 -0.16562994764E+03 -0.38996129208E+03  0.12086443371E+04  0.25500000920E-02 0. -1.
       -2    1    3    3    0  502  0.11319531991E+04  0.16562994764E+03 -0.49004479959E+03  0.12445461944E+04  0.25500000920E-02 0.  1.
</event>
<event>
 5   0  0.4602447E-05  0.2278954E+04  0.7818609E-02  0.8486266E-01
       -2   -1    0    0    0  501  0.00000000000E+00  0.00000000000E+00  0.64873399178E+03  0.64873399178E+03  0.25500000920E-02 0. -1.
        2   -1    0    0  501    0  0.00000000000E+00  0.00000000000E+00 -0.20014479665E+04  0.20014479665E+04  0.25500000920E-02 0.  1.
    10030    2    1    2    0    0  0.00000000000E+00  0.00000000000E+00 -0.13527139747E+04  0.26501819583E+04  0.22789535569E+04 0.  0.
        3    1    3    3  502    0  0.11094280701E+04  0.25992523527E+03 -0.67177163113E+03  0.13227505076E+04  0.10100000352E+00 0. -1.
       -3    1    3    3    0  502 -0.11094280701E+04 -0.25992523527E+03 -0.68094234358E+03  0.13274314507E+04  0.10100000352E+00 0.  1.
</event>
<event>
 5   0  0.2042951E-05  0.2304127E+04  0.7818609E-02  0.8476296E-01
       -1   -1    0    0    0  501  0.00000000000E+00  0.00000000000E+00  0.10189186579E+04  0.10189186579E+04  0.50400001928E-02 0. -1.
        1   -1    0    0  501    0  0.00000000000E+00  0.00000000000E+00 -0.13026066828E+04  0.13026066828E+04  0.50400001928E-02 0.  1.
    10030    2    1    2    0    0  0.00000000000E+00  0.00000000000E+00 -0.28368802486E+03  0.23215253407E+04  0.23041269523E+04 0.  0.
        2    1    3    3  502    0  0.57488272596E+03  0.90800584438E+03  0.27636306384E+03  0.11096581929E+04  0.25500000920E-02 0. -1.
       -2    1    3    3    0  502 -0.57488272596E+03 -0.90800584438E+03 -0.56005108870E+03  0.12118671478E+04  0.25500000920E-02 0.  1.
</event>
<event>
 5   0  0.2085063E-05  0.2318238E+04  0.7818609E-02  0.8470765E-01
       -1   -1    0    0    0  501  0.00000000000E+00  0.00000000000E+00  0.17807501680E+04  0.17807501680E+04  0.50400001928E-02 0.  1.
        1   -1    0    0  501    0  0.00000000000E+00  0.00000000000E+00 -0.75448933937E+03  0.75448933939E+03  0.50400001928E-02 0. -1.
    10030    2    1    2    0    0  0.00000000000E+00  0.00000000000E+00  0.10262608286E+04  0.25352395074E+04  0.23182381395E+04 0.  0.
        1    1    3    3  502    0 -0.70332954396E+03  0.41715970652E+03  0.14115279402E+04  0.16312896108E+04  0.50400001928E-02 0.  1.
       -1    1    3    3    0  502  0.70332954396E+03 -0.41715970652E+03 -0.38526711166E+03  0.90394989657E+03  0.50400001928E-02 0. -1.
</event>
<event>
 5   0  0.4605516E-05  0.2328992E+04  0.7818609E-02  0.8466577E-01
       -2   -1    0    0    0  501  0.00000000000E+00  0.00000000000E+00  0.23486687190E+04  0.23486687190E+04  0.25500000920E-02 0. -1.
        2   -1    0    0  501    0  0.00000000000E+00  0.00000000000E+00 -0.57737026009E+03  0.57737026010E+03  0.25500000920E-02 0.  1.
    10030    2    1    2    0    0  0.00000000000E+00  0.00000000000E+00  0.17712984589E+04  0.29260389791E+04  0.23289924596E+04 0.  0.
        1    1    3    3  502    0 -0.59924059698E+03 -0.88183063778E+03  0.14740427447E+04  0.18192076792E+04  0.50400001928E-02 0. -1.
       -1    1    3    3    0  502  0.59924059698E+03  0.88183063778E+03  0.29725571421E+03  0.11068312999E+04  0.50400001928E-02 0.  1.
</event>
<event>
 5   0  0.2043885E-05  0.2300022E+04  0.7818609E-02  0.8477913E-01
       -1   -1    0    0    0  501  0.00000000000E+00  0.00000000000E+00  0.55674203435E+03  0.55674203438E+03  0.50400001928E-02 0. -1.
        1   -1    0    0  501    0  0.00000000000E+00  0.00000000000E+00 -0.23754713673E+04  0.23754713673E+04  0.50400001928E-02 0.  1.
    10030    2    1    2    0    0  0.00000000000E+00  0.00000000000E+00 -0.18187293330E+04  0.29322134017E+04  0.23000215317E+04 0.  0.
        5    1    3    3  502    0  0.58148934886E+03  0.79808045384E+03 -0.15790819386E+03  0.10000096806E+04  0.46999998093E+01 0. -1.
       -5    1    3    3    0  502 -0.58148934886E+03 -0.79808045384E+03 -0.16608211391E+04  0.19322037211E+04  0.46999998093E+01 0.  1.
</event>
<event>
 5   0  0.2043885E-05  0.2294923E+04  0.7818609E-02  0.8479925E-01
       -1   -1    0    0    0  501  0.00000000000E+00  0.00000000000E+00  0.22738704637E+04  0.22738704637E+04  0.50400001928E-02 0.  1.
        1   -1    0    0  501    0  0.00000000000E+00  0.00000000000E+00 -0.57904282931E+03  0.57904282933E+03  0.50400001928E-02 0. -1.
    10030    2    1    2    0    0  0.00000000000E+00  0.00000000000E+00  0.16948276344E+04  0.28529132930E+04  0.22949234295E+04 0.  0.
        5    1    3    3  502    0 -0.58858552920E+03 -0.94279932384E+03  0.49286180921E+03  0.12158282540E+04  0.46999998093E+01 0. -1.
       -5    1    3    3    0  502  0.58858552920E+03  0.94279932384E+03  0.12019658252E+04  0.16370850391E+04  0.46999998093E+01 0.  1.
</event>
<event>
 5   0  0.4798609E-05  0.2271396E+04  0.7818609E-02  0.8489285E-01
       -2   -1    0    0    0  501  0.00000000000E+00  0.00000000000E+00  0.92395830621E+03  0.92395830621E+03  0.25500000920E-02 0. -1.
        2   -1    0    0  501    0  0.00000000000E+00  0.00000000000E+00 -0.13959614528E+04  0.13959614528E+04  0.25500000920E-02 0.  1.
    10030    2    1    2    0    0  0.00000000000E+00  0.00000000000E+00 -0.47200314661E+03  0.23199197590E+04  0.22713962045E+04 0.  0.
        2    1    3    3  502    0 -0.93159917098E+03  0.32848625974E+03 -0.80835672617E+03  0.12764093524E+04  0.25500000920E-02 0.  1.
       -2    1    3    3    0  502  0.93159917098E+03 -0.32848625974E+03  0.33635357956E+03  0.10435104066E+04  0.25500000920E-02 0. -1.
</event>
<event>
 5   0  0.4798609E-05  0.2282904E+04  0.7818609E-02  0.8484692E-01
       -2   -1    0    0    0  501  0.00000000000E+00  0.00000000000E+00  0.94415076623E+03  0.94415076623E+03  0.25500000920E-02 0.  1.
        2   -1    0    0  501    0  0.00000000000E+00  0.00000000000E+00 -0.13799840451E+04  0.13799840451E+04  0.25500000920E-02 0. -1.
    10030    2    1    2    0    0  0.00000000000E+00  0.00000000000E+00 -0.43583327883E+03  0.23241348113E+04  0.22829042849E+04 0.  0.
        2    1    3    3  502    0  0.93966902676E+03 -0.75116808040E+01 -0.87759999767E+03  0.12857744986E+04  0.25500000920E-02 0. -1.
       -2    1    3    3    0  502 -0.93966902676E+03  0.75116808040E+01  0.44176671884E+03  0.10383603127E+04  0.25500000920E-02 0.  1.
</event>
<event>
 5   0  0.1968318E-05  0.2341067E+04  0.7818609E-02  0.8461903E-01
        1   -1    0    0  501    0  0.00000000000E+00  0.00000000000E+00  0.23195371703E+04  0.23195371703E+04  0.50400001928E-02 0.  1.
       -1   -1    0    0    0  501  0.00000000000E+00  0.00000000000E+00 -0.59069927140E+03  0.59069927142E+03  0.50400001928E-02 0. -1.
    10030    2    1    2    0    0  0.00000000000E+00  0.00000000000E+00  0.17288378989E+04  0.29102364417E+04  0.23410672066E+04 0.  0.
        3    1    3    3  502    0 -0.78621564851E+02 -0.77251202694E+03 -0.22442747880E+03  0.80828453262E+03  0.10100000352E+00 0. -1.
       -3    1    3    3    0  502  0.78621564851E+02  0.77251202694E+03  0.19532653777E+04  0.21019519091E+04  0.10100000352E+00 0.  1.
</event>
<event>
 5   0  0.4436695E-05  0.2311398E+04  0.7818609E-02  0.8473440E-01
       -2   -1    0    0    0  501  0.00000000000E+00  0.00000000000E+00  0.11673600316E+04  0.11673600316E+04  0.25500000920E-02 0.  1.
        2   -1    0    0  501    0  0.00000000000E+00  0.00000000000E+00 -0.11441546459E+04  0.11441546459E+04  0.25500000920E-02 0. -1.
    10030    2    1    2    0    0  0.00000000000E+00  0.00000000000E+00  0.23205385651E+02  0.23115146775E+04  0.23113981947E+04 0.  0.
        5    1    3    3  502    0  0.66498821926E+03  0.45750677523E+03  0.83874565762E+03  0.11640610591E+04  0.46999998093E+01 0.  1.
       -5    1    3    3    0  502 -0.66498821926E+03 -0.45750677523E+03 -0.81554027197E+03  0.11474536184E+04  0.46999998093E+01 0. -1.
</event>
<event>
 5   0  0.2031860E-05  0.2054238E+04  0.7818609E-02  0.8581674E-01
       -1   -1    0    0    0  501  0.00000000000E+00  0.00000000000E+00  0.15454120959E+04  0.15454120959E+04  0.50400001928E-02 0.  1.
        1   -1    0    0  501    0  0.00000000000E+00  0.00000000000E+00 -0.68264835104E+03  0.68264835106E+03  0.50400001928E-02 0. -1.
    10030    2    1    2    0    0  0.00000000000E+00  0.00000000000E+00  0.86276374482E+03  0.22280604469E+04  0.20542375899E+04 0.  0.
        4    1    3    3  502    0 -0.77503392909E+03  0.16874345985E+02  0.11621987394E+04  0.13970217813E+04  0.12699999809E+01 0.  1.
       -4    1    3    3    0  502  0.77503392909E+03 -0.16874345985E+02 -0.29943499458E+03  0.83103866557E+03  0.12699999809E+01 0. -1.
</event>
<event>
 5   0  0.4798609E-05  0.2270355E+04  0.7818609E-02  0.8489702E-01
       -2   -1    0    0    0  501  0.00000000000E+00  0.00000000000E+00  0.87010038339E+03  0.87010038339E+03  0.25500000920E-02 0. -1.
        2   -1    0    0  501    0  0.00000000000E+00  0.00000000000E+00 -0.14810104721E+04  0.14810104721E+04  0.25500000920E-02 0.  1.
    10030    2    1    2    0    0  0.00000000000E+00  0.00000000000E+00 -0.61091008871E+03  0.23511108555E+04  0.22703548441E+04 0.  0.
        2    1    3    3  502    0 -0.40641953278E+03 -0.51066862055E+03 -0.12672917291E+04  0.14254780263E+04  0.25500000920E-02 0.  1.
       -2    1    3    3    0  502  0.40641953278E+03  0.51066862055E+03  0.65638164043E+03  0.92563282922E+03  0.25500000920E-02 0. -1.
</event>
<event>
 5   0  0.2043885E-05  0.2267925E+04  0.7818609E-02  0.8490676E-01
       -1   -1    0    0    0  501  0.00000000000E+00  0.00000000000E+00  0.85681801319E+03  0.85681801320E+03  0.50400001928E-02 0.  1.
        1   -1    0    0  501    0  0.00000000000E+00  0.00000000000E+00 -0.15007516541E+04  0.15007516541E+04  0.50400001928E-02 0. -1.
    10030    2    1    2    0    0  0.00000000000E+00  0.00000000000E+00 -0.64393364087E+03  0.23575696673E+04  0.22679250874E+04 0.  0.
        5    1    3    3  502    0 -0.13325690047E+03  0.11101741505E+04 -0.12581569496E+03  0.11252091917E+04  0.46999998093E+01 0.  1.
       -5    1    3    3    0  502  0.13325690047E+03 -0.11101741505E+04 -0.51811794591E+03  0.12323604756E+04  0.46999998093E+01 0. -1.
</event>
<event>
 5   0  0.2043885E-05  0.2271397E+04  0.7818609E-02  0.8489285E-01
       -1   -1    0    0    0  501  0.00000000000E+00  0.00000000000E+00  0.91921326751E+03  0.91921326753E+03  0.50400001928E-02 0.  1.
        1   -1    0    0  501    0  0.00000000000E+00  0.00000000000E+00 -0.14031687505E+04  0.14031687505E+04  0.50400001928E-02 0. -1.
    10030    2    1    2    0    0  0.00000000000E+00  0.00000000000E+00 -0.48395548295E+03  0.23223820180E+04  0.22713972194E+04 0.  0.
        5    1    3    3  502    0  0.44623709218E+03 -0.51062974611E+03  0.68946982861E+03  0.96708893831E+03  0.46999998093E+01 0.  1.
       -5    1    3    3    0  502 -0.44623709218E+03  0.51062974611E+03 -0.11734253116E+04  0.13552930797E+04  0.46999998093E+01 0. -1.
</event>
<event>
 5   0  0.2042951E-05  0.2296082E+04  0.7818609E-02  0.8479468E-01
       -1   -1    0    0    0  501  0.00000000000E+00  0.00000000000E+00  0.56937432765E+03  0.56937432767E+03  0.50400001928E-02 0. -1.
        1   -1    0    0  501    0  0.00000000000E+00  0.00000000000E+00 -0.23148175131E+04  0.23148175131E+04  0.50400001928E-02 0.  1.
    10030    2    1    2    0    0  0.00000000000E+00  0.00000000000E+00 -0.17454431854E+04  0.28841918408E+04  0.22960815884E+04 0.  0.
        2    1    3    3  502    0  0.87613322534E+03 -0.15993642499E+03  0.37269810885E+02  0.89139111920E+03  0.25500000920E-02 0. -1.
       -2    1    3    3    0  502 -0.87613322534E+03  0.15993642499E+03 -0.17827129963E+04  0.19928007216E+04  0.25500000920E-02 0.  1.
</event>
<event>
 5   0  0.2043885E-05  0.2312596E+04  0.7818609E-02  0.8472971E-01
        1   -1    0    0  501    0  0.00000000000E+00  0.00000000000E+00  0.21392993868E+04  0.21392993868E+04  0.50400001928E-02 0. -1.
       -1   -1    0    0    0  501  0.00000000000E+00  0.00000000000E+00 -0.62498270278E+03  0.62498270280E+03  0.50400001928E-02 0.  1.
    10030    2    1    2    0    0  0.00000000000E+00  0.00000000000E+00  0.15143166840E+04  0.27642820896E+04  0.23125960416E+04 0.  0.
        5    1    3    3  502    0  0.22642832005E+03  0.50776592206E+03  0.19690379988E+04  0.20460275527E+04  0.46999998093E+01 0. -1.
       -5    1    3    3    0  502 -0.22642832005E+03 -0.50776592206E+03 -0.45472131475E+03  0.71825453693E+03  0.46999998093E+01 0.  1.
</event>
<event>
 5   0  0.4798609E-05  0.2274722E+04  0.7818609E-02  0.8487955E-01
        2   -1    0    0  501    0  0.00000000000E+00  0.00000000000E+00  0.21205322455E+04  0.21205322455E+04  0.25500000920E-02 0. -1.
       -2   -1    0    0    0  501  0.00000000000E+00  0.00000000000E+00 -0.61003099589E+03  0.61003099590E+03  0.25500000920E-02 0.  1.
    10030    2    1    2    0    0  0.00000000000E+00  0.00000000000E+00  0.15105012496E+04  0.27305632414E+04  0.22747223106E+04 0.  0.
        2    1    3    3  502    0  0.17573111650E+03  0.61291652061E+03 -0.37531563435E+03  0.73987155097E+03  0.25500000920E-02 0.  1.
       -2    1    3    3    0  502 -0.17573111650E+03 -0.61291652061E+03  0.18858168840E+04  0.19906916904E+04  0.25500000920E-02 0. -1.
</event>
<event>
 5   0  0.4798609E-05  0.2304793E+04  0.7818609E-02  0.8476034E-01
        2   -1    0    0  501    0  0.00000000000E+00  0.00000000000E+00  0.12763138984E+04  0.12763138984E+04  0.25500000920E-02 0.  1.
       -2   -1    0    0    0  501  0.00000000000E+00  0.00000000000E+00 -0.10405106086E+04  0.10405106086E+04  0.25500000920E-02 0. -1.
    10030    2    1    2    0    0  0.00000000000E+00  0.00000000000E+00  0.23580328979E+03  0.23168245070E+04  0.23047933974E+04 0.  0.
        2    1    3    3  502    0  0.78732862812E+03  0.22595176859E+03 -0.69693295519E+03  0.10754794812E+04  0.25500000920E-02 0. -1.
       -2    1    3    3    0  502 -0.78732862812E+03 -0.22595176859E+03  0.93273624498E+03  0.12413450258E+04  0.25500000920E-02 0.  1.
</event>
<event>
 5   0  0.2031860E-05  0.2282510E+04  0.7818609E-02  0.8484849E-01
        1   -1    0    0  501    0  0.00000000000E+00  0.00000000000E+00  0.14090168368E+04  0.14090168368E+04  0.50400001928E-02 0.  1.
       -1   -1    0    0    0  501  0.00000000000E+00  0.00000000000E+00 -0.92437682911E+03  0.92437682913E+03  0.50400001928E-02 0. -1.
    10030    2    1    2    0    0  0.00000000000E+00  0.00000000000E+00  0.48464000765E+03  0.23333936659E+04  0.22825095976E+04 0.  0.
        4    1    3    3  502    0 -0.37533234900E+03  0.77767331709E+03 -0.52051252678E+03  0.10082584310E+04  0.12699999809E+01 0. -1.
       -4    1    3    3    0  502  0.37533234900E+03 -0.77767331709E+03  0.10051525344E+04  0.13251352349E+04  0.12699999809E+01 0.  1.
</event>
<event>
 5   0  0.4505107E-05  0.2298722E+04  0.7818609E-02  0.8478425E-01
        2   -1    0    0  501    0  0.00000000000E+00  0.00000000000E+00  0.18542875555E+04  0.18542875555E+04  0.25500000920E-02 0.  1.
       -2   -1    0    0    0  501  0.00000000000E+00  0.00000000000E+00 -0.71241965827E+03  0.71241965828E+03  0.25500000920E-02 0. -1.
    10030    2    1    2    0    0  0.00000000000E+00  0.00000000000E+00  0.11418678973E+04  0.25667072138E+04  0.22987221726E+04 0.  0.
        4    1    3    3  502    0  0.17267000674E+03 -0.97738087484E+03 -0.76240472485E+02  0.99544087131E+03  0.12699999809E+01 0.  1.
       -4    1    3    3    0  502 -0.17267000674E+03  0.97738087484E+03  0.12181083697E+04  0.15712663425E+04  0.12699999809E+01 0. -1.
</event>
<event>
 5   0  0.1604500E-05  0.2275656E+04  0.7818609E-02  0.8487582E-01
       -3   -1    0    0    0  501  0.00000000000E+00  0.00000000000E+00  0.18223313115E+04  0.18223313143E+04  0.10100000352E+00 0.  1.
        3   -1    0    0  501    0  0.00000000000E+00  0.00000000000E+00 -0.71043768297E+03  0.71043769015E+03  0.10100000352E+00 0. -1.
    10030    2    1    2    0    0  0.00000000000E+00  0.00000000000E+00  0.11118936285E+04  0.25327690044E+04  0.22756562545E+04 0.  0.
        1    1    3    3  502    0  0.73414281756E+03 -0.76118866659E+03  0.10232397241E+04  0.14715275722E+04  0.50400001928E-02 0. -1.
       -1    1    3    3    0  502 -0.73414281756E+03  0.76118866659E+03  0.88653904428E+02  0.10612414323E+04  0.50400001928E-02 0.  1.
</event>
<event>
 5   0  0.2043885E-05  0.2283918E+04  0.7818609E-02  0.8484289E-01
        1   -1    0    0  501    0  0.00000000000E+00  0.00000000000E+00  0.12185701324E+04  0.12185701324E+04  0.50400001928E-02 0. -1.
       -1   -1    0    0    0  501  0.00000000000E+00  0.00000000000E+00 -0.10701642147E+04  0.10701642147E+04  0.50400001928E-02 0.  1.
    10030    2    1    2    0    0  0.00000000000E+00  0.00000000000E+00  0.14840591772E+03  0.22887343471E+04  0.22839178171E+04 0.  0.
        5    1    3    3  502    0  0.34084198076E+02 -0.55211335748E+03 -0.92693199200E+03  0.10794516663E+04  0.46999998093E+01 0.  1.
       -5    1    3    3    0  502 -0.34084198076E+02  0.55211335748E+03  0.10753379097E+04  0.12092826808E+04  0.46999998093E+01 0. -1.
</event>
<event>
 5   0  0.1968318E-05  0.2198398E+04  0.7818609E-02  0.8519095E-01
       -1   -1    0    0    0  501  0.00000000000E+00  0.00000000000E+00  0.10155354166E+04  0.10155354166E+04  0.50400001928E-02 0. -1.
        1   -1    0    0  501    0  0.00000000000E+00  0.00000000000E+00 -0.11897550735E+04  0.11897550735E+04  0.50400001928E-02 0.  1.
    10030    2    1    2    0    0  0.00000000000E+00  0.00000000000E+00 -0.17421965695E+03  0.22052904901E+04  0.21983979751E+04 0.  0.
        3    1    3    3  502    0 -0.17640308147E+03 -0.54414967603E+03 -0.10286801034E+04  0.11770300261E+04  0.10100000352E+00 0.  1.
       -3    1    3    3    0  502  0.17640308147E+03  0.54414967603E+03  0.85446044644E+03  0.10282604640E+04  0.10100000352E+00 0. -1.
</event>
<event>
 5   0  0.4798609E-05  0.2284846E+04  0.7818609E-02  0.8483920E-01
        2   -1    0    0  501    0  0.00000000000E+00  0.00000000000E+00  0.99493788183E+03  0.99493788183E+03  0.25500000920E-02 0.  1.
       -2   -1    0    0    0  501  0.00000000000E+00  0.00000000000E+00 -0.13117701816E+04  0.13117701816E+04  0.25500000920E-02 0. -1.
    10030    2    1    2    0    0  0.00000000000E+00  0.00000000000E+00 -0.31683229979E+03  0.23067080634E+04  0.22848455930E+04 0.  0.
        2    1    3    3  502    0 -0.71965193409E+03  0.68815179591E+03  0.40701253768E+03  0.10756909437E+04  0.25500000920E-02 0.  1.
       -2    1    3    3    0  502  0.71965193409E+03 -0.68815179591E+03 -0.72384483746E+03  0.12310171198E+04  0.25500000920E-02 0. -1.
</event>
<event>
 5   0  0.2085063E-05  0.2283734E+04  0.7818609E-02  0.8484362E-01
        1   -1    0    0  501    0  0.00000000000E+00  0.00000000000E+00  0.10017690882E+04  0.10017690883E+04  0.50400001928E-02 0. -1.
       -1   -1    0    0    0  501  0.00000000000E+00  0.00000000000E+00 -0.13015576342E+04  0.13015576342E+04  0.50400001928E-02 0.  1.
    10030    2    1    2    0    0  0.00000000000E+00  0.00000000000E+00 -0.29978854599E+03  0.23033267225E+04  0.22837339640E+04 0.  0.
        1    1    3    3  502    0  0.34103954656E+03 -0.26680115384E+03  0.91575426317E+03  0.10129643126E+04  0.50400001928E-02 0. -1.
       -1    1    3    3    0  502 -0.34103954656E+03  0.26680115384E+03 -0.12155428092E+04  0.12903624099E+04  0.50400001928E-02 0.  1.
</event>
<event>
 5   0  0.4798609E-05  0.2316759E+04  0.7818609E-02  0.8471342E-01
        2   -1    0    0  501    0  0.00000000000E+00  0.00000000000E+00  0.10674773661E+04  0.10674773661E+04  0.25500000920E-02 0. -1.
       -2   -1    0    0    0  501  0.00000000000E+00  0.00000000000E+00 -0.12570228788E+04  0.12570228788E+04  0.25500000920E-02 0.  1.
    10030    2    1    2    0    0  0.00000000000E+00  0.00000000000E+00 -0.18954551265E+03  0.23245002449E+04  0.23167593503E+04 0.  0.
        2    1    3    3  502    0 -0.74960376138E+03  0.81251296157E+03  0.25244763183E+03  0.11339369112E+04  0.25500000920E-02 0.  1.
       -2    1    3    3    0  502  0.74960376138E+03 -0.81251296157E+03 -0.44199314448E+03  0.11905633337E+04  0.25500000920E-02 0. -1.
</event>
<event>
 5   0  0.4798609E-05  0.2218863E+04  0.7818609E-02  0.8510618E-01
       -2   -1    0    0    0  501  0.00000000000E+00  0.00000000000E+00  0.55284697499E+03  0.55284697500E+03  0.25500000920E-02 0.  1.
        2   -1    0    0  501    0  0.00000000000E+00  0.00000000000E+00 -0.22263633536E+04  0.22263633536E+04  0.25500000920E-02 0. -1.
    10030    2    1    2    0    0  0.00000000000E+00  0.00000000000E+00 -0.16735163786E+04  0.27792103286E+04  0.22188629929E+04 0.  0.
        2    1    3    3  502    0  0.78630004291E+03  0.60816615294E+03 -0.21969481541E+03  0.10180371501E+04  0.25500000920E-02 0.  1.
       -2    1    3    3    0  502 -0.78630004291E+03 -0.60816615294E+03 -0.14538215632E+04  0.17611731785E+04  0.25500000920E-02 0. -1.
</event>
<event>
 5   0  0.1968318E-05  0.2298227E+04  0.7818609E-02  0.8478620E-01
       -1   -1    0    0    0  501  0.00000000000E+00  0.00000000000E+00  0.10601905038E+04  0.10601905038E+04  0.50400001928E-02 0.  1.
        1   -1    0    0  501    0  0.00000000000E+00  0.00000000000E+00 -0.12454949992E+04  0.12454949992E+04  0.50400001928E-02 0. -1.
    10030    2    1    2    0    0  0.00000000000E+00  0.00000000000E+00 -0.18530449537E+03  0.23056855030E+04  0.22982271173E+04 0.  0.
        3    1    3    3  502    0  0.73016674694E+03 -0.47838683549E+03 -0.84238229544E+03  0.12130974341E+04  0.10100000352E+00 0. -1.
       -3    1    3    3    0  502 -0.73016674694E+03  0.47838683549E+03  0.65707780007E+03  0.10925880689E+04  0.10100000352E+00 0.  1.
</event>
<event>
 5   0  0.2085063E-05  0.2311005E+04  0.7818609E-02  0.8473594E-01
       -1   -1    0    0    0  501  0.00000000000E+00  0.00000000000E+00  0.78187580458E+03  0.78187580459E+03  0.50400001928E-02 0. -1.
        1   -1    0    0  501    0  0.00000000000E+00  0.00000000000E+00 -0.17076709414E+04  0.17076709414E+04  0.50400001928E-02 0.  1.
    10030    2    1    2    0    0  0.00000000000E+00  0.00000000000E+00 -0.92579513686E+03  0.24895467460E+04  0.23110054879E+04 0.  0.
        1    1    3    3  502    0 -0.10213502985E+04  0.24045625092E+03 -0.98423980036E+03  0.14386464560E+04  0.50400001928E-02 0.  1.
       -1    1    3    3    0  502  0.10213502985E+04 -0.24045625092E+03  0.58444663497E+02  0.10509002900E+04  0.50400001928E-02 0. -1.
</event>
<event>
 5   0  0.1968318E-05  0.2273509E+04  0.7818609E-02  0.8488440E-01
        1   -1    0    0  501    0  0.00000000000E+00  0.00000000000E+00  0.16579902569E+04  0.16579902569E+04  0.50400001928E-02 0. -1.
       -1   -1    0    0    0  501  0.00000000000E+00  0.00000000000E+00 -0.77938360104E+03  0.77938360105E+03  0.50400001928E-02 0.  1.
    10030    2    1    2    0    0  0.00000000000E+00  0.00000000000E+00  0.87860665588E+03  0.24373738580E+04  0.22735086690E+04 0.  0.
        3    1    3    3  502    0 -0.32702756711E+03 -0.88378356755E+03 -0.24227897768E+03  0.97299513727E+03  0.10100000352E+00 0.  1.
       -3    1    3    3    0  502  0.32702756711E+03  0.88378356755E+03  0.11208856336E+04  0.14643787207E+04  0.10100000352E+00 0. -1.
</event>
<event>
 5   0  0.1604500E-05  0.2315584E+04  0.7818609E-02  0.8471802E-01
        3   -1    0    0  501    0  0.00000000000E+00  0.00000000000E+00  0.18172602932E+04  0.18172602960E+04  0.10100000352E+00 0.  1.
       -3   -1    0    0    0  501  0.00000000000E+00  0.00000000000E+00 -0.73763931405E+03  0.73763932096E+03  0.10100000352E+00 0. -1.
    10030    2    1    2    0    0  0.00000000000E+00  0.00000000000E+00  0.10796209792E+04  0.25548996170E+04  0.23155842879E+04 0.  0.
        4    1    3    3  502    0 -0.65135370587E+03 -0.65509402828E+03 -0.23022274990E+03  0.95205775219E+03  0.12699999809E+01 0. -1.
       -4    1    3    3    0  502  0.65135370587E+03  0.65509402828E+03  0.13098437291E+04  0.16028418648E+04  0.12699999809E+01 0.  1.
</event>
<event>
 5   0  0.2031860E-05  0.2298972E+04  0.7818609E-02  0.8478326E-01
       -1   -1    0    0    0  501  0.00000000000E+00  0.00000000000E+00  0.15248014385E+04  0.15248014385E+04  0.50400001928E-02 0. -1.
        1   -1    0    0  501    0  0.00000000000E+00  0.00000000000E+00 -0.86655107066E+03  0.86655107068E+03  0.50400001928E-02 0.  1.
    10030    2    1    2    0    0  0.00000000000E+00  0.00000000000E+00  0.65825036787E+03  0.23913525092E+04  0.22989722218E+04 0.  0.
        4    1    3    3  502    0 -0.10756542492E+03  0.11419453833E+04  0.25054398563E+03  0.11740457746E+04  0.12699999809E+01 0. -1.
       -4    1    3    3    0  502  0.10756542492E+03 -0.11419453833E+04  0.40770638224E+03  0.12173067346E+04  0.12699999809E+01 0.  1.
</event>
<event>
 5   0  0.2031860E-05  0.2225299E+04  0.7818609E-02  0.8507971E-01
       -1   -1    0    0    0  501  0.00000000000E+00  0.00000000000E+00  0.11759353400E+04  0.11759353400E+04  0.50400001928E-02 0. -1.
        1   -1    0    0  501    0  0.00000000000E+00  0.00000000000E+00 -0.10527697449E+04  0.10527697450E+04  0.50400001928E-02 0.  1.
    10030    2    1    2    0    0  0.00000000000E+00  0.00000000000E+00  0.12316559507E+03  0.22287050850E+04  0.22252992141E+04 0.  0.
        4    1    3    3  502    0  0.76844085802E+03 -0.71184119655E+03  0.43734804556E+03  0.11351185697E+04  0.12699999809E+01 0. -1.
       -4    1    3    3    0  502 -0.76844085802E+03  0.71184119655E+03 -0.31418245048E+03  0.10935865153E+04  0.12699999809E+01 0.  1.
</event>
<event>
 5   0  0.4605516E-05  0.2284563E+04  0.7818609E-02  0.8484033E-01
       -2   -1    0    0    0  501  0.00000000000E+00  0.00000000000E+00  0.82807761844E+03  0.82807761844E+03  0.25500000920E-02 0.  1.
        2   -1    0    0  501    0  0.00000000000E+00  0.00000000000E+00 -0.15757058796E+04  0.15757058796E+04  0.25500000920E-02 0. -1.
    10030    2    1    2    0    0  0.00000000000E+00  0.00000000000E+00 -0.74762826119E+03  0.24037834981E+04  0.22845627785E+04 0.  0.
        1    1    3    3  502    0  0.72894520551E+03  0.57770921808E+03  0.32388689113E+03  0.98489175627E+03  0.50400001928E-02 0.  1.
       -1    1    3    3    0  502 -0.72894520551E+03 -0.57770921808E+03 -0.10715151523E+04  0.14188917418E+04  0.50400001928E-02 0. -1.
</event>
<event>
 5   0  0.4602447E-05  0.2306425E+04  0.7818609E-02  0.8475392E-01
       -2   -1    0    0    0  501  0.00000000000E+00  0.00000000000E+00  0.53785678720E+03  0.53785678720E+03  0.25500000920E-02 0. -1.
        2   -1    0    0  501    0  0.00000000000E+00  0.00000000000E+00 -0.24725901311E+04  0.24725901311E+04  0.25500000920E-02 0.  1.
    10030    2    1    2    0    0  0.00000000000E+00  0.00000000000E+00 -0.19347333439E+04  0.30104469183E+04  0.23064252721E+04 0.  0.
        3    1    3    3  502    0  0.55225411669E+03 -0.45212092981E+03 -0.21496763831E+04  0.22650621419E+04  0.10100000352E+00 0.  1.
       -3    1    3    3    0  502 -0.55225411669E+03  0.45212092981E+03  0.21494303918E+03  0.74538477639E+03  0.10100000352E+00 0. -1.
</event>
<event>
 5   0  0.2043885E-05  0.2310546E+04  0.7818609E-02  0.8473774E-01
       -1   -1    0    0    0  501  0.00000000000E+00  0.00000000000E+00  0.73865781636E+03  0.73865781637E+03  0.50400001928E-02 0. -1.
        1   -1    0    0  501    0  0.00000000000E+00  0.00000000000E+00 -0.18068667028E+04  0.18068667029E+04  0.50400001928E-02 0.  1.
    10030    2    1    2    0    0  0.00000000000E+00  0.00000000000E+00 -0.10682088865E+04  0.25455245192E+04  0.23105464403E+04 0.  0.
        5    1    3    3  502    0 -0.12440572903E+03  0.40448191999E+03 -0.17183922988E+04  0.17697391310E+04  0.46999998093E+01 0.  1.
       -5    1    3    3    0  502  0.12440572903E+03 -0.40448191999E+03  0.65018341232E+03  0.77578538828E+03  0.46999998093E+01 0. -1.
</event>
<event>
 5   0  0.4798609E-05  0.2211566E+04  0.7818609E-02  0.8513629E-01
       -2   -1    0    0    0  501  0.00000000000E+00  0.00000000000E+00  0.15416414056E+04  0.15416414056E+04  0.25500000920E-02 0.  1.
        2   -1    0    0  501    0  0.00000000000E+00  0.00000000000E+00 -0.79315215689E+03  0.79315215690E+03  0.25500000920E-02 0. -1.
    10030    2    1    2    0    0  0.00000000000E+00  0.00000000000E+00  0.74848924869E+03  0.23347935625E+04  0.22115661473E+04 0.  0.
        2    1    3    3  502    0 -0.63676479022E+03  0.14281675656E+03  0.13166717802E+04  0.14695205344E+04  0.25500000920E-02 0.  1.
       -2    1    3    3    0  502  0.63676479022E+03 -0.14281675656E+03 -0.56818253156E+03  0.86527302812E+03  0.25500000920E-02 0. -1.
</event>
<event>
 5   0  0.4505107E-05  0.2291858E+04  0.7818609E-02  0.8481138E-01
        2   -1    0    0  501    0  0.00000000000E+00  0.00000000000E+00  0.52558853118E+03  0.52558853119E+03  0.25500000920E-02 0. -1.
       -2   -1    0    0    0  501  0.00000000000E+00  0.00000000000E+00 -0.24984426770E+04  0.24984426770E+04  0.25500000920E-02 0.  1.
    10030    2    1    2    0    0  0.00000000000E+00  0.00000000000E+00 -0.19728541459E+04  0.30240312082E+04  0.22918576019E+04 0.  0.
        4    1    3    3  502    0 -0.72114787765E+03 -0.72728120418E+02 -0.21575667945E+04  0.22760579357E+04  0.12699999809E+01 0.  1.
       -4    1    3    3    0  502  0.72114787765E+03  0.72728120418E+02  0.18471264867E+03  0.74797327253E+03  0.12699999809E+01 0. -1.
</event>
<event>
 5   0  0.2031860E-05  0.2302488E+04  0.7818609E-02  0.8476941E-01
       -1   -1    0    0    0  501  0.00000000000E+00  0.00000000000E+00  0.11913192735E+04  0.11913192735E+04  0.50400001928E-02 0. -1.
        1   -1    0    0  501    0  0.00000000000E+00  0.00000000000E+00 -0.11125170973E+04  0.11125170973E+04  0.50400001928E-02 0.  1.
    10030    2    1    2    0    0  0.00000000000E+00  0.00000000000E+00  0.78802176162E+02  0.23038363708E+04  0.23024882715E+04 0.  0.
        4    1    3    3  502    0  0.13429363962E+03  0.11359487619E+04 -0.90856067514E+02  0.11474627703E+04  0.12699999809E+01 0. -1.
       -4    1    3    3    0  502 -0.13429363962E+03 -0.11359487619E+04  0.16965824368E+03  0.11563736005E+04  0.12699999809E+01 0.  1.
</event>
<event>
 5   0  0.4436695E-05  0.2286142E+04  0.7818609E-02  0.8483405E-01
        2   -1    0    0  501    0  0.00000000000E+00  0.00000000000E+00  0.22152258309E+04  0.22152258309E+04  0.25500000920E-02 0.  1.
       -2   -1    0    0    0  501  0.00000000000E+00  0.00000000000E+00 -0.58983235886E+03  0.58983235887E+03  0.25500000920E-02 0. -1.
    10030    2    1    2    0    0  0.00000000000E+00  0.00000000000E+00  0.16253934720E+04  0.28050581897E+04  0.22861424953E+04 0.  0.
        5    1    3    3  502    0 -0.64222424599E+03  0.80242375145E+03  0.19889370300E+03  0.10468603795E+04  0.46999998093E+01 0.  1.
       -5    1    3    3    0  502  0.64222424599E+03 -0.80242375145E+03  0.14264997690E+04  0.17581978103E+04  0.46999998093E+01 0. -1.
</event>
<event>
 5   0  0.4602447E-05  0.2273044E+04  0.7818609E-02  0.8488626E-01
       -2   -1    0    0    0  501  0.00000000000E+00  0.00000000000E+00  0.14407031476E+04  0.14407031476E+04  0.25500000920E-02 0. -1.
        2   -1    0    0  501    0  0.00000000000E+00  0.00000000000E+00 -0.89656346600E+03  0.89656346600E+03  0.25500000920E-02 0.  1.
    10030    2    1    2    0    0  0.00000000000E+00  0.00000000000E+00  0.54413968161E+03  0.23372666136E+04  0.22730436049E+04 0.  0.
        3    1    3    3  502    0 -0.11633438651E+03  0.97995928338E+03  0.85176077024E+03  0.13035913111E+04  0.10100000352E+00 0.  1.
       -3    1    3    3    0  502  0.11633438651E+03 -0.97995928338E+03 -0.30762108863E+03  0.10336753025E+04  0.10100000352E+00 0. -1.
</event>
<event>
 5   0  0.2031860E-05  0.2309351E+04  0.7818609E-02  0.8474243E-01
       -1   -1    0    0    0  501  0.00000000000E+00  0.00000000000E+00  0.11153094438E+04  0.11153094438E+04  0.50400001928E-02 0.  1.
        1   -1    0    0  501    0  0.00000000000E+00  0.00000000000E+00 -0.11954306516E+04  0.11954306516E+04  0.50400001928E-02 0. -1.
    10030    2    1    2    0    0  0.00000000000E+00  0.00000000000E+00 -0.80121207745E+02  0.23107400954E+04  0.23093506405E+04 0.  0.
        4    1    3    3  502    0  0.92899550603E+03  0.14264334036E+03  0.63108412178E+03  0.11320991805E+04  0.12699999809E+01 0.  1.
       -4    1    3    3    0  502 -0.92899550603E+03 -0.14264334036E+03 -0.71120532952E+03  0.11786409150E+04  0.12699999809E+01 0. -1.
</event>
<event>
 5   0  0.1968318E-05  0.2322419E+04  0.7818609E-02  0.8469134E-01
       -1   -1    0    0    0  501  0.00000000000E+00  0.00000000000E+00  0.43368468669E+03  0.43368468672E+03  0.50400001928E-02 0.  1.
        1   -1    0    0  501    0  0.00000000000E+00  0.00000000000E+00 -0.31091893345E+04  0.31091893345E+04  0.50400001928E-02 0. -1.
    10030    2    1    2    0    0  0.00000000000E+00  0.00000000000E+00 -0.26755046478E+04  0.35428740212E+04  0.23224192580E+04 0.  0.
        3    1    3    3  502    0 -0.43173512032E+03 -0.42364538677E+03 -0.28498838882E+04  0.29133672639E+04  0.10100000352E+00 0. -1.
       -3    1    3    3    0  502  0.43173512032E+03  0.42364538677E+03  0.17437924039E+03  0.62950675734E+03  0.10100000352E+00 0.  1.
</event>
<event>
 5   0  0.4505107E-05  0.2304086E+04  0.7818609E-02  0.8476312E-01
        2   -1    0    0  501    0  0.00000000000E+00  0.00000000000E+00  0.14776393812E+04  0.14776393812E+04  0.25500000920E-02 0. -1.
       -2   -1    0    0    0  501  0.00000000000E+00  0.00000000000E+00 -0.89819120332E+03  0.89819120332E+03  0.25500000920E-02 0.  1.
    10030    2    1    2    0    0  0.00000000000E+00  0.00000000000E+00  0.57944817784E+03  0.23758305845E+04  0.23040856701E+04 0.  0.
        4    1    3    3  502    0  0.16031875260E+03  0.10128909541E+04  0.83099882606E+03  0.13199283500E+04  0.12699999809E+01 0. -1.
       -4    1    3    3    0  502 -0.16031875260E+03 -0.10128909541E+04 -0.25155064822E+03  0.10559022345E+04  0.12699999809E+01 0.  1.
</event>
<event>
 5   0  0.4602447E-05  0.2299317E+04  0.7818609E-02  0.8478191E-01
       -2   -1    0    0    0  501  0.00000000000E+00  0.00000000000E+00  0.12065303385E+04  0.12065303386E+04  0.25500000920E-02 0. -1.
        2   -1    0    0  501    0  0.00000000000E+00  0.00000000000E+00 -0.10954671406E+04  0.10954671406E+04  0.25500000920E-02 0.  1.
    10030    2    1    2    0    0  0.00000000000E+00  0.00000000000E+00  0.11106319792E+03  0.23019974792E+04  0.22993167159E+04 0.  0.
        3    1    3    3  502    0 -0.74123122485E+02  0.21404536047E+03 -0.10729048067E+04  0.10965556931E+04  0.10100000352E+00 0.  1.
       -3    1    3    3    0  502  0.74123122485E+02 -0.21404536047E+03  0.11839680046E+04  0.12054417861E+04  0.10100000352E+00 0. -1.
</event>
<event>
 5   0  0.4798609E-05  0.2304289E+04  0.7818609E-02  0.8476232E-01
       -2   -1    0    0    0  501  0.00000000000E+00  0.00000000000E+00  0.98065158136E+03  0.98065158136E+03  0.25500000920E-02 0. -1.
        2   -1    0    0  501    0  0.00000000000E+00  0.00000000000E+00 -0.13536275976E+04  0.13536275976E+04  0.25500000920E-02 0.  1.
    10030    2    1    2    0    0  0.00000000000E+00  0.00000000000E+00 -0.37297601626E+03  0.23342791790E+04  0.23042890827E+04 0.  0.
        2    1    3    3  502    0  0.11408389332E+04 -0.24733090305E+02 -0.34765561305E+03  0.11928912870E+04  0.25500000920E-02 0. -1.
       -2    1    3    3    0  502 -0.11408389332E+04  0.24733090305E+02 -0.25320403207E+02  0.11413878920E+04  0.25500000920E-02 0.  1.
</event>
<event>
 5   0  0.4798609E-05  0.2348967E+04  0.7818609E-02  0.8458861E-01
        2   -1    0    0  501    0  0.00000000000E+00  0.00000000000E+00  0.15350451919E+04  0.15350451919E+04  0.25500000920E-02 0.  1.
       -2   -1    0    0    0  501  0.00000000000E+00  0.00000000000E+00 -0.89861289052E+03  0.89861289052E+03  0.25500000920E-02 0. -1.
    10030    2    1    2    0    0  0.00000000000E+00  0.00000000000E+00  0.63643230133E+03  0.24336580824E+04  0.23489669193E+04 0.  0.
        2    1    3    3  502    0  0.69784250885E+03  0.69037433608E+03 -0.34986680220E+03  0.10421169178E+04  0.25500000920E-02 0. -1.
       -2    1    3    3    0  502 -0.69784250885E+03 -0.69037433608E+03  0.98629910353E+03  0.13915411646E+04  0.25500000920E-02 0.  1.
</event>
<event>
 5   0  0.4505107E-05  0.2275993E+04  0.7818609E-02  0.8487447E-01
       -2   -1    0    0    0  501  0.00000000000E+00  0.00000000000E+00  0.93570025044E+03  0.93570025045E+03  0.25500000920E-02 0.  1.
        2   -1    0    0  501    0  0.00000000000E+00  0.00000000000E+00 -0.13840292759E+04  0.13840292759E+04  0.25500000920E-02 0. -1.
    10030    2    1    2    0    0  0.00000000000E+00  0.00000000000E+00 -0.44832902549E+03  0.23197295264E+04  0.22759934447E+04 0.  0.
        4    1    3    3  502    0 -0.20228257636E+02  0.25304773941E+03  0.90647326071E+03  0.94134888650E+03  0.12699999809E+01 0.  1.
       -4    1    3    3    0  502  0.20228257636E+02 -0.25304773941E+03 -0.13548022862E+04  0.13783806399E+04  0.12699999809E+01 0. -1.
</event>
<event>
 5   0  0.4436695E-05  0.2306708E+04  0.7818609E-02  0.8475281E-01
       -2   -1    0    0    0  501  0.00000000000E+00  0.00000000000E+00  0.93128331396E+03  0.93128331396E+03  0.25500000920E-02 0.  1.
        2   -1    0    0  501    0  0.00000000000E+00  0.00000000000E+00 -0.14283788979E+04  0.14283788979E+04  0.25500000920E-02 0. -1.
    10030    2    1    2    0    0  0.00000000000E+00  0.00000000000E+00 -0.49709558391E+03  0.23596622118E+04  0.23067079864E+04 0.  0.
        5    1    3    3  502    0  0.58064694981E+02  0.11315050103E+04 -0.46920370038E+03  0.12263153345E+04  0.46999998093E+01 0. -1.
       -5    1    3    3    0  502 -0.58064694981E+02 -0.11315050103E+04 -0.27891883535E+02  0.11333468773E+04  0.46999998093E+01 0.  1.
</event>
<event>
 5   0  0.4436695E-05  0.2304184E+04  0.7818609E-02  0.8476273E-01
       -2   -1    0    0    0  501  0.00000000000E+00  0.00000000000E+00  0.70406350468E+03  0.70406350469E+03  0.25500000920E-02 0. -1.
        2   -1    0    0  501    0  0.00000000000E+00  0.00000000000E+00 -0.18852213469E+04  0.18852213469E+04  0.25500000920E-02 0.  1.
    10030    2    1    2    0    0  0.00000000000E+00  0.00000000000E+00 -0.11811578422E+04  0.25892848516E+04  0.23041836286E+04 0.  0.
        5    1    3    3  502    0  0.70568483678E+03  0.34584232937E+02 -0.16131789211E+04  0.17611233573E+04  0.46999998093E+01 0.  1.
       -5    1    3    3    0  502 -0.70568483678E+03 -0.34584232937E+02  0.43202107891E+03  0.82816149430E+03  0.46999998093E+01 0. -1.
</event>
<event>
 5   0  0.4602447E-05  0.2311146E+04  0.7818609E-02  0.8473539E-01
        2   -1    0    0  501    0  0.00000000000E+00  0.00000000000E+00  0.19874083546E+04  0.19874083546E+04  0.25500000920E-02 0. -1.
       -2   -1    0    0    0  501  0.00000000000E+00  0.00000000000E+00 -0.67190467027E+03  0.67190467028E+03  0.25500000920E-02 0.  1.
    10030    2    1    2    0    0  0.00000000000E+00  0.00000000000E+00  0.13155036844E+04  0.26593130249E+04  0.23111459973E+04 0.  0.
        3    1    3    3  502    0  0.32941250746E+03  0.64270281136E+03 -0.38023719838E+03  0.81618615587E+03  0.10100000352E+00 0.  1.
       -3    1    3    3    0  502 -0.32941250746E+03 -0.64270281136E+03  0.16957408827E+04  0.18431268690E+04  0.10100000352E+00 0. -1.
</event>
<event>
 5   0  0.2085063E-05  0.2331042E+04  0.7818609E-02  0.8465781E-01
        1   -1    0    0  501    0  0.00000000000E+00  0.00000000000E+00  0.78596840047E+03  0.78596840048E+03  0.50400001928E-02 0. -1.
       -1   -1    0    0    0  501  0.00000000000E+00  0.00000000000E+00 -0.17283632209E+04  0.17283632209E+04  0.50400001928E-02 0.  1.
    10030    2    1    2    0    0  0.00000000000E+00  0.00000000000E+00 -0.94239482039E+03  0.25143316214E+04  0.23310417209E+04 0.  0.
        1    1    3    3  502    0 -0.55752188031E+03 -0.77409535466E+03  0.25106973526E+03  0.98645338315E+03  0.50400001928E-02 0. -1.
       -1    1    3    3    0  502  0.55752188031E+03  0.77409535466E+03 -0.11934645557E+04  0.15278782382E+04  0.50400001928E-02 0.  1.
</event>
<event>
 5   0  0.2085063E-05  0.2343153E+04  0.7818609E-02  0.8461098E-01
       -1   -1    0    0    0  501  0.00000000000E+00  0.00000000000E+00  0.24550790331E+04  0.24550790331E+04  0.50400001928E-02 0.  1.
        1   -1    0    0  501    0  0.00000000000E+00  0.00000000000E+00 -0.55908257838E+03  0.55908257840E+03  0.50400001928E-02 0. -1.
    10030    2    1    2    0    0  0.00000000000E+00  0.00000000000E+00  0.18959964547E+04  0.30141616115E+04  0.23431533590E+04 0.  0.
        1    1    3    3  502    0 -0.32245844844E+03 -0.84039495836E+03  0.19126458505E+04  0.21138725805E+04  0.50400001928E-02 0.  1.
       -1    1    3    3    0  502  0.32245844844E+03  0.84039495836E+03 -0.16649395764E+02  0.90028903104E+03  0.50400001928E-02 0. -1.
</event>
<event>
 5   0  0.4798609E-05  0.2274569E+04  0.7818609E-02  0.8488016E-01
       -2   -1    0    0    0  501  0.00000000000E+00  0.00000000000E+00  0.88402125480E+03  0.88402125480E+03  0.25500000920E-02 0.  1.
        2   -1    0    0  501    0  0.00000000000E+00  0.00000000000E+00 -0.14631054480E+04  0.14631054480E+04  0.25500000920E-02 0. -1.
    10030    2    1    2    0    0  0.00000000000E+00  0.00000000000E+00 -0.57908419317E+03  0.23471267028E+04  0.22745692463E+04 0.  0.
        2    1    3    3  502    0  0.22853871526E+03 -0.10500788909E+04 -0.67359822393E+03  0.12683178580E+04  0.25500000920E-02 0. -1.
       -2    1    3    3    0  502 -0.22853871526E+03  0.10500788909E+04  0.94514030760E+02  0.10788088448E+04  0.25500000920E-02 0.  1.
</event>
<event>
 5   0  0.4505107E-05  0.2298633E+04  0.7818609E-02  0.8478460E-01
        2   -1    0    0  501    0  0.00000000000E+00  0.00000000000E+00  0.11381764641E+04  0.11381764641E+04  0.25500000920E-02 0. -1.
       -2   -1    0    0    0  501  0.00000000000E+00  0.00000000000E+00 -0.11605655598E+04  0.11605655598E+04  0.25500000920E-02 0.  1.
    10030    2    1    2    0    0  0.00000000000E+00  0.00000000000E+00 -0.22389095658E+02  0.22987420239E+04  0.22986329895E+04 0.  0.
        4    1    3    3  502    0  0.30097880354E+03 -0.59763726841E+03 -0.94567359302E+03  0.11584725729E+04  0.12699999809E+01 0.  1.
       -4    1    3    3    0  502 -0.30097880354E+03  0.59763726841E+03  0.92328449736E+03  0.11402694509E+04  0.12699999809E+01 0. -1.
</event>
<event>
 5   0  0.2043885E-05  0.2288458E+04  0.7818609E-02  0.8482486E-01
        1   -1    0    0  501    0  0.00000000000E+00  0.00000000000E+00  0.18981922886E+04  0.18981922886E+04  0.50400001928E-02 0.  1.
       -1   -1    0    0    0  501  0.00000000000E+00  0.00000000000E+00 -0.68974058234E+03  0.68974058235E+03  0.50400001928E-02 0. -1.
    10030    2    1    2    0    0  0.00000000000E+00  0.00000000000E+00  0.12084517062E+04  0.25879328709E+04  0.22884582186E+04 0.  0.
        5    1    3    3  502    0 -0.26717103045E+03  0.11074242740E+04  0.48311637278E+03  0.12374135937E+04  0.46999998093E+01 0. -1.
       -5    1    3    3    0  502  0.26717103045E+03 -0.11074242740E+04  0.72533533344E+03  0.13505192772E+04  0.46999998093E+01 0.  1.
</event>
<event>
 5   0  0.4605516E-05  0.2282561E+04  0.7818609E-02  0.8484829E-01
       -2   -1    0    0    0  501  0.00000000000E+00  0.00000000000E+00  0.93736463592E+03  0.93736463592E+03  0.25500000920E-02 0. -1.
        2   -1    0    0  501    0  0.00000000000E+00  0.00000000000E+00 -0.13895566493E+04  0.13895566493E+04  0.25500000920E-02 0.  1.
    10030    2    1    2    0    0  0.00000000000E+00  0.00000000000E+00 -0.45219201341E+03  0.23269212853E+04  0.22825610727E+04 0.  0.
        1    1    3    3  502    0  0.13544614846E+03  0.69873818885E+03  0.68339749509E+03  0.98671822320E+03  0.50400001928E-02 0. -1.
       -1    1    3    3    0  502 -0.13544614846E+03 -0.69873818885E+03 -0.11355895085E+04  0.13402030620E+04  0.50400001928E-02 0.  1.
</event>
<event>
 5   0  0.2043885E-05  0.2283876E+04  0.7818609E-02  0.8484306E-01
        1   -1    0    0  501    0  0.00000000000E+00  0.00000000000E+00  0.11324613314E+04  0.11324613314E+04  0.50400001928E-02 0.  1.
       -1   -1    0    0    0  501  0.00000000000E+00  0.00000000000E+00 -0.11514936548E+04  0.11514936548E+04  0.50400001928E-02 0. -1.
    10030    2    1    2    0    0  0.00000000000E+00  0.00000000000E+00 -0.19032323392E+02  0.22839549863E+04  0.22838756862E+04 0.  0.
        5    1    3    3  502    0  0.92125700415E+03 -0.24123591754E+03  0.62065705869E+03  0.11367262248E+04  0.46999998093E+01 0.  1.
       -5    1    3    3    0  502 -0.92125700415E+03  0.24123591754E+03 -0.63968938208E+03  0.11472287615E+04  0.46999998093E+01 0. -1.
</event>
<event>
 5   0  0.2031860E-05  0.2349133E+04  0.7818609E-02  0.8458797E-01
       -1   -1    0    0    0  501  0.00000000000E+00  0.00000000000E+00  0.15686454309E+04  0.15686454310E+04  0.50400001928E-02 0. -1.
        1   -1    0    0  501    0  0.00000000000E+00  0.00000000000E+00 -0.87948936177E+03  0.87948936179E+03  0.50400001928E-02 0.  1.
    10030    2    1    2    0    0  0.00000000000E+00  0.00000000000E+00  0.68915606917E+03  0.24481347927E+04  0.23491334308E+04 0.  0.
        4    1    3    3  502    0 -0.65927864401E+03  0.91334300198E+02 -0.66399699489E+03  0.94015100221E+03  0.12699999809E+01 0.  1.
       -4    1    3    3    0  502  0.65927864401E+03 -0.91334300198E+02  0.13531530641E+04  0.15079837905E+04  0.12699999809E+01 0. -1.
</event>
<event>
 5   0  0.2085063E-05  0.2303330E+04  0.7818609E-02  0.8476609E-01
        1   -1    0    0  501    0  0.00000000000E+00  0.00000000000E+00  0.91511991054E+03  0.91511991056E+03  0.50400001928E-02 0.  1.
       -1   -1    0    0    0  501  0.00000000000E+00  0.00000000000E+00 -0.14493532773E+04  0.14493532773E+04  0.50400001928E-02 0. -1.
    10030    2    1    2    0    0  0.00000000000E+00  0.00000000000E+00 -0.53423336677E+03  0.23644731879E+04  0.23033297997E+04 0.  0.
        1    1    3    3  502    0  0.26829078610E+03  0.52413939325E+03 -0.12831531692E+04  0.14118017230E+04  0.50400001928E-02 0. -1.
       -1    1    3    3    0  502 -0.26829078610E+03 -0.52413939325E+03  0.74891980243E+03  0.95267146486E+03  0.50400001928E-02 0.  1.
</event>
<event>
 5   0  0.2085063E-05  0.2336723E+04  0.7818609E-02  0.8463581E-01
       -1   -1    0    0    0  501  0.00000000000E+00  0.00000000000E+00  0.12782415808E+04  0.12782415809E+04  0.50400001928E-02 0.  1.
        1   -1    0    0  501    0  0.00000000000E+00  0.00000000000E+00 -0.10679272800E+04  0.10679272800E+04  0.50400001928E-02 0. -1.
    10030    2    1    2    0    0  0.00000000000E+00  0.00000000000E+00  0.21031430087E+03  0.23461688608E+04  0.23367233937E+04 0.  0.
        1    1    3    3  502    0  0.99860258907E+03 -0.60090150122E+03  0.22487768305E+02  0.11656738158E+04  0.50400001928E-02 0. -1.
       -1    1    3    3    0  502 -0.99860258907E+03  0.60090150122E+03  0.18782653256E+03  0.11804950451E+04  0.50400001928E-02 0.  1.
</event>
<event>
 5   0  0.2085063E-05  0.2293250E+04  0.7818609E-02  0.8480587E-01
       -1   -1    0    0    0  501  0.00000000000E+00  0.00000000000E+00  0.12158571836E+04  0.12158571836E+04  0.50400001928E-02 0. -1.
        1   -1    0    0  501    0  0.00000000000E+00  0.00000000000E+00 -0.10813350998E+04  0.10813350998E+04  0.50400001928E-02 0.  1.
    10030    2    1    2    0    0  0.00000000000E+00  0.00000000000E+00  0.13452208378E+03  0.22971922834E+04  0.22932501381E+04 0.  0.
        1    1    3    3  502    0 -0.47377620784E+03 -0.72592789791E+03  0.81909360453E+03  0.11926229669E+04  0.50400001928E-02 0. -1.
       -1    1    3    3    0  502  0.47377620784E+03  0.72592789791E+03 -0.68457152075E+03  0.11045693166E+04  0.50400001928E-02 0.  1.
</event>
<event>
 5   0  0.2042951E-05  0.2297890E+04  0.7818609E-02  0.8478753E-01
        1   -1    0    0  501    0  0.00000000000E+00  0.00000000000E+00  0.79298374988E+03  0.79298374989E+03  0.50400001928E-02 0. -1.
       -1   -1    0    0    0  501  0.00000000000E+00  0.00000000000E+00 -0.16646933359E+04  0.16646933359E+04  0.50400001928E-02 0.  1.
    10030    2    1    2    0    0  0.00000000000E+00  0.00000000000E+00 -0.87170958600E+03  0.24576770858E+04  0.22978901313E+04 0.  0.
        2    1    3    3  502    0  0.40178400155E+03  0.92980811029E+03 -0.10158761719E+04  0.14345654055E+04  0.25500000920E-02 0.  1.
       -2    1    3    3    0  502 -0.40178400155E+03 -0.92980811029E+03  0.14416658595E+03  0.10231116803E+04  0.25500000920E-02 0. -1.
</event>
<event>
 5   0  0.2043885E-05  0.2289181E+04  0.7818609E-02  0.8482199E-01
       -1   -1    0    0    0  501  0.00000000000E+00  0.00000000000E+00  0.57060606430E+03  0.57060606432E+03  0.50400001928E-02 0. -1.
        1   -1    0    0  501    0  0.00000000000E+00  0.00000000000E+00 -0.22959585578E+04  0.22959585578E+04  0.50400001928E-02 0.  1.
    10030    2    1    2    0    0  0.00000000000E+00  0.00000000000E+00 -0.17253524935E+04  0.28665646222E+04  0.22891814052E+04 0.  0.
        5    1    3    3  502    0 -0.10807345573E+04 -0.36938223932E+03 -0.76867306926E+03  0.13767028726E+04  0.46999998093E+01 0.  1.
       -5    1    3    3    0  502  0.10807345573E+04  0.36938223932E+03 -0.95667942427E+03  0.14898617496E+04  0.46999998093E+01 0. -1.
</event>
<event>
 5   0  0.4602447E-05  0.2221852E+04  0.7818609E-02  0.8509388E-01
       -2   -1    0    0    0  501  0.00000000000E+00  0.00000000000E+00  0.75759733566E+03  0.75759733567E+03  0.25500000920E-02 0.  1.
        2   -1    0    0  501    0  0.00000000000E+00  0.00000000000E+00 -0.16290401903E+04  0.16290401903E+04  0.25500000920E-02 0. -1.
    10030    2    1    2    0    0  0.00000000000E+00  0.00000000000E+00 -0.87144285462E+03  0.23866375260E+04  0.22218519373E+04 0.  0.
        3    1    3    3  502    0 -0.39858615230E+03 -0.49933517324E+03 -0.14119425921E+04  0.15497704442E+04  0.10100000352E+00 0. -1.
       -3    1    3    3    0  502  0.39858615230E+03  0.49933517324E+03  0.54049973752E+03  0.83686708174E+03  0.10100000352E+00 0.  1.
</event>
<event>
 5   0  0.1968318E-05  0.2265359E+04  0.7818609E-02  0.8491706E-01
       -1   -1    0    0    0  501  0.00000000000E+00  0.00000000000E+00  0.12827237947E+04  0.12827237947E+04  0.50400001928E-02 0. -1.
        1   -1    0    0  501    0  0.00000000000E+00  0.00000000000E+00 -0.10001859521E+04  0.10001859522E+04  0.50400001928E-02 0.  1.
    10030    2    1    2    0    0  0.00000000000E+00  0.00000000000E+00  0.28253784256E+03  0.22829097469E+04  0.22653585323E+04 0.  0.
        3    1    3    3  502    0  0.40400856195E+02  0.69611937331E+02  0.12798383739E+04  0.12823666888E+04  0.10100000352E+00 0. -1.
       -3    1    3    3    0  502 -0.40400856195E+02 -0.69611937331E+02 -0.99730053135E+03  0.10005430581E+04  0.10100000352E+00 0.  1.
</event>
<event>
 5   0  0.2042951E-05  0.2270762E+04  0.7818609E-02  0.8489539E-01
        1   -1    0    0  501    0  0.00000000000E+00  0.00000000000E+00  0.12693179869E+04  0.12693179869E+04  0.50400001928E-02 0.  1.
       -1   -1    0    0    0  501  0.00000000000E+00  0.00000000000E+00 -0.10155767682E+04  0.10155767682E+04  0.50400001928E-02 0. -1.
    10030    2    1    2    0    0  0.00000000000E+00  0.00000000000E+00  0.25374121869E+03  0.22848947552E+04  0.22707618625E+04 0.  0.
        2    1    3    3  502    0 -0.81005275966E+03  0.49283637814E+03 -0.50152943243E+03  0.10726625474E+04  0.25500000920E-02 0. -1.
       -2    1    3    3    0  502  0.81005275966E+03 -0.49283637814E+03  0.75527065112E+03  0.12122322077E+04  0.25500000920E-02 0.  1.
</event>
<event>
 5   0  0.4436695E-05  0.2294506E+04  0.7818609E-02  0.8480091E-01
        2   -1    0    0  501    0  0.00000000000E+00  0.00000000000E+00  0.49823539990E+03  0.49823539991E+03  0.25500000920E-02 0.  1.
       -2   -1    0    0    0  501  0.00000000000E+00  0.00000000000E+00 -0.26417016605E+04  0.26417016605E+04  0.25500000920E-02 0. -1.
    10030    2    1    2    0    0  0.00000000000E+00  0.00000000000E+00 -0.21434662606E+04  0.31399370604E+04  0.22945058581E+04 0.  0.
        5    1    3    3  502    0 -0.84812336587E+03 -0.15914513411E+03 -0.37186518224E+02  0.86373916466E+03  0.46999998093E+01 0.  1.
       -5    1    3    3    0  502  0.84812336587E+03  0.15914513411E+03 -0.21062797423E+04  0.22761978957E+04  0.46999998093E+01 0. -1.
</event>
<event>
 5   0  0.4602447E-05  0.2298436E+04  0.7818609E-02  0.8478538E-01
       -2   -1    0    0    0  501  0.00000000000E+00  0.00000000000E+00  0.95239110407E+03  0.95239110408E+03  0.25500000920E-02 0. -1.
        2   -1    0    0  501    0  0.00000000000E+00  0.00000000000E+00 -0.13867218302E+04  0.13867218302E+04  0.25500000920E-02 0.  1.
    10030    2    1    2    0    0  0.00000000000E+00  0.00000000000E+00 -0.43433072608E+03  0.23391129342E+04  0.22984355852E+04 0.  0.
        3    1    3    3  502    0  0.42374259509E+03  0.10624070961E+04 -0.10367996123E+03  0.11484842922E+04  0.10100000352E+00 0.  1.
       -3    1    3    3    0  502 -0.42374259509E+03 -0.10624070961E+04 -0.33065076486E+03  0.11906286421E+04  0.10100000352E+00 0. -1.
</event>
<event>
 5   0  0.2085063E-05  0.2358722E+04  0.7818609E-02  0.8455121E-01
        1   -1    0    0  501    0  0.00000000000E+00  0.00000000000E+00  0.26590968724E+04  0.26590968724E+04  0.50400001928E-02 0. -1.
       -1   -1    0    0    0  501  0.00000000000E+00  0.00000000000E+00 -0.52306941223E+03  0.52306941225E+03  0.50400001928E-02 0.  1.
    10030    2    1    2    0    0  0.00000000000E+00  0.00000000000E+00  0.21360274602E+04  0.31821662847E+04  0.23587218896E+04 0.  0.
        1    1    3    3  502    0 -0.57675755220E+03 -0.68772477028E+03  0.35901116379E+02  0.89827808827E+03  0.50400001928E-02 0.  1.
       -1    1    3    3    0  502  0.57675755220E+03  0.68772477028E+03  0.21001263438E+04  0.22838881964E+04  0.50400001928E-02 0. -1.
</event>
<event>
 5   0  0.4505107E-05  0.2301370E+04  0.7818609E-02  0.8477381E-01
        2   -1    0    0  501    0  0.00000000000E+00  0.00000000000E+00  0.16734074368E+04  0.16734074368E+04  0.25500000920E-02 0.  1.
       -2   -1    0    0    0  501  0.00000000000E+00  0.00000000000E+00 -0.79124513973E+03  0.79124513974E+03  0.25500000920E-02 0. -1.
    10030    2    1    2    0    0  0.00000000000E+00  0.00000000000E+00  0.88216229706E+03  0.24646525765E+04  0.23013695932E+04 0.  0.
        4    1    3    3  502    0  0.10853837372E+04 -0.16161148494E+03  0.70251139988E+02  0.10995967282E+04  0.12699999809E+01 0. -1.
       -4    1    3    3    0  502 -0.10853837372E+04  0.16161148494E+03  0.81191115707E+03  0.13650558483E+04  0.12699999809E+01 0.  1.
</event>
<event>
 5   0  0.4605516E-05  0.2306281E+04  0.7818609E-02  0.8475449E-01
        2   -1    0    0  501    0  0.00000000000E+00  0.00000000000E+00  0.14577457260E+04  0.14577457260E+04  0.25500000920E-02 0. -1.
       -2   -1    0    0    0  501  0.00000000000E+00  0.00000000000E+00 -0.91218475172E+03  0.91218475173E+03  0.25500000920E-02 0.  1.
    10030    2    1    2    0    0  0.00000000000E+00  0.00000000000E+00  0.54556097424E+03  0.23699304777E+04  0.23062813559E+04 0.  0.
        1    1    3    3  502    0 -0.56724275784E+03 -0.45962640324E+03  0.11900018755E+04  0.13961107551E+04  0.50400001928E-02 0. -1.
       -1    1    3    3    0  502  0.56724275784E+03  0.45962640324E+03 -0.64444090124E+03  0.97381972258E+03  0.50400001928E-02 0.  1.
</event>
<event>
 5   0  0.4602447E-05  0.2132450E+04  0.7818609E-02  0.8547082E-01
       -2   -1    0    0    0  501  0.00000000000E+00  0.00000000000E+00  0.11843412148E+04  0.11843412149E+04  0.25500000920E-02 0. -1.
        2   -1    0    0  501    0  0.00000000000E+00  0.00000000000E+00 -0.95988842063E+03  0.95988842064E+03  0.25500000920E-02 0.  1.
    10030    2    1    2    0    0  0.00000000000E+00  0.00000000000E+00  0.22445279421E+03  0.21442296355E+04  0.21324496882E+04 0.  0.
        3    1    3    3  502    0 -0.96668439215E+03 -0.19368229563E+03  0.52047893338E+03  0.11148497100E+04  0.10100000352E+00 0. -1.
       -3    1    3    3    0  502  0.96668439215E+03  0.19368229563E+03 -0.29602613917E+03  0.10293799255E+04  0.10100000352E+00 0.  1.
</event>
<event>
 5   0  0.2043885E-05  0.2307813E+04  0.7818609E-02  0.8474847E-01
        1   -1    0    0  501    0  0.00000000000E+00  0.00000000000E+00  0.17898542349E+04  0.17898542350E+04  0.50400001928E-02 0. -1.
       -1   -1    0    0    0  501  0.00000000000E+00  0.00000000000E+00 -0.74391547032E+03  0.74391547033E+03  0.50400001928E-02 0.  1.
    10030    2    1    2    0    0  0.00000000000E+00  0.00000000000E+00  0.10459387646E+04  0.25337697053E+04  0.23078130384E+04 0.  0.
        5    1    3    3  502    0 -0.66506582689E+03  0.77749292270E+03 -0.62814808229E+02  0.10250734555E+04  0.46999998093E+01 0.  1.
       -5    1    3    3    0  502  0.66506582689E+03 -0.77749292270E+03  0.11087535729E+04  0.15086962498E+04  0.46999998093E+01 0. -1.
</event>
<event>
 5   0  0.2042951E-05  0.2267314E+04  0.7818609E-02  0.8490921E-01
       -1   -1    0    0    0  501  0.00000000000E+00  0.00000000000E+00  0.77075651435E+03  0.77075651437E+03  0.50400001928E-02 0. -1.
        1   -1    0    0  501    0  0.00000000000E+00  0.00000000000E+00 -0.16674244520E+04  0.16674244520E+04  0.50400001928E-02 0.  1.
    10030    2    1    2    0    0  0.00000000000E+00  0.00000000000E+00 -0.89666793761E+03  0.24381809663E+04  0.22673140573E+04 0.  0.
        2    1    3    3  502    0  0.68102113510E+01  0.18180714416E+03 -0.16516229939E+04  0.16616132915E+04  0.25500000920E-02 0.  1.
       -2    1    3    3    0  502 -0.68102113510E+01 -0.18180714416E+03  0.75495505625E+03  0.77656767484E+03  0.25500000920E-02 0. -1.
</event>
<event>
 5   0  0.1968318E-05  0.1900034E+04  0.7818609E-02  0.8654840E-01
       -1   -1    0    0    0  501  0.00000000000E+00  0.00000000000E+00  0.45113604524E+03  0.45113604527E+03  0.50400001928E-02 0.  1.
        1   -1    0    0  501    0  0.00000000000E+00  0.00000000000E+00 -0.20005761975E+04  0.20005761975E+04  0.50400001928E-02 0. -1.
    10030    2    1    2    0    0  0.00000000000E+00  0.00000000000E+00 -0.15494401523E+04  0.24517122428E+04  0.19000337197E+04 0.  0.
        3    1    3    3  502    0 -0.10364539665E+03  0.78061558255E+02 -0.19890887092E+04  0.19933163016E+04  0.10100000352E+00 0. -1.
       -3    1    3    3    0  502  0.10364539665E+03 -0.78061558255E+02  0.43964855689E+03  0.45839594119E+03  0.10100000352E+00 0.  1.
</event>
<event>
 5   0  0.4798609E-05  0.2295101E+04  0.7818609E-02  0.8479855E-01
       -2   -1    0    0    0  501  0.00000000000E+00  0.00000000000E+00  0.47160581724E+03  0.47160581725E+03  0.25500000920E-02 0.  1.
        2   -1    0    0  501    0  0.00000000000E+00  0.00000000000E+00 -0.27923148677E+04  0.27923148677E+04  0.25500000920E-02 0. -1.
    10030    2    1    2    0    0  0.00000000000E+00  0.00000000000E+00 -0.23207090505E+04  0.32639206850E+04  0.22951008128E+04 0.  0.
        2    1    3    3  502    0 -0.93002463937E+03  0.63014230506E+03 -0.14934075641E+04  0.18687673229E+04  0.25500000920E-02 0. -1.
       -2    1    3    3    0  502  0.93002463937E+03 -0.63014230506E+03 -0.82730148636E+03  0.13951533621E+04  0.25500000920E-02 0.  1.
</event>
<event>
 5   0  0.4505107E-05  0.2290731E+04  0.7818609E-02  0.8481585E-01
       -2   -1    0    0    0  501  0.00000000000E+00  0.00000000000E+00  0.73278259539E+03  0.73278259539E+03  0.25500000920E-02 0. -1.
        2   -1    0    0  501    0  0.00000000000E+00  0.00000000000E+00 -0.17902472350E+04  0.17902472350E+04  0.25500000920E-02 0.  1.
    10030    2    1    2    0    0  0.00000000000E+00  0.00000000000E+00 -0.10574646396E+04  0.25230298304E+04  0.22907309011E+04 0.  0.
        4    1    3    3  502    0 -0.64288158545E+03  0.79613084873E+03 -0.10954379833E+04  0.14990353729E+04  0.12699999809E+01 0.  1.
       -4    1    3    3    0  502  0.64288158545E+03 -0.79613084873E+03  0.37973343644E+02  0.10239944575E+04  0.12699999809E+01 0. -1.
</event>
<event>
 5   0  0.2042951E-05  0.2285108E+04  0.7818609E-02  0.8483816E-01
        1   -1    0    0  501    0  0.00000000000E+00  0.00000000000E+00  0.14123150312E+04  0.14123150312E+04  0.50400001928E-02 0. -1.
       -1   -1    0    0    0  501  0.00000000000E+00  0.00000000000E+00 -0.92431897688E+03  0.92431897690E+03  0.50400001928E-02 0.  1.
    10030    2    1    2    0    0  0.00000000000E+00  0.00000000000E+00  0.48799605432E+03  0.23366340081E+04  0.22851079491E+04 0.  0.
        2    1    3    3  502    0 -0.56109041320E+02 -0.10658898032E+04 -0.17282105213E+03  0.10812661157E+04  0.25500000920E-02 0.  1.
       -2    1    3    3    0  502  0.56109041320E+02  0.10658898032E+04  0.66081710645E+03  0.12553678924E+04  0.25500000920E-02 0. -1.
</event>
<event>
 5   0  0.2043885E-05  0.2274605E+04  0.7818609E-02  0.8488002E-01
        1   -1    0    0  501    0  0.00000000000E+00  0.00000000000E+00  0.21353709854E+04  0.21353709854E+04  0.50400001928E-02 0.  1.
       -1   -1    0    0    0  501  0.00000000000E+00  0.00000000000E+00 -0.60572929699E+03  0.60572929701E+03  0.50400001928E-02 0. -1.
    10030    2    1    2    0    0  0.00000000000E+00  0.00000000000E+00  0.15296416884E+04  0.27411002824E+04  0.22746048147E+04 0.  0.
        5    1    3    3  502    0 -0.23923912196E+03  0.64990311639E+03 -0.32231684552E+03  0.76388458361E+03  0.46999998093E+01 0. -1.
       -5    1    3    3    0  502  0.23923912196E+03 -0.64990311639E+03  0.18519585339E+04  0.19772156988E+04  0.46999998093E+01 0.  1.
</event>
<event>
 5   0  0.2042951E-05  0.2310011E+04  0.7818609E-02  0.8473984E-01
       -1   -1    0    0    0  501  0.00000000000E+00  0.00000000000E+00  0.11383440330E+04  0.11383440330E+04  0.50400001928E-02 0.  1.
        1   -1    0    0  501    0  0.00000000000E+00  0.00000000000E+00 -0.11719104725E+04  0.11719104725E+04  0.50400001928E-02 0. -1.
    10030    2    1    2    0    0  0.00000000000E+00  0.00000000000E+00 -0.33566439498E+02  0.23102545055E+04  0.23100106437E+04 0.  0.
        2    1    3    3  502    0  0.83429678018E+03  0.60942832631E+02 -0.81327934102E+03  0.11666998041E+04  0.25500000920E-02 0.  1.
       -2    1    3    3    0  502 -0.83429678018E+03 -0.60942832631E+02  0.77971290152E+03  0.11435547014E+04  0.25500000920E-02 0. -1.
</event>
<event>
 5   0  0.4798609E-05  0.2282565E+04  0.7818609E-02  0.8484827E-01
        2   -1    0    0  501    0  0.00000000000E+00  0.00000000000E+00  0.29320009847E+04  0.29320009847E+04  0.25500000920E-02 0.  1.
       -2   -1    0    0    0  501  0.00000000000E+00  0.00000000000E+00 -0.44424454190E+03  0.44424454191E+03  0.25500000920E-02 0. -1.
    10030    2    1    2    0    0  0.00000000000E+00  0.00000000000E+00  0.24877564428E+04  0.33762455266E+04  0.22825647279E+04 0.  0.
        2    1    3    3  502    0  0.84925032535E+02  0.10108562676E+04  0.47035044675E+03  0.11181557127E+04  0.25500000920E-02 0. -1.
       -2    1    3    3    0  502 -0.84925032535E+02 -0.10108562676E+04  0.20174059960E+04  0.22580898139E+04  0.25500000920E-02 0.  1.
</event>
<event>
 5   0  0.4602447E-05  0.2297164E+04  0.7818609E-02  0.8479040E-01
       -2   -1    0    0    0  501  0.00000000000E+00  0.00000000000E+00  0.18517843919E+04  0.18517843919E+04  0.25500000920E-02 0.  1.
        2   -1    0    0  501    0  0.00000000000E+00  0.00000000000E+00 -0.71241581519E+03  0.71241581520E+03  0.25500000920E-02 0. -1.
    10030    2    1    2    0    0  0.00000000000E+00  0.00000000000E+00  0.11393685767E+04  0.25642002070E+04  0.22971638924E+04 0.  0.
        3    1    3    3  502    0 -0.69774158002E+03 -0.27914428972E+03 -0.39989327665E+03  0.85128108747E+03  0.10100000352E+00 0. -1.
       -3    1    3    3    0  502  0.69774158002E+03  0.27914428972E+03  0.15392618533E+04  0.17129191196E+04  0.10100000352E+00 0.  1.
</event>
<event>
 5   0  0.4798609E-05  0.2352414E+04  0.7818609E-02  0.8457537E-01
       -2   -1    0    0    0  501  0.00000000000E+00  0.00000000000E+00  0.64408583400E+03  0.64408583400E+03  0.25500000920E-02 0.  1.
        2   -1    0    0  501    0  0.00000000000E+00  0.00000000000E+00 -0.21479479127E+04  0.21479479127E+04  0.25500000920E-02 0. -1.
    10030    2    1    2    0    0  0.00000000000E+00  0.00000000000E+00 -0.15038620787E+04  0.27920337467E+04  0.23524139285E+04 0.  0.
        2    1    3    3  502    0  0.93211876780E+03  0.49337247250E+01 -0.16033413270E+04  0.18546086244E+04  0.25500000920E-02 0. -1.
       -2    1    3    3    0  502 -0.93211876780E+03 -0.49337247250E+01  0.99479248341E+02  0.93742512223E+03  0.25500000920E-02 0.  1.
</event>
<event>
 5   0  0.1968318E-05  0.2268552E+04  0.7818609E-02  0.8490425E-01
        1   -1    0    0  501    0  0.00000000000E+00  0.00000000000E+00  0.23469434687E+04  0.23469434687E+04  0.50400001928E-02 0.  1.
       -1   -1    0    0    0  501  0.00000000000E+00  0.00000000000E+00 -0.54819496424E+03  0.54819496426E+03  0.50400001928E-02 0. -1.
    10030    2    1    2    0    0  0.00000000000E+00  0.00000000000E+00  0.17987485045E+04  0.28951384330E+04  0.22685524821E+04 0.  0.
        3    1    3    3  502    0  0.95133820895E+03  0.40099293248E+03  0.14989773077E+04  0.18201023869E+04  0.10100000352E+00 0.  1.
       -3    1    3    3    0  502 -0.95133820895E+03 -0.40099293248E+03  0.29977119678E+03  0.10750360461E+04  0.10100000352E+00 0. -1.
</event>
<event>
 5   0  0.2043885E-05  0.2096702E+04  0.7818609E-02  0.8562697E-01
       -1   -1    0    0    0  501  0.00000000000E+00  0.00000000000E+00  0.13597414986E+04  0.13597414986E+04  0.50400001928E-02 0.  1.
        1   -1    0    0  501    0  0.00000000000E+00  0.00000000000E+00 -0.80827126930E+03  0.80827126931E+03  0.50400001928E-02 0. -1.
    10030    2    1    2    0    0  0.00000000000E+00  0.00000000000E+00  0.55147022934E+03  0.21680127680E+04  0.20967021601E+04 0.  0.
        5    1    3    3  502    0 -0.52217721606E+03  0.69644823501E+03 -0.32835089436E+03  0.93034702603E+03  0.46999998093E+01 0. -1.
       -5    1    3    3    0  502  0.52217721606E+03 -0.69644823501E+03  0.87982112370E+03  0.12376657419E+04  0.46999998093E+01 0.  1.
</event>
<event>
 5   0  0.4436695E-05  0.2293472E+04  0.7818609E-02  0.8480500E-01
       -2   -1    0    0    0  501  0.00000000000E+00  0.00000000000E+00  0.48413691514E+03  0.48413691515E+03  0.25500000920E-02 0. -1.
        2   -1    0    0  501    0  0.00000000000E+00  0.00000000000E+00 -0.27161797698E+04  0.27161797698E+04  0.25500000920E-02 0.  1.
    10030    2    1    2    0    0  0.00000000000E+00  0.00000000000E+00 -0.22320428547E+04  0.32003166849E+04  0.22934715126E+04 0.  0.
        5    1    3    3  502    0  0.68090977864E+03 -0.35838609880E+02 -0.24025633859E+04  0.24974497884E+04  0.46999998093E+01 0.  1.
       -5    1    3    3    0  502 -0.68090977864E+03  0.35838609880E+02  0.17052053124E+03  0.70286689649E+03  0.46999998093E+01 0. -1.
</event>
<event>
 5   0  0.2043885E-05  0.2310023E+04  0.7818609E-02  0.8473979E-01
        1   -1    0    0  501    0  0.00000000000E+00  0.00000000000E+00  0.12724830375E+04  0.12724830375E+04  0.50400001928E-02 0.  1.
       -1   -1    0    0    0  501  0.00000000000E+00  0.00000000000E+00 -0.10483849542E+04  0.10483849543E+04  0.50400001928E-02 0. -1.
    10030    2    1    2    0    0  0.00000000000E+00  0.00000000000E+00  0.22409808324E+03  0.23208679918E+04  0.23100234380E+04 0.  0.
        5    1    3    3  502    0  0.94444157811E+03  0.10599541269E+03 -0.54740499466E+03  0.10967585150E+04  0.46999998093E+01 0. -1.
       -5    1    3    3    0  502 -0.94444157811E+03 -0.10599541269E+03  0.77150307790E+03  0.12241094768E+04  0.46999998093E+01 0.  1.
</event>
<event>
 5   0  0.2042951E-05  0.2302165E+04  0.7818609E-02  0.8477068E-01
        1   -1    0    0  501    0  0.00000000000E+00  0.00000000000E+00  0.17765579532E+04  0.17765579532E+04  0.50400001928E-02 0.  1.
       -1   -1    0    0    0  501  0.00000000000E+00  0.00000000000E+00 -0.74581891255E+03  0.74581891256E+03  0.50400001928E-02 0. -1.
    10030    2    1    2    0    0  0.00000000000E+00  0.00000000000E+00  0.10307390407E+04  0.25223768658E+04  0.23021646516E+04 0.  0.
        2    1    3    3  502    0 -0.22945057519E+03  0.75039248371E+03 -0.40736020841E+03  0.88412600090E+03  0.25500000920E-02 0. -1.
       -2    1    3    3    0  502  0.22945057519E+03 -0.75039248371E+03  0.14380992491E+04  0.16382508649E+04  0.25500000920E-02 0.  1.
</event>
<event>
 5   0  0.4436695E-05  0.2289044E+04  0.7818609E-02  0.8482254E-01
       -2   -1    0    0    0  501  0.00000000000E+00  0.00000000000E+00  0.77742671386E+03  0.77742671387E+03  0.25500000920E-02 0. -1.
        2   -1    0    0  501    0  0.00000000000E+00  0.00000000000E+00 -0.16849567829E+04  0.16849567829E+04  0.25500000920E-02 0.  1.
    10030    2    1    2    0    0  0.00000000000E+00  0.00000000000E+00 -0.90753006903E+03  0.24623834968E+04  0.22890438307E+04 0.  0.
        5    1    3    3  502    0 -0.37261412848E+03  0.54264178581E+03 -0.14609379365E+04  0.16023929420E+04  0.46999998093E+01 0.  1.
       -5    1    3    3    0  502  0.37261412848E+03 -0.54264178581E+03  0.55340786745E+03  0.85999055472E+03  0.46999998093E+01 0. -1.
</event>
<event>
 5   0  0.2085063E-05  0.2295118E+04  0.7818609E-02  0.8479848E-01
        1   -1    0    0  501    0  0.00000000000E+00  0.00000000000E+00  0.13447192688E+04  0.13447192688E+04  0.50400001928E-02 0.  1.
       -1   -1    0    0    0  501  0.00000000000E+00  0.00000000000E+00 -0.97930636491E+03  0.97930636493E+03  0.50400001928E-02 0. -1.
    10030    2    1    2    0    0  0.00000000000E+00  0.00000000000E+00  0.36541290392E+03  0.23240256338E+04  0.22951184187E+04 0.  0.
        1    1    3    3  502    0  0.98971867360E+03  0.39831811534E+03 -0.24533722404E+03  0.10947103395E+04  0.50400001928E-02 0. -1.
       -1    1    3    3    0  502 -0.98971867360E+03 -0.39831811534E+03  0.61075012796E+03  0.12293152943E+04  0.50400001928E-02 0.  1.
</event>
<event>
 5   0  0.4602447E-05  0.2304391E+04  0.7818609E-02  0.8476192E-01
       -2   -1    0    0    0  501  0.00000000000E+00  0.00000000000E+00  0.15409162488E+04  0.15409162488E+04  0.25500000920E-02 0.  1.
        2   -1    0    0  501    0  0.00000000000E+00  0.00000000000E+00 -0.86153552275E+03  0.86153552275E+03  0.25500000920E-02 0. -1.
    10030    2    1    2    0    0  0.00000000000E+00  0.00000000000E+00  0.67938072605E+03  0.24024517715E+04  0.23043906665E+04 0.  0.
        3    1    3    3  502    0 -0.23411931953E+03  0.92655288395E+03 -0.33131442862E+03  0.10114748456E+04  0.10100000352E+00 0. -1.
       -3    1    3    3    0  502  0.23411931953E+03 -0.92655288395E+03  0.10106951547E+04  0.13909769259E+04  0.10100000352E+00 0.  1.
</event>
<event>
 5   0  0.4605516E-05  0.2313787E+04  0.7818609E-02  0.8472505E-01
        2   -1    0    0  501    0  0.00000000000E+00  0.00000000000E+00  0.95530431312E+03  0.95530431312E+03  0.25500000920E-02 0.  1.
       -2   -1    0    0    0  501  0.00000000000E+00  0.00000000000E+00 -0.14010216836E+04  0.14010216836E+04  0.25500000920E-02 0. -1.
    10030    2    1    2    0    0  0.00000000000E+00  0.00000000000E+00 -0.44571737049E+03  0.23563259967E+04  0.23137865564E+04 0.  0.
        1    1    3    3  502    0  0.68235464595E+03 -0.76397901738E+03 -0.77045289989E+03  0.12817446988E+04  0.50400001928E-02 0. -1.
       -1    1    3    3    0  502 -0.68235464595E+03  0.76397901738E+03  0.32473552940E+03  0.10745812980E+04  0.50400001928E-02 0.  1.
</event>
<event>
 5   0  0.4602447E-05  0.2312316E+04  0.7818609E-02  0.8473081E-01
       -2   -1    0    0    0  501  0.00000000000E+00  0.00000000000E+00  0.67703213113E+03  0.67703213113E+03  0.25500000920E-02 0. -1.
        2   -1    0    0  501    0  0.00000000000E+00  0.00000000000E+00 -0.19743544714E+04  0.19743544714E+04  0.25500000920E-02 0.  1.
    10030    2    1    2    0    0  0.00000000000E+00  0.00000000000E+00 -0.12973223403E+04  0.26513866026E+04  0.23123160817E+04 0.  0.
        3    1    3    3  502    0 -0.93973117935E+03  0.11311443739E+02 -0.14208159006E+04  0.17035082835E+04  0.10100000352E+00 0.  1.
       -3    1    3    3    0  502  0.93973117935E+03 -0.11311443739E+02  0.12349356030E+03  0.94787831911E+03  0.10100000352E+00 0. -1.
</event>
<event>
 5   0  0.2042951E-05  0.2287660E+04  0.7818609E-02  0.8482802E-01
       -1   -1    0    0    0  501  0.00000000000E+00  0.00000000000E+00  0.63568236838E+03  0.63568236840E+03  0.50400001928E-02 0.  1.
        1   -1    0    0  501    0  0.00000000000E+00  0.00000000000E+00 -0.20581779256E+04  0.20581779256E+04  0.50400001928E-02 0. -1.
    10030    2    1    2    0    0  0.00000000000E+00  0.00000000000E+00 -0.14224955572E+04  0.26938602940E+04  0.22876603055E+04 0.  0.
        2    1    3    3  502    0 -0.44344020030E+03 -0.99197010933E+03 -0.29043884764E+03  0.11247215803E+04  0.25500000920E-02 0.  1.
       -2    1    3    3    0  502  0.44344020030E+03  0.99197010933E+03 -0.11320567096E+04  0.15691387137E+04  0.25500000920E-02 0. -1.
</event>
<event>
 5   0  0.4505107E-05  0.2314855E+04  0.7818609E-02  0.8472087E-01
        2   -1    0    0  501    0  0.00000000000E+00  0.00000000000E+00  0.15990918529E+04  0.15990918529E+04  0.25500000920E-02 0.  1.
       -2   -1    0    0    0  501  0.00000000000E+00  0.00000000000E+00 -0.83774926418E+03  0.83774926418E+03  0.25500000920E-02 0. -1.
    10030    2    1    2    0    0  0.00000000000E+00  0.00000000000E+00  0.76134258869E+03  0.24368411171E+04  0.23148546590E+04 0.  0.
        4    1    3    3  502    0  0.14729716771E+03 -0.47613656745E+02  0.15881443520E+04  0.15956715238E+04  0.12699999809E+01 0.  1.
       -4    1    3    3    0  502 -0.14729716771E+03  0.47613656745E+02 -0.82680176334E+03  0.84116959330E+03  0.12699999809E+01 0. -1.
</event>
<event>
 5   0  0.2043885E-05  0.2273012E+04  0.7818609E-02  0.8488639E-01
       -1   -1    0    0    0  501  0.00000000000E+00  0.00000000000E+00  0.19597535190E+04  0.19597535190E+04  0.50400001928E-02 0. -1.
        1   -1    0    0  501    0  0.00000000000E+00  0.00000000000E+00 -0.65908575904E+03  0.65908575906E+03  0.50400001928E-02 0.  1.
    10030    2    1    2    0    0  0.00000000000E+00  0.00000000000E+00  0.13006677600E+04  0.26188392781E+04  0.22730117779E+04 0.  0.
        5    1    3    3  502    0  0.11223791399E+04 -0.17785846282E+03  0.63193634702E+03  0.13002823551E+04  0.46999998093E+01 0.  1.
       -5    1    3    3    0  502 -0.11223791399E+04  0.17785846282E+03  0.66873141296E+03  0.13185569230E+04  0.46999998093E+01 0. -1.
</event>
<event>
 5   0  0.1604500E-05  0.2272535E+04  0.7818609E-02  0.8488829E-01
        4   -1    0    0  501    0  0.00000000000E+00  0.00000000000E+00  0.64981781761E+03  0.64981905865E+03  0.12699999809E+01 0. -1.
       -4   -1    0    0    0  501  0.00000000000E+00  0.00000000000E+00 -0.19868674022E+04  0.19868678081E+04  0.12699999809E+01 0.  1.
    10030    2    1    2    0    0  0.00000000000E+00  0.00000000000E+00 -0.13370495846E+04  0.26366868667E+04  0.22725351574E+04 0.  0.
        5    1    3    3  502    0 -0.18061945465E+02  0.11167698043E+04 -0.91073698240E+03  0.14411679190E+04  0.46999998093E+01 0. -1.
       -5    1    3    3    0  502  0.18061945465E+02 -0.11167698043E+04 -0.42631260215E+03  0.11955189477E+04  0.46999998093E+01 0.  1.
</event>
<event>
 5   0  0.1604500E-05  0.2270519E+04  0.7818609E-02  0.8489636E-01
       -3   -1    0    0    0  501  0.00000000000E+00  0.00000000000E+00  0.15396628230E+04  0.15396628263E+04  0.10100000352E+00 0. -1.
        3   -1    0    0  501    0  0.00000000000E+00  0.00000000000E+00 -0.83707579683E+03  0.83707580292E+03  0.10100000352E+00 0.  1.
    10030    2    1    2    0    0  0.00000000000E+00  0.00000000000E+00  0.70258702618E+03  0.23767386292E+04  0.22705193200E+04 0.  0.
        3    1    3    3  502    0 -0.12510899710E+03 -0.11219713611E+04  0.47665625605E+03  0.12254277592E+04  0.10100000352E+00 0. -1.
       -3    1    3    3    0  502  0.12510899710E+03  0.11219713611E+04  0.22593077013E+03  0.11513108700E+04  0.10100000352E+00 0.  1.
</event>
<event>
 5   0  0.2042951E-05  0.2073034E+04  0.7818609E-02  0.8573216E-01
        1   -1    0    0  501    0  0.00000000000E+00  0.00000000000E+00  0.12440036781E+04  0.12440036781E+04  0.50400001928E-02 0.  1.
       -1   -1    0    0    0  501  0.00000000000E+00  0.00000000000E+00 -0.86363659176E+03  0.86363659178E+03  0.50400001928E-02 0. -1.
    10030    2    1    2    0    0  0.00000000000E+00  0.00000000000E+00  0.38036708630E+03  0.21076402698E+04  0.20730336193E+04 0.  0.
        2    1    3    3  502    0 -0.33144377827E+03  0.78214551358E+03  0.79403501055E+03  0.11627975665E+04  0.25500000920E-02 0.  1.
       -2    1    3    3    0  502  0.33144377827E+03 -0.78214551358E+03 -0.41366792426E+03  0.94484270339E+03  0.25500000920E-02 0. -1.
</event>
<event>
 5   0  0.1968318E-05  0.2233827E+04  0.7818609E-02  0.8504479E-01
        1   -1    0    0  501    0  0.00000000000E+00  0.00000000000E+00  0.19226417803E+04  0.19226417803E+04  0.50400001928E-02 0.  1.
       -1   -1    0    0    0  501  0.00000000000E+00  0.00000000000E+00 -0.64884487416E+03  0.64884487418E+03  0.50400001928E-02 0. -1.
    10030    2    1    2    0    0  0.00000000000E+00  0.00000000000E+00  0.12737969061E+04  0.25714866544E+04  0.22338274454E+04 0.  0.
        3    1    3    3  502    0  0.60894491496E+03  0.80390189255E+03  0.84314086141E+02  0.10120182991E+04  0.10100000352E+00 0. -1.
       -3    1    3    3    0  502 -0.60894491496E+03 -0.80390189255E+03  0.11894828200E+04  0.15594683554E+04  0.10100000352E+00 0.  1.
</event>
<event>
 5   0  0.2043885E-05  0.2221374E+04  0.7818609E-02  0.8509584E-01
        1   -1    0    0  501    0  0.00000000000E+00  0.00000000000E+00  0.10439731565E+04  0.10439731565E+04  0.50400001928E-02 0.  1.
       -1   -1    0    0    0  501  0.00000000000E+00  0.00000000000E+00 -0.11816646402E+04  0.11816646402E+04  0.50400001928E-02 0. -1.
    10030    2    1    2    0    0  0.00000000000E+00  0.00000000000E+00 -0.13769148371E+03  0.22256377968E+04  0.22213744974E+04 0.  0.
        5    1    3    3  502    0  0.26832498003E+03  0.10221401025E+04  0.27362219194E+03  0.10916317502E+04  0.46999998093E+01 0.  1.
       -5    1    3    3    0  502 -0.26832498003E+03 -0.10221401025E+04 -0.41131367565E+03  0.11340060466E+04  0.46999998093E+01 0. -1.
</event>
<event>
 5   0  0.4436695E-05  0.1895116E+04  0.7818609E-02  0.8657291E-01
       -2   -1    0    0    0  501  0.00000000000E+00  0.00000000000E+00  0.13815839466E+04  0.13815839466E+04  0.25500000920E-02 0. -1.
        2   -1    0    0  501    0  0.00000000000E+00  0.00000000000E+00 -0.64988151745E+03  0.64988151746E+03  0.25500000920E-02 0.  1.
    10030    2    1    2    0    0  0.00000000000E+00  0.00000000000E+00  0.73170242914E+03  0.20314654640E+04  0.18951156922E+04 0.  0.
        5    1    3    3  502    0  0.17720902952E+03  0.44570267407E+03 -0.51012765147E+03  0.70021869770E+03  0.46999998093E+01 0.  1.
       -5    1    3    3    0  502 -0.17720902952E+03 -0.44570267407E+03  0.12418300806E+04  0.13312467663E+04  0.46999998093E+01 0. -1.
</event>
<event>
 5   0  0.2085063E-05  0.2314151E+04  0.7818609E-02  0.8472362E-01
        1   -1    0    0  501    0  0.00000000000E+00  0.00000000000E+00  0.11124937954E+04  0.11124937954E+04  0.50400001928E-02 0.  1.
       -1   -1    0    0    0  501  0.00000000000E+00  0.00000000000E+00 -0.12034436896E+04  0.12034436896E+04  0.50400001928E-02 0. -1.
    10030    2    1    2    0    0  0.00000000000E+00  0.00000000000E+00 -0.90949894146E+02  0.23159374850E+04  0.23141509353E+04 0.  0.
        1    1    3    3  502    0 -0.53824738925E+03 -0.55418081347E+03 -0.90753243560E+03  0.11918228676E+04  0.50400001928E-02 0. -1.
       -1    1    3    3    0  502  0.53824738925E+03  0.55418081347E+03  0.81658254145E+03  0.11241146174E+04  0.50400001928E-02 0.  1.
</event>
<event>
 5   0  0.2043885E-05  0.2694964E+04  0.7818609E-02  0.8336641E-01
        1   -1    0    0  501    0  0.00000000000E+00  0.00000000000E+00  0.20903651907E+04  0.20903651907E+04  0.50400001928E-02 0.  1.
       -1   -1    0    0    0  501  0.00000000000E+00  0.00000000000E+00 -0.86860788990E+03  0.86860788991E+03  0.50400001928E-02 0. -1.
    10030    2    1    2    0    0  0.00000000000E+00  0.00000000000E+00  0.12217573008E+04  0.29589730806E+04  0.26949639682E+04 0.  0.
        5    1    3    3  502    0  0.54600287752E+02  0.13462998003E+04  0.62566100017E+03  0.14855901591E+04  0.46999998093E+01 0.  1.
       -5    1    3    3    0  502 -0.54600287752E+02 -0.13462998003E+04  0.59609630065E+03  0.14733829215E+04  0.46999998093E+01 0. -1.
</event>
<event>
 5   0  0.2031860E-05  0.2287116E+04  0.7818609E-02  0.8483018E-01
       -1   -1    0    0    0  501  0.00000000000E+00  0.00000000000E+00  0.11436032862E+04  0.11436032862E+04  0.50400001928E-02 0.  1.
        1   -1    0    0  501    0  0.00000000000E+00  0.00000000000E+00 -0.11435129048E+04  0.11435129048E+04  0.50400001928E-02 0. -1.
    10030    2    1    2    0    0  0.00000000000E+00  0.00000000000E+00  0.90381375874E-01  0.22871161910E+04  0.22871161893E+04 0.  0.
        4    1    3    3  502    0 -0.59892138801E+02 -0.18418565012E+03  0.11270820503E+04  0.11436026333E+04  0.12699999809E+01 0.  1.
       -4    1    3    3    0  502  0.59892138801E+02  0.18418565012E+03 -0.11269916689E+04  0.11435135577E+04  0.12699999809E+01 0. -1.
</event>
<event>
 5   0  0.2042951E-05  0.2292441E+04  0.7818609E-02  0.8480907E-01
        1   -1    0    0  501    0  0.00000000000E+00  0.00000000000E+00  0.49489137782E+03  0.49489137784E+03  0.50400001928E-02 0. -1.
       -1   -1    0    0    0  501  0.00000000000E+00  0.00000000000E+00 -0.26547681227E+04  0.26547681227E+04  0.50400001928E-02 0.  1.
    10030    2    1    2    0    0  0.00000000000E+00  0.00000000000E+00 -0.21598767449E+04  0.31496595005E+04  0.22924413659E+04 0.  0.
        2    1    3    3  502    0 -0.50505374411E+03 -0.64706339171E+03  0.19251813103E+02  0.82106086841E+03  0.25500000920E-02 0.  1.
       -2    1    3    3    0  502  0.50505374411E+03  0.64706339171E+03 -0.21791285580E+04  0.23285986321E+04  0.25500000920E-02 0. -1.
</event>
<event>
 5   0  0.4798609E-05  0.2307304E+04  0.7818609E-02  0.8475047E-01
        2   -1    0    0  501    0  0.00000000000E+00  0.00000000000E+00  0.89953394305E+03  0.89953394305E+03  0.25500000920E-02 0.  1.
       -2   -1    0    0    0  501  0.00000000000E+00  0.00000000000E+00 -0.14795577578E+04  0.14795577578E+04  0.25500000920E-02 0. -1.
    10030    2    1    2    0    0  0.00000000000E+00  0.00000000000E+00 -0.58002381479E+03  0.23790917009E+04  0.23073035551E+04 0.  0.
        2    1    3    3  502    0  0.11337299009E+03  0.31675013877E+03 -0.14278531026E+04  0.14669521356E+04  0.25500000920E-02 0. -1.
       -2    1    3    3    0  502 -0.11337299009E+03 -0.31675013877E+03  0.84782928785E+03  0.91213956533E+03  0.25500000920E-02 0.  1.
</event>
<event>
 5   0  0.4602447E-05  0.2334807E+04  0.7818609E-02  0.8464322E-01
       -2   -1    0    0    0  501  0.00000000000E+00  0.00000000000E+00  0.17786921378E+04  0.17786921378E+04  0.25500000920E-02 0.  1.
        2   -1    0    0  501    0  0.00000000000E+00  0.00000000000E+00 -0.76619828150E+03  0.76619828150E+03  0.25500000920E-02 0. -1.
    10030    2    1    2    0    0  0.00000000000E+00  0.00000000000E+00  0.10124938563E+04  0.25448904193E+04  0.23348069379E+04 0.  0.
        3    1    3    3  502    0  0.98994620922E+03 -0.41377130514E+03  0.10076735683E+04  0.14719396117E+04  0.10100000352E+00 0.  1.
       -3    1    3    3    0  502 -0.98994620922E+03  0.41377130514E+03  0.48202879937E+01  0.10729508076E+04  0.10100000352E+00 0. -1.
</event>
<event>
 5   0  0.4505107E-05  0.2287423E+04  0.7818609E-02  0.8482897E-01
        2   -1    0    0  501    0  0.00000000000E+00  0.00000000000E+00  0.92298039151E+03  0.92298039151E+03  0.25500000920E-02 0.  1.
       -2   -1    0    0    0  501  0.00000000000E+00  0.00000000000E+00 -0.14172300299E+04  0.14172300299E+04  0.25500000920E-02 0. -1.
    10030    2    1    2    0    0  0.00000000000E+00  0.00000000000E+00 -0.49424963838E+03  0.23402104214E+04  0.22874225913E+04 0.  0.
        4    1    3    3  502    0  0.24648588577E+03 -0.34516379773E+03 -0.13337951557E+04  0.13996086844E+04  0.12699999809E+01 0. -1.
       -4    1    3    3    0  502 -0.24648588577E+03  0.34516379773E+03  0.83954551731E+03  0.94060173702E+03  0.12699999809E+01 0.  1.
</event>
<event>
 5   0  0.2043885E-05  0.2183646E+04  0.7818609E-02  0.8525266E-01
        1   -1    0    0  501    0  0.00000000000E+00  0.00000000000E+00  0.11488335304E+04  0.11488335304E+04  0.50400001928E-02 0.  1.
       -1   -1    0    0    0  501  0.00000000000E+00  0.00000000000E+00 -0.10376416266E+04  0.10376416266E+04  0.50400001928E-02 0. -1.
    10030    2    1    2    0    0  0.00000000000E+00  0.00000000000E+00  0.11119190377E+03  0.21864751571E+04  0.21836460274E+04 0.  0.
        5    1    3    3  502    0 -0.71709737187E+03 -0.43767194529E+03  0.75383005947E+03  0.11287458620E+04  0.46999998093E+01 0.  1.
       -5    1    3    3    0  502  0.71709737187E+03  0.43767194529E+03 -0.64263815570E+03  0.10577292950E+04  0.46999998093E+01 0. -1.
</event>
<event>
 5   0  0.4605516E-05  0.2337780E+04  0.7818609E-02  0.8463172E-01
        2   -1    0    0  501    0  0.00000000000E+00  0.00000000000E+00  0.18556483308E+04  0.18556483308E+04  0.25500000920E-02 0. -1.
       -2   -1    0    0    0  501  0.00000000000E+00  0.00000000000E+00 -0.73629462374E+03  0.73629462374E+03  0.25500000920E-02 0.  1.
    10030    2    1    2    0    0  0.00000000000E+00  0.00000000000E+00  0.11193537071E+04  0.25919429546E+04  0.23377800491E+04 0.  0.
        1    1    3    3  502    0  0.46926485392E+03 -0.80656222108E+03 -0.22081128422E+03  0.95891070640E+03  0.50400001928E-02 0.  1.
       -1    1    3    3    0  502 -0.46926485392E+03  0.80656222108E+03  0.13401649913E+04  0.16330322482E+04  0.50400001928E-02 0. -1.
</event>
<event>
 5   0  0.4436695E-05  0.2395613E+04  0.7818609E-02  0.8441148E-01
       -2   -1    0    0    0  501  0.00000000000E+00  0.00000000000E+00  0.10721848799E+04  0.10721848799E+04  0.25500000920E-02 0.  1.
        2   -1    0    0  501    0  0.00000000000E+00  0.00000000000E+00 -0.13381459557E+04  0.13381459557E+04  0.25500000920E-02 0. -1.
    10030    2    1    2    0    0  0.00000000000E+00  0.00000000000E+00 -0.26596107578E+03  0.24103308356E+04  0.23956125403E+04 0.  0.
        5    1    3    3  502    0 -0.45702375710E+03 -0.75739137249E+03 -0.94553459383E+03  0.12948243757E+04  0.46999998093E+01 0.  1.
       -5    1    3    3    0  502  0.45702375710E+03  0.75739137249E+03  0.67957351805E+03  0.11155064599E+04  0.46999998093E+01 0. -1.
</event>
<event>
 5   0  0.2031860E-05  0.2318688E+04  0.7818609E-02  0.8470589E-01
        1   -1    0    0  501    0  0.00000000000E+00  0.00000000000E+00  0.16706832657E+04  0.16706832657E+04  0.50400001928E-02 0. -1.
       -1   -1    0    0    0  501  0.00000000000E+00  0.00000000000E+00 -0.80450849018E+03  0.80450849020E+03  0.50400001928E-02 0.  1.
    10030    2    1    2    0    0  0.00000000000E+00  0.00000000000E+00  0.86617477550E+03  0.24751917559E+04  0.23186883117E+04 0.  0.
        4    1    3    3  502    0 -0.70995084625E+03  0.65657025679E+03 -0.24957857300E+03  0.99870204926E+03  0.12699999809E+01 0.  1.
       -4    1    3    3    0  502  0.70995084625E+03 -0.65657025679E+03  0.11157533485E+04  0.14764897066E+04  0.12699999809E+01 0. -1.
</event>
<event>
 5   0  0.2042951E-05  0.2302274E+04  0.7818609E-02  0.8477025E-01
       -1   -1    0    0    0  501  0.00000000000E+00  0.00000000000E+00  0.14034275075E+04  0.14034275075E+04  0.50400001928E-02 0.  1.
        1   -1    0    0  501    0  0.00000000000E+00  0.00000000000E+00 -0.94420000353E+03  0.94420000354E+03  0.50400001928E-02 0. -1.
    10030    2    1    2    0    0  0.00000000000E+00  0.00000000000E+00  0.45922750393E+03  0.23476275110E+04  0.23022738825E+04 0.  0.
        2    1    3    3  502    0 -0.61945023437E+03 -0.65651204734E+03 -0.49887543528E+03  0.10313114763E+04  0.25500000920E-02 0. -1.
       -2    1    3    3    0  502  0.61945023437E+03  0.65651204734E+03  0.95810293921E+03  0.13163160347E+04  0.25500000920E-02 0.  1.
</event>
<event>
 5   0  0.2042951E-05  0.2316523E+04  0.7818609E-02  0.8471435E-01
       -1   -1    0    0    0  501  0.00000000000E+00  0.00000000000E+00  0.82382607860E+03  0.82382607862E+03  0.50400001928E-02 0. -1.
        1   -1    0    0  501    0  0.00000000000E+00  0.00000000000E+00 -0.16284628883E+04  0.16284628883E+04  0.50400001928E-02 0.  1.
    10030    2    1    2    0    0  0.00000000000E+00  0.00000000000E+00 -0.80463680965E+03  0.24522889669E+04  0.23165234257E+04 0.  0.
        2    1    3    3  502    0 -0.10099327473E+04  0.27659531164E+03 -0.92641043536E+03  0.13981077982E+04  0.25500000920E-02 0. -1.
       -2    1    3    3    0  502  0.10099327473E+04 -0.27659531164E+03  0.12177362571E+03  0.10541811687E+04  0.25500000920E-02 0.  1.
</event>
<event>
 5   0  0.1968318E-05  0.2317338E+04  0.7818609E-02  0.8471116E-01
       -1   -1    0    0    0  501  0.00000000000E+00  0.00000000000E+00  0.71028996424E+03  0.71028996426E+03  0.50400001928E-02 0.  1.
        1   -1    0    0  501    0  0.00000000000E+00  0.00000000000E+00 -0.18900931833E+04  0.18900931833E+04  0.50400001928E-02 0. -1.
    10030    2    1    2    0    0  0.00000000000E+00  0.00000000000E+00 -0.11798032191E+04  0.26003831476E+04  0.23173383177E+04 0.  0.
        3    1    3    3  502    0  0.12994184170E+03  0.11184129803E+04 -0.28303780746E+03  0.11609663593E+04  0.10100000352E+00 0.  1.
       -3    1    3    3    0  502 -0.12994184170E+03 -0.11184129803E+04 -0.89676541162E+03  0.14394167883E+04  0.10100000352E+00 0. -1.
</event>
<event>
 5   0  0.2042951E-05  0.2300071E+04  0.7818609E-02  0.8477893E-01
        1   -1    0    0  501    0  0.00000000000E+00  0.00000000000E+00  0.14028525307E+04  0.14028525307E+04  0.50400001928E-02 0.  1.
       -1   -1    0    0    0  501  0.00000000000E+00  0.00000000000E+00 -0.94278013186E+03  0.94278013187E+03  0.50400001928E-02 0. -1.
    10030    2    1    2    0    0  0.00000000000E+00  0.00000000000E+00  0.46007239886E+03  0.23456326626E+04  0.23000708632E+04 0.  0.
        2    1    3    3  502    0 -0.99306713582E+03 -0.18096016978E+02 -0.36116424271E+03  0.10568582745E+04  0.25500000920E-02 0. -1.
       -2    1    3    3    0  502  0.99306713582E+03  0.18096016978E+02  0.82123664157E+03  0.12887743881E+04  0.25500000920E-02 0.  1.
</event>
<event>
 5   0  0.4798609E-05  0.2322074E+04  0.7818609E-02  0.8469268E-01
        2   -1    0    0  501    0  0.00000000000E+00  0.00000000000E+00  0.14758273409E+04  0.14758273409E+04  0.25500000920E-02 0.  1.
       -2   -1    0    0    0  501  0.00000000000E+00  0.00000000000E+00 -0.91339081033E+03  0.91339081034E+03  0.25500000920E-02 0. -1.
    10030    2    1    2    0    0  0.00000000000E+00  0.00000000000E+00  0.56243653061E+03  0.23892181513E+04  0.23220741856E+04 0.  0.
        2    1    3    3  502    0  0.29615441801E+03  0.10246816200E+03  0.14314887324E+04  0.14653897620E+04  0.25500000920E-02 0.  1.
       -2    1    3    3    0  502 -0.29615441801E+03 -0.10246816200E+03 -0.86905220176E+03  0.92382838933E+03  0.25500000920E-02 0. -1.
</event>
<event>
 5   0  0.4798609E-05  0.2303848E+04  0.7818609E-02  0.8476405E-01
       -2   -1    0    0    0  501  0.00000000000E+00  0.00000000000E+00  0.77082858299E+03  0.77082858300E+03  0.25500000920E-02 0.  1.
        2   -1    0    0  501    0  0.00000000000E+00  0.00000000000E+00 -0.17214317066E+04  0.17214317066E+04  0.25500000920E-02 0. -1.
    10030    2    1    2    0    0  0.00000000000E+00  0.00000000000E+00 -0.95060312361E+03  0.24922602896E+04  0.23038478796E+04 0.  0.
        2    1    3    3  502    0 -0.75277486532E+03  0.68159875303E+03 -0.10635380658E+04  0.14704965404E+04  0.25500000920E-02 0. -1.
       -2    1    3    3    0  502  0.75277486532E+03 -0.68159875303E+03  0.11293494218E+03  0.10217637492E+04  0.25500000920E-02 0.  1.
</event>
<event>
 5   0  0.4602447E-05  0.2280043E+04  0.7818609E-02  0.8485832E-01
        2   -1    0    0  501    0  0.00000000000E+00  0.00000000000E+00  0.65379422019E+03  0.65379422019E+03  0.25500000920E-02 0.  1.
       -2   -1    0    0    0  501  0.00000000000E+00  0.00000000000E+00 -0.19878566148E+04  0.19878566148E+04  0.25500000920E-02 0. -1.
    10030    2    1    2    0    0  0.00000000000E+00  0.00000000000E+00 -0.13340623946E+04  0.26416508350E+04  0.22800431271E+04 0.  0.
        3    1    3    3  502    0  0.88976835435E+03  0.39750566078E+03  0.18355660648E+02  0.97469760195E+03  0.10100000352E+00 0.  1.
       -3    1    3    3    0  502 -0.88976835435E+03 -0.39750566078E+03 -0.13524180553E+04  0.16669532330E+04  0.10100000352E+00 0. -1.
</event>
<event>
 5   0  0.2085063E-05  0.2293923E+04  0.7818609E-02  0.8480321E-01
        1   -1    0    0  501    0  0.00000000000E+00  0.00000000000E+00  0.81740925723E+03  0.81740925724E+03  0.50400001928E-02 0.  1.
       -1   -1    0    0    0  501  0.00000000000E+00  0.00000000000E+00 -0.16093779428E+04  0.16093779428E+04  0.50400001928E-02 0. -1.
    10030    2    1    2    0    0  0.00000000000E+00  0.00000000000E+00 -0.79196868558E+03  0.24267872001E+04  0.22939227789E+04 0.  0.
        1    1    3    3  502    0 -0.58834491356E+03  0.52665278180E+03 -0.12760363028E+04  0.15005937278E+04  0.50400001928E-02 0. -1.
       -1    1    3    3    0  502  0.58834491356E+03 -0.52665278180E+03  0.48406761724E+03  0.92619347222E+03  0.50400001928E-02 0.  1.
</event>
<event>
 5   0  0.2042951E-05  0.2228703E+04  0.7818609E-02  0.8506576E-01
        1   -1    0    0  501    0  0.00000000000E+00  0.00000000000E+00  0.17283190130E+04  0.17283190130E+04  0.50400001928E-02 0. -1.
       -1   -1    0    0    0  501  0.00000000000E+00  0.00000000000E+00 -0.71848938114E+03  0.71848938116E+03  0.50400001928E-02 0.  1.
    10030    2    1    2    0    0  0.00000000000E+00  0.00000000000E+00  0.10098296318E+04  0.24468083941E+04  0.22287026343E+04 0.  0.
        2    1    3    3  502    0  0.49135995080E+03  0.70198827376E+03  0.12870649544E+04  0.15462077269E+04  0.25500000920E-02 0. -1.
       -2    1    3    3    0  502 -0.49135995080E+03 -0.70198827376E+03 -0.27723532260E+03  0.90060066725E+03  0.25500000920E-02 0.  1.
</event>
<event>
 5   0  0.2042951E-05  0.2234698E+04  0.7818609E-02  0.8504123E-01
       -1   -1    0    0    0  501  0.00000000000E+00  0.00000000000E+00  0.99559468945E+03  0.99559468947E+03  0.50400001928E-02 0.  1.
        1   -1    0    0  501    0  0.00000000000E+00  0.00000000000E+00 -0.12539931762E+04  0.12539931762E+04  0.50400001928E-02 0. -1.
    10030    2    1    2    0    0  0.00000000000E+00  0.00000000000E+00 -0.25839848672E+03  0.22495878656E+04  0.22346981423E+04 0.  0.
        2    1    3    3  502    0 -0.75691000286E+03 -0.42093181286E+03  0.58145961330E+03  0.10431642370E+04  0.25500000920E-02 0.  1.
       -2    1    3    3    0  502  0.75691000286E+03  0.42093181286E+03 -0.83985810001E+03  0.12064236286E+04  0.25500000920E-02 0. -1.
</event>
<event>
 5   0  0.4602447E-05  0.2307326E+04  0.7818609E-02  0.8475038E-01
       -2   -1    0    0    0  501  0.00000000000E+00  0.00000000000E+00  0.97394597326E+03  0.97394597326E+03  0.25500000920E-02 0.  1.
        2   -1    0    0  501    0  0.00000000000E+00  0.00000000000E+00 -0.13665421827E+04  0.13665421827E+04  0.25500000920E-02 0. -1.
    10030    2    1    2    0    0  0.00000000000E+00  0.00000000000E+00 -0.39259620941E+03  0.23404881559E+04  0.23073259467E+04 0.  0.
        3    1    3    3  502    0 -0.65515752391E+03  0.78194293541E+03 -0.74281067192E+03  0.12619167326E+04  0.10100000352E+00 0. -1.
       -3    1    3    3    0  502  0.65515752391E+03 -0.78194293541E+03  0.35021446252E+03  0.10785714234E+04  0.10100000352E+00 0.  1.
</event>
<event>
 5   0  0.4798609E-05  0.2672485E+04  0.7818609E-02  0.8343988E-01
        2   -1    0    0  501    0  0.00000000000E+00  0.00000000000E+00  0.18190845850E+04  0.18190845850E+04  0.25500000920E-02 0. -1.
       -2   -1    0    0    0  501  0.00000000000E+00  0.00000000000E+00 -0.98156216386E+03  0.98156216386E+03  0.25500000920E-02 0.  1.
    10030    2    1    2    0    0  0.00000000000E+00  0.00000000000E+00  0.83752242115E+03  0.28006467489E+04  0.26724854361E+04 0.  0.
        2    1    3    3  502    0  0.44631426791E+03 -0.12156245920E+04  0.76411796235E+03  0.15036009560E+04  0.25500000920E-02 0. -1.
       -2    1    3    3    0  502 -0.44631426791E+03  0.12156245920E+04  0.73404458807E+02  0.12970457929E+04  0.25500000920E-02 0.  1.
</event>
<event>
 5   0  0.4798609E-05  0.2319609E+04  0.7818609E-02  0.8470229E-01
        2   -1    0    0  501    0  0.00000000000E+00  0.00000000000E+00  0.12569140675E+04  0.12569140675E+04  0.25500000920E-02 0. -1.
       -2   -1    0    0    0  501  0.00000000000E+00  0.00000000000E+00 -0.10701979851E+04  0.10701979851E+04  0.25500000920E-02 0.  1.
    10030    2    1    2    0    0  0.00000000000E+00  0.00000000000E+00  0.18671608240E+03  0.23271120525E+04  0.23196093657E+04 0.  0.
        2    1    3    3  502    0  0.40759467555E+03  0.91616814524E+03  0.67803755307E+03  0.12104678489E+04  0.25500000920E-02 0. -1.
       -2    1    3    3    0  502 -0.40759467555E+03 -0.91616814524E+03 -0.49132147067E+03  0.11166442036E+04  0.25500000920E-02 0.  1.
</event>
<event>
 5   0  0.2031860E-05  0.2309404E+04  0.7818609E-02  0.8474223E-01
        1   -1    0    0  501    0  0.00000000000E+00  0.00000000000E+00  0.20598225472E+04  0.20598225472E+04  0.50400001928E-02 0. -1.
       -1   -1    0    0    0  501  0.00000000000E+00  0.00000000000E+00 -0.64730646447E+03  0.64730646449E+03  0.50400001928E-02 0.  1.
    10030    2    1    2    0    0  0.00000000000E+00  0.00000000000E+00  0.14125160827E+04  0.27071290117E+04  0.23094037763E+04 0.  0.
        4    1    3    3  502    0  0.11492537965E+04  0.11148402489E+03  0.71919825411E+03  0.13603164037E+04  0.12699999809E+01 0. -1.
       -4    1    3    3    0  502 -0.11492537965E+04 -0.11148402489E+03  0.69331782863E+03  0.13468126080E+04  0.12699999809E+01 0.  1.
</event>
<event>
 5   0  0.1604500E-05  0.2302140E+04  0.7818609E-02  0.8477078E-01
        3   -1    0    0  501    0  0.00000000000E+00  0.00000000000E+00  0.13728123976E+04  0.13728124013E+04  0.10100000352E+00 0.  1.
       -3   -1    0    0    0  501  0.00000000000E+00  0.00000000000E+00 -0.96514473664E+03  0.96514474192E+03  0.10100000352E+00 0. -1.
    10030    2    1    2    0    0  0.00000000000E+00  0.00000000000E+00  0.40766766098E+03  0.23379571433E+04  0.23021404566E+04 0.  0.
        4    1    3    3  502    0  0.30708161026E+02  0.61607302521E+03  0.11907932452E+04  0.13410738717E+04  0.12699999809E+01 0.  1.
       -4    1    3    3    0  502 -0.30708161026E+02 -0.61607302521E+03 -0.78312558424E+03  0.99688327157E+03  0.12699999809E+01 0. -1.
</event>
<event>
 5   0  0.4605516E-05  0.2291022E+04  0.7818609E-02  0.8481469E-01
       -2   -1    0    0    0  501  0.00000000000E+00  0.00000000000E+00  0.69697370997E+03  0.69697370998E+03  0.25500000920E-02 0. -1.
        2   -1    0    0  501    0  0.00000000000E+00  0.00000000000E+00 -0.18827041957E+04  0.18827041957E+04  0.25500000920E-02 0.  1.
    10030    2    1    2    0    0  0.00000000000E+00  0.00000000000E+00 -0.11857304857E+04  0.25796779057E+04  0.22910218926E+04 0.  0.
        1    1    3    3  502    0 -0.10647295624E+04  0.14261623447E+03 -0.14499835954E+03  0.10839801455E+04  0.50400001928E-02 0. -1.
       -1    1    3    3    0  502  0.10647295624E+04 -0.14261623447E+03 -0.10407321262E+04  0.14956977602E+04  0.50400001928E-02 0.  1.
</event>
<event>
 5   0  0.4602447E-05  0.2290179E+04  0.7818609E-02  0.8481804E-01
        2   -1    0    0  501    0  0.00000000000E+00  0.00000000000E+00  0.15506561162E+04  0.15506561162E+04  0.25500000920E-02 0. -1.
       -2   -1    0    0    0  501  0.00000000000E+00  0.00000000000E+00 -0.84559660821E+03  0.84559660821E+03  0.25500000920E-02 0.  1.
    10030    2    1    2    0    0  0.00000000000E+00  0.00000000000E+00  0.70505950801E+03  0.23962527244E+04  0.22901786414E+04 0.  0.
        3    1    3    3  502    0 -0.10775405889E+04 -0.17734139020E+02 -0.52465628462E+02  0.10789628691E+04  0.10100000352E+00 0.  1.
       -3    1    3    3    0  502  0.10775405889E+04  0.17734139020E+02  0.75752513647E+03  0.13172898554E+04  0.10100000352E+00 0. -1.
</event>
<event>
 5   0  0.2042951E-05  0.2294001E+04  0.7818609E-02  0.8480290E-01
        1   -1    0    0  501    0  0.00000000000E+00  0.00000000000E+00  0.90897674414E+03  0.90897674415E+03  0.50400001928E-02 0.  1.
       -1   -1    0    0    0  501  0.00000000000E+00  0.00000000000E+00 -0.14473530250E+04  0.14473530250E+04  0.50400001928E-02 0. -1.
    10030    2    1    2    0    0  0.00000000000E+00  0.00000000000E+00 -0.53837628087E+03  0.23563297692E+04  0.22940010814E+04 0.  0.
        2    1    3    3  502    0 -0.41458856148E+03 -0.39926896578E+03  0.74989258995E+03  0.94532443045E+03  0.25500000920E-02 0.  1.
       -2    1    3    3    0  502  0.41458856148E+03  0.39926896578E+03 -0.12882688708E+04  0.14110053387E+04  0.25500000920E-02 0. -1.
</event>
<event>
 5   0  0.4602447E-05  0.2302118E+04  0.7818609E-02  0.8477086E-01
       -2   -1    0    0    0  501  0.00000000000E+00  0.00000000000E+00  0.10122574003E+04  0.10122574003E+04  0.25500000920E-02 0. -1.
        2   -1    0    0  501    0  0.00000000000E+00  0.00000000000E+00 -0.13088936454E+04  0.13088936454E+04  0.25500000920E-02 0.  1.
    10030    2    1    2    0    0  0.00000000000E+00  0.00000000000E+00 -0.29663624510E+03  0.23211510457E+04  0.23021183973E+04 0.  0.
        3    1    3    3  502    0  0.12729902757E+03 -0.56936399597E+03 -0.11487698757E+04  0.12884303008E+04  0.10100000352E+00 0.  1.
       -3    1    3    3    0  502 -0.12729902757E+03  0.56936399597E+03  0.85213363064E+03  0.10327207449E+04  0.10100000352E+00 0. -1.
</event>
<event>
 5   0  0.4798609E-05  0.2289440E+04  0.7818609E-02  0.8482096E-01
       -2   -1    0    0    0  501  0.00000000000E+00  0.00000000000E+00  0.12707816830E+04  0.12707816830E+04  0.25500000920E-02 0. -1.
        2   -1    0    0  501    0  0.00000000000E+00  0.00000000000E+00 -0.10311640889E+04  0.10311640889E+04  0.25500000920E-02 0.  1.
    10030    2    1    2    0    0  0.00000000000E+00  0.00000000000E+00  0.23961759411E+03  0.23019457720E+04  0.22894404875E+04 0.  0.
        2    1    3    3  502    0  0.30583248705E+03 -0.52030765828E+03  0.10978143832E+04  0.12527769113E+04  0.25500000920E-02 0. -1.
       -2    1    3    3    0  502 -0.30583248705E+03  0.52030765828E+03 -0.85819678913E+03  0.10491688607E+04  0.25500000920E-02 0.  1.
</event>
<event>
 5   0  0.4436695E-05  0.2313072E+04  0.7818609E-02  0.8472785E-01
       -2   -1    0    0    0  501  0.00000000000E+00  0.00000000000E+00  0.10267226650E+04  0.10267226650E+04  0.25500000920E-02 0. -1.
        2   -1    0    0  501    0  0.00000000000E+00  0.00000000000E+00 -0.13027625383E+04  0.13027625383E+04  0.25500000920E-02 0.  1.
    10030    2    1    2    0    0  0.00000000000E+00  0.00000000000E+00 -0.27603987333E+03  0.23294852033E+04  0.23130722645E+04 0.  0.
        5    1    3    3  502    0 -0.63584629298E+03 -0.20266588334E+03 -0.10892749092E+04  0.12774646321E+04  0.46999998093E+01 0.  1.
       -5    1    3    3    0  502  0.63584629298E+03  0.20266588334E+03  0.81323503586E+03  0.10520205711E+04  0.46999998093E+01 0. -1.
</event>
<event>
 5   0  0.2043885E-05  0.2068657E+04  0.7818609E-02  0.8575177E-01
       -1   -1    0    0    0  501  0.00000000000E+00  0.00000000000E+00  0.83205158249E+03  0.83205158251E+03  0.50400001928E-02 0.  1.
        1   -1    0    0  501    0  0.00000000000E+00  0.00000000000E+00 -0.12857799469E+04  0.12857799469E+04  0.50400001928E-02 0. -1.
    10030    2    1    2    0    0  0.00000000000E+00  0.00000000000E+00 -0.45372836436E+03  0.21178315294E+04  0.20686568005E+04 0.  0.
        5    1    3    3  502    0  0.60824108478E+03  0.80792021785E+03 -0.44909768950E+03  0.11065275055E+04  0.46999998093E+01 0. -1.
       -5    1    3    3    0  502 -0.60824108478E+03 -0.80792021785E+03 -0.46306748589E+01  0.10113040239E+04  0.46999998093E+01 0.  1.
</event>
<event>
 5   0  0.2043885E-05  0.2297186E+04  0.7818609E-02  0.8479031E-01
        1   -1    0    0  501    0  0.00000000000E+00  0.00000000000E+00  0.14073361214E+04  0.14073361214E+04  0.50400001928E-02 0.  1.
       -1   -1    0    0    0  501  0.00000000000E+00  0.00000000000E+00 -0.93742099649E+03  0.93742099650E+03  0.50400001928E-02 0. -1.
    10030    2    1    2    0    0  0.00000000000E+00  0.00000000000E+00  0.46991512495E+03  0.23447571179E+04  0.22971864786E+04 0.  0.
        5    1    3    3  502    0 -0.10283100213E+04  0.43883045424E+02  0.75531569119E+03  0.12766640533E+04  0.46999998093E+01 0.  1.
       -5    1    3    3    0  502  0.10283100213E+04 -0.43883045424E+02 -0.28540056624E+03  0.10680930647E+04  0.46999998093E+01 0. -1.
</event>
<event>
 5   0  0.4605516E-05  0.2150634E+04  0.7818609E-02  0.8539261E-01
        2   -1    0    0  501    0  0.00000000000E+00  0.00000000000E+00  0.85906119188E+03  0.85906119189E+03  0.25500000920E-02 0.  1.
       -2   -1    0    0    0  501  0.00000000000E+00  0.00000000000E+00 -0.13460120560E+04  0.13460120560E+04  0.25500000920E-02 0. -1.
    10030    2    1    2    0    0  0.00000000000E+00  0.00000000000E+00 -0.48695086409E+03  0.22050732479E+04  0.21506340657E+04 0.  0.
        1    1    3    3  502    0  0.66499003288E+03 -0.64630592841E+03 -0.80166742426E+03  0.12258033105E+04  0.50400001928E-02 0. -1.
       -1    1    3    3    0  502 -0.66499003288E+03  0.64630592841E+03  0.31471656016E+03  0.97926993735E+03  0.50400001928E-02 0.  1.
</event>
<event>
 5   0  0.2042951E-05  0.2321769E+04  0.7818609E-02  0.8469387E-01
        1   -1    0    0  501    0  0.00000000000E+00  0.00000000000E+00  0.18114704240E+04  0.18114704240E+04  0.50400001928E-02 0.  1.
       -1   -1    0    0    0  501  0.00000000000E+00  0.00000000000E+00 -0.74395500657E+03  0.74395500659E+03  0.50400001928E-02 0. -1.
    10030    2    1    2    0    0  0.00000000000E+00  0.00000000000E+00  0.10675154174E+04  0.25554254306E+04  0.23217687147E+04 0.  0.
        2    1    3    3  502    0  0.11074543929E+04 -0.13141810653E+03  0.88857721904E+03  0.14259366834E+04  0.25500000920E-02 0. -1.
       -2    1    3    3    0  502 -0.11074543929E+04  0.13141810653E+03  0.17893819834E+03  0.11294887471E+04  0.25500000920E-02 0.  1.
</event>
<event>
 5   0  0.4798609E-05  0.2270301E+04  0.7818609E-02  0.8489724E-01
        2   -1    0    0  501    0  0.00000000000E+00  0.00000000000E+00  0.13849538547E+04  0.13849538547E+04  0.25500000920E-02 0. -1.
       -2   -1    0    0    0  501  0.00000000000E+00  0.00000000000E+00 -0.93040386852E+03  0.93040386852E+03  0.25500000920E-02 0.  1.
    10030    2    1    2    0    0  0.00000000000E+00  0.00000000000E+00  0.45454998616E+03  0.23153577232E+04  0.22703007943E+04 0.  0.
        2    1    3    3  502    0 -0.10537189979E+04  0.70479430717E+02  0.65179981366E+03  0.12410213833E+04  0.25500000920E-02 0.  1.
       -2    1    3    3    0  502  0.10537189979E+04 -0.70479430717E+02 -0.19724982750E+03  0.10743363399E+04  0.25500000920E-02 0. -1.
</event>
<event>
 5   0  0.2085063E-05  0.2403751E+04  0.7818609E-02  0.8438101E-01
        1   -1    0    0  501    0  0.00000000000E+00  0.00000000000E+00  0.15188897835E+04  0.15188897835E+04  0.50400001928E-02 0.  1.
       -1   -1    0    0    0  501  0.00000000000E+00  0.00000000000E+00 -0.95102645318E+03  0.95102645319E+03  0.50400001928E-02 0. -1.
    10030    2    1    2    0    0  0.00000000000E+00  0.00000000000E+00  0.56786333032E+03  0.24699162367E+04  0.24037507055E+04 0.  0.
        1    1    3    3  502    0  0.12634528687E+03 -0.71248086500E+03  0.12699884487E+04  0.14616643850E+04  0.50400001928E-02 0.  1.
       -1    1    3    3    0  502 -0.12634528687E+03  0.71248086500E+03 -0.70212511840E+03  0.10082518517E+04  0.50400001928E-02 0. -1.
</event>
<event>
 5   0  0.4505107E-05  0.2126314E+04  0.7818609E-02  0.8549740E-01
        2   -1    0    0  501    0  0.00000000000E+00  0.00000000000E+00  0.13856653497E+04  0.13856653497E+04  0.25500000920E-02 0. -1.
       -2   -1    0    0    0  501  0.00000000000E+00  0.00000000000E+00 -0.81571103552E+03  0.81571103552E+03  0.25500000920E-02 0.  1.
    10030    2    1    2    0    0  0.00000000000E+00  0.00000000000E+00  0.56995431418E+03  0.22013763852E+04  0.21263137278E+04 0.  0.
        4    1    3    3  502    0  0.55176013980E+03  0.81285704219E+03  0.70567809743E+03  0.12096110999E+04  0.12699999809E+01 0. -1.
       -4    1    3    3    0  502 -0.55176013980E+03 -0.81285704219E+03 -0.13572378326E+03  0.99176528532E+03  0.12699999809E+01 0.  1.
</event>
<event>
 5   0  0.2031860E-05  0.2307562E+04  0.7818609E-02  0.8474946E-01
       -1   -1    0    0    0  501  0.00000000000E+00  0.00000000000E+00  0.20561934795E+04  0.20561934795E+04  0.50400001928E-02 0. -1.
        1   -1    0    0  501    0  0.00000000000E+00  0.00000000000E+00 -0.64741480419E+03  0.64741480420E+03  0.50400001928E-02 0.  1.
    10030    2    1    2    0    0  0.00000000000E+00  0.00000000000E+00  0.14087786753E+04  0.27036082837E+04  0.23075615692E+04 0.  0.
        4    1    3    3  502    0 -0.26244626199E+03  0.10969856378E+04  0.41991488887E+03  0.12035720405E+04  0.12699999809E+01 0. -1.
       -4    1    3    3    0  502  0.26244626199E+03 -0.10969856378E+04  0.98886378642E+03  0.15000362432E+04  0.12699999809E+01 0.  1.
</event>
<event>
 5   0  0.4436695E-05  0.2304544E+04  0.7818609E-02  0.8476132E-01
        2   -1    0    0  501    0  0.00000000000E+00  0.00000000000E+00  0.18112249470E+04  0.18112249470E+04  0.25500000920E-02 0. -1.
       -2   -1    0    0    0  501  0.00000000000E+00  0.00000000000E+00 -0.73305664219E+03  0.73305664220E+03  0.25500000920E-02 0.  1.
    10030    2    1    2    0    0  0.00000000000E+00  0.00000000000E+00  0.10781683049E+04  0.25442815892E+04  0.23045437535E+04 0.  0.
        5    1    3    3  502    0  0.14503176069E+03  0.10844474209E+03  0.17954052880E+04  0.18045211863E+04  0.46999998093E+01 0. -1.
       -5    1    3    3    0  502 -0.14503176069E+03 -0.10844474209E+03 -0.71723698316E+03  0.73976040291E+03  0.46999998093E+01 0.  1.
</event>
<event>
 5   0  0.2031860E-05  0.2284796E+04  0.7818609E-02  0.8483940E-01
        1   -1    0    0  501    0  0.00000000000E+00  0.00000000000E+00  0.11008068151E+04  0.11008068151E+04  0.50400001928E-02 0. -1.
       -1   -1    0    0    0  501  0.00000000000E+00  0.00000000000E+00 -0.11855607395E+04  0.11855607395E+04  0.50400001928E-02 0.  1.
    10030    2    1    2    0    0  0.00000000000E+00  0.00000000000E+00 -0.84753924394E+02  0.22863675546E+04  0.22847961324E+04 0.  0.
        4    1    3    3  502    0  0.82857893934E+03 -0.44594121935E+03 -0.69063814916E+03  0.11672143316E+04  0.12699999809E+01 0.  1.
       -4    1    3    3    0  502 -0.82857893934E+03  0.44594121935E+03  0.60588422477E+03  0.11191532230E+04  0.12699999809E+01 0. -1.
</event>
<event>
 5   0  0.2043885E-05  0.2315047E+04  0.7818609E-02  0.8472012E-01
       -1   -1    0    0    0  501  0.00000000000E+00  0.00000000000E+00  0.10254938595E+04  0.10254938595E+04  0.50400001928E-02 0.  1.
        1   -1    0    0  501    0  0.00000000000E+00  0.00000000000E+00 -0.13065514847E+04  0.13065514847E+04  0.50400001928E-02 0. -1.
    10030    2    1    2    0    0  0.00000000000E+00  0.00000000000E+00 -0.28105762522E+03  0.23320453442E+04  0.23150468891E+04 0.  0.
        5    1    3    3  502    0 -0.83075397214E+03  0.38199356311E+02  0.67050840584E+03  0.10682766333E+04  0.46999998093E+01 0.  1.
       -5    1    3    3    0  502  0.83075397214E+03 -0.38199356311E+02 -0.95156603107E+03  0.12637687109E+04  0.46999998093E+01 0. -1.
</event>
<event>
 5   0  0.4605516E-05  0.2305354E+04  0.7818609E-02  0.8475813E-01
        2   -1    0    0  501    0  0.00000000000E+00  0.00000000000E+00  0.13245298796E+04  0.13245298796E+04  0.25500000920E-02 0. -1.
       -2   -1    0    0    0  501  0.00000000000E+00  0.00000000000E+00 -0.10031210885E+04  0.10031210885E+04  0.25500000920E-02 0.  1.
    10030    2    1    2    0    0  0.00000000000E+00  0.00000000000E+00  0.32140879113E+03  0.23276509681E+04  0.23053536428E+04 0.  0.
        1    1    3    3  502    0 -0.83715662525E+03  0.73429818982E+03  0.46130666528E+03  0.12053335166E+04  0.50400001928E-02 0. -1.
       -1    1    3    3    0  502  0.83715662525E+03 -0.73429818982E+03 -0.13989787415E+03  0.11223174515E+04  0.50400001928E-02 0.  1.
</event>
<event>
 5   0  0.1968318E-05  0.2233115E+04  0.7818609E-02  0.8504770E-01
       -1   -1    0    0    0  501  0.00000000000E+00  0.00000000000E+00  0.79099625648E+03  0.79099625649E+03  0.50400001928E-02 0. -1.
        1   -1    0    0  501    0  0.00000000000E+00  0.00000000000E+00 -0.15761140925E+04  0.15761140925E+04  0.50400001928E-02 0.  1.
    10030    2    1    2    0    0  0.00000000000E+00  0.00000000000E+00 -0.78511783606E+03  0.23671103490E+04  0.22331147279E+04 0.  0.
        3    1    3    3  502    0 -0.67312586862E+03 -0.67918651461E+03 -0.10036101054E+04  0.13862272578E+04  0.10100000352E+00 0.  1.
       -3    1    3    3    0  502  0.67312586862E+03  0.67918651461E+03  0.21849226930E+03  0.98088309119E+03  0.10100000352E+00 0. -1.
</event>
<event>
 5   0  0.4605516E-05  0.2344210E+04  0.7818609E-02  0.8460691E-01
        2   -1    0    0  501    0  0.00000000000E+00  0.00000000000E+00  0.13749179915E+04  0.13749179915E+04  0.25500000920E-02 0. -1.
       -2   -1    0    0    0  501  0.00000000000E+00  0.00000000000E+00 -0.99920912731E+03  0.99920912732E+03  0.25500000920E-02 0.  1.
    10030    2    1    2    0    0  0.00000000000E+00  0.00000000000E+00  0.37570886414E+03  0.23741271188E+04  0.23442104056E+04 0.  0.
        1    1    3    3  502    0 -0.57118277242E+03 -0.15047124053E+02  0.12243184190E+04  0.13510854031E+04  0.50400001928E-02 0. -1.
       -1    1    3    3    0  502  0.57118277242E+03  0.15047124053E+02 -0.84860955482E+03  0.10230417157E+04  0.50400001928E-02 0.  1.
</event>
<event>
 5   0  0.1968318E-05  0.2000062E+04  0.7818609E-02  0.8606592E-01
        1   -1    0    0  501    0  0.00000000000E+00  0.00000000000E+00  0.80149466151E+03  0.80149466152E+03  0.50400001928E-02 0.  1.
       -1   -1    0    0    0  501  0.00000000000E+00  0.00000000000E+00 -0.12477458922E+04  0.12477458923E+04  0.50400001928E-02 0. -1.
    10030    2    1    2    0    0  0.00000000000E+00  0.00000000000E+00 -0.44625123074E+03  0.20492405538E+04  0.20000616706E+04 0.  0.
        3    1    3    3  502    0 -0.26425536046E+03  0.84197334594E+03 -0.70513078188E+03  0.11295837466E+04  0.10100000352E+00 0. -1.
       -3    1    3    3    0  502  0.26425536046E+03 -0.84197334594E+03  0.25887955113E+03  0.91965680719E+03  0.10100000352E+00 0.  1.
</event>
<event>
 5   0  0.2043885E-05  0.2287983E+04  0.7818609E-02  0.8482674E-01
        1   -1    0    0  501    0  0.00000000000E+00  0.00000000000E+00  0.23826508144E+04  0.23826508144E+04  0.50400001928E-02 0.  1.
       -1   -1    0    0    0  501  0.00000000000E+00  0.00000000000E+00 -0.54926932991E+03  0.54926932993E+03  0.50400001928E-02 0. -1.
    10030    2    1    2    0    0  0.00000000000E+00  0.00000000000E+00  0.18333814845E+04  0.29319201443E+04  0.22879834058E+04 0.  0.
        5    1    3    3  502    0 -0.76011176603E+03 -0.38933023854E+03 -0.58677579511E+02  0.85604502209E+03  0.46999998093E+01 0. -1.
       -5    1    3    3    0  502  0.76011176603E+03  0.38933023854E+03  0.18920590640E+04  0.20758751223E+04  0.46999998093E+01 0.  1.
</event>
<event>
 5   0  0.4505107E-05  0.2306550E+04  0.7818609E-02  0.8475343E-01
        2   -1    0    0  501    0  0.00000000000E+00  0.00000000000E+00  0.22808785022E+04  0.22808785022E+04  0.25500000920E-02 0.  1.
       -2   -1    0    0    0  501  0.00000000000E+00  0.00000000000E+00 -0.58312771591E+03  0.58312771592E+03  0.25500000920E-02 0. -1.
    10030    2    1    2    0    0  0.00000000000E+00  0.00000000000E+00  0.16977507862E+04  0.28640062181E+04  0.23065502130E+04 0.  0.
        4    1    3    3  502    0 -0.99950077482E+03  0.30467003939E+03  0.24284177871E+03  0.10727531749E+04  0.12699999809E+01 0. -1.
       -4    1    3    3    0  502  0.99950077482E+03 -0.30467003939E+03  0.14549090075E+04  0.17912530432E+04  0.12699999809E+01 0.  1.
</event>
<event>
 5   0  0.4798609E-05  0.2339230E+04  0.7818609E-02  0.8462612E-01
        2   -1    0    0  501    0  0.00000000000E+00  0.00000000000E+00  0.16892198718E+04  0.16892198718E+04  0.25500000920E-02 0.  1.
       -2   -1    0    0    0  501  0.00000000000E+00  0.00000000000E+00 -0.80984053165E+03  0.80984053166E+03  0.25500000920E-02 0. -1.
    10030    2    1    2    0    0  0.00000000000E+00  0.00000000000E+00  0.87937934011E+03  0.24990604034E+04  0.23392295475E+04 0.  0.
        2    1    3    3  502    0 -0.20212730381E+03  0.38137953039E+03  0.16010212346E+04  0.16581841836E+04  0.25500000920E-02 0.  1.
       -2    1    3    3    0  502  0.20212730381E+03 -0.38137953039E+03 -0.72164189449E+03  0.84087621981E+03  0.25500000920E-02 0. -1.
</event>
<event>
 5   0  0.2031860E-05  0.2259956E+04  0.7818609E-02  0.8493879E-01
       -1   -1    0    0    0  501  0.00000000000E+00  0.00000000000E+00  0.79572686130E+03  0.79572686132E+03  0.50400001928E-02 0.  1.
        1   -1    0    0  501    0  0.00000000000E+00  0.00000000000E+00 -0.16046337092E+04  0.16046337092E+04  0.50400001928E-02 0. -1.
    10030    2    1    2    0    0  0.00000000000E+00  0.00000000000E+00 -0.80890684788E+03  0.24003605705E+04  0.22599558801E+04 0.  0.
        4    1    3    3  502    0  0.66500534319E+03 -0.73421595349E+03 -0.98186718005E+03  0.13947651935E+04  0.12699999809E+01 0. -1.
       -4    1    3    3    0  502 -0.66500534319E+03  0.73421595349E+03  0.17296033218E+03  0.10055953770E+04  0.12699999809E+01 0.  1.
</event>
<event>
 5   0  0.4436695E-05  0.2239574E+04  0.7818609E-02  0.8502135E-01
       -2   -1    0    0    0  501  0.00000000000E+00  0.00000000000E+00  0.10629806941E+04  0.10629806941E+04  0.25500000920E-02 0.  1.
        2   -1    0    0  501    0  0.00000000000E+00  0.00000000000E+00 -0.11796291160E+04  0.11796291160E+04  0.25500000920E-02 0. -1.
    10030    2    1    2    0    0  0.00000000000E+00  0.00000000000E+00 -0.11664842194E+03  0.22426098101E+04  0.22395740456E+04 0.  0.
        5    1    3    3  502    0 -0.23153462761E+03  0.10260154094E+04 -0.44301286349E+03  0.11413143262E+04  0.46999998093E+01 0. -1.
       -5    1    3    3    0  502  0.23153462761E+03 -0.10260154094E+04  0.32636444155E+03  0.11012954839E+04  0.46999998093E+01 0.  1.
</event>
<event>
 5   0  0.2085063E-05  0.2292527E+04  0.7818609E-02  0.8480873E-01
        1   -1    0    0  501    0  0.00000000000E+00  0.00000000000E+00  0.14519514306E+04  0.14519514306E+04  0.50400001928E-02 0. -1.
       -1   -1    0    0    0  501  0.00000000000E+00  0.00000000000E+00 -0.90493398240E+03  0.90493398242E+03  0.50400001928E-02 0.  1.
    10030    2    1    2    0    0  0.00000000000E+00  0.00000000000E+00  0.54701744821E+03  0.23568854130E+04  0.22925271561E+04 0.  0.
        1    1    3    3  502    0 -0.10909201162E+04  0.20138288809E+03  0.57015443241E+03  0.12472922049E+04  0.50400001928E-02 0. -1.
       -1    1    3    3    0  502  0.10909201162E+04 -0.20138288809E+03 -0.23136984193E+02  0.11095932082E+04  0.50400001928E-02 0.  1.
</event>
<event>
 5   0  0.4505107E-05  0.2153846E+04  0.7818609E-02  0.8537888E-01
       -2   -1    0    0    0  501  0.00000000000E+00  0.00000000000E+00  0.72938448262E+03  0.72938448263E+03  0.25500000920E-02 0.  1.
        2   -1    0    0  501    0  0.00000000000E+00  0.00000000000E+00 -0.15900567037E+04  0.15900567037E+04  0.25500000920E-02 0. -1.
    10030    2    1    2    0    0  0.00000000000E+00  0.00000000000E+00 -0.86067222107E+03  0.23194411863E+04  0.21538455712E+04 0.  0.
        4    1    3    3  502    0  0.34162861289E+03  0.70976261929E+03  0.36048668020E+03  0.86627094167E+03  0.12699999809E+01 0.  1.
       -4    1    3    3    0  502 -0.34162861289E+03 -0.70976261929E+03 -0.12211589013E+04  0.14531702447E+04  0.12699999809E+01 0. -1.
</event>
<event>
 5   0  0.2042951E-05  0.2269319E+04  0.7818609E-02  0.8490117E-01
       -1   -1    0    0    0  501  0.00000000000E+00  0.00000000000E+00  0.11976110618E+04  0.11976110618E+04  0.50400001928E-02 0.  1.
        1   -1    0    0  501    0  0.00000000000E+00  0.00000000000E+00 -0.10750167896E+04  0.10750167896E+04  0.50400001928E-02 0. -1.
    10030    2    1    2    0    0  0.00000000000E+00  0.00000000000E+00  0.12259427217E+03  0.22726278514E+04  0.22693188395E+04 0.  0.
        2    1    3    3  502    0 -0.66022552183E+03 -0.10887979019E+03  0.97898447650E+03  0.11858175043E+04  0.25500000920E-02 0.  1.
       -2    1    3    3    0  502  0.66022552183E+03  0.10887979019E+03 -0.85639020433E+03  0.10868103471E+04  0.25500000920E-02 0. -1.
</event>
<event>
 5   0  0.2042951E-05  0.2307081E+04  0.7818609E-02  0.8475134E-01
        1   -1    0    0  501    0  0.00000000000E+00  0.00000000000E+00  0.20178593098E+04  0.20178593098E+04  0.50400001928E-02 0. -1.
       -1   -1    0    0    0  501  0.00000000000E+00  0.00000000000E+00 -0.65943946595E+03  0.65943946597E+03  0.50400001928E-02 0.  1.
    10030    2    1    2    0    0  0.00000000000E+00  0.00000000000E+00  0.13584198438E+04  0.26772987757E+04  0.23070813298E+04 0.  0.
        2    1    3    3  502    0 -0.10321985931E+04 -0.48691796350E+03  0.87385443451E+03  0.14374089924E+04  0.25500000920E-02 0. -1.
       -2    1    3    3    0  502  0.10321985931E+04  0.48691796350E+03  0.48456540931E+03  0.12398897833E+04  0.25500000920E-02 0.  1.
</event>
<event>
 5   0  0.4798609E-05  0.2304938E+04  0.7818609E-02  0.8475977E-01
       -2   -1    0    0    0  501  0.00000000000E+00  0.00000000000E+00  0.84354240778E+03  0.84354240778E+03  0.25500000920E-02 0.  1.
        2   -1    0    0  501    0  0.00000000000E+00  0.00000000000E+00 -0.15745318973E+04  0.15745318973E+04  0.25500000920E-02 0. -1.
    10030    2    1    2    0    0  0.00000000000E+00  0.00000000000E+00 -0.73098948952E+03  0.24180743051E+04  0.23049376805E+04 0.  0.
        2    1    3    3  502    0 -0.77008885338E+03 -0.84606670751E+03 -0.21968063869E+03  0.11649572090E+04  0.25500000920E-02 0.  1.
       -2    1    3    3    0  502  0.77008885338E+03  0.84606670751E+03 -0.51130885082E+03  0.12531170961E+04  0.25500000920E-02 0. -1.
</event>
<event>
 5   0  0.2043885E-05  0.2308482E+04  0.7818609E-02  0.8474584E-01
       -1   -1    0    0    0  501  0.00000000000E+00  0.00000000000E+00  0.13766074946E+04  0.13766074946E+04  0.50400001928E-02 0. -1.
        1   -1    0    0  501    0  0.00000000000E+00  0.00000000000E+00 -0.96779388910E+03  0.96779388911E+03  0.50400001928E-02 0.  1.
    10030    2    1    2    0    0  0.00000000000E+00  0.00000000000E+00  0.40881360546E+03  0.23444013837E+04  0.23084820302E+04 0.  0.
        5    1    3    3  502    0 -0.74867045922E+03  0.84823779872E+03  0.43651366463E+03  0.12126751787E+04  0.46999998093E+01 0. -1.
       -5    1    3    3    0  502  0.74867045922E+03 -0.84823779872E+03 -0.27700059166E+02  0.11317262049E+04  0.46999998093E+01 0.  1.
</event>
<event>
 5   0  0.2031860E-05  0.2271816E+04  0.7818609E-02  0.8489117E-01
        1   -1    0    0  501    0  0.00000000000E+00  0.00000000000E+00  0.16321263320E+04  0.16321263320E+04  0.50400001928E-02 0. -1.
       -1   -1    0    0    0  501  0.00000000000E+00  0.00000000000E+00 -0.79055581043E+03  0.79055581045E+03  0.50400001928E-02 0.  1.
    10030    2    1    2    0    0  0.00000000000E+00  0.00000000000E+00  0.84157052159E+03  0.24226821425E+04  0.22718159742E+04 0.  0.
        4    1    3    3  502    0 -0.11237698824E+03 -0.10324325715E+04  0.91149477344E+03  0.13817995285E+04  0.12699999809E+01 0. -1.
       -4    1    3    3    0  502  0.11237698824E+03  0.10324325715E+04 -0.69924251852E+02  0.10408826140E+04  0.12699999809E+01 0.  1.
</event>
<event>
 5   0  0.2043885E-05  0.2369330E+04  0.7818609E-02  0.8451076E-01
        1   -1    0    0  501    0  0.00000000000E+00  0.00000000000E+00  0.11734317166E+04  0.11734317166E+04  0.50400001928E-02 0. -1.
       -1   -1    0    0    0  501  0.00000000000E+00  0.00000000000E+00 -0.11960054879E+04  0.11960054879E+04  0.50400001928E-02 0.  1.
    10030    2    1    2    0    0  0.00000000000E+00  0.00000000000E+00 -0.22573771344E+02  0.23694372046E+04  0.23693296713E+04 0.  0.
        5    1    3    3  502    0 -0.33191030202E+03 -0.91981882825E+03 -0.68003059526E+03  0.11910897640E+04  0.46999998093E+01 0.  1.
       -5    1    3    3    0  502  0.33191030202E+03  0.91981882825E+03  0.65745682391E+03  0.11783474406E+04  0.46999998093E+01 0. -1.
</event>
<event>
 5   0  0.4798609E-05  0.2323866E+04  0.7818609E-02  0.8468570E-01
        2   -1    0    0  501    0  0.00000000000E+00  0.00000000000E+00  0.11897968754E+04  0.11897968754E+04  0.25500000920E-02 0. -1.
       -2   -1    0    0    0  501  0.00000000000E+00  0.00000000000E+00 -0.11347212828E+04  0.11347212828E+04  0.25500000920E-02 0.  1.
    10030    2    1    2    0    0  0.00000000000E+00  0.00000000000E+00  0.55075592587E+02  0.23245181581E+04  0.23238656043E+04 0.  0.
        2    1    3    3  502    0 -0.18271058949E+03 -0.59433947117E+03 -0.95430049921E+03  0.11389960532E+04  0.25500000920E-02 0.  1.
       -2    1    3    3    0  502  0.18271058949E+03  0.59433947117E+03  0.10093760918E+04  0.11855221049E+04  0.25500000920E-02 0. -1.
</event>
<event>
 5   0  0.4798609E-05  0.2308570E+04  0.7818609E-02  0.8474550E-01
        2   -1    0    0  501    0  0.00000000000E+00  0.00000000000E+00  0.22250298401E+04  0.22250298401E+04  0.25500000920E-02 0.  1.
       -2   -1    0    0    0  501  0.00000000000E+00  0.00000000000E+00 -0.59881192586E+03  0.59881192587E+03  0.25500000920E-02 0. -1.
    10030    2    1    2    0    0  0.00000000000E+00  0.00000000000E+00  0.16262179142E+04  0.28238417660E+04  0.23085704699E+04 0.  0.
        2    1    3    3  502    0  0.76638624802E+03  0.24254323344E+03  0.18263723608E+04  0.19954475943E+04  0.25500000920E-02 0.  1.
       -2    1    3    3    0  502 -0.76638624802E+03 -0.24254323344E+03 -0.20015444654E+03  0.82839417171E+03  0.25500000920E-02 0. -1.
</event>
<event>
 5   0  0.2085063E-05  0.2280591E+04  0.7818609E-02  0.8485613E-01
       -1   -1    0    0    0  501  0.00000000000E+00  0.00000000000E+00  0.54874158836E+03  0.54874158838E+03  0.50400001928E-02 0.  1.
        1   -1    0    0  501    0  0.00000000000E+00  0.00000000000E+00 -0.23695553061E+04  0.23695553061E+04  0.50400001928E-02 0. -1.
    10030    2    1    2    0    0  0.00000000000E+00  0.00000000000E+00 -0.18208137178E+04  0.29182968945E+04  0.22805907502E+04 0.  0.
        1    1    3    3  502    0  0.26007566858E+03 -0.77635121999E+03  0.10519243567E+03  0.82548532314E+03  0.50400001928E-02 0.  1.
       -1    1    3    3    0  502 -0.26007566858E+03  0.77635121999E+03 -0.19260061534E+04  0.20928115714E+04  0.50400001928E-02 0. -1.
</event>
<event>
 5   0  0.4602447E-05  0.2299412E+04  0.7818609E-02  0.8478153E-01
        2   -1    0    0  501    0  0.00000000000E+00  0.00000000000E+00  0.16231624206E+04  0.16231624206E+04  0.25500000920E-02 0.  1.
       -2   -1    0    0    0  501  0.00000000000E+00  0.00000000000E+00 -0.81435078791E+03  0.81435078792E+03  0.25500000920E-02 0. -1.
    10030    2    1    2    0    0  0.00000000000E+00  0.00000000000E+00  0.80881163273E+03  0.24375132086E+04  0.22994117475E+04 0.  0.
        3    1    3    3  502    0 -0.89329708849E+03  0.11598256001E+03  0.11617305437E+04  0.14700508525E+04  0.10100000352E+00 0.  1.
       -3    1    3    3    0  502  0.89329708849E+03 -0.11598256001E+03 -0.35291891096E+03  0.96746235609E+03  0.10100000352E+00 0. -1.
</event>
<event>
 5   0  0.4602447E-05  0.2283306E+04  0.7818609E-02  0.8484533E-01
       -2   -1    0    0    0  501  0.00000000000E+00  0.00000000000E+00  0.59973477067E+03  0.59973477068E+03  0.25500000920E-02 0.  1.
        2   -1    0    0  501    0  0.00000000000E+00  0.00000000000E+00 -0.21732461533E+04  0.21732461533E+04  0.25500000920E-02 0. -1.
    10030    2    1    2    0    0  0.00000000000E+00  0.00000000000E+00 -0.15735113826E+04  0.27729809240E+04  0.22833057468E+04 0.  0.
        3    1    3    3  502    0  0.24619412263E+03 -0.35829155556E+03  0.49528204613E+03  0.65900584232E+03  0.10100000352E+00 0.  1.
       -3    1    3    3    0  502 -0.24619412263E+03  0.35829155556E+03 -0.20687934288E+04  0.21139750817E+04  0.10100000352E+00 0. -1.
</event>
<event>
 5   0  0.4505107E-05  0.2285991E+04  0.7818609E-02  0.8483465E-01
        2   -1    0    0  501    0  0.00000000000E+00  0.00000000000E+00  0.12839815357E+04  0.12839815357E+04  0.25500000920E-02 0.  1.
       -2   -1    0    0    0  501  0.00000000000E+00  0.00000000000E+00 -0.10174906812E+04  0.10174906813E+04  0.25500000920E-02 0. -1.
    10030    2    1    2    0    0  0.00000000000E+00  0.00000000000E+00  0.26649085447E+03  0.23014722170E+04  0.22859914676E+04 0.  0.
        4    1    3    3  502    0  0.30789384245E+01 -0.65655698262E+03  0.10751887002E+04  0.12598051061E+04  0.12699999809E+01 0.  1.
       -4    1    3    3    0  502 -0.30789384245E+01  0.65655698262E+03 -0.80869784576E+03  0.10416671109E+04  0.12699999809E+01 0. -1.
</event>
<event>
 5   0  0.2031860E-05  0.2412885E+04  0.7818609E-02  0.8434695E-01
       -1   -1    0    0    0  501  0.00000000000E+00  0.00000000000E+00  0.64229116133E+03  0.64229116135E+03  0.50400001928E-02 0.  1.
        1   -1    0    0  501    0  0.00000000000E+00  0.00000000000E+00 -0.22661123902E+04  0.22661123902E+04  0.50400001928E-02 0. -1.
    10030    2    1    2    0    0  0.00000000000E+00  0.00000000000E+00 -0.16238212289E+04  0.29084035516E+04  0.24128853755E+04 0.  0.
        4    1    3    3  502    0  0.29139745947E+03  0.54364059682E+03 -0.20616839371E+04  0.21519758008E+04  0.12699999809E+01 0. -1.
       -4    1    3    3    0  502 -0.29139745947E+03 -0.54364059682E+03  0.43786270825E+03  0.75642775073E+03  0.12699999809E+01 0.  1.
</event>
<event>
 5   0  0.2031860E-05  0.2307411E+04  0.7818609E-02  0.8475005E-01
        1   -1    0    0  501    0  0.00000000000E+00  0.00000000000E+00  0.12955097514E+04  0.12955097514E+04  0.50400001928E-02 0. -1.
       -1   -1    0    0    0  501  0.00000000000E+00  0.00000000000E+00 -0.10274226204E+04  0.10274226204E+04  0.50400001928E-02 0.  1.
    10030    2    1    2    0    0  0.00000000000E+00  0.00000000000E+00  0.26808713105E+03  0.23229323718E+04  0.23074106904E+04 0.  0.
        4    1    3    3  502    0  0.66954528873E+03 -0.90826557621E+03 -0.10798404632E+03  0.11335340391E+04  0.12699999809E+01 0. -1.
       -4    1    3    3    0  502 -0.66954528873E+03  0.90826557621E+03  0.37607117737E+03  0.11893983327E+04  0.12699999809E+01 0.  1.
</event>
<event>
 5   0  0.4436695E-05  0.2303631E+04  0.7818609E-02  0.8476491E-01
       -2   -1    0    0    0  501  0.00000000000E+00  0.00000000000E+00  0.85011263005E+03  0.85011263005E+03  0.25500000920E-02 0.  1.
        2   -1    0    0  501    0  0.00000000000E+00  0.00000000000E+00 -0.15605917425E+04  0.15605917425E+04  0.25500000920E-02 0. -1.
    10030    2    1    2    0    0  0.00000000000E+00  0.00000000000E+00 -0.71047911250E+03  0.24107043726E+04  0.23036308304E+04 0.  0.
        5    1    3    3  502    0  0.84111815853E+03  0.65566578049E+03  0.10004468742E+03  0.10711715090E+04  0.46999998093E+01 0.  1.
       -5    1    3    3    0  502 -0.84111815853E+03 -0.65566578049E+03 -0.81052379992E+03  0.13395328636E+04  0.46999998093E+01 0. -1.
</event>
<event>
 5   0  0.2031860E-05  0.2279310E+04  0.7818609E-02  0.8486124E-01
       -1   -1    0    0    0  501  0.00000000000E+00  0.00000000000E+00  0.78855434464E+03  0.78855434465E+03  0.50400001928E-02 0. -1.
        1   -1    0    0  501    0  0.00000000000E+00  0.00000000000E+00 -0.16470819924E+04  0.16470819924E+04  0.50400001928E-02 0.  1.
    10030    2    1    2    0    0  0.00000000000E+00  0.00000000000E+00 -0.85852764780E+03  0.24356363371E+04  0.22793101247E+04 0.  0.
        4    1    3    3  502    0 -0.10410904439E+03  0.78470390685E+03  0.44685401198E+03  0.90899891940E+03  0.12699999809E+01 0. -1.
       -4    1    3    3    0  502  0.10410904439E+03 -0.78470390685E+03 -0.13053816598E+04  0.15266374177E+04  0.12699999809E+01 0.  1.
</event>
<event>
 5   0  0.4602447E-05  0.2291611E+04  0.7818609E-02  0.8481236E-01
        2   -1    0    0  501    0  0.00000000000E+00  0.00000000000E+00  0.14625560947E+04  0.14625560947E+04  0.25500000920E-02 0. -1.
       -2   -1    0    0    0  501  0.00000000000E+00  0.00000000000E+00 -0.89765450270E+03  0.89765450270E+03  0.25500000920E-02 0.  1.
    10030    2    1    2    0    0  0.00000000000E+00  0.00000000000E+00  0.56490159203E+03  0.23602105974E+04  0.22916108430E+04 0.  0.
        3    1    3    3  502    0 -0.79878124863E+03  0.43119142293E+03  0.10025902202E+04  0.13524661498E+04  0.10100000352E+00 0. -1.
       -3    1    3    3    0  502  0.79878124863E+03 -0.43119142293E+03 -0.43768862819E+03  0.10077444477E+04  0.10100000352E+00 0.  1.
</event>
<event>
 5   0  0.4602447E-05  0.2303112E+04  0.7818609E-02  0.8476695E-01
       -2   -1    0    0    0  501  0.00000000000E+00  0.00000000000E+00  0.82650228673E+03  0.82650228674E+03  0.25500000920E-02 0. -1.
        2   -1    0    0  501    0  0.00000000000E+00  0.00000000000E+00 -0.16044501289E+04  0.16044501289E+04  0.25500000920E-02 0.  1.
    10030    2    1    2    0    0  0.00000000000E+00  0.00000000000E+00 -0.77794784212E+03  0.24309524156E+04  0.23031124162E+04 0.  0.
        3    1    3    3  502    0  0.55997349453E+03  0.50753854081E+03 -0.13060611334E+04  0.15089603638E+04  0.10100000352E+00 0.  1.
       -3    1    3    3    0  502 -0.55997349453E+03 -0.50753854081E+03  0.52811329130E+03  0.92199205183E+03  0.10100000352E+00 0. -1.
</event>
<event>
 5   0  0.2031860E-05  0.2276866E+04  0.7818609E-02  0.8487099E-01
        1   -1    0    0  501    0  0.00000000000E+00  0.00000000000E+00  0.13347417762E+04  0.13347417762E+04  0.50400001928E-02 0. -1.
       -1   -1    0    0    0  501  0.00000000000E+00  0.00000000000E+00 -0.97099677365E+03  0.97099677366E+03  0.50400001928E-02 0.  1.
    10030    2    1    2    0    0  0.00000000000E+00  0.00000000000E+00  0.36374500258E+03  0.23057385499E+04  0.22768662309E+04 0.  0.
        4    1    3    3  502    0  0.79349778289E+03  0.42105897355E+03 -0.52635194262E+03  0.10411423395E+04  0.12699999809E+01 0.  1.
       -4    1    3    3    0  502 -0.79349778289E+03 -0.42105897355E+03  0.89009694520E+03  0.12645962104E+04  0.12699999809E+01 0. -1.
</event>
<event>
 5   0  0.1968318E-05  0.2159295E+04  0.7818609E-02  0.8535564E-01
       -1   -1    0    0    0  501  0.00000000000E+00  0.00000000000E+00  0.86968682017E+03  0.86968682018E+03  0.50400001928E-02 0.  1.
        1   -1    0    0  501    0  0.00000000000E+00  0.00000000000E+00 -0.13402971360E+04  0.13402971360E+04  0.50400001928E-02 0. -1.
    10030    2    1    2    0    0  0.00000000000E+00  0.00000000000E+00 -0.47061031586E+03  0.22099839562E+04  0.21592950279E+04 0.  0.
        3    1    3    3  502    0 -0.86552272807E+03  0.39950180385E+03 -0.75406397810E+03  0.12154603150E+04  0.10100000352E+00 0. -1.
       -3    1    3    3    0  502  0.86552272807E+03 -0.39950180385E+03  0.28345366224E+03  0.99452364121E+03  0.10100000352E+00 0.  1.
</event>
<event>
 5   0  0.2031860E-05  0.2272618E+04  0.7818609E-02  0.8488796E-01
        1   -1    0    0  501    0  0.00000000000E+00  0.00000000000E+00  0.13926301531E+04  0.13926301531E+04  0.50400001928E-02 0.  1.
       -1   -1    0    0    0  501  0.00000000000E+00  0.00000000000E+00 -0.92716484214E+03  0.92716484216E+03  0.50400001928E-02 0. -1.
    10030    2    1    2    0    0  0.00000000000E+00  0.00000000000E+00  0.46546531097E+03  0.23197949953E+04  0.22726176239E+04 0.  0.
        4    1    3    3  502    0 -0.18945143087E+03  0.79560195259E+03 -0.57251735894E+03  0.99832462196E+03  0.12699999809E+01 0. -1.
       -4    1    3    3    0  502  0.18945143087E+03 -0.79560195259E+03  0.10379826699E+04  0.13214703733E+04  0.12699999809E+01 0.  1.
</event>
<event>
 5   0  0.4436695E-05  0.2282658E+04  0.7818609E-02  0.8484790E-01
       -2   -1    0    0    0  501  0.00000000000E+00  0.00000000000E+00  0.10158186452E+04  0.10158186452E+04  0.25500000920E-02 0.  1.
        2   -1    0    0  501    0  0.00000000000E+00  0.00000000000E+00 -0.12823466782E+04  0.12823466782E+04  0.25500000920E-02 0. -1.
    10030    2    1    2    0    0  0.00000000000E+00  0.00000000000E+00 -0.26652803297E+03  0.22981653234E+04  0.22826578064E+04 0.  0.
        5    1    3    3  502    0  0.72398244879E+03  0.79027298834E+02  0.75146281866E+03  0.10464771177E+04  0.46999998093E+01 0.  1.
       -5    1    3    3    0  502 -0.72398244879E+03 -0.79027298834E+02 -0.10179908516E+04  0.12516882056E+04  0.46999998093E+01 0. -1.
</event>
<event>
 5   0  0.2031860E-05  0.2394068E+04  0.7818609E-02  0.8441728E-01
       -1   -1    0    0    0  501  0.00000000000E+00  0.00000000000E+00  0.11728467873E+04  0.11728467873E+04  0.50400001928E-02 0.  1.
        1   -1    0    0  501    0  0.00000000000E+00  0.00000000000E+00 -0.12217202595E+04  0.12217202595E+04  0.50400001928E-02 0. -1.
    10030    2    1    2    0    0  0.00000000000E+00  0.00000000000E+00 -0.48873472196E+02  0.23945670468E+04  0.23940682374E+04 0.  0.
        4    1    3    3  502    0 -0.11451041157E+04  0.26943995010E+03 -0.24590496877E+03  0.12018037232E+04  0.12699999809E+01 0. -1.
       -4    1    3    3    0  502  0.11451041157E+04 -0.26943995010E+03  0.19703149657E+03  0.11927633236E+04  0.12699999809E+01 0.  1.
</event>
<event>
 5   0  0.2042951E-05  0.2302618E+04  0.7818609E-02  0.8476889E-01
       -1   -1    0    0    0  501  0.00000000000E+00  0.00000000000E+00  0.75585280075E+03  0.75585280076E+03  0.50400001928E-02 0.  1.
        1   -1    0    0  501    0  0.00000000000E+00  0.00000000000E+00 -0.17536654987E+04  0.17536654987E+04  0.50400001928E-02 0. -1.
    10030    2    1    2    0    0  0.00000000000E+00  0.00000000000E+00 -0.99781269793E+03  0.25095182994E+04  0.23026184910E+04 0.  0.
        2    1    3    3  502    0  0.10419231839E+04  0.48625726274E+03 -0.56304064961E+03  0.12802596689E+04  0.25500000920E-02 0. -1.
       -2    1    3    3    0  502 -0.10419231839E+04 -0.48625726274E+03 -0.43477204832E+03  0.12292586305E+04  0.25500000920E-02 0.  1.
</event>
<event>
 5   0  0.2043885E-05  0.2314834E+04  0.7818609E-02  0.8472095E-01
        1   -1    0    0  501    0  0.00000000000E+00  0.00000000000E+00  0.24653018992E+04  0.24653018992E+04  0.50400001928E-02 0.  1.
       -1   -1    0    0    0  501  0.00000000000E+00  0.00000000000E+00 -0.54338723072E+03  0.54338723075E+03  0.50400001928E-02 0. -1.
    10030    2    1    2    0    0  0.00000000000E+00  0.00000000000E+00  0.19219146685E+04  0.30086891300E+04  0.23148335335E+04 0.  0.
        5    1    3    3  502    0 -0.52805348715E+03 -0.91498508725E+03  0.34642026967E+03  0.11117856306E+04  0.46999998093E+01 0. -1.
       -5    1    3    3    0  502  0.52805348715E+03  0.91498508725E+03  0.15754943988E+04  0.18969034994E+04  0.46999998093E+01 0.  1.
</event>
<event>
 5   0  0.4798609E-05  0.2206288E+04  0.7818609E-02  0.8515816E-01
       -2   -1    0    0    0  501  0.00000000000E+00  0.00000000000E+00  0.52386567239E+03  0.52386567240E+03  0.25500000920E-02 0.  1.
        2   -1    0    0  501    0  0.00000000000E+00  0.00000000000E+00 -0.23229744145E+04  0.23229744145E+04  0.25500000920E-02 0. -1.
    10030    2    1    2    0    0  0.00000000000E+00  0.00000000000E+00 -0.17991087421E+04  0.28468400869E+04  0.22062878812E+04 0.  0.
        2    1    3    3  502    0 -0.10810404640E+04 -0.39341739669E+02 -0.62062120216E+03  0.12471435097E+04  0.25500000920E-02 0. -1.
       -2    1    3    3    0  502  0.10810404640E+04  0.39341739669E+02 -0.11784875400E+04  0.15996965772E+04  0.25500000920E-02 0.  1.
</event>
<event>
 5   0  0.4505107E-05  0.2309643E+04  0.7818609E-02  0.8474129E-01
        2   -1    0    0  501    0  0.00000000000E+00  0.00000000000E+00  0.12497886815E+04  0.12497886815E+04  0.25500000920E-02 0.  1.
       -2   -1    0    0    0  501  0.00000000000E+00  0.00000000000E+00 -0.10670708957E+04  0.10670708957E+04  0.25500000920E-02 0. -1.
    10030    2    1    2    0    0  0.00000000000E+00  0.00000000000E+00  0.18271778586E+03  0.23168595772E+04  0.23096433731E+04 0.  0.
        4    1    3    3  502    0 -0.12989644052E+03  0.41201149313E+03 -0.98296107335E+03  0.10737041680E+04  0.12699999809E+01 0. -1.
       -4    1    3    3    0  502  0.12989644052E+03 -0.41201149313E+03  0.11656788592E+04  0.12431554092E+04  0.12699999809E+01 0.  1.
</event>
<event>
 5   0  0.4602447E-05  0.2317500E+04  0.7818609E-02  0.8471053E-01
        2   -1    0    0  501    0  0.00000000000E+00  0.00000000000E+00  0.10584943918E+04  0.10584943918E+04  0.25500000920E-02 0. -1.
       -2   -1    0    0    0  501  0.00000000000E+00  0.00000000000E+00 -0.12685008160E+04  0.12685008160E+04  0.25500000920E-02 0.  1.
    10030    2    1    2    0    0  0.00000000000E+00  0.00000000000E+00 -0.21000642425E+03  0.23269952078E+04  0.23174995143E+04 0.  0.
        3    1    3    3  502    0 -0.99649645905E+03 -0.55870672499E+02  0.48611452670E+03  0.11101504710E+04  0.10100000352E+00 0. -1.
       -3    1    3    3    0  502  0.99649645905E+03  0.55870672499E+02 -0.69612095095E+03  0.12168447368E+04  0.10100000352E+00 0.  1.
</event>
<event>
 5   0  0.2085063E-05  0.2333786E+04  0.7818609E-02  0.8464718E-01
        1   -1    0    0  501    0  0.00000000000E+00  0.00000000000E+00  0.16608127786E+04  0.16608127786E+04  0.50400001928E-02 0.  1.
       -1   -1    0    0    0  501  0.00000000000E+00  0.00000000000E+00 -0.81986315710E+03  0.81986315712E+03  0.50400001928E-02 0. -1.
    10030    2    1    2    0    0  0.00000000000E+00  0.00000000000E+00  0.84094962147E+03  0.24806759357E+04  0.23337859439E+04 0.  0.
        1    1    3    3  502    0 -0.64440102317E+00 -0.75577153440E+03  0.13655050730E+04  0.15607034093E+04  0.50400001928E-02 0.  1.
       -1    1    3    3    0  502  0.64440102317E+00  0.75577153440E+03 -0.52455545156E+03  0.91997252635E+03  0.50400001928E-02 0. -1.
</event>
<event>
 5   0  0.1968318E-05  0.2295384E+04  0.7818609E-02  0.8479743E-01
       -1   -1    0    0    0  501  0.00000000000E+00  0.00000000000E+00  0.56326317082E+03  0.56326317084E+03  0.50400001928E-02 0.  1.
        1   -1    0    0  501    0  0.00000000000E+00  0.00000000000E+00 -0.23385110350E+04  0.23385110350E+04  0.50400001928E-02 0. -1.
    10030    2    1    2    0    0  0.00000000000E+00  0.00000000000E+00 -0.17752478642E+04  0.29017742058E+04  0.22953841862E+04 0.  0.
        3    1    3    3  502    0 -0.64723326471E+03 -0.87108351437E+03 -0.41545769012E+03  0.11620251677E+04  0.10100000352E+00 0.  1.
       -3    1    3    3    0  502  0.64723326471E+03  0.87108351437E+03 -0.13597901741E+04  0.17397490381E+04  0.10100000352E+00 0. -1.
</event>
<event>
 5   0  0.2043885E-05  0.2287308E+04  0.7818609E-02  0.8482942E-01
        1   -1    0    0  501    0  0.00000000000E+00  0.00000000000E+00  0.15580586157E+04  0.15580586157E+04  0.50400001928E-02 0.  1.
       -1   -1    0    0    0  501  0.00000000000E+00  0.00000000000E+00 -0.83947061258E+03  0.83947061259E+03  0.50400001928E-02 0. -1.
    10030    2    1    2    0    0  0.00000000000E+00  0.00000000000E+00  0.71858800314E+03  0.23975292283E+04  0.22873079553E+04 0.  0.
        5    1    3    3  502    0  0.28994978950E+03  0.30166811460E+03 -0.75634850426E+03  0.86438398972E+03  0.46999998093E+01 0. -1.
       -5    1    3    3    0  502 -0.28994978950E+03 -0.30166811460E+03  0.14749365074E+04  0.15331452386E+04  0.46999998093E+01 0.  1.
</event>
<event>
 5   0  0.2043885E-05  0.2272039E+04  0.7818609E-02  0.8489028E-01
        1   -1    0    0  501    0  0.00000000000E+00  0.00000000000E+00  0.99049803079E+03  0.99049803080E+03  0.50400001928E-02 0. -1.
       -1   -1    0    0    0  501  0.00000000000E+00  0.00000000000E+00 -0.13029201162E+04  0.13029201162E+04  0.50400001928E-02 0.  1.
    10030    2    1    2    0    0  0.00000000000E+00  0.00000000000E+00 -0.31242208543E+03  0.22934181470E+04  0.22720385643E+04 0.  0.
        5    1    3    3  502    0  0.48549228470E+03  0.70440628317E+03 -0.91065747614E+03  0.12494839331E+04  0.46999998093E+01 0.  1.
       -5    1    3    3    0  502 -0.48549228470E+03 -0.70440628317E+03  0.59823539071E+03  0.10439342139E+04  0.46999998093E+01 0. -1.
</event>
<event>
 5   0  0.4798609E-05  0.2279012E+04  0.7818609E-02  0.8486243E-01
       -2   -1    0    0    0  501  0.00000000000E+00  0.00000000000E+00  0.14559705904E+04  0.14559705904E+04  0.25500000920E-02 0. -1.
        2   -1    0    0  501    0  0.00000000000E+00  0.00000000000E+00 -0.89182666974E+03  0.89182666974E+03  0.25500000920E-02 0.  1.
    10030    2    1    2    0    0  0.00000000000E+00  0.00000000000E+00  0.56414392068E+03  0.23477972602E+04  0.22790115427E+04 0.  0.
        2    1    3    3  502    0  0.10874759382E+04  0.15085556616E+03 -0.32280665324E+02  0.10983639467E+04  0.25500000920E-02 0.  1.
       -2    1    3    3    0  502 -0.10874759382E+04 -0.15085556616E+03  0.59642458601E+03  0.12494333135E+04  0.25500000920E-02 0. -1.
</event>
<event>
 5   0  0.4798609E-05  0.2299555E+04  0.7818609E-02  0.8478097E-01
        2   -1    0    0  501    0  0.00000000000E+00  0.00000000000E+00  0.87356431050E+03  0.87356431051E+03  0.25500000920E-02 0. -1.
       -2   -1    0    0    0  501  0.00000000000E+00  0.00000000000E+00 -0.15133267842E+04  0.15133267842E+04  0.25500000920E-02 0.  1.
    10030    2    1    2    0    0  0.00000000000E+00  0.00000000000E+00 -0.63976247369E+03  0.23868910947E+04  0.22995549733E+04 0.  0.
        2    1    3    3  502    0 -0.23990335092E+03  0.46093003161E+03  0.74473275344E+03  0.90809525154E+03  0.25500000920E-02 0. -1.
       -2    1    3    3    0  502  0.23990335092E+03 -0.46093003161E+03 -0.13844952271E+04  0.14787958432E+04  0.25500000920E-02 0.  1.
</event>
<event>
 5   0  0.1968318E-05  0.2285734E+04  0.7818609E-02  0.8483567E-01
       -1   -1    0    0    0  501  0.00000000000E+00  0.00000000000E+00  0.61960171252E+03  0.61960171254E+03  0.50400001928E-02 0. -1.
        1   -1    0    0  501    0  0.00000000000E+00  0.00000000000E+00 -0.21080395634E+04  0.21080395635E+04  0.50400001928E-02 0.  1.
    10030    2    1    2    0    0  0.00000000000E+00  0.00000000000E+00 -0.14884378509E+04  0.27276412760E+04  0.22857339509E+04 0.  0.
        3    1    3    3  502    0 -0.23629553484E+01 -0.58534451718E+03 -0.19155777176E+04  0.20030156739E+04  0.10100000352E+00 0. -1.
       -3    1    3    3    0  502  0.23629553484E+01  0.58534451718E+03  0.42713986668E+03  0.72462560213E+03  0.10100000352E+00 0.  1.
</event>
<event>
 5   0  0.2085063E-05  0.2288713E+04  0.7818609E-02  0.8482385E-01
        1   -1    0    0  501    0  0.00000000000E+00  0.00000000000E+00  0.16018055266E+04  0.16018055266E+04  0.50400001928E-02 0.  1.
       -1   -1    0    0    0  501  0.00000000000E+00  0.00000000000E+00 -0.81754739187E+03  0.81754739188E+03  0.50400001928E-02 0. -1.
    10030    2    1    2    0    0  0.00000000000E+00  0.00000000000E+00  0.78425813477E+03  0.24193529185E+04  0.22887131149E+04 0.  0.
        1    1    3    3  502    0 -0.40602992482E+03 -0.85730169851E+03  0.10687638603E+04  0.14290145875E+04  0.50400001928E-02 0.  1.
       -1    1    3    3    0  502  0.40602992482E+03  0.85730169851E+03 -0.28450572551E+03  0.99033833107E+03  0.50400001928E-02 0. -1.
</event>
<event>
 5   0  0.4605516E-05  0.2283650E+04  0.7818609E-02  0.8484396E-01
        2   -1    0    0  501    0  0.00000000000E+00  0.00000000000E+00  0.16444153640E+04  0.16444153640E+04  0.25500000920E-02 0.  1.
       -2   -1    0    0    0  501  0.00000000000E+00  0.00000000000E+00 -0.79284382082E+03  0.79284382082E+03  0.25500000920E-02 0. -1.
    10030    2    1    2    0    0  0.00000000000E+00  0.00000000000E+00  0.85157154316E+03  0.24372591848E+04  0.22836502011E+04 0.  0.
        1    1    3    3  502    0  0.66373122514E+03 -0.92441336711E+03  0.52524972970E+03  0.12533820212E+04  0.50400001928E-02 0. -1.
       -1    1    3    3    0  502 -0.66373122514E+03  0.92441336711E+03  0.32632181346E+03  0.11838771636E+04  0.50400001928E-02 0.  1.
</event>
<event>
 5   0  0.4436695E-05  0.2251671E+04  0.7818609E-02  0.8497224E-01
       -2   -1    0    0    0  501  0.00000000000E+00  0.00000000000E+00  0.69324839400E+03  0.69324839401E+03  0.25500000920E-02 0.  1.
        2   -1    0    0  501    0  0.00000000000E+00  0.00000000000E+00 -0.18283574020E+04  0.18283574020E+04  0.25500000920E-02 0. -1.
    10030    2    1    2    0    0  0.00000000000E+00  0.00000000000E+00 -0.11351090080E+04  0.25216057960E+04  0.22516712305E+04 0.  0.
        5    1    3    3  502    0 -0.71302755142E+03  0.65271729878E+03 -0.12138297670E+04  0.15517257987E+04  0.46999998093E+01 0. -1.
       -5    1    3    3    0  502  0.71302755142E+03 -0.65271729878E+03  0.78720759007E+02  0.96987999727E+03  0.46999998093E+01 0.  1.
</event>
<event>
 5   0  0.2042951E-05  0.2295569E+04  0.7818609E-02  0.8479670E-01
        1   -1    0    0  501    0  0.00000000000E+00  0.00000000000E+00  0.15785777398E+04  0.15785777398E+04  0.50400001928E-02 0.  1.
       -1   -1    0    0    0  501  0.00000000000E+00  0.00000000000E+00 -0.83455469561E+03  0.83455469563E+03  0.50400001928E-02 0. -1.
    10030    2    1    2    0    0  0.00000000000E+00  0.00000000000E+00  0.74402304420E+03  0.24131324354E+04  0.22955691801E+04 0.  0.
        2    1    3    3  502    0 -0.48856941481E+03  0.97826737919E+03  0.52867792667E+01  0.10934967253E+04  0.25500000920E-02 0. -1.
       -2    1    3    3    0  502  0.48856941481E+03 -0.97826737919E+03  0.73873626493E+03  0.13196357101E+04  0.25500000920E-02 0.  1.
</event>
<event>
 5   0  0.2042951E-05  0.2305737E+04  0.7818609E-02  0.8475663E-01
       -1   -1    0    0    0  501  0.00000000000E+00  0.00000000000E+00  0.54821697366E+03  0.54821697368E+03  0.50400001928E-02 0.  1.
        1   -1    0    0  501    0  0.00000000000E+00  0.00000000000E+00 -0.24244150647E+04  0.24244150647E+04  0.50400001928E-02 0. -1.
    10030    2    1    2    0    0  0.00000000000E+00  0.00000000000E+00 -0.18761980911E+04  0.29726320384E+04  0.23057367497E+04 0.  0.
        2    1    3    3  502    0 -0.20915522887E+03 -0.41848300247E+03  0.42033393286E+03  0.62893127465E+03  0.25500000920E-02 0.  1.
       -2    1    3    3    0  502  0.20915522887E+03  0.41848300247E+03 -0.22965320239E+04  0.23437007637E+04  0.25500000920E-02 0. -1.
</event>
<event>
 5   0  0.1968318E-05  0.2273986E+04  0.7818609E-02  0.8488249E-01
       -1   -1    0    0    0  501  0.00000000000E+00  0.00000000000E+00  0.54784977737E+03  0.54784977739E+03  0.50400001928E-02 0. -1.
        1   -1    0    0  501    0  0.00000000000E+00  0.00000000000E+00 -0.23596852727E+04  0.23596852727E+04  0.50400001928E-02 0.  1.
    10030    2    1    2    0    0  0.00000000000E+00  0.00000000000E+00 -0.18118354953E+04  0.29075350501E+04  0.22739859730E+04 0.  0.
        3    1    3    3  502    0  0.14198102790E+01 -0.45962802680E+03  0.42376812417E+03  0.62517147419E+03  0.10100000352E+00 0. -1.
       -3    1    3    3    0  502 -0.14198102790E+01  0.45962802680E+03 -0.22356036195E+04  0.22823635759E+04  0.10100000352E+00 0.  1.
</event>
<event>
 5   0  0.4602447E-05  0.2299513E+04  0.7818609E-02  0.8478113E-01
       -2   -1    0    0    0  501  0.00000000000E+00  0.00000000000E+00  0.65424168175E+03  0.65424168175E+03  0.25500000920E-02 0.  1.
        2   -1    0    0  501    0  0.00000000000E+00  0.00000000000E+00 -0.20205676587E+04  0.20205676587E+04  0.25500000920E-02 0. -1.
    10030    2    1    2    0    0  0.00000000000E+00  0.00000000000E+00 -0.13663259769E+04  0.26748093404E+04  0.22995126293E+04 0.  0.
        3    1    3    3  502    0  0.79902817255E+03  0.21474438960E+03  0.24549479398E+03  0.86303469077E+03  0.10100000352E+00 0.  1.
       -3    1    3    3    0  502 -0.79902817255E+03 -0.21474438960E+03 -0.16118207709E+04  0.18117746497E+04  0.10100000352E+00 0. -1.
</event>
<event>
 5   0  0.2043885E-05  0.2319281E+04  0.7818609E-02  0.8470357E-01
        1   -1    0    0  501    0  0.00000000000E+00  0.00000000000E+00  0.10885159177E+04  0.10885159177E+04  0.50400001928E-02 0.  1.
       -1   -1    0    0    0  501  0.00000000000E+00  0.00000000000E+00 -0.12354127727E+04  0.12354127727E+04  0.50400001928E-02 0. -1.
    10030    2    1    2    0    0  0.00000000000E+00  0.00000000000E+00 -0.14689685505E+03  0.23239286904E+04  0.23192813267E+04 0.  0.
        5    1    3    3  502    0  0.42232577512E+03 -0.10739786386E+04  0.40600565144E+02  0.11547552435E+04  0.46999998093E+01 0. -1.
       -5    1    3    3    0  502 -0.42232577512E+03  0.10739786386E+04 -0.18749742019E+03  0.11691734470E+04  0.46999998093E+01 0.  1.
</event>
<event>
 5   0  0.2042951E-05  0.2369627E+04  0.7818609E-02  0.8450963E-01
        1   -1    0    0  501    0  0.00000000000E+00  0.00000000000E+00  0.18065436012E+04  0.18065436012E+04  0.50400001928E-02 0. -1.
       -1   -1    0    0    0  501  0.00000000000E+00  0.00000000000E+00 -0.77705450412E+03  0.77705450414E+03  0.50400001928E-02 0.  1.
    10030    2    1    2    0    0  0.00000000000E+00  0.00000000000E+00  0.10294890971E+04  0.25835981053E+04  0.23696268417E+04 0.  0.
        2    1    3    3  502    0  0.93447868292E+03  0.70782233144E+03  0.70207269238E+03  0.13664438983E+04  0.25500000920E-02 0. -1.
       -2    1    3    3    0  502 -0.93447868292E+03 -0.70782233144E+03  0.32741640468E+03  0.12171542071E+04  0.25500000920E-02 0.  1.
</event>
<event>
 5   0  0.4602447E-05  0.2311041E+04  0.7818609E-02  0.8473581E-01
       -2   -1    0    0    0  501  0.00000000000E+00  0.00000000000E+00  0.90633387382E+03  0.90633387382E+03  0.25500000920E-02 0. -1.
        2   -1    0    0  501    0  0.00000000000E+00  0.00000000000E+00 -0.14732182262E+04  0.14732182262E+04  0.25500000920E-02 0.  1.
    10030    2    1    2    0    0  0.00000000000E+00  0.00000000000E+00 -0.56688435234E+03  0.23795521000E+04  0.23110409619E+04 0.  0.
        3    1    3    3  502    0 -0.96813436887E+03  0.14564637734E+03  0.34853732781E+03  0.10392186019E+04  0.10100000352E+00 0. -1.
       -3    1    3    3    0  502  0.96813436887E+03 -0.14564637734E+03 -0.91542168016E+03  0.13403334981E+04  0.10100000352E+00 0.  1.
</event>
<event>
 5   0  0.4436695E-05  0.2316642E+04  0.7818609E-02  0.8471388E-01
        2   -1    0    0  501    0  0.00000000000E+00  0.00000000000E+00  0.14622633919E+04  0.14622633919E+04  0.25500000920E-02 0.  1.
       -2   -1    0    0    0  501  0.00000000000E+00  0.00000000000E+00 -0.91755556841E+03  0.91755556842E+03  0.25500000920E-02 0. -1.
    10030    2    1    2    0    0  0.00000000000E+00  0.00000000000E+00  0.54470782347E+03  0.23798189603E+04  0.23166423269E+04 0.  0.
        5    1    3    3  502    0  0.78119604176E+03  0.57851309654E+03 -0.37469717017E+03  0.10418083883E+04  0.46999998093E+01 0. -1.
       -5    1    3    3    0  502 -0.78119604176E+03 -0.57851309654E+03  0.91940499364E+03  0.13380105720E+04  0.46999998093E+01 0.  1.
</event>
<event>
 5   0  0.4436695E-05  0.2297227E+04  0.7818609E-02  0.8479015E-01
        2   -1    0    0  501    0  0.00000000000E+00  0.00000000000E+00  0.18703750098E+04  0.18703750098E+04  0.25500000920E-02 0.  1.
       -2   -1    0    0    0  501  0.00000000000E+00  0.00000000000E+00 -0.70537370105E+03  0.70537370106E+03  0.25500000920E-02 0. -1.
    10030    2    1    2    0    0  0.00000000000E+00  0.00000000000E+00  0.11650013088E+04  0.25757487109E+04  0.22972273227E+04 0.  0.
        5    1    3    3  502    0  0.68440348080E+03  0.69027532131E+03  0.12685719376E+04  0.15981817777E+04  0.46999998093E+01 0. -1.
       -5    1    3    3    0  502 -0.68440348080E+03 -0.69027532131E+03 -0.10357062879E+03  0.97756693320E+03  0.46999998093E+01 0.  1.
</event>
<event>
 5   0  0.4436695E-05  0.2359017E+04  0.7818609E-02  0.8455008E-01
        2   -1    0    0  501    0  0.00000000000E+00  0.00000000000E+00  0.10645863271E+04  0.10645863271E+04  0.25500000920E-02 0.  1.
       -2   -1    0    0    0  501  0.00000000000E+00  0.00000000000E+00 -0.13068364910E+04  0.13068364910E+04  0.25500000920E-02 0. -1.
    10030    2    1    2    0    0  0.00000000000E+00  0.00000000000E+00 -0.24225016389E+03  0.23714228180E+04  0.23590169648E+04 0.  0.
        5    1    3    3  502    0 -0.82864205454E+02  0.10684762864E+04  0.37412193900E+03  0.11351199788E+04  0.46999998093E+01 0.  1.
       -5    1    3    3    0  502  0.82864205454E+02 -0.10684762864E+04 -0.61637210289E+03  0.12363028392E+04  0.46999998093E+01 0. -1.
</event>
<event>
 5   0  0.4798609E-05  0.2093582E+04  0.7818609E-02  0.8564076E-01
       -2   -1    0    0    0  501  0.00000000000E+00  0.00000000000E+00  0.14529753310E+04  0.14529753310E+04  0.25500000920E-02 0.  1.
        2   -1    0    0  501    0  0.00000000000E+00  0.00000000000E+00 -0.75415713011E+03  0.75415713011E+03  0.25500000920E-02 0. -1.
    10030    2    1    2    0    0  0.00000000000E+00  0.00000000000E+00  0.69881820090E+03  0.22071324611E+04  0.20935822943E+04 0.  0.
        2    1    3    3  502    0  0.77355694486E+02  0.10392863972E+04  0.45308724878E+03  0.11363926143E+04  0.25500000920E-02 0. -1.
       -2    1    3    3    0  502 -0.77355694486E+02 -0.10392863972E+04  0.24573095212E+03  0.10707398468E+04  0.25500000920E-02 0.  1.
</event>
<event>
 5   0  0.4505107E-05  0.2309375E+04  0.7818609E-02  0.8474234E-01
        2   -1    0    0  501    0  0.00000000000E+00  0.00000000000E+00  0.10821808846E+04  0.10821808846E+04  0.25500000920E-02 0.  1.
       -2   -1    0    0    0  501  0.00000000000E+00  0.00000000000E+00 -0.12320520275E+04  0.12320520275E+04  0.25500000920E-02 0. -1.
    10030    2    1    2    0    0  0.00000000000E+00  0.00000000000E+00 -0.14987114297E+03  0.23142329121E+04  0.23093749397E+04 0.  0.
        4    1    3    3  502    0  0.92316570692E+03  0.53590904249E+03 -0.51616636239E+03  0.11856908327E+04  0.12699999809E+01 0. -1.
       -4    1    3    3    0  502 -0.92316570692E+03 -0.53590904249E+03  0.36629521942E+03  0.11285420794E+04  0.12699999809E+01 0.  1.
</event>
<event>
 5   0  0.4602447E-05  0.2249219E+04  0.7818609E-02  0.8498217E-01
        2   -1    0    0  501    0  0.00000000000E+00  0.00000000000E+00  0.16312476511E+04  0.16312476511E+04  0.25500000920E-02 0.  1.
       -2   -1    0    0    0  501  0.00000000000E+00  0.00000000000E+00 -0.77532464888E+03  0.77532464888E+03  0.25500000920E-02 0. -1.
    10030    2    1    2    0    0  0.00000000000E+00  0.00000000000E+00  0.85592300219E+03  0.24065722999E+04  0.22492189865E+04 0.  0.
        3    1    3    3  502    0  0.94045538669E+03 -0.29119292590E+03  0.10095872153E+04  0.14101475135E+04  0.10100000352E+00 0.  1.
       -3    1    3    3    0  502 -0.94045538669E+03  0.29119292590E+03 -0.15366421307E+03  0.99642478644E+03  0.10100000352E+00 0. -1.
</event>
<event>
 5   0  0.4436695E-05  0.2311323E+04  0.7818609E-02  0.8473470E-01
        2   -1    0    0  501    0  0.00000000000E+00  0.00000000000E+00  0.12879669838E+04  0.12879669838E+04  0.25500000920E-02 0.  1.
       -2   -1    0    0    0  501  0.00000000000E+00  0.00000000000E+00 -0.10369470259E+04  0.10369470260E+04  0.25500000920E-02 0. -1.
    10030    2    1    2    0    0  0.00000000000E+00  0.00000000000E+00  0.25101995789E+03  0.23249140098E+04  0.23113230267E+04 0.  0.
        5    1    3    3  502    0  0.49018348359E+03 -0.36093275990E+03  0.11136197886E+04  0.12691427927E+04  0.46999998093E+01 0.  1.
       -5    1    3    3    0  502 -0.49018348359E+03  0.36093275990E+03 -0.86259983074E+03  0.10557712170E+04  0.46999998093E+01 0. -1.
</event>
<event>
 5   0  0.4605516E-05  0.2317067E+04  0.7818609E-02  0.8471222E-01
        2   -1    0    0  501    0  0.00000000000E+00  0.00000000000E+00  0.71751852980E+03  0.71751852981E+03  0.25500000920E-02 0. -1.
       -2   -1    0    0    0  501  0.00000000000E+00  0.00000000000E+00 -0.18706141302E+04  0.18706141302E+04  0.25500000920E-02 0.  1.
    10030    2    1    2    0    0  0.00000000000E+00  0.00000000000E+00 -0.11530956004E+04  0.25881326601E+04  0.23170673711E+04 0.  0.
        1    1    3    3  502    0 -0.83813652352E+02 -0.87349710602E+03 -0.14214639140E+04  0.16705033916E+04  0.50400001928E-02 0.  1.
       -1    1    3    3    0  502  0.83813652352E+02  0.87349710602E+03  0.26836831357E+03  0.91762926844E+03  0.50400001928E-02 0. -1.
</event>
<event>
 5   0  0.1604500E-05  0.2301981E+04  0.7818609E-02  0.8477140E-01
       -3   -1    0    0    0  501  0.00000000000E+00  0.00000000000E+00  0.17700631953E+04  0.17700631982E+04  0.10100000352E+00 0.  1.
        3   -1    0    0  501    0  0.00000000000E+00  0.00000000000E+00 -0.74843608435E+03  0.74843609117E+03  0.10100000352E+00 0. -1.
    10030    2    1    2    0    0  0.00000000000E+00  0.00000000000E+00  0.10216271109E+04  0.25184992893E+04  0.23019810418E+04 0.  0.
        3    1    3    3  502    0 -0.89016429173E+03 -0.45423457014E+02 -0.28591519677E+03  0.93605729882E+03  0.10100000352E+00 0. -1.
       -3    1    3    3    0  502  0.89016429173E+03  0.45423457014E+02  0.13075423077E+04  0.15824419905E+04  0.10100000352E+00 0.  1.
</event>
<event>
 5   0  0.4605516E-05  0.2301262E+04  0.7818609E-02  0.8477424E-01
        2   -1    0    0  501    0  0.00000000000E+00  0.00000000000E+00  0.79626110739E+03  0.79626110740E+03  0.25500000920E-02 0.  1.
       -2   -1    0    0    0  501  0.00000000000E+00  0.00000000000E+00 -0.16627109352E+04  0.16627109353E+04  0.25500000920E-02 0. -1.
    10030    2    1    2    0    0  0.00000000000E+00  0.00000000000E+00 -0.86644982786E+03  0.24589720426E+04  0.23012623063E+04 0.  0.
        1    1    3    3  502    0  0.61147528713E+03  0.96860629952E+03 -0.31689786003E+03  0.11884967160E+04  0.50400001928E-02 0.  1.
       -1    1    3    3    0  502 -0.61147528713E+03 -0.96860629952E+03 -0.54955196783E+03  0.12704753266E+04  0.50400001928E-02 0. -1.
</event>
<event>
 5   0  0.2042951E-05  0.2324260E+04  0.7818609E-02  0.8468417E-01
       -1   -1    0    0    0  501  0.00000000000E+00  0.00000000000E+00  0.12209056940E+04  0.12209056940E+04  0.50400001928E-02 0. -1.
        1   -1    0    0  501    0  0.00000000000E+00  0.00000000000E+00 -0.11061840363E+04  0.11061840363E+04  0.50400001928E-02 0.  1.
    10030    2    1    2    0    0  0.00000000000E+00  0.00000000000E+00  0.11472165776E+03  0.23270897303E+04  0.23242602166E+04 0.  0.
        2    1    3    3  502    0  0.10953445398E+04  0.56390042676E+02 -0.32727724632E+03  0.11445828471E+04  0.25500000920E-02 0.  1.
       -2    1    3    3    0  502 -0.10953445398E+04 -0.56390042676E+02  0.44199890408E+03  0.11825068833E+04  0.25500000920E-02 0. -1.
</event>
<event>
 5   0  0.4602447E-05  0.2293749E+04  0.7818609E-02  0.8480390E-01
        2   -1    0    0  501    0  0.00000000000E+00  0.00000000000E+00  0.15142950031E+04  0.15142950031E+04  0.25500000920E-02 0.  1.
       -2   -1    0    0    0  501  0.00000000000E+00  0.00000000000E+00 -0.86860292813E+03  0.86860292813E+03  0.25500000920E-02 0. -1.
    10030    2    1    2    0    0  0.00000000000E+00  0.00000000000E+00  0.64569207492E+03  0.23828979312E+04  0.22937489607E+04 0.  0.
        3    1    3    3  502    0  0.10011135544E+04 -0.27970866165E+03  0.82630048442E+03  0.13278696415E+04  0.10100000352E+00 0.  1.
       -3    1    3    3    0  502 -0.10011135544E+04  0.27970866165E+03 -0.18060840950E+03  0.10550282896E+04  0.10100000352E+00 0. -1.
</event>
<event>
 5   0  0.2031860E-05  0.2293193E+04  0.7818609E-02  0.8480610E-01
        1   -1    0    0  501    0  0.00000000000E+00  0.00000000000E+00  0.10874857445E+04  0.10874857446E+04  0.50400001928E-02 0.  1.
       -1   -1    0    0    0  501  0.00000000000E+00  0.00000000000E+00 -0.12089199188E+04  0.12089199188E+04  0.50400001928E-02 0. -1.
    10030    2    1    2    0    0  0.00000000000E+00  0.00000000000E+00 -0.12143417427E+03  0.22964056634E+04  0.22931926897E+04 0.  0.
        4    1    3    3  502    0 -0.10953080546E+04 -0.51792501007E+02  0.27486341212E+03  0.11304572994E+04  0.12699999809E+01 0.  1.
       -4    1    3    3    0  502  0.10953080546E+04  0.51792501007E+02 -0.39629758639E+03  0.11659483640E+04  0.12699999809E+01 0. -1.
</event>
<event>
 5   0  0.2085063E-05  0.2207063E+04  0.7818609E-02  0.8515494E-01
        1   -1    0    0  501    0  0.00000000000E+00  0.00000000000E+00  0.16570047658E+04  0.16570047658E+04  0.50400001928E-02 0. -1.
       -1   -1    0    0    0  501  0.00000000000E+00  0.00000000000E+00 -0.73492948925E+03  0.73492948927E+03  0.50400001928E-02 0.  1.
    10030    2    1    2    0    0  0.00000000000E+00  0.00000000000E+00  0.92207527657E+03  0.23919342551E+04  0.22070629046E+04 0.  0.
        1    1    3    3  502    0 -0.80916956012E+02  0.71335280368E+03 -0.44723241751E+03  0.84583486070E+03  0.50400001928E-02 0.  1.
       -1    1    3    3    0  502  0.80916956012E+02 -0.71335280368E+03  0.13693076941E+04  0.15460993944E+04  0.50400001928E-02 0. -1.
</event>
<event>
 5   0  0.2043885E-05  0.2265866E+04  0.7818609E-02  0.8491502E-01
        1   -1    0    0  501    0  0.00000000000E+00  0.00000000000E+00  0.15931359014E+04  0.15931359014E+04  0.50400001928E-02 0.  1.
       -1   -1    0    0    0  501  0.00000000000E+00  0.00000000000E+00 -0.80566718264E+03  0.80566718266E+03  0.50400001928E-02 0. -1.
    10030    2    1    2    0    0  0.00000000000E+00  0.00000000000E+00  0.78746871872E+03  0.23988030840E+04  0.22658661154E+04 0.  0.
        5    1    3    3  502    0 -0.82232879978E+03  0.77798883388E+03  0.34610667611E+03  0.11837665318E+04  0.46999998093E+01 0. -1.
       -5    1    3    3    0  502  0.82232879978E+03 -0.77798883388E+03  0.44136204261E+03  0.12150365522E+04  0.46999998093E+01 0.  1.
</event>
<event>
 5   0  0.4505107E-05  0.2278545E+04  0.7818609E-02  0.8486429E-01
        2   -1    0    0  501    0  0.00000000000E+00  0.00000000000E+00  0.10678146205E+04  0.10678146205E+04  0.25500000920E-02 0.  1.
       -2   -1    0    0    0  501  0.00000000000E+00  0.00000000000E+00 -0.12155124189E+04  0.12155124189E+04  0.25500000920E-02 0. -1.
    10030    2    1    2    0    0  0.00000000000E+00  0.00000000000E+00 -0.14769779842E+03  0.22833270395E+04  0.22785450905E+04 0.  0.
        4    1    3    3  502    0 -0.67807859061E+03  0.76275807427E+03  0.43352373408E+03  0.11088439457E+04  0.12699999809E+01 0.  1.
       -4    1    3    3    0  502  0.67807859061E+03 -0.76275807427E+03 -0.58122153250E+03  0.11744830938E+04  0.12699999809E+01 0. -1.
</event>
<event>
 5   0  0.2042951E-05  0.2132063E+04  0.7818609E-02  0.8547249E-01
       -1   -1    0    0    0  501  0.00000000000E+00  0.00000000000E+00  0.13364457033E+04  0.13364457033E+04  0.50400001928E-02 0. -1.
        1   -1    0    0  501    0  0.00000000000E+00  0.00000000000E+00 -0.85033239394E+03  0.85033239396E+03  0.50400001928E-02 0.  1.
    10030    2    1    2    0    0  0.00000000000E+00  0.00000000000E+00  0.48611330937E+03  0.21867780973E+04  0.21320629206E+04 0.  0.
        2    1    3    3  502    0  0.59924925282E+03 -0.87494307426E+03  0.35446284866E+03  0.11181542654E+04  0.25500000920E-02 0.  1.
       -2    1    3    3    0  502 -0.59924925282E+03  0.87494307426E+03  0.13165046071E+03  0.10686238319E+04  0.25500000920E-02 0. -1.
</event>
<event>
 5   0  0.4798609E-05  0.2303288E+04  0.7818609E-02  0.8476626E-01
       -2   -1    0    0    0  501  0.00000000000E+00  0.00000000000E+00  0.79733743772E+03  0.79733743772E+03  0.25500000920E-02 0. -1.
        2   -1    0    0  501    0  0.00000000000E+00  0.00000000000E+00 -0.16633912326E+04  0.16633912326E+04  0.25500000920E-02 0.  1.
    10030    2    1    2    0    0  0.00000000000E+00  0.00000000000E+00 -0.86605379492E+03  0.24607286704E+04  0.23032881742E+04 0.  0.
        2    1    3    3  502    0 -0.36209677461E+03 -0.98333253322E+03 -0.94341332034E+03  0.14099949071E+04  0.25500000920E-02 0.  1.
       -2    1    3    3    0  502  0.36209677461E+03  0.98333253322E+03  0.77359525416E+02  0.10507337633E+04  0.25500000920E-02 0. -1.
</event>
<event>
 5   0  0.4605516E-05  0.2266603E+04  0.7818609E-02  0.8491207E-01
        2   -1    0    0  501    0  0.00000000000E+00  0.00000000000E+00  0.20581320576E+04  0.20581320576E+04  0.25500000920E-02 0.  1.
       -2   -1    0    0    0  501  0.00000000000E+00  0.00000000000E+00 -0.62404730201E+03  0.62404730202E+03  0.25500000920E-02 0. -1.
    10030    2    1    2    0    0  0.00000000000E+00  0.00000000000E+00  0.14340847556E+04  0.26821793596E+04  0.22666025304E+04 0.  0.
        1    1    3    3  502    0  0.26146948420E+03  0.96415574704E+03  0.83747609738E+02  0.10024850412E+04  0.50400001928E-02 0. -1.
       -1    1    3    3    0  502 -0.26146948420E+03 -0.96415574704E+03  0.13503371458E+04  0.16796943184E+04  0.50400001928E-02 0.  1.
</event>
<event>
 5   0  0.4436695E-05  0.2298937E+04  0.7818609E-02  0.8478340E-01
        2   -1    0    0  501    0  0.00000000000E+00  0.00000000000E+00  0.14937479313E+04  0.14937479313E+04  0.25500000920E-02 0.  1.
       -2   -1    0    0    0  501  0.00000000000E+00  0.00000000000E+00 -0.88453883893E+03  0.88453883894E+03  0.25500000920E-02 0. -1.
    10030    2    1    2    0    0  0.00000000000E+00  0.00000000000E+00  0.60920909238E+03  0.23782867702E+04  0.22989371986E+04 0.  0.
        5    1    3    3  502    0  0.38553371836E+03 -0.10630237495E+04  0.51812677244E+03  0.12438380852E+04  0.46999998093E+01 0.  1.
       -5    1    3    3    0  502 -0.38553371836E+03  0.10630237495E+04  0.91082319931E+02  0.11344486850E+04  0.46999998093E+01 0. -1.
</event>
<event>
 5   0  0.2042951E-05  0.2334365E+04  0.7818609E-02  0.8464493E-01
        1   -1    0    0  501    0  0.00000000000E+00  0.00000000000E+00  0.13200148224E+04  0.13200148224E+04  0.50400001928E-02 0.  1.
       -1   -1    0    0    0  501  0.00000000000E+00  0.00000000000E+00 -0.10320450994E+04  0.10320450994E+04  0.50400001928E-02 0. -1.
    10030    2    1    2    0    0  0.00000000000E+00  0.00000000000E+00  0.28796972304E+03  0.23520599218E+04  0.23343648632E+04 0.  0.
        2    1    3    3  502    0 -0.73640994611E+03  0.38202391475E+03 -0.68325812429E+03  0.10747481308E+04  0.25500000920E-02 0. -1.
       -2    1    3    3    0  502  0.73640994611E+03 -0.38202391475E+03  0.97122784734E+03  0.12773117911E+04  0.25500000920E-02 0.  1.
</event>
<event>
 5   0  0.2031860E-05  0.2201217E+04  0.7818609E-02  0.8517922E-01
       -1   -1    0    0    0  501  0.00000000000E+00  0.00000000000E+00  0.65022384756E+03  0.65022384758E+03  0.50400001928E-02 0.  1.
        1   -1    0    0  501    0  0.00000000000E+00  0.00000000000E+00 -0.18629572338E+04  0.18629572338E+04  0.50400001928E-02 0. -1.
    10030    2    1    2    0    0  0.00000000000E+00  0.00000000000E+00 -0.12127333863E+04  0.25131810814E+04  0.22012171364E+04 0.  0.
        4    1    3    3  502    0  0.28475687183E+03  0.37322216417E+03  0.53018229232E+03  0.70814979762E+03  0.12699999809E+01 0.  1.
       -4    1    3    3    0  502 -0.28475687183E+03 -0.37322216417E+03 -0.17429156786E+04  0.18050312838E+04  0.12699999809E+01 0. -1.
</event>
<event>
 5   0  0.4505107E-05  0.2310677E+04  0.7818609E-02  0.8473723E-01
        2   -1    0    0  501    0  0.00000000000E+00  0.00000000000E+00  0.12515054236E+04  0.12515054236E+04  0.25500000920E-02 0. -1.
       -2   -1    0    0    0  501  0.00000000000E+00  0.00000000000E+00 -0.10665615123E+04  0.10665615123E+04  0.25500000920E-02 0.  1.
    10030    2    1    2    0    0  0.00000000000E+00  0.00000000000E+00  0.18494391129E+03  0.23180669359E+04  0.23106774048E+04 0.  0.
        4    1    3    3  502    0 -0.77164798141E+03 -0.85978166353E+03  0.10437532036E+03  0.11599831622E+04  0.12699999809E+01 0. -1.
       -4    1    3    3    0  502  0.77164798141E+03  0.85978166353E+03  0.80568590924E+02  0.11580837737E+04  0.12699999809E+01 0.  1.
</event>
<event>
 5   0  0.4602447E-05  0.2281680E+04  0.7818609E-02  0.8485180E-01
       -2   -1    0    0    0  501  0.00000000000E+00  0.00000000000E+00  0.90500607691E+03  0.90500607691E+03  0.25500000920E-02 0.  1.
        2   -1    0    0  501    0  0.00000000000E+00  0.00000000000E+00 -0.14381298101E+04  0.14381298101E+04  0.25500000920E-02 0. -1.
    10030    2    1    2    0    0  0.00000000000E+00  0.00000000000E+00 -0.53312373322E+03  0.23431358870E+04  0.22816802734E+04 0.  0.
        3    1    3    3  502    0 -0.11663426520E+03 -0.92630117893E+02  0.89497867652E+03  0.90728756863E+03  0.10100000352E+00 0.  1.
       -3    1    3    3    0  502  0.11663426520E+03  0.92630117893E+02 -0.14281024097E+04  0.14358483184E+04  0.10100000352E+00 0. -1.
</event>
<event>
 5   0  0.2085063E-05  0.2305907E+04  0.7818609E-02  0.8475596E-01
        1   -1    0    0  501    0  0.00000000000E+00  0.00000000000E+00  0.14956597241E+04  0.14956597241E+04  0.50400001928E-02 0.  1.
       -1   -1    0    0    0  501  0.00000000000E+00  0.00000000000E+00 -0.88877250304E+03  0.88877250306E+03  0.50400001928E-02 0. -1.
    10030    2    1    2    0    0  0.00000000000E+00  0.00000000000E+00  0.60688722103E+03  0.23844322271E+04  0.23059065347E+04 0.  0.
        1    1    3    3  502    0  0.10228863818E+04  0.52457470851E+03  0.39492124375E+03  0.12154990595E+04  0.50400001928E-02 0. -1.
       -1    1    3    3    0  502 -0.10228863818E+04 -0.52457470851E+03  0.21196597728E+03  0.11689331676E+04  0.50400001928E-02 0.  1.
</event>
<event>
 5   0  0.1968318E-05  0.2328970E+04  0.7818609E-02  0.8466586E-01
        1   -1    0    0  501    0  0.00000000000E+00  0.00000000000E+00  0.10301412096E+04  0.10301412096E+04  0.50400001928E-02 0.  1.
       -1   -1    0    0    0  501  0.00000000000E+00  0.00000000000E+00 -0.13163488689E+04  0.13163488689E+04  0.50400001928E-02 0. -1.
    10030    2    1    2    0    0  0.00000000000E+00  0.00000000000E+00 -0.28620765935E+03  0.23464900785E+04  0.23289699149E+04 0.  0.
        3    1    3    3  502    0 -0.64873375762E+03  0.97767507443E+02  0.82622058557E+03  0.10550139525E+04  0.10100000352E+00 0.  1.
       -3    1    3    3    0  502  0.64873375762E+03 -0.97767507443E+02 -0.11124282449E+04  0.12914761260E+04  0.10100000352E+00 0. -1.
</event>
<event>
 5   0  0.2042951E-05  0.2319018E+04  0.7818609E-02  0.8470460E-01
       -1   -1    0    0    0  501  0.00000000000E+00  0.00000000000E+00  0.15005190730E+04  0.15005190730E+04  0.50400001928E-02 0.  1.
        1   -1    0    0  501    0  0.00000000000E+00  0.00000000000E+00 -0.89599757398E+03  0.89599757400E+03  0.50400001928E-02 0. -1.
    10030    2    1    2    0    0  0.00000000000E+00  0.00000000000E+00  0.60452149900E+03  0.23965166470E+04  0.23190182829E+04 0.  0.
        2    1    3    3  502    0  0.87309635719E+03 -0.32785078211E+03  0.10142539712E+04  0.13778586656E+04  0.25500000920E-02 0.  1.
       -2    1    3    3    0  502 -0.87309635719E+03  0.32785078211E+03 -0.40973247219E+03  0.10186579814E+04  0.25500000920E-02 0. -1.
</event>
<event>
 5   0  0.2042951E-05  0.2325840E+04  0.7818609E-02  0.8467802E-01
        1   -1    0    0  501    0  0.00000000000E+00  0.00000000000E+00  0.27449262992E+04  0.27449262992E+04  0.50400001928E-02 0. -1.
       -1   -1    0    0    0  501  0.00000000000E+00  0.00000000000E+00 -0.49268455152E+03  0.49268455155E+03  0.50400001928E-02 0.  1.
    10030    2    1    2    0    0  0.00000000000E+00  0.00000000000E+00  0.22522417477E+04  0.32376108507E+04  0.23258398765E+04 0.  0.
        2    1    3    3  502    0  0.43192831265E+03 -0.80377473439E+03  0.21296942718E+04  0.23169405652E+04  0.25500000920E-02 0. -1.
       -2    1    3    3    0  502 -0.43192831265E+03  0.80377473439E+03  0.12254747581E+03  0.92067028558E+03  0.25500000920E-02 0.  1.
</event>
<event>
 5   0  0.4436695E-05  0.2318245E+04  0.7818609E-02  0.8470762E-01
        2   -1    0    0  501    0  0.00000000000E+00  0.00000000000E+00  0.12160509006E+04  0.12160509006E+04  0.25500000920E-02 0.  1.
       -2   -1    0    0    0  501  0.00000000000E+00  0.00000000000E+00 -0.11048591827E+04  0.11048591827E+04  0.25500000920E-02 0. -1.
    10030    2    1    2    0    0  0.00000000000E+00  0.00000000000E+00  0.11119171789E+03  0.23209100833E+04  0.23182450294E+04 0.  0.
        5    1    3    3  502    0  0.85944480614E+03 -0.49853091935E+03 -0.54205310637E+03  0.11318224739E+04  0.46999998093E+01 0. -1.
       -5    1    3    3    0  502 -0.85944480614E+03  0.49853091935E+03  0.65324482425E+03  0.11890876094E+04  0.46999998093E+01 0.  1.
</event>
<event>
 5   0  0.2043885E-05  0.2373122E+04  0.7818609E-02  0.8449635E-01
       -1   -1    0    0    0  501  0.00000000000E+00  0.00000000000E+00  0.43325516192E+03  0.43325516195E+03  0.50400001928E-02 0.  1.
        1   -1    0    0  501    0  0.00000000000E+00  0.00000000000E+00 -0.32496481538E+04  0.32496481538E+04  0.50400001928E-02 0. -1.
    10030    2    1    2    0    0  0.00000000000E+00  0.00000000000E+00 -0.28163929918E+04  0.36829033157E+04  0.23731218571E+04 0.  0.
        5    1    3    3  502    0  0.11922254392E+03 -0.76851969810E+03 -0.17454738793E+02  0.77792242496E+03  0.46999998093E+01 0.  1.
       -5    1    3    3    0  502 -0.11922254392E+03  0.76851969810E+03 -0.27989382530E+04  0.29049808908E+04  0.46999998093E+01 0. -1.
</event>
<event>
 5   0  0.1968318E-05  0.2300026E+04  0.7818609E-02  0.8477911E-01
       -1   -1    0    0    0  501  0.00000000000E+00  0.00000000000E+00  0.15190189940E+04  0.15190189940E+04  0.50400001928E-02 0.  1.
        1   -1    0    0  501    0  0.00000000000E+00  0.00000000000E+00 -0.87064766250E+03  0.87064766251E+03  0.50400001928E-02 0. -1.
    10030    2    1    2    0    0  0.00000000000E+00  0.00000000000E+00  0.64837133150E+03  0.23896666565E+04  0.23000263794E+04 0.  0.
        3    1    3    3  502    0 -0.34752183964E+03  0.15063493876E+02  0.14630504803E+04  0.15038334535E+04  0.10100000352E+00 0.  1.
       -3    1    3    3    0  502  0.34752183964E+03 -0.15063493876E+02 -0.81467914878E+03  0.88583320300E+03  0.10100000352E+00 0. -1.
</event>
<event>
 5   0  0.2043885E-05  0.2272306E+04  0.7818609E-02  0.8488921E-01
        1   -1    0    0  501    0  0.00000000000E+00  0.00000000000E+00  0.11593467677E+04  0.11593467677E+04  0.50400001928E-02 0. -1.
       -1   -1    0    0    0  501  0.00000000000E+00  0.00000000000E+00 -0.11134227946E+04  0.11134227946E+04  0.50400001928E-02 0.  1.
    10030    2    1    2    0    0  0.00000000000E+00  0.00000000000E+00  0.45923973058E+02  0.22727695623E+04  0.22723055411E+04 0.  0.
        5    1    3    3  502    0  0.46220158818E+03 -0.95575699690E+03  0.42766700858E+03  0.11445623205E+04  0.46999998093E+01 0. -1.
       -5    1    3    3    0  502 -0.46220158818E+03  0.95575699690E+03 -0.38174303552E+03  0.11282072418E+04  0.46999998093E+01 0.  1.
</event>
<event>
 5   0  0.2085063E-05  0.2256793E+04  0.7818609E-02  0.8495155E-01
       -1   -1    0    0    0  501  0.00000000000E+00  0.00000000000E+00  0.82270968449E+03  0.82270968451E+03  0.50400001928E-02 0.  1.
        1   -1    0    0  501    0  0.00000000000E+00  0.00000000000E+00 -0.15476642455E+04  0.15476642455E+04  0.50400001928E-02 0. -1.
    10030    2    1    2    0    0  0.00000000000E+00  0.00000000000E+00 -0.72495456104E+03  0.23703739301E+04  0.22567927359E+04 0.  0.
        1    1    3    3  502    0 -0.92934850590E+03 -0.14075797506E+03  0.29326508205E+03  0.98463488732E+03  0.50400001928E-02 0.  1.
       -1    1    3    3    0  502  0.92934850590E+03  0.14075797506E+03 -0.10182196431E+04  0.13857390427E+04  0.50400001928E-02 0. -1.
</event>
<event>
 5   0  0.4798609E-05  0.2303728E+04  0.7818609E-02  0.8476453E-01
        2   -1    0    0  501    0  0.00000000000E+00  0.00000000000E+00  0.62139182269E+03  0.62139182270E+03  0.25500000920E-02 0. -1.
       -2   -1    0    0    0  501  0.00000000000E+00  0.00000000000E+00 -0.21351910053E+04  0.21351910053E+04  0.25500000920E-02 0.  1.
    10030    2    1    2    0    0  0.00000000000E+00  0.00000000000E+00 -0.15137991826E+04  0.27565828280E+04  0.23037276146E+04 0.  0.
        2    1    3    3  502    0  0.10884007595E+04 -0.37196939418E+03 -0.83078542822E+03  0.14188664036E+04  0.25500000920E-02 0.  1.
       -2    1    3    3    0  502 -0.10884007595E+04  0.37196939418E+03 -0.68301375440E+03  0.13377164244E+04  0.25500000920E-02 0. -1.
</event>
<event>
 5   0  0.4605516E-05  0.2297156E+04  0.7818609E-02  0.8479043E-01
        2   -1    0    0  501    0  0.00000000000E+00  0.00000000000E+00  0.16783146255E+04  0.16783146255E+04  0.25500000920E-02 0.  1.
       -2   -1    0    0    0  501  0.00000000000E+00  0.00000000000E+00 -0.78604507038E+03  0.78604507039E+03  0.25500000920E-02 0. -1.
    10030    2    1    2    0    0  0.00000000000E+00  0.00000000000E+00  0.89226955514E+03  0.24643596959E+04  0.22971555785E+04 0.  0.
        1    1    3    3  502    0 -0.26592730961E+03 -0.29475845121E+03 -0.71010470599E+03  0.81354076238E+03  0.50400001928E-02 0. -1.
       -1    1    3    3    0  502  0.26592730961E+03  0.29475845121E+03  0.16023742611E+04  0.16508189335E+04  0.50400001928E-02 0.  1.
</event>
<event>
 5   0  0.2043885E-05  0.2287875E+04  0.7818609E-02  0.8482717E-01
        1   -1    0    0  501    0  0.00000000000E+00  0.00000000000E+00  0.90271167502E+03  0.90271167503E+03  0.50400001928E-02 0. -1.
       -1   -1    0    0    0  501  0.00000000000E+00  0.00000000000E+00 -0.14496247875E+04  0.14496247875E+04  0.50400001928E-02 0.  1.
    10030    2    1    2    0    0  0.00000000000E+00  0.00000000000E+00 -0.54691311248E+03  0.23523364625E+04  0.22878751890E+04 0.  0.
        5    1    3    3  502    0 -0.10035710629E+04  0.39708458673E+03 -0.66326932177E+03  0.12667988516E+04  0.46999998093E+01 0.  1.
       -5    1    3    3    0  502  0.10035710629E+04 -0.39708458673E+03  0.11635620929E+03  0.10855376109E+04  0.46999998093E+01 0. -1.
</event>
<event>
 5   0  0.2042951E-05  0.2286767E+04  0.7818609E-02  0.8483157E-01
        1   -1    0    0  501    0  0.00000000000E+00  0.00000000000E+00  0.14444697661E+04  0.14444697661E+04  0.50400001928E-02 0.  1.
       -1   -1    0    0    0  501  0.00000000000E+00  0.00000000000E+00 -0.90505603083E+03  0.90505603084E+03  0.50400001928E-02 0. -1.
    10030    2    1    2    0    0  0.00000000000E+00  0.00000000000E+00  0.53941373526E+03  0.23495257969E+04  0.22867672144E+04 0.  0.
        2    1    3    3  502    0 -0.56998241304E+03 -0.11898206808E+03  0.12807294290E+04  0.14068775903E+04  0.25500000920E-02 0.  1.
       -2    1    3    3    0  502  0.56998241304E+03  0.11898206808E+03 -0.74131569375E+03  0.94264820665E+03  0.25500000920E-02 0. -1.
</event>
<event>
 5   0  0.1968318E-05  0.2286495E+04  0.7818609E-02  0.8483265E-01
       -1   -1    0    0    0  501  0.00000000000E+00  0.00000000000E+00  0.15395021873E+04  0.15395021873E+04  0.50400001928E-02 0.  1.
        1   -1    0    0  501    0  0.00000000000E+00  0.00000000000E+00 -0.84898519670E+03  0.84898519672E+03  0.50400001928E-02 0. -1.
    10030    2    1    2    0    0  0.00000000000E+00  0.00000000000E+00  0.69051699063E+03  0.23884873841E+04  0.22864947561E+04 0.  0.
        3    1    3    3  502    0 -0.98651567401E+03 -0.14149443988E+03  0.93040667673E+03  0.13634113267E+04  0.10100000352E+00 0.  1.
       -3    1    3    3    0  502  0.98651567401E+03  0.14149443988E+03 -0.23988968610E+03  0.10250760573E+04  0.10100000352E+00 0. -1.
</event>
<event>
 5   0  0.4798609E-05  0.2298797E+04  0.7818609E-02  0.8478396E-01
        2   -1    0    0  501    0  0.00000000000E+00  0.00000000000E+00  0.25475768455E+04  0.25475768455E+04  0.25500000920E-02 0. -1.
       -2   -1    0    0    0  501  0.00000000000E+00  0.00000000000E+00 -0.51857766482E+03  0.51857766482E+03  0.25500000920E-02 0.  1.
    10030    2    1    2    0    0  0.00000000000E+00  0.00000000000E+00  0.20289991807E+04  0.30661545104E+04  0.22987965995E+04 0.  0.
        2    1    3    3  502    0  0.52511988293E+02  0.11034711721E+04  0.59121694082E+03  0.12529739055E+04  0.25500000920E-02 0.  1.
       -2    1    3    3    0  502 -0.52511988293E+02 -0.11034711721E+04  0.14377822399E+04  0.18131806049E+04  0.25500000920E-02 0. -1.
</event>
<event>
 5   0  0.4605516E-05  0.2300907E+04  0.7818609E-02  0.8477564E-01
        2   -1    0    0  501    0  0.00000000000E+00  0.00000000000E+00  0.13994799302E+04  0.13994799302E+04  0.25500000920E-02 0.  1.
       -2   -1    0    0    0  501  0.00000000000E+00  0.00000000000E+00 -0.94573946573E+03  0.94573946573E+03  0.25500000920E-02 0. -1.
    10030    2    1    2    0    0  0.00000000000E+00  0.00000000000E+00  0.45374046445E+03  0.23452193959E+04  0.23009071267E+04 0.  0.
        1    1    3    3  502    0 -0.10155098319E+04 -0.52079797551E+03  0.78980579557E+02  0.11439968015E+04  0.50400001928E-02 0. -1.
       -1    1    3    3    0  502  0.10155098319E+04  0.52079797551E+03  0.37475988489E+03  0.12012225944E+04  0.50400001928E-02 0.  1.
</event>
<event>
 5   0  0.2085063E-05  0.2413875E+04  0.7818609E-02  0.8434327E-01
        1   -1    0    0  501    0  0.00000000000E+00  0.00000000000E+00  0.10334687267E+04  0.10334687267E+04  0.50400001928E-02 0.  1.
       -1   -1    0    0    0  501  0.00000000000E+00  0.00000000000E+00 -0.14095227610E+04  0.14095227610E+04  0.50400001928E-02 0. -1.
    10030    2    1    2    0    0  0.00000000000E+00  0.00000000000E+00 -0.37605403439E+03  0.24429914877E+04  0.24138746389E+04 0.  0.
        1    1    3    3  502    0  0.88639337877E+03  0.16010315720E+03  0.62501336452E+03  0.10963429886E+04  0.50400001928E-02 0.  1.
       -1    1    3    3    0  502 -0.88639337877E+03 -0.16010315720E+03 -0.10010673989E+04  0.13466484991E+04  0.50400001928E-02 0. -1.
</event>
<event>
 5   0  0.4798609E-05  0.2342133E+04  0.7818609E-02  0.8461491E-01
        2   -1    0    0  501    0  0.00000000000E+00  0.00000000000E+00  0.15148939371E+04  0.15148939371E+04  0.25500000920E-02 0.  1.
       -2   -1    0    0    0  501  0.00000000000E+00  0.00000000000E+00 -0.90527600706E+03  0.90527600707E+03  0.25500000920E-02 0. -1.
    10030    2    1    2    0    0  0.00000000000E+00  0.00000000000E+00  0.60961793000E+03  0.24201699441E+04  0.23421333305E+04 0.  0.
        2    1    3    3  502    0  0.23173016799E+03  0.11374329790E+04  0.46470473376E+03  0.12503612046E+04  0.25500000920E-02 0. -1.
       -2    1    3    3    0  502 -0.23173016799E+03 -0.11374329790E+04  0.14491319624E+03  0.11698087395E+04  0.25500000920E-02 0.  1.
</event>
<event>
 5   0  0.2031860E-05  0.2309080E+04  0.7818609E-02  0.8474349E-01
       -1   -1    0    0    0  501  0.00000000000E+00  0.00000000000E+00  0.99657403679E+03  0.99657403680E+03  0.50400001928E-02 0.  1.
        1   -1    0    0  501    0  0.00000000000E+00  0.00000000000E+00 -0.13375453379E+04  0.13375453379E+04  0.50400001928E-02 0. -1.
    10030    2    1    2    0    0  0.00000000000E+00  0.00000000000E+00 -0.34097130106E+03  0.23341193747E+04  0.23090802990E+04 0.  0.
        4    1    3    3  502    0  0.86495525231E+02 -0.92210929596E+03  0.52633280637E+03  0.10652675089E+04  0.12699999809E+01 0.  1.
       -4    1    3    3    0  502 -0.86495525231E+02  0.92210929596E+03 -0.86730410743E+03  0.12688518658E+04  0.12699999809E+01 0. -1.
</event>
<event>
 5   0  0.1968318E-05  0.2332672E+04  0.7818609E-02  0.8465149E-01
       -1   -1    0    0    0  501  0.00000000000E+00  0.00000000000E+00  0.71986296890E+03  0.71986296892E+03  0.50400001928E-02 0. -1.
        1   -1    0    0  501    0  0.00000000000E+00  0.00000000000E+00 -0.18897207403E+04  0.18897207403E+04  0.50400001928E-02 0.  1.
    10030    2    1    2    0    0  0.00000000000E+00  0.00000000000E+00 -0.11698577713E+04  0.26095837092E+04  0.23326722723E+04 0.  0.
        3    1    3    3  502    0 -0.10514402041E+03 -0.11416677506E+04 -0.34530691915E+03  0.11973710354E+04  0.10100000352E+00 0. -1.
       -3    1    3    3    0  502  0.10514402041E+03  0.11416677506E+04 -0.82455085220E+03  0.14122126738E+04  0.10100000352E+00 0.  1.
</event>
<event>
 5   0  0.4436695E-05  0.2302795E+04  0.7818609E-02  0.8476820E-01
       -2   -1    0    0    0  501  0.00000000000E+00  0.00000000000E+00  0.62576897591E+03  0.62576897591E+03  0.25500000920E-02 0.  1.
        2   -1    0    0  501    0  0.00000000000E+00  0.00000000000E+00 -0.21185390444E+04  0.21185390444E+04  0.25500000920E-02 0. -1.
    10030    2    1    2    0    0  0.00000000000E+00  0.00000000000E+00 -0.14927700685E+04  0.27443080203E+04  0.23027948309E+04 0.  0.
        5    1    3    3  502    0 -0.16450575883E+03 -0.50209858987E+03 -0.19655239569E+04  0.20353062801E+04  0.46999998093E+01 0. -1.
       -5    1    3    3    0  502  0.16450575883E+03  0.50209858987E+03  0.47275388840E+03  0.70900174022E+03  0.46999998093E+01 0.  1.
</event>
<event>
 5   0  0.4798609E-05  0.2285864E+04  0.7818609E-02  0.8483516E-01
       -2   -1    0    0    0  501  0.00000000000E+00  0.00000000000E+00  0.86115532483E+03  0.86115532483E+03  0.25500000920E-02 0. -1.
        2   -1    0    0  501    0  0.00000000000E+00  0.00000000000E+00 -0.15169081954E+04  0.15169081954E+04  0.25500000920E-02 0.  1.
    10030    2    1    2    0    0  0.00000000000E+00  0.00000000000E+00 -0.65575287054E+03  0.23780635202E+04  0.22858640115E+04 0.  0.
        2    1    3    3  502    0  0.41685060990E+03 -0.86856279201E+03 -0.96760003634E+03  0.13654360421E+04  0.25500000920E-02 0.  1.
       -2    1    3    3    0  502 -0.41685060990E+03  0.86856279201E+03  0.31184716581E+03  0.10126274781E+04  0.25500000920E-02 0. -1.
</event>
<event>
 5   0  0.1604500E-05  0.2304002E+04  0.7818609E-02  0.8476345E-01
        3   -1    0    0  501    0  0.00000000000E+00  0.00000000000E+00  0.18056661860E+04  0.18056661888E+04  0.10100000352E+00 0.  1.
       -3   -1    0    0    0  501  0.00000000000E+00  0.00000000000E+00 -0.73496768153E+03  0.73496768847E+03  0.10100000352E+00 0. -1.
    10030    2    1    2    0    0  0.00000000000E+00  0.00000000000E+00  0.10706985044E+04  0.25406338773E+04  0.23040019989E+04 0.  0.
        4    1    3    3  502    0 -0.61127908897E+03 -0.31984272807E+03  0.15526762003E+04  0.16990487018E+04  0.12699999809E+01 0.  1.
       -4    1    3    3    0  502  0.61127908897E+03  0.31984272807E+03 -0.48197769586E+03  0.84158517543E+03  0.12699999809E+01 0. -1.
</event>
<event>
 5   0  0.2043885E-05  0.2287020E+04  0.7818609E-02  0.8483057E-01
        1   -1    0    0  501    0  0.00000000000E+00  0.00000000000E+00  0.10281567099E+04  0.10281567100E+04  0.50400001928E-02 0. -1.
       -1   -1    0    0    0  501  0.00000000000E+00  0.00000000000E+00 -0.12718054001E+04  0.12718054002E+04  0.50400001928E-02 0.  1.
    10030    2    1    2    0    0  0.00000000000E+00  0.00000000000E+00 -0.24364869020E+03  0.22999621101E+04  0.22870201188E+04 0.  0.
        5    1    3    3  502    0 -0.10810677701E+03 -0.11297810691E+04 -0.26225994244E+03  0.11648582346E+04  0.46999998093E+01 0.  1.
       -5    1    3    3    0  502  0.10810677701E+03  0.11297810691E+04  0.18611252244E+02  0.11351038755E+04  0.46999998093E+01 0. -1.
</event>
<event>
 5   0  0.2042951E-05  0.2292214E+04  0.7818609E-02  0.8480997E-01
        1   -1    0    0  501    0  0.00000000000E+00  0.00000000000E+00  0.18567277954E+04  0.18567277954E+04  0.50400001928E-02 0.  1.
       -1   -1    0    0    0  501  0.00000000000E+00  0.00000000000E+00 -0.70746044738E+03  0.70746044739E+03  0.50400001928E-02 0. -1.
    10030    2    1    2    0    0  0.00000000000E+00  0.00000000000E+00  0.11492673480E+04  0.25641882428E+04  0.22922141932E+04 0.  0.
        2    1    3    3  502    0  0.96504166114E+03 -0.61330461211E+03  0.48716743720E+03  0.12428918162E+04  0.25500000920E-02 0. -1.
       -2    1    3    3    0  502 -0.96504166114E+03  0.61330461211E+03  0.66209991085E+03  0.13212964266E+04  0.25500000920E-02 0.  1.
</event>
<event>
 5   0  0.2085063E-05  0.2358782E+04  0.7818609E-02  0.8455098E-01
       -1   -1    0    0    0  501  0.00000000000E+00  0.00000000000E+00  0.63278971557E+03  0.63278971559E+03  0.50400001928E-02 0.  1.
        1   -1    0    0  501    0  0.00000000000E+00  0.00000000000E+00 -0.21981439004E+04  0.21981439004E+04  0.50400001928E-02 0. -1.
    10030    2    1    2    0    0  0.00000000000E+00  0.00000000000E+00 -0.15653541849E+04  0.28309336160E+04  0.23587817649E+04 0.  0.
        1    1    3    3  502    0  0.58354859046E+03 -0.26113327817E+02  0.44698356212E+03  0.73553053516E+03  0.50400001928E-02 0.  1.
       -1    1    3    3    0  502 -0.58354859046E+03  0.26113327817E+02 -0.20123377470E+04  0.20954030809E+04  0.50400001928E-02 0. -1.
</event>
<event>
 5   0  0.4798609E-05  0.2280353E+04  0.7818609E-02  0.8485708E-01
       -2   -1    0    0    0  501  0.00000000000E+00  0.00000000000E+00  0.12746209681E+04  0.12746209681E+04  0.25500000920E-02 0. -1.
        2   -1    0    0  501    0  0.00000000000E+00  0.00000000000E+00 -0.10199130204E+04  0.10199130204E+04  0.25500000920E-02 0.  1.
    10030    2    1    2    0    0  0.00000000000E+00  0.00000000000E+00  0.25470794769E+03  0.22945339884E+04  0.22803530616E+04 0.  0.
        2    1    3    3  502    0 -0.10477183106E+03  0.10754790629E+04  0.49344363629E+03  0.11879052881E+04  0.25500000920E-02 0. -1.
       -2    1    3    3    0  502  0.10477183106E+03 -0.10754790629E+04 -0.23873568860E+03  0.11066287003E+04  0.25500000920E-02 0.  1.
</event>
<event>
 5   0  0.2085063E-05  0.2282374E+04  0.7818609E-02  0.8484903E-01
        1   -1    0    0  501    0  0.00000000000E+00  0.00000000000E+00  0.22599587981E+04  0.22599587981E+04  0.50400001928E-02 0.  1.
       -1   -1    0    0    0  501  0.00000000000E+00  0.00000000000E+00 -0.57625280192E+03  0.57625280195E+03  0.50400001928E-02 0. -1.
    10030    2    1    2    0    0  0.00000000000E+00  0.00000000000E+00  0.16837059961E+04  0.28362116000E+04  0.22823738429E+04 0.  0.
        1    1    3    3  502    0 -0.37503054329E+02  0.80582381438E+03  0.18449095499E+04  0.20135664246E+04  0.50400001928E-02 0.  1.
       -1    1    3    3    0  502  0.37503054329E+02 -0.80582381438E+03 -0.16120355375E+03  0.82264517544E+03  0.50400001928E-02 0. -1.
</event>
<event>
 5   0  0.4436695E-05  0.2253298E+04  0.7818609E-02  0.8496566E-01
        2   -1    0    0  501    0  0.00000000000E+00  0.00000000000E+00  0.10210741951E+04  0.10210741951E+04  0.25500000920E-02 0. -1.
       -2   -1    0    0    0  501  0.00000000000E+00  0.00000000000E+00 -0.12431397124E+04  0.12431397124E+04  0.25500000920E-02 0.  1.
    10030    2    1    2    0    0  0.00000000000E+00  0.00000000000E+00 -0.22206551733E+03  0.22642139075E+04  0.22532979219E+04 0.  0.
        5    1    3    3  502    0  0.41190279062E+03  0.12757749517E+03  0.93486303321E+03  0.10295294591E+04  0.46999998093E+01 0. -1.
       -5    1    3    3    0  502 -0.41190279062E+03 -0.12757749517E+03 -0.11569285505E+04  0.12346844485E+04  0.46999998093E+01 0.  1.
</event>
<event>
 5   0  0.1968318E-05  0.2284995E+04  0.7818609E-02  0.8483861E-01
        1   -1    0    0  501    0  0.00000000000E+00  0.00000000000E+00  0.19221076453E+04  0.19221076453E+04  0.50400001928E-02 0. -1.
       -1   -1    0    0    0  501  0.00000000000E+00  0.00000000000E+00 -0.67909879983E+03  0.67909879985E+03  0.50400001928E-02 0.  1.
    10030    2    1    2    0    0  0.00000000000E+00  0.00000000000E+00  0.12430088454E+04  0.26012064451E+04  0.22849954005E+04 0.  0.
        3    1    3    3  502    0 -0.88754993795E+03 -0.10231377717E+03 -0.18914140314E+03  0.91322915083E+03  0.10100000352E+00 0.  1.
       -3    1    3    3    0  502  0.88754993795E+03  0.10231377717E+03  0.14321502486E+04  0.16879772943E+04  0.10100000352E+00 0. -1.
</event>
<event>
 5   0  0.1604500E-05  0.2310867E+04  0.7818609E-02  0.8473649E-01
        3   -1    0    0  501    0  0.00000000000E+00  0.00000000000E+00  0.84759637189E+03  0.84759637791E+03  0.10100000352E+00 0.  1.
       -3   -1    0    0    0  501  0.00000000000E+00  0.00000000000E+00 -0.15750736576E+04  0.15750736608E+04  0.10100000352E+00 0. -1.
    10030    2    1    2    0    0  0.00000000000E+00  0.00000000000E+00 -0.72747728569E+03  0.24226700387E+04  0.23108671349E+04 0.  0.
        4    1    3    3  502    0  0.35253292953E+03  0.10998828954E+04 -0.39694546679E+03  0.12213063360E+04  0.12699999809E+01 0.  1.
       -4    1    3    3    0  502 -0.35253292953E+03 -0.10998828954E+04 -0.33053181891E+03  0.12013637027E+04  0.12699999809E+01 0. -1.
</event>
<event>
 5   0  0.2043885E-05  0.2211439E+04  0.7818609E-02  0.8513682E-01
        1   -1    0    0  501    0  0.00000000000E+00  0.00000000000E+00  0.18677262756E+04  0.18677262756E+04  0.50400001928E-02 0. -1.
       -1   -1    0    0    0  501  0.00000000000E+00  0.00000000000E+00 -0.65460110502E+03  0.65460110504E+03  0.50400001928E-02 0.  1.
    10030    2    1    2    0    0  0.00000000000E+00  0.00000000000E+00  0.12131251706E+04  0.25223273807E+04  0.22114390645E+04 0.  0.
        5    1    3    3  502    0 -0.10224483469E+03  0.83514971895E+03  0.14248174546E+04  0.16547072032E+04  0.46999998093E+01 0. -1.
       -5    1    3    3    0  502  0.10224483469E+03 -0.83514971895E+03 -0.21169228401E+03  0.86762017750E+03  0.46999998093E+01 0.  1.
</event>
<event>
 5   0  0.4798609E-05  0.2304125E+04  0.7818609E-02  0.8476296E-01
       -2   -1    0    0    0  501  0.00000000000E+00  0.00000000000E+00  0.13412837985E+04  0.13412837985E+04  0.25500000920E-02 0.  1.
        2   -1    0    0  501    0  0.00000000000E+00  0.00000000000E+00 -0.98953584789E+03  0.98953584789E+03  0.25500000920E-02 0. -1.
    10030    2    1    2    0    0  0.00000000000E+00  0.00000000000E+00  0.35174795057E+03  0.23308196464E+04  0.23041253445E+04 0.  0.
        2    1    3    3  502    0  0.11511727562E+04  0.40150953367E+02  0.19703490760E+03  0.11686032554E+04  0.25500000920E-02 0. -1.
       -2    1    3    3    0  502 -0.11511727562E+04 -0.40150953367E+02  0.15471304298E+03  0.11622163910E+04  0.25500000920E-02 0.  1.
</event>
<event>
 5   0  0.1604500E-05  0.2291495E+04  0.7818609E-02  0.8481282E-01
       -3   -1    0    0    0  501  0.00000000000E+00  0.00000000000E+00  0.11032192073E+04  0.11032192119E+04  0.10100000352E+00 0.  1.
        3   -1    0    0  501    0  0.00000000000E+00  0.00000000000E+00 -0.11899148245E+04  0.11899148288E+04  0.10100000352E+00 0. -1.
    10030    2    1    2    0    0  0.00000000000E+00  0.00000000000E+00 -0.86695617218E+02  0.22931340407E+04  0.22914946211E+04 0.  0.
        4    1    3    3  502    0  0.11308628811E+03 -0.73653553979E+03 -0.91429349986E+03  0.11794945217E+04  0.12699999809E+01 0. -1.
       -4    1    3    3    0  502 -0.11308628811E+03  0.73653553979E+03  0.82759788264E+03  0.11136395190E+04  0.12699999809E+01 0.  1.
</event>
<event>
 5   0  0.2085063E-05  0.2325480E+04  0.7818609E-02  0.8467942E-01
       -1   -1    0    0    0  501  0.00000000000E+00  0.00000000000E+00  0.21335322797E+04  0.21335322797E+04  0.50400001928E-02 0. -1.
        1   -1    0    0  501    0  0.00000000000E+00  0.00000000000E+00 -0.63367436136E+03  0.63367436138E+03  0.50400001928E-02 0.  1.
    10030    2    1    2    0    0  0.00000000000E+00  0.00000000000E+00  0.14998579183E+04  0.27672066411E+04  0.23254803416E+04 0.  0.
        1    1    3    3  502    0  0.10743264767E+04  0.14229620657E+03  0.12513192791E+04  0.16553626573E+04  0.50400001928E-02 0. -1.
       -1    1    3    3    0  502 -0.10743264767E+04 -0.14229620657E+03  0.24853863925E+03  0.11118439838E+04  0.50400001928E-02 0.  1.
</event>
<event>
 5   0  0.4798609E-05  0.2284833E+04  0.7818609E-02  0.8483925E-01
        2   -1    0    0  501    0  0.00000000000E+00  0.00000000000E+00  0.15873719837E+04  0.15873719837E+04  0.25500000920E-02 0.  1.
       -2   -1    0    0    0  501  0.00000000000E+00  0.00000000000E+00 -0.82218654014E+03  0.82218654015E+03  0.25500000920E-02 0. -1.
    10030    2    1    2    0    0  0.00000000000E+00  0.00000000000E+00  0.76518544359E+03  0.24095585239E+04  0.22848333674E+04 0.  0.
        2    1    3    3  502    0 -0.58649958695E+03 -0.39181505849E+03  0.13303238704E+04  0.15057431406E+04  0.25500000920E-02 0.  1.
       -2    1    3    3    0  502  0.58649958695E+03  0.39181505849E+03 -0.56513842677E+03  0.90381538324E+03  0.25500000920E-02 0. -1.
</event>
<event>
 5   0  0.2042951E-05  0.2115654E+04  0.7818609E-02  0.8554379E-01
       -1   -1    0    0    0  501  0.00000000000E+00  0.00000000000E+00  0.10208193778E+04  0.10208193778E+04  0.50400001928E-02 0. -1.
        1   -1    0    0  501    0  0.00000000000E+00  0.00000000000E+00 -0.10961764644E+04  0.10961764644E+04  0.50400001928E-02 0.  1.
    10030    2    1    2    0    0  0.00000000000E+00  0.00000000000E+00 -0.75357086558E+02  0.21169958422E+04  0.21156542027E+04 0.  0.
        2    1    3    3  502    0 -0.81818032200E+03  0.44850581389E+03  0.46105670161E+03  0.10407448230E+04  0.25500000920E-02 0. -1.
       -2    1    3    3    0  502  0.81818032200E+03 -0.44850581389E+03 -0.53641378817E+03  0.10762510193E+04  0.25500000920E-02 0.  1.
</event>
<event>
 5   0  0.2042951E-05  0.2366803E+04  0.7818609E-02  0.8452038E-01
       -1   -1    0    0    0  501  0.00000000000E+00  0.00000000000E+00  0.10731013958E+04  0.10731013958E+04  0.50400001928E-02 0. -1.
        1   -1    0    0  501    0  0.00000000000E+00  0.00000000000E+00 -0.13050391587E+04  0.13050391587E+04  0.50400001928E-02 0.  1.
    10030    2    1    2    0    0  0.00000000000E+00  0.00000000000E+00 -0.23193776296E+03  0.23781405545E+04  0.23668031965E+04 0.  0.
        2    1    3    3  502    0  0.53168009343E+02  0.96733209968E+02 -0.12998552635E+04  0.13045335784E+04  0.25500000920E-02 0.  1.
       -2    1    3    3    0  502 -0.53168009343E+02 -0.96733209968E+02  0.10679175005E+04  0.10736069761E+04  0.25500000920E-02 0. -1.
</event>
<event>
 5   0  0.2031860E-05  0.2699346E+04  0.7818609E-02  0.8335217E-01
        1   -1    0    0  501    0  0.00000000000E+00  0.00000000000E+00  0.15640989344E+04  0.15640989344E+04  0.50400001928E-02 0.  1.
       -1   -1    0    0    0  501  0.00000000000E+00  0.00000000000E+00 -0.11646431673E+04  0.11646431673E+04  0.50400001928E-02 0. -1.
    10030    2    1    2    0    0  0.00000000000E+00  0.00000000000E+00  0.39945576709E+03  0.27287421017E+04  0.26993459481E+04 0.  0.
        4    1    3    3  502    0 -0.76945663841E+03 -0.11049115287E+04  0.29413938812E+03  0.13781917853E+04  0.12699999809E+01 0.  1.
       -4    1    3    3    0  502  0.76945663841E+03  0.11049115287E+04  0.10531637897E+03  0.13505503164E+04  0.12699999809E+01 0. -1.
</event>
<event>
 5   0  0.2031860E-05  0.2290697E+04  0.7818609E-02  0.8481598E-01
       -1   -1    0    0    0  501  0.00000000000E+00  0.00000000000E+00  0.80053606389E+03  0.80053606390E+03  0.50400001928E-02 0.  1.
        1   -1    0    0  501    0  0.00000000000E+00  0.00000000000E+00 -0.16386806544E+04  0.16386806544E+04  0.50400001928E-02 0. -1.
    10030    2    1    2    0    0  0.00000000000E+00  0.00000000000E+00 -0.83814459052E+03  0.24392167183E+04  0.22906968032E+04 0.  0.
        4    1    3    3  502    0 -0.88714363701E+03  0.72438855111E+03 -0.42723358872E+03  0.12224126790E+04  0.12699999809E+01 0. -1.
       -4    1    3    3    0  502  0.88714363701E+03 -0.72438855111E+03 -0.41091100180E+03  0.12168040393E+04  0.12699999809E+01 0.  1.
</event>
<event>
 5   0  0.2043885E-05  0.2171634E+04  0.7818609E-02  0.8530328E-01
        1   -1    0    0  501    0  0.00000000000E+00  0.00000000000E+00  0.98987719034E+03  0.98987719036E+03  0.50400001928E-02 0. -1.
       -1   -1    0    0    0  501  0.00000000000E+00  0.00000000000E+00 -0.11910554420E+04  0.11910554420E+04  0.50400001928E-02 0.  1.
    10030    2    1    2    0    0  0.00000000000E+00  0.00000000000E+00 -0.20117825166E+03  0.21809326324E+04  0.21716340525E+04 0.  0.
        5    1    3    3  502    0 -0.96462120196E+03  0.42755477960E+03 -0.35796634390E+03  0.11142078559E+04  0.46999998093E+01 0. -1.
       -5    1    3    3    0  502  0.96462120196E+03 -0.42755477960E+03  0.15678809224E+03  0.10667247765E+04  0.46999998093E+01 0.  1.
</event>
<event>
 5   0  0.1968318E-05  0.2291938E+04  0.7818609E-02  0.8481107E-01
       -1   -1    0    0    0  501  0.00000000000E+00  0.00000000000E+00  0.13515514448E+04  0.13515514448E+04  0.50400001928E-02 0. -1.
        1   -1    0    0  501    0  0.00000000000E+00  0.00000000000E+00 -0.97165762443E+03  0.97165762444E+03  0.50400001928E-02 0.  1.
    10030    2    1    2    0    0  0.00000000000E+00  0.00000000000E+00  0.37989382034E+03  0.23232090692E+04  0.22919382768E+04 0.  0.
        3    1    3    3  502    0 -0.33777636466E+03  0.97270270666E+03 -0.31990870442E+03  0.10782323578E+04  0.10100000352E+00 0.  1.
       -3    1    3    3    0  502  0.33777636466E+03 -0.97270270666E+03  0.69980252477E+03  0.12449767114E+04  0.10100000352E+00 0. -1.
</event>
<event>
 5   0  0.4436695E-05  0.2354584E+04  0.7818609E-02  0.8456705E-01
       -2   -1    0    0    0  501  0.00000000000E+00  0.00000000000E+00  0.10844168205E+04  0.10844168205E+04  0.25500000920E-02 0.  1.
        2   -1    0    0  501    0  0.00000000000E+00  0.00000000000E+00 -0.12781216756E+04  0.12781216756E+04  0.25500000920E-02 0. -1.
    10030    2    1    2    0    0  0.00000000000E+00  0.00000000000E+00 -0.19370485508E+03  0.23625384962E+04  0.23545841618E+04 0.  0.
        5    1    3    3  502    0 -0.56985271755E+03 -0.98856544903E+03  0.19395557475E+03  0.11574258601E+04  0.46999998093E+01 0.  1.
       -5    1    3    3    0  502  0.56985271755E+03  0.98856544903E+03 -0.38766042983E+03  0.12051126360E+04  0.46999998093E+01 0. -1.
</event>
<event>
 5   0  0.2043885E-05  0.2301856E+04  0.7818609E-02  0.8477190E-01
       -1   -1    0    0    0  501  0.00000000000E+00  0.00000000000E+00  0.83068130242E+03  0.83068130244E+03  0.50400001928E-02 0. -1.
        1   -1    0    0  501    0  0.00000000000E+00  0.00000000000E+00 -0.15946369483E+04  0.15946369483E+04  0.50400001928E-02 0.  1.
    10030    2    1    2    0    0  0.00000000000E+00  0.00000000000E+00 -0.76395564588E+03  0.24253182507E+04  0.23018558575E+04 0.  0.
        5    1    3    3  502    0  0.52324142115E+03  0.61329731080E+03  0.48347872339E+03  0.94004730850E+03  0.46999998093E+01 0. -1.
       -5    1    3    3    0  502 -0.52324142115E+03 -0.61329731080E+03 -0.12474343693E+04  0.14852709422E+04  0.46999998093E+01 0.  1.
</event>
<event>
 5   0  0.4605516E-05  0.2320499E+04  0.7818609E-02  0.8469882E-01
       -2   -1    0    0    0  501  0.00000000000E+00  0.00000000000E+00  0.13040808967E+04  0.13040808967E+04  0.25500000920E-02 0.  1.
        2   -1    0    0  501    0  0.00000000000E+00  0.00000000000E+00 -0.10322814305E+04  0.10322814305E+04  0.25500000920E-02 0. -1.
    10030    2    1    2    0    0  0.00000000000E+00  0.00000000000E+00  0.27179946615E+03  0.23363623272E+04  0.23204986477E+04 0.  0.
        1    1    3    3  502    0 -0.64406292510E+03 -0.83346897442E+03 -0.35393510013E+03  0.11111964893E+04  0.50400001928E-02 0. -1.
       -1    1    3    3    0  502  0.64406292510E+03  0.83346897442E+03  0.62573456627E+03  0.12251658379E+04  0.50400001928E-02 0.  1.
</event>
<event>
 5   0  0.1968318E-05  0.2260624E+04  0.7818609E-02  0.8493611E-01
       -1   -1    0    0    0  501  0.00000000000E+00  0.00000000000E+00  0.15902849556E+04  0.15902849556E+04  0.50400001928E-02 0.  1.
        1   -1    0    0  501    0  0.00000000000E+00  0.00000000000E+00 -0.80338096171E+03  0.80338096172E+03  0.50400001928E-02 0. -1.
    10030    2    1    2    0    0  0.00000000000E+00  0.00000000000E+00  0.78690399386E+03  0.23936659173E+04  0.22606235043E+04 0.  0.
        3    1    3    3  502    0  0.57998946892E+03 -0.95784321890E+03  0.23026083248E+03  0.11431847957E+04  0.10100000352E+00 0. -1.
       -3    1    3    3    0  502 -0.57998946892E+03  0.95784321890E+03  0.55664316138E+03  0.12504811216E+04  0.10100000352E+00 0.  1.
</event>
<event>
 5   0  0.2031860E-05  0.2323436E+04  0.7818609E-02  0.8468738E-01
       -1   -1    0    0    0  501  0.00000000000E+00  0.00000000000E+00  0.10134376558E+04  0.10134376558E+04  0.50400001928E-02 0.  1.
        1   -1    0    0  501    0  0.00000000000E+00  0.00000000000E+00 -0.13316934284E+04  0.13316934284E+04  0.50400001928E-02 0. -1.
    10030    2    1    2    0    0  0.00000000000E+00  0.00000000000E+00 -0.31825577253E+03  0.23451310842E+04  0.23234356168E+04 0.  0.
        4    1    3    3  502    0  0.84844478309E+03  0.97818357251E+02 -0.95398349208E+03  0.12804347297E+04  0.12699999809E+01 0. -1.
       -4    1    3    3    0  502 -0.84844478309E+03 -0.97818357251E+02  0.63572771955E+03  0.10646963545E+04  0.12699999809E+01 0.  1.
</event>
<event>
 5   0  0.4605516E-05  0.2309036E+04  0.7818609E-02  0.8474367E-01
       -2   -1    0    0    0  501  0.00000000000E+00  0.00000000000E+00  0.70599607160E+03  0.70599607161E+03  0.25500000920E-02 0. -1.
        2   -1    0    0  501    0  0.00000000000E+00  0.00000000000E+00 -0.18879873854E+04  0.18879873854E+04  0.25500000920E-02 0.  1.
    10030    2    1    2    0    0  0.00000000000E+00  0.00000000000E+00 -0.11819913138E+04  0.25939834570E+04  0.23090358831E+04 0.  0.
        1    1    3    3  502    0 -0.94230015745E+03  0.66703642505E+03 -0.59848955832E+03  0.13004064482E+04  0.50400001928E-02 0. -1.
       -1    1    3    3    0  502  0.94230015745E+03 -0.66703642505E+03 -0.58350175550E+03  0.12935770088E+04  0.50400001928E-02 0.  1.
</event>
<event>
 5   0  0.4602447E-05  0.2269636E+04  0.7818609E-02  0.8489990E-01
        2   -1    0    0  501    0  0.00000000000E+00  0.00000000000E+00  0.17206456753E+04  0.17206456753E+04  0.25500000920E-02 0.  1.
       -2   -1    0    0    0  501  0.00000000000E+00  0.00000000000E+00 -0.74844703706E+03  0.74844703706E+03  0.25500000920E-02 0. -1.
    10030    2    1    2    0    0  0.00000000000E+00  0.00000000000E+00  0.97219863827E+03  0.24690927124E+04  0.22696362330E+04 0.  0.
        3    1    3    3  502    0 -0.14228408910E+03  0.13398385782E+03 -0.73000093729E+03  0.75571013941E+03  0.10100000352E+00 0. -1.
       -3    1    3    3    0  502  0.14228408910E+03 -0.13398385782E+03  0.17021995756E+04  0.17133825730E+04  0.10100000352E+00 0.  1.
</event>
<event>
 5   0  0.4605516E-05  0.2296250E+04  0.7818609E-02  0.8479401E-01
        2   -1    0    0  501    0  0.00000000000E+00  0.00000000000E+00  0.11241259688E+04  0.11241259688E+04  0.25500000920E-02 0. -1.
       -2   -1    0    0    0  501  0.00000000000E+00  0.00000000000E+00 -0.11726367050E+04  0.11726367050E+04  0.25500000920E-02 0.  1.
    10030    2    1    2    0    0  0.00000000000E+00  0.00000000000E+00 -0.48510736149E+02  0.22967626738E+04  0.22962503104E+04 0.  0.
        1    1    3    3  502    0  0.65819563612E+03  0.30802639990E+03  0.86481281771E+03  0.11296030135E+04  0.50400001928E-02 0. -1.
       -1    1    3    3    0  502 -0.65819563612E+03 -0.30802639990E+03 -0.91332355386E+03  0.11671596602E+04  0.50400001928E-02 0.  1.
</event>
<event>
 5   0  0.4602447E-05  0.2422209E+04  0.7818609E-02  0.8431235E-01
        2   -1    0    0  501    0  0.00000000000E+00  0.00000000000E+00  0.17447779837E+04  0.17447779837E+04  0.25500000920E-02 0. -1.
       -2   -1    0    0    0  501  0.00000000000E+00  0.00000000000E+00 -0.84066506402E+03  0.84066506403E+03  0.25500000920E-02 0.  1.
    10030    2    1    2    0    0  0.00000000000E+00  0.00000000000E+00  0.90411291972E+03  0.25854430478E+04  0.24222088229E+04 0.  0.
        3    1    3    3  502    0  0.18356856621E+03 -0.95733109719E+03  0.12192376040E+04  0.15609998697E+04  0.10100000352E+00 0. -1.
       -3    1    3    3    0  502 -0.18356856621E+03  0.95733109719E+03 -0.31512468429E+03  0.10244431780E+04  0.10100000352E+00 0.  1.
</event>
<event>
 5   0  0.4798609E-05  0.2293356E+04  0.7818609E-02  0.8480545E-01
       -2   -1    0    0    0  501  0.00000000000E+00  0.00000000000E+00  0.70200256364E+03  0.70200256364E+03  0.25500000920E-02 0.  1.
        2   -1    0    0  501    0  0.00000000000E+00  0.00000000000E+00 -0.18730281210E+04  0.18730281210E+04  0.25500000920E-02 0. -1.
    10030    2    1    2    0    0  0.00000000000E+00  0.00000000000E+00 -0.11710255574E+04  0.25750306847E+04  0.22933560934E+04 0.  0.
        2    1    3    3  502    0 -0.71837495123E+03 -0.28338316646E+03 -0.15372671748E+04  0.17203368729E+04  0.25500000920E-02 0. -1.
       -2    1    3    3    0  502  0.71837495123E+03  0.28338316646E+03  0.36624161738E+03  0.85469381178E+03  0.25500000920E-02 0.  1.
</event>
<event>
 5   0  0.4605516E-05  0.2368644E+04  0.7818609E-02  0.8451337E-01
        2   -1    0    0  501    0  0.00000000000E+00  0.00000000000E+00  0.76670836035E+03  0.76670836036E+03  0.25500000920E-02 0.  1.
       -2   -1    0    0    0  501  0.00000000000E+00  0.00000000000E+00 -0.18294037172E+04  0.18294037172E+04  0.25500000920E-02 0. -1.
    10030    2    1    2    0    0  0.00000000000E+00  0.00000000000E+00 -0.10626953569E+04  0.25961120776E+04  0.23686444431E+04 0.  0.
        1    1    3    3  502    0 -0.56709690990E+03 -0.47578489392E+03 -0.15445996246E+04  0.17128216985E+04  0.50400001928E-02 0. -1.
       -1    1    3    3    0  502  0.56709690990E+03  0.47578489392E+03  0.48190426773E+03  0.88329037909E+03  0.50400001928E-02 0.  1.
</event>
<event>
 5   0  0.2043885E-05  0.2301039E+04  0.7818609E-02  0.8477511E-01
       -1   -1    0    0    0  501  0.00000000000E+00  0.00000000000E+00  0.14105936848E+04  0.14105936848E+04  0.50400001928E-02 0.  1.
        1   -1    0    0  501    0  0.00000000000E+00  0.00000000000E+00 -0.93839610146E+03  0.93839610147E+03  0.50400001928E-02 0. -1.
    10030    2    1    2    0    0  0.00000000000E+00  0.00000000000E+00  0.47219758335E+03  0.23489897863E+04  0.23010394300E+04 0.  0.
        5    1    3    3  502    0  0.63611189922E+03 -0.95461558573E+03  0.14626349148E+03  0.11564360613E+04  0.46999998093E+01 0. -1.
       -5    1    3    3    0  502 -0.63611189922E+03  0.95461558573E+03  0.32593409187E+03  0.11925537250E+04  0.46999998093E+01 0.  1.
</event>
<event>
 5   0  0.2043885E-05  0.2318599E+04  0.7818609E-02  0.8470624E-01
        1   -1    0    0  501    0  0.00000000000E+00  0.00000000000E+00  0.15469654866E+04  0.15469654866E+04  0.50400001928E-02 0.  1.
       -1   -1    0    0    0  501  0.00000000000E+00  0.00000000000E+00 -0.86878150330E+03  0.86878150332E+03  0.50400001928E-02 0. -1.
    10030    2    1    2    0    0  0.00000000000E+00  0.00000000000E+00  0.67818398328E+03  0.24157469899E+04  0.23185987156E+04 0.  0.
        5    1    3    3  502    0 -0.59052288157E+03 -0.91240019951E+03  0.75943295543E+03  0.13258777853E+04  0.46999998093E+01 0.  1.
       -5    1    3    3    0  502  0.59052288157E+03  0.91240019951E+03 -0.81248972148E+02  0.10898692046E+04  0.46999998093E+01 0. -1.
</event>
<event>
 5   0  0.4798609E-05  0.2297368E+04  0.7818609E-02  0.8478960E-01
        2   -1    0    0  501    0  0.00000000000E+00  0.00000000000E+00  0.18272647832E+04  0.18272647832E+04  0.25500000920E-02 0.  1.
       -2   -1    0    0    0  501  0.00000000000E+00  0.00000000000E+00 -0.72210354215E+03  0.72210354215E+03  0.25500000920E-02 0. -1.
    10030    2    1    2    0    0  0.00000000000E+00  0.00000000000E+00  0.11051612411E+04  0.25493683254E+04  0.22973675130E+04 0.  0.
        2    1    3    3  502    0 -0.56967236113E+00  0.11267420509E+03 -0.71595630154E+03  0.72476839524E+03  0.25500000920E-02 0. -1.
       -2    1    3    3    0  502  0.56967236113E+00 -0.11267420509E+03  0.18211175426E+04  0.18245999301E+04  0.25500000920E-02 0.  1.
</event>
<event>
 5   0  0.1968318E-05  0.2302513E+04  0.7818609E-02  0.8476931E-01
       -1   -1    0    0    0  501  0.00000000000E+00  0.00000000000E+00  0.15399003955E+04  0.15399003955E+04  0.50400001928E-02 0. -1.
        1   -1    0    0  501    0  0.00000000000E+00  0.00000000000E+00 -0.86069929547E+03  0.86069929549E+03  0.50400001928E-02 0.  1.
    10030    2    1    2    0    0  0.00000000000E+00  0.00000000000E+00  0.67920110006E+03  0.24005996910E+04  0.23025127019E+04 0.  0.
        3    1    3    3  502    0 -0.13183005560E+03 -0.11639983490E+03 -0.84661208878E+03  0.86468498553E+03  0.10100000352E+00 0.  1.
       -3    1    3    3    0  502  0.13183005560E+03  0.11639983490E+03  0.15258131888E+04  0.15359147055E+04  0.10100000352E+00 0. -1.
</event>
<event>
 5   0  0.2043885E-05  0.2312894E+04  0.7818609E-02  0.8472855E-01
        1   -1    0    0  501    0  0.00000000000E+00  0.00000000000E+00  0.11503660530E+04  0.11503660530E+04  0.50400001928E-02 0. -1.
       -1   -1    0    0    0  501  0.00000000000E+00  0.00000000000E+00 -0.11625597477E+04  0.11625597477E+04  0.50400001928E-02 0.  1.
    10030    2    1    2    0    0  0.00000000000E+00  0.00000000000E+00 -0.12193694740E+02  0.23129258007E+04  0.23128936581E+04 0.  0.
        5    1    3    3  502    0  0.26708614946E+03  0.10931693140E+04 -0.27254570036E+03  0.11578676130E+04  0.46999998093E+01 0. -1.
       -5    1    3    3    0  502 -0.26708614946E+03 -0.10931693140E+04  0.26035200562E+03  0.11550581878E+04  0.46999998093E+01 0.  1.
</event>
<event>
 5   0  0.4436695E-05  0.2284011E+04  0.7818609E-02  0.8484252E-01
        2   -1    0    0  501    0  0.00000000000E+00  0.00000000000E+00  0.13338169704E+04  0.13338169704E+04  0.25500000920E-02 0. -1.
       -2   -1    0    0    0  501  0.00000000000E+00  0.00000000000E+00 -0.97777742238E+03  0.97777742239E+03  0.25500000920E-02 0.  1.
    10030    2    1    2    0    0  0.00000000000E+00  0.00000000000E+00  0.35603954798E+03  0.23115943927E+04  0.22840106122E+04 0.  0.
        5    1    3    3  502    0  0.10103947930E+03 -0.10807138892E+04  0.53727506169E+03  0.12111309048E+04  0.46999998093E+01 0. -1.
       -5    1    3    3    0  502 -0.10103947930E+03  0.10807138892E+04 -0.18123551371E+03  0.11004634879E+04  0.46999998093E+01 0.  1.
</event>
<event>
 5   0  0.4602447E-05  0.2298280E+04  0.7818609E-02  0.8478600E-01
        2   -1    0    0  501    0  0.00000000000E+00  0.00000000000E+00  0.14256487784E+04  0.14256487784E+04  0.25500000920E-02 0. -1.
       -2   -1    0    0    0  501  0.00000000000E+00  0.00000000000E+00 -0.92626087073E+03  0.92626087073E+03  0.25500000920E-02 0.  1.
    10030    2    1    2    0    0  0.00000000000E+00  0.00000000000E+00  0.49938790766E+03  0.23519096491E+04  0.22982799471E+04 0.  0.
        3    1    3    3  502    0 -0.59448791345E+03  0.16527200441E+03  0.12417439673E+04  0.13865997278E+04  0.10100000352E+00 0. -1.
       -3    1    3    3    0  502  0.59448791345E+03 -0.16527200441E+03 -0.74235605963E+03  0.96530992130E+03  0.10100000352E+00 0.  1.
</event>
<event>
 5   0  0.2043885E-05  0.2278995E+04  0.7818609E-02  0.8486249E-01
       -1   -1    0    0    0  501  0.00000000000E+00  0.00000000000E+00  0.15001928462E+04  0.15001928462E+04  0.50400001928E-02 0.  1.
        1   -1    0    0  501    0  0.00000000000E+00  0.00000000000E+00 -0.86552534806E+03  0.86552534808E+03  0.50400001928E-02 0. -1.
    10030    2    1    2    0    0  0.00000000000E+00  0.00000000000E+00  0.63466749809E+03  0.23657181942E+04  0.22789953360E+04 0.  0.
        5    1    3    3  502    0  0.34518330503E+02  0.46089504045E+03 -0.76384582711E+03  0.89280361281E+03  0.46999998093E+01 0. -1.
       -5    1    3    3    0  502 -0.34518330503E+02 -0.46089504045E+03  0.13985133252E+04  0.14729145814E+04  0.46999998093E+01 0.  1.
</event>
<event>
 5   0  0.4798609E-05  0.2299096E+04  0.7818609E-02  0.8478278E-01
        2   -1    0    0  501    0  0.00000000000E+00  0.00000000000E+00  0.14498521608E+04  0.14498521608E+04  0.25500000920E-02 0.  1.
       -2   -1    0    0    0  501  0.00000000000E+00  0.00000000000E+00 -0.91144501603E+03  0.91144501604E+03  0.25500000920E-02 0. -1.
    10030    2    1    2    0    0  0.00000000000E+00  0.00000000000E+00  0.53840714480E+03  0.23612971769E+04  0.22990959319E+04 0.  0.
        2    1    3    3  502    0  0.76485816522E+03  0.22207979332E+03  0.11205650255E+04  0.13747703168E+04  0.25500000920E-02 0.  1.
       -2    1    3    3    0  502 -0.76485816522E+03 -0.22207979332E+03 -0.58215788074E+03  0.98652686006E+03  0.25500000920E-02 0. -1.
</event>
<event>
 5   0  0.2085063E-05  0.2290122E+04  0.7818609E-02  0.8481826E-01
        1   -1    0    0  501    0  0.00000000000E+00  0.00000000000E+00  0.13170927067E+04  0.13170927067E+04  0.50400001928E-02 0. -1.
       -1   -1    0    0    0  501  0.00000000000E+00  0.00000000000E+00 -0.99549934347E+03  0.99549934348E+03  0.50400001928E-02 0.  1.
    10030    2    1    2    0    0  0.00000000000E+00  0.00000000000E+00  0.32159336325E+03  0.23125920502E+04  0.22901222019E+04 0.  0.
        1    1    3    3  502    0 -0.30811982638E+01  0.87805353649E+02 -0.99209056489E+03  0.99597337459E+03  0.50400001928E-02 0.  1.
       -1    1    3    3    0  502  0.30811982638E+01 -0.87805353649E+02  0.13136839281E+04  0.13166186756E+04  0.50400001928E-02 0. -1.
</event>
<event>
 5   0  0.4602447E-05  0.2311523E+04  0.7818609E-02  0.8473392E-01
        2   -1    0    0  501    0  0.00000000000E+00  0.00000000000E+00  0.26274557707E+04  0.26274557707E+04  0.25500000920E-02 0.  1.
       -2   -1    0    0    0  501  0.00000000000E+00  0.00000000000E+00 -0.50839467144E+03  0.50839467144E+03  0.25500000920E-02 0. -1.
    10030    2    1    2    0    0  0.00000000000E+00  0.00000000000E+00  0.21190610993E+04  0.31358504422E+04  0.23115228861E+04 0.  0.
        3    1    3    3  502    0  0.23303427767E+03  0.74597600133E+03  0.22146474762E+04  0.23484992278E+04  0.10100000352E+00 0.  1.
       -3    1    3    3    0  502 -0.23303427767E+03 -0.74597600133E+03 -0.95586376862E+02  0.78735121437E+03  0.10100000352E+00 0. -1.
</event>
<event>
 5   0  0.2042951E-05  0.2318633E+04  0.7818609E-02  0.8470610E-01
        1   -1    0    0  501    0  0.00000000000E+00  0.00000000000E+00  0.17170645615E+04  0.17170645615E+04  0.50400001928E-02 0.  1.
       -1   -1    0    0    0  501  0.00000000000E+00  0.00000000000E+00 -0.78273974097E+03  0.78273974098E+03  0.50400001928E-02 0. -1.
    10030    2    1    2    0    0  0.00000000000E+00  0.00000000000E+00  0.93432482054E+03  0.24998043025E+04  0.23186329335E+04 0.  0.
        2    1    3    3  502    0  0.55957942614E+03 -0.54732702474E+03 -0.45482998631E+03  0.90529902387E+03  0.25500000920E-02 0. -1.
       -2    1    3    3    0  502 -0.55957942614E+03  0.54732702474E+03  0.13891548068E+04  0.15945052786E+04  0.25500000920E-02 0.  1.
</event>
<event>
 5   0  0.1968318E-05  0.2305424E+04  0.7818609E-02  0.8475785E-01
       -1   -1    0    0    0  501  0.00000000000E+00  0.00000000000E+00  0.11604181000E+04  0.11604181000E+04  0.50400001928E-02 0.  1.
        1   -1    0    0  501    0  0.00000000000E+00  0.00000000000E+00 -0.11450573582E+04  0.11450573582E+04  0.50400001928E-02 0. -1.
    10030    2    1    2    0    0  0.00000000000E+00  0.00000000000E+00  0.15360741805E+02  0.23054754583E+04  0.23054242855E+04 0.  0.
        3    1    3    3  502    0  0.75604026605E+03  0.80474451133E+03 -0.32328718660E+03  0.11505325843E+04  0.10100000352E+00 0.  1.
       -3    1    3    3    0  502 -0.75604026605E+03 -0.80474451133E+03  0.33864792840E+03  0.11549428739E+04  0.10100000352E+00 0. -1.
</event>
<event>
 5   0  0.2043885E-05  0.2260809E+04  0.7818609E-02  0.8493536E-01
       -1   -1    0    0    0  501  0.00000000000E+00  0.00000000000E+00  0.70816781689E+03  0.70816781691E+03  0.50400001928E-02 0. -1.
        1   -1    0    0  501    0  0.00000000000E+00  0.00000000000E+00 -0.18043941242E+04  0.18043941242E+04  0.50400001928E-02 0.  1.
    10030    2    1    2    0    0  0.00000000000E+00  0.00000000000E+00 -0.10962263073E+04  0.25125619411E+04  0.22608085702E+04 0.  0.
        5    1    3    3  502    0 -0.89722768963E+03 -0.25114730840E+03 -0.12594668230E+04  0.15666433116E+04  0.46999998093E+01 0.  1.
       -5    1    3    3    0  502  0.89722768963E+03  0.25114730840E+03  0.16324051576E+03  0.94591862945E+03  0.46999998093E+01 0. -1.
</event>
<event>
 5   0  0.2042951E-05  0.1982223E+04  0.7818609E-02  0.8614978E-01
        1   -1    0    0  501    0  0.00000000000E+00  0.00000000000E+00  0.12002184507E+04  0.12002184507E+04  0.50400001928E-02 0. -1.
       -1   -1    0    0    0  501  0.00000000000E+00  0.00000000000E+00 -0.81843565880E+03  0.81843565882E+03  0.50400001928E-02 0.  1.
    10030    2    1    2    0    0  0.00000000000E+00  0.00000000000E+00  0.38178279190E+03  0.20186541095E+04  0.19822225692E+04 0.  0.
        2    1    3    3  502    0 -0.11052218062E+03 -0.41265964617E+03 -0.71985984284E+03  0.83707904604E+03  0.25500000920E-02 0.  1.
       -2    1    3    3    0  502  0.11052218062E+03  0.41265964617E+03  0.11016426347E+04  0.11815750635E+04  0.25500000920E-02 0. -1.
</event>
<event>
 5   0  0.4505107E-05  0.2253716E+04  0.7818609E-02  0.8496397E-01
        2   -1    0    0  501    0  0.00000000000E+00  0.00000000000E+00  0.24924576440E+04  0.24924576440E+04  0.25500000920E-02 0. -1.
       -2   -1    0    0    0  501  0.00000000000E+00  0.00000000000E+00 -0.50946041489E+03  0.50946041490E+03  0.25500000920E-02 0.  1.
    10030    2    1    2    0    0  0.00000000000E+00  0.00000000000E+00  0.19829972291E+04  0.30019180589E+04  0.22537156036E+04 0.  0.
        4    1    3    3  502    0  0.81966639716E+03  0.47628755376E+03  0.18029220980E+04  0.20369665046E+04  0.12699999809E+01 0. -1.
       -4    1    3    3    0  502 -0.81966639716E+03 -0.47628755376E+03  0.18007513118E+03  0.96495155436E+03  0.12699999809E+01 0.  1.
</event>
<event>
 5   0  0.2031860E-05  0.2295231E+04  0.7818609E-02  0.8479804E-01
        1   -1    0    0  501    0  0.00000000000E+00  0.00000000000E+00  0.21251078234E+04  0.21251078234E+04  0.50400001928E-02 0.  1.
       -1   -1    0    0    0  501  0.00000000000E+00  0.00000000000E+00 -0.61974330768E+03  0.61974330770E+03  0.50400001928E-02 0. -1.
    10030    2    1    2    0    0  0.00000000000E+00  0.00000000000E+00  0.15053645157E+04  0.27448511311E+04  0.22952310138E+04 0.  0.
        4    1    3    3  502    0 -0.76208572166E+03  0.79186239967E+03  0.35749604456E+03  0.11556927541E+04  0.12699999809E+01 0. -1.
       -4    1    3    3    0  502  0.76208572166E+03 -0.79186239967E+03  0.11478684712E+04  0.15891583770E+04  0.12699999809E+01 0.  1.
</event>
<event>
 5   0  0.2043885E-05  0.2301681E+04  0.7818609E-02  0.8477259E-01
       -1   -1    0    0    0  501  0.00000000000E+00  0.00000000000E+00  0.10998775142E+04  0.10998775142E+04  0.50400001928E-02 0.  1.
        1   -1    0    0  501    0  0.00000000000E+00  0.00000000000E+00 -0.12041649382E+04  0.12041649382E+04  0.50400001928E-02 0. -1.
    10030    2    1    2    0    0  0.00000000000E+00  0.00000000000E+00 -0.10428742395E+03  0.23040424524E+04  0.23016810717E+04 0.  0.
        5    1    3    3  502    0  0.34738215389E+03 -0.25795292878E+03  0.10153450978E+04  0.11037036885E+04  0.46999998093E+01 0.  1.
       -5    1    3    3    0  502 -0.34738215389E+03  0.25795292878E+03 -0.11196325218E+04  0.12003387639E+04  0.46999998093E+01 0. -1.
</event>
<event>
 5   0  0.1604500E-05  0.2160328E+04  0.7818609E-02  0.8535124E-01
        4   -1    0    0  501    0  0.00000000000E+00  0.00000000000E+00  0.65190364513E+03  0.65190488220E+03  0.12699999809E+01 0. -1.
       -4   -1    0    0    0  501  0.00000000000E+00  0.00000000000E+00 -0.17897618239E+04  0.17897622745E+04  0.12699999809E+01 0.  1.
    10030    2    1    2    0    0  0.00000000000E+00  0.00000000000E+00 -0.11378581788E+04  0.24416671567E+04  0.21603280467E+04 0.  0.
        5    1    3    3  502    0  0.70269023715E+03 -0.82034050163E+03 -0.56853871861E+03  0.12206516590E+04  0.46999998093E+01 0.  1.
       -5    1    3    3    0  502 -0.70269023715E+03  0.82034050163E+03 -0.56931946018E+03  0.12210154977E+04  0.46999998093E+01 0. -1.
</event>
<event>
 5   0  0.4605516E-05  0.2322693E+04  0.7818609E-02  0.8469027E-01
        2   -1    0    0  501    0  0.00000000000E+00  0.00000000000E+00  0.71125597681E+03  0.71125597682E+03  0.25500000920E-02 0. -1.
       -2   -1    0    0    0  501  0.00000000000E+00  0.00000000000E+00 -0.18962586279E+04  0.18962586279E+04  0.25500000920E-02 0.  1.
    10030    2    1    2    0    0  0.00000000000E+00  0.00000000000E+00 -0.11850026511E+04  0.26075146047E+04  0.23226926466E+04 0.  0.
        1    1    3    3  502    0  0.10090278605E+04 -0.39553291606E+03 -0.10609763946E+04  0.15166589666E+04  0.50400001928E-02 0.  1.
       -1    1    3    3    0  502 -0.10090278605E+04  0.39553291606E+03 -0.12402625650E+03  0.10908556382E+04  0.50400001928E-02 0. -1.
</event>
<event>
 5   0  0.4602447E-05  0.2275064E+04  0.7818609E-02  0.8487819E-01
        2   -1    0    0  501    0  0.00000000000E+00  0.00000000000E+00  0.11547996741E+04  0.11547996741E+04  0.25500000920E-02 0.  1.
       -2   -1    0    0    0  501  0.00000000000E+00  0.00000000000E+00 -0.11205222263E+04  0.11205222263E+04  0.25500000920E-02 0. -1.
    10030    2    1    2    0    0  0.00000000000E+00  0.00000000000E+00  0.34277447731E+02  0.22753219004E+04  0.22750636930E+04 0.  0.
        3    1    3    3  502    0  0.51109745467E+03 -0.42166042485E+03 -0.90760699650E+03  0.11237297684E+04  0.10100000352E+00 0. -1.
       -3    1    3    3    0  502 -0.51109745467E+03  0.42166042485E+03  0.94188444423E+03  0.11515921320E+04  0.10100000352E+00 0.  1.
</event>
<event>
 5   0  0.4602447E-05  0.2261269E+04  0.7818609E-02  0.8493351E-01
        2   -1    0    0  501    0  0.00000000000E+00  0.00000000000E+00  0.20600810016E+04  0.20600810016E+04  0.25500000920E-02 0.  1.
       -2   -1    0    0    0  501  0.00000000000E+00  0.00000000000E+00 -0.62052613365E+03  0.62052613365E+03  0.25500000920E-02 0. -1.
    10030    2    1    2    0    0  0.00000000000E+00  0.00000000000E+00  0.14395548679E+04  0.26806071352E+04  0.22612687579E+04 0.  0.
        3    1    3    3  502    0 -0.20079387579E+03  0.10958820454E+04  0.94798215049E+03  0.14628553605E+04  0.10100000352E+00 0.  1.
       -3    1    3    3    0  502  0.20079387579E+03 -0.10958820454E+04  0.49157271744E+03  0.12177517747E+04  0.10100000352E+00 0. -1.
</event>
<event>
 5   0  0.2031860E-05  0.2181994E+04  0.7818609E-02  0.8525960E-01
       -1   -1    0    0    0  501  0.00000000000E+00  0.00000000000E+00  0.86934278602E+03  0.86934278603E+03  0.50400001928E-02 0. -1.
        1   -1    0    0  501    0  0.00000000000E+00  0.00000000000E+00 -0.13691663804E+04  0.13691663804E+04  0.50400001928E-02 0.  1.
    10030    2    1    2    0    0  0.00000000000E+00  0.00000000000E+00 -0.49982359438E+03  0.22385091664E+04  0.21819944232E+04 0.  0.
        4    1    3    3  502    0 -0.10787549583E+04 -0.15654496548E+03 -0.20340877354E+03  0.11088711956E+04  0.12699999809E+01 0. -1.
       -4    1    3    3    0  502  0.10787549583E+04  0.15654496548E+03 -0.29641482083E+03  0.11296379709E+04  0.12699999809E+01 0.  1.
</event>
<event>
 5   0  0.4605516E-05  0.2283226E+04  0.7818609E-02  0.8484564E-01
        2   -1    0    0  501    0  0.00000000000E+00  0.00000000000E+00  0.14711416504E+04  0.14711416504E+04  0.25500000920E-02 0.  1.
       -2   -1    0    0    0  501  0.00000000000E+00  0.00000000000E+00 -0.88589695682E+03  0.88589695683E+03  0.25500000920E-02 0. -1.
    10030    2    1    2    0    0  0.00000000000E+00  0.00000000000E+00  0.58524469355E+03  0.23570386072E+04  0.22832257104E+04 0.  0.
        1    1    3    3  502    0 -0.20408182743E+03 -0.70730048368E+03  0.11933881549E+04  0.14021763993E+04  0.50400001928E-02 0.  1.
       -1    1    3    3    0  502  0.20408182743E+03  0.70730048368E+03 -0.60814346133E+03  0.95486220791E+03  0.50400001928E-02 0. -1.
</event>
<event>
 5   0  0.2042951E-05  0.2294005E+04  0.7818609E-02  0.8480289E-01
       -1   -1    0    0    0  501  0.00000000000E+00  0.00000000000E+00  0.10497210862E+04  0.10497210862E+04  0.50400001928E-02 0. -1.
        1   -1    0    0  501    0  0.00000000000E+00  0.00000000000E+00 -0.12532990346E+04  0.12532990346E+04  0.50400001928E-02 0.  1.
    10030    2    1    2    0    0  0.00000000000E+00  0.00000000000E+00 -0.20357794847E+03  0.23030201208E+04  0.22940047288E+04 0.  0.
        2    1    3    3  502    0 -0.81446474029E+03  0.73802903584E+03  0.22748590741E+03  0.11224034520E+04  0.25500000920E-02 0. -1.
       -2    1    3    3    0  502  0.81446474029E+03 -0.73802903584E+03 -0.43106385588E+03  0.11806166689E+04  0.25500000920E-02 0.  1.
</event>
<event>
 5   0  0.2085063E-05  0.2285790E+04  0.7818609E-02  0.8483545E-01
        1   -1    0    0  501    0  0.00000000000E+00  0.00000000000E+00  0.13624767031E+04  0.13624767031E+04  0.50400001928E-02 0.  1.
       -1   -1    0    0    0  501  0.00000000000E+00  0.00000000000E+00 -0.95870157751E+03  0.95870157752E+03  0.50400001928E-02 0. -1.
    10030    2    1    2    0    0  0.00000000000E+00  0.00000000000E+00  0.40377512558E+03  0.23211782806E+04  0.22857896356E+04 0.  0.
        1    1    3    3  502    0 -0.66687625207E+03  0.33544125068E+03 -0.67693794057E+03  0.10077151104E+04  0.50400001928E-02 0. -1.
       -1    1    3    3    0  502  0.66687625207E+03 -0.33544125068E+03  0.10807130662E+04  0.13134631703E+04  0.50400001928E-02 0.  1.
</event>
<event>
 5   0  0.2043885E-05  0.2290940E+04  0.7818609E-02  0.8481502E-01
        1   -1    0    0  501    0  0.00000000000E+00  0.00000000000E+00  0.12304305751E+04  0.12304305752E+04  0.50400001928E-02 0. -1.
       -1   -1    0    0    0  501  0.00000000000E+00  0.00000000000E+00 -0.10663760597E+04  0.10663760597E+04  0.50400001928E-02 0.  1.
    10030    2    1    2    0    0  0.00000000000E+00  0.00000000000E+00  0.16405451544E+03  0.22968066349E+04  0.22909401638E+04 0.  0.
        5    1    3    3  502    0 -0.68410525522E+03 -0.50441604916E+03 -0.68782192780E+03  0.10934151294E+04  0.46999998093E+01 0.  1.
       -5    1    3    3    0  502  0.68410525522E+03  0.50441604916E+03  0.85187644324E+03  0.12033915055E+04  0.46999998093E+01 0. -1.
</event>
<event>
 5   0  0.4798609E-05  0.2295315E+04  0.7818609E-02  0.8479771E-01
        2   -1    0    0  501    0  0.00000000000E+00  0.00000000000E+00  0.94387087126E+03  0.94387087127E+03  0.25500000920E-02 0. -1.
       -2   -1    0    0    0  501  0.00000000000E+00  0.00000000000E+00 -0.13954422505E+04  0.13954422505E+04  0.25500000920E-02 0.  1.
    10030    2    1    2    0    0  0.00000000000E+00  0.00000000000E+00 -0.45157137925E+03  0.23393131218E+04  0.22953146127E+04 0.  0.
        2    1    3    3  502    0 -0.88705175158E+03 -0.72700783155E+03 -0.26800555887E+03  0.11778065107E+04  0.25500000920E-02 0. -1.
       -2    1    3    3    0  502  0.88705175158E+03  0.72700783155E+03 -0.18356582038E+03  0.11615066111E+04  0.25500000920E-02 0.  1.
</event>
<event>
 5   0  0.4605516E-05  0.2278638E+04  0.7818609E-02  0.8486392E-01
        2   -1    0    0  501    0  0.00000000000E+00  0.00000000000E+00  0.17912688110E+04  0.17912688110E+04  0.25500000920E-02 0.  1.
       -2   -1    0    0    0  501  0.00000000000E+00  0.00000000000E+00 -0.72465268127E+03  0.72465268127E+03  0.25500000920E-02 0. -1.
    10030    2    1    2    0    0  0.00000000000E+00  0.00000000000E+00  0.10666161297E+04  0.25159214922E+04  0.22786379675E+04 0.  0.
        1    1    3    3  502    0 -0.47467457147E+03 -0.81118673444E+03  0.12443462089E+04  0.15594028839E+04  0.50400001928E-02 0.  1.
       -1    1    3    3    0  502  0.47467457147E+03  0.81118673444E+03 -0.17773007917E+03  0.95651860829E+03  0.50400001928E-02 0. -1.
</event>
<event>
 5   0  0.4436695E-05  0.2309822E+04  0.7818609E-02  0.8474059E-01
       -2   -1    0    0    0  501  0.00000000000E+00  0.00000000000E+00  0.13104656807E+04  0.13104656807E+04  0.25500000920E-02 0. -1.
        2   -1    0    0  501    0  0.00000000000E+00  0.00000000000E+00 -0.10178206935E+04  0.10178206935E+04  0.25500000920E-02 0.  1.
    10030    2    1    2    0    0  0.00000000000E+00  0.00000000000E+00  0.29264498717E+03  0.23282863743E+04  0.23098217143E+04 0.  0.
        5    1    3    3  502    0  0.88771956413E+03 -0.71389759455E+03  0.33784452685E+03  0.11882158114E+04  0.46999998093E+01 0. -1.
       -5    1    3    3    0  502 -0.88771956413E+03  0.71389759455E+03 -0.45199539676E+02  0.11400705629E+04  0.46999998093E+01 0.  1.
</event>
<event>
 5   0  0.1604500E-05  0.2270974E+04  0.7818609E-02  0.8489454E-01
        3   -1    0    0  501    0  0.00000000000E+00  0.00000000000E+00  0.61289323677E+03  0.61289324509E+03  0.10100000352E+00 0.  1.
       -3   -1    0    0    0  501  0.00000000000E+00  0.00000000000E+00 -0.21036800006E+04  0.21036800031E+04  0.10100000352E+00 0. -1.
    10030    2    1    2    0    0  0.00000000000E+00  0.00000000000E+00 -0.14907867639E+04  0.27165732481E+04  0.22709744686E+04 0.  0.
        3    1    3    3  502    0 -0.96876874260E+03 -0.53411875926E+03 -0.43916350893E+03  0.11902354067E+04  0.10100000352E+00 0.  1.
       -3    1    3    3    0  502  0.96876874260E+03  0.53411875926E+03 -0.10516232549E+04  0.15263378414E+04  0.10100000352E+00 0. -1.
</event>
<event>
 5   0  0.1604500E-05  0.2300213E+04  0.7818609E-02  0.8477837E-01
        4   -1    0    0  501    0  0.00000000000E+00  0.00000000000E+00  0.19885083261E+04  0.19885087317E+04  0.12699999809E+01 0. -1.
       -4   -1    0    0    0  501  0.00000000000E+00  0.00000000000E+00 -0.66519357224E+03  0.66519478460E+03  0.12699999809E+01 0.  1.
    10030    2    1    2    0    0  0.00000000000E+00  0.00000000000E+00  0.13233147539E+04  0.26537035163E+04  0.23002131237E+04 0.  0.
        3    1    3    3  502    0 -0.87513640934E+03  0.73324052361E+03  0.50163401444E+03  0.12470533650E+04  0.10100000352E+00 0. -1.
       -3    1    3    3    0  502  0.87513640934E+03 -0.73324052361E+03  0.82168073944E+03  0.14066501513E+04  0.10100000352E+00 0.  1.
</event>
<event>
 5   0  0.4505107E-05  0.2303576E+04  0.7818609E-02  0.8476512E-01
        2   -1    0    0  501    0  0.00000000000E+00  0.00000000000E+00  0.16488818607E+04  0.16488818607E+04  0.25500000920E-02 0. -1.
       -2   -1    0    0    0  501  0.00000000000E+00  0.00000000000E+00 -0.80455468848E+03  0.80455468849E+03  0.25500000920E-02 0.  1.
    10030    2    1    2    0    0  0.00000000000E+00  0.00000000000E+00  0.84432717218E+03  0.24534365492E+04  0.23035760302E+04 0.  0.
        4    1    3    3  502    0  0.53352805472E+03  0.12885821598E+03  0.15006381674E+04  0.15978651843E+04  0.12699999809E+01 0. -1.
       -4    1    3    3    0  502 -0.53352805472E+03 -0.12885821598E+03 -0.65631099520E+03  0.85557136483E+03  0.12699999809E+01 0.  1.
</event>
<event>
 5   0  0.4605516E-05  0.2299182E+04  0.7818609E-02  0.8478244E-01
        2   -1    0    0  501    0  0.00000000000E+00  0.00000000000E+00  0.15005698543E+04  0.15005698543E+04  0.25500000920E-02 0. -1.
       -2   -1    0    0    0  501  0.00000000000E+00  0.00000000000E+00 -0.88070518103E+03  0.88070518103E+03  0.25500000920E-02 0.  1.
    10030    2    1    2    0    0  0.00000000000E+00  0.00000000000E+00  0.61986467330E+03  0.23812750354E+04  0.22991821548E+04 0.  0.
        1    1    3    3  502    0  0.11436478237E+04  0.82218990486E+02  0.39577311130E+03  0.12129825484E+04  0.50400001928E-02 0.  1.
       -1    1    3    3    0  502 -0.11436478237E+04 -0.82218990486E+02  0.22409156200E+03  0.11682924870E+04  0.50400001928E-02 0. -1.
</event>
<event>
 5   0  0.2085063E-05  0.2282508E+04  0.7818609E-02  0.8484850E-01
       -1   -1    0    0    0  501  0.00000000000E+00  0.00000000000E+00  0.71784152188E+03  0.71784152190E+03  0.50400001928E-02 0.  1.
        1   -1    0    0  501    0  0.00000000000E+00  0.00000000000E+00 -0.18144129933E+04  0.18144129933E+04  0.50400001928E-02 0. -1.
    10030    2    1    2    0    0  0.00000000000E+00  0.00000000000E+00 -0.10965714714E+04  0.25322545152E+04  0.22825082558E+04 0.  0.
        1    1    3    3  502    0  0.91220686945E+03  0.68581256126E+03 -0.54924175341E+03  0.12665412530E+04  0.50400001928E-02 0. -1.
       -1    1    3    3    0  502 -0.91220686945E+03 -0.68581256126E+03 -0.54732971797E+03  0.12657132622E+04  0.50400001928E-02 0.  1.
</event>
<event>
 5   0  0.2043885E-05  0.2346507E+04  0.7818609E-02  0.8459806E-01
        1   -1    0    0  501    0  0.00000000000E+00  0.00000000000E+00  0.96812782586E+03  0.96812782587E+03  0.50400001928E-02 0.  1.
       -1   -1    0    0    0  501  0.00000000000E+00  0.00000000000E+00 -0.14218411511E+04  0.14218411512E+04  0.50400001928E-02 0. -1.
    10030    2    1    2    0    0  0.00000000000E+00  0.00000000000E+00 -0.45371332528E+03  0.23899689770E+04  0.23465071765E+04 0.  0.
        5    1    3    3  502    0 -0.95022169841E+03 -0.12300976700E+03  0.46277309457E+03  0.10640647095E+04  0.46999998093E+01 0.  1.
       -5    1    3    3    0  502  0.95022169841E+03  0.12300976700E+03 -0.91648641985E+03  0.13259042675E+04  0.46999998093E+01 0. -1.
</event>
<event>
 5   0  0.4436695E-05  0.2372093E+04  0.7818609E-02  0.8450026E-01
       -2   -1    0    0    0  501  0.00000000000E+00  0.00000000000E+00  0.80754148851E+03  0.80754148851E+03  0.25500000920E-02 0.  1.
        2   -1    0    0  501    0  0.00000000000E+00  0.00000000000E+00 -0.17419613121E+04  0.17419613121E+04  0.25500000920E-02 0. -1.
    10030    2    1    2    0    0  0.00000000000E+00  0.00000000000E+00 -0.93441982357E+03  0.25495028006E+04  0.23720927730E+04 0.  0.
        5    1    3    3  502    0 -0.90222394919E+03 -0.39494517819E+03 -0.11774620196E+04  0.15350663327E+04  0.46999998093E+01 0. -1.
       -5    1    3    3    0  502  0.90222394919E+03  0.39494517819E+03  0.24304219604E+03  0.10144364679E+04  0.46999998093E+01 0.  1.
</event>
<event>
 5   0  0.4436695E-05  0.2299081E+04  0.7818609E-02  0.8478284E-01
        2   -1    0    0  501    0  0.00000000000E+00  0.00000000000E+00  0.16397235199E+04  0.16397235199E+04  0.25500000920E-02 0.  1.
       -2   -1    0    0    0  501  0.00000000000E+00  0.00000000000E+00 -0.80589392455E+03  0.80589392455E+03  0.25500000920E-02 0. -1.
    10030    2    1    2    0    0  0.00000000000E+00  0.00000000000E+00  0.83382959535E+03  0.24456174445E+04  0.22990808795E+04 0.  0.
        5    1    3    3  502    0 -0.86113361187E+03 -0.48303181893E+03  0.10431210675E+04  0.14363128096E+04  0.46999998093E+01 0.  1.
       -5    1    3    3    0  502  0.86113361187E+03  0.48303181893E+03 -0.20929147216E+03  0.10093046348E+04  0.46999998093E+01 0. -1.
</event>
<event>
 5   0  0.4436695E-05  0.2325643E+04  0.7818609E-02  0.8467878E-01
        2   -1    0    0  501    0  0.00000000000E+00  0.00000000000E+00  0.22794397692E+04  0.22794397692E+04  0.25500000920E-02 0. -1.
       -2   -1    0    0    0  501  0.00000000000E+00  0.00000000000E+00 -0.59319575855E+03  0.59319575856E+03  0.25500000920E-02 0.  1.
    10030    2    1    2    0    0  0.00000000000E+00  0.00000000000E+00  0.16862440107E+04  0.28726355278E+04  0.23256431394E+04 0.  0.
        5    1    3    3  502    0  0.21294891538E+03 -0.54308128739E+03  0.20856178930E+04  0.21656658586E+04  0.46999998093E+01 0. -1.
       -5    1    3    3    0  502 -0.21294891538E+03  0.54308128739E+03 -0.39937388236E+03  0.70696966921E+03  0.46999998093E+01 0.  1.
</event>
<event>
 5   0  0.4505107E-05  0.2283725E+04  0.7818609E-02  0.8484366E-01
       -2   -1    0    0    0  501  0.00000000000E+00  0.00000000000E+00  0.66995610174E+03  0.66995610175E+03  0.25500000920E-02 0.  1.
        2   -1    0    0  501    0  0.00000000000E+00  0.00000000000E+00 -0.19461725121E+04  0.19461725121E+04  0.25500000920E-02 0. -1.
    10030    2    1    2    0    0  0.00000000000E+00  0.00000000000E+00 -0.12762164103E+04  0.26161286138E+04  0.22837251582E+04 0.  0.
        4    1    3    3  502    0 -0.57151944524E+03 -0.71551980721E+03  0.14326106879E+03  0.92689180466E+03  0.12699999809E+01 0.  1.
       -4    1    3    3    0  502  0.57151944524E+03  0.71551980721E+03 -0.14194774791E+04  0.16892368092E+04  0.12699999809E+01 0. -1.
</event>
<event>
 5   0  0.4505107E-05  0.2307508E+04  0.7818609E-02  0.8474967E-01
       -2   -1    0    0    0  501  0.00000000000E+00  0.00000000000E+00  0.47478613959E+03  0.47478613959E+03  0.25500000920E-02 0. -1.
        2   -1    0    0  501    0  0.00000000000E+00  0.00000000000E+00 -0.28036789188E+04  0.28036789188E+04  0.25500000920E-02 0.  1.
    10030    2    1    2    0    0  0.00000000000E+00  0.00000000000E+00 -0.23288927792E+04  0.32784650584E+04  0.23075076516E+04 0.  0.
        4    1    3    3  502    0  0.40451737792E+03  0.35969315370E+02  0.36987843805E+03  0.54930844935E+03  0.12699999809E+01 0. -1.
       -4    1    3    3    0  502 -0.40451737792E+03 -0.35969315370E+02 -0.26987712173E+04  0.27291566090E+04  0.12699999809E+01 0.  1.
</event>
<event>
 5   0  0.2043885E-05  0.2334973E+04  0.7818609E-02  0.8464258E-01
       -1   -1    0    0    0  501  0.00000000000E+00  0.00000000000E+00  0.57187631836E+03  0.57187631838E+03  0.50400001928E-02 0. -1.
        1   -1    0    0  501    0  0.00000000000E+00  0.00000000000E+00 -0.23834251183E+04  0.23834251183E+04  0.50400001928E-02 0.  1.
    10030    2    1    2    0    0  0.00000000000E+00  0.00000000000E+00 -0.18115487999E+04  0.29553014367E+04  0.23349727037E+04 0.  0.
        5    1    3    3  502    0 -0.90455259852E+03  0.99484546476E+02  0.19886884589E+02  0.91023631913E+03  0.46999998093E+01 0. -1.
       -5    1    3    3    0  502  0.90455259852E+03 -0.99484546476E+02 -0.18314356845E+04  0.20450651175E+04  0.46999998093E+01 0.  1.
</event>
<event>
 5   0  0.4602447E-05  0.2307291E+04  0.7818609E-02  0.8475052E-01
       -2   -1    0    0    0  501  0.00000000000E+00  0.00000000000E+00  0.85229438673E+03  0.85229438674E+03  0.25500000920E-02 0.  1.
        2   -1    0    0  501    0  0.00000000000E+00  0.00000000000E+00 -0.15615470712E+04  0.15615470712E+04  0.25500000920E-02 0. -1.
    10030    2    1    2    0    0  0.00000000000E+00  0.00000000000E+00 -0.70925268448E+03  0.24138414580E+04  0.23072908819E+04 0.  0.
        3    1    3    3  502    0 -0.96436104442E+03  0.63258135711E+03 -0.32604444852E+03  0.11985225863E+04  0.10100000352E+00 0. -1.
       -3    1    3    3    0  502  0.96436104442E+03 -0.63258135711E+03 -0.38320823596E+03  0.12153188716E+04  0.10100000352E+00 0.  1.
</event>
<event>
 5   0  0.4798609E-05  0.2417850E+04  0.7818609E-02  0.8432851E-01
        2   -1    0    0  501    0  0.00000000000E+00  0.00000000000E+00  0.16734810937E+04  0.16734810937E+04  0.25500000920E-02 0.  1.
       -2   -1    0    0    0  501  0.00000000000E+00  0.00000000000E+00 -0.87332929516E+03  0.87332929516E+03  0.25500000920E-02 0. -1.
    10030    2    1    2    0    0  0.00000000000E+00  0.00000000000E+00  0.80015179852E+03  0.25468103888E+04  0.24178503378E+04 0.  0.
        2    1    3    3  502    0 -0.64906460153E+03  0.45459225083E+03 -0.56161590593E+03  0.97126278487E+03  0.25500000920E-02 0. -1.
       -2    1    3    3    0  502  0.64906460153E+03 -0.45459225083E+03  0.13617677044E+04  0.15755476040E+04  0.25500000920E-02 0.  1.
</event>
<event>
 5   0  0.1968318E-05  0.2286345E+04  0.7818609E-02  0.8483325E-01
       -1   -1    0    0    0  501  0.00000000000E+00  0.00000000000E+00  0.16411498485E+04  0.16411498485E+04  0.50400001928E-02 0. -1.
        1   -1    0    0  501    0  0.00000000000E+00  0.00000000000E+00 -0.79629728071E+03  0.79629728072E+03  0.50400001928E-02 0.  1.
    10030    2    1    2    0    0  0.00000000000E+00  0.00000000000E+00  0.84485256780E+03  0.24374471292E+04  0.22863448223E+04 0.  0.
        3    1    3    3  502    0 -0.95719136390E+03 -0.12992703850E+03 -0.22932548773E+03  0.99281747163E+03  0.10100000352E+00 0.  1.
       -3    1    3    3    0  502  0.95719136390E+03  0.12992703850E+03  0.10741780555E+04  0.14446296576E+04  0.10100000352E+00 0. -1.
</event>
<event>
 5   0  0.4436695E-05  0.2224049E+04  0.7818609E-02  0.8508485E-01
       -2   -1    0    0    0  501  0.00000000000E+00  0.00000000000E+00  0.13901663124E+04  0.13901663124E+04  0.25500000920E-02 0. -1.
        2   -1    0    0  501    0  0.00000000000E+00  0.00000000000E+00 -0.88953265898E+03  0.88953265899E+03  0.25500000920E-02 0.  1.
    10030    2    1    2    0    0  0.00000000000E+00  0.00000000000E+00  0.50063365341E+03  0.22796989714E+04  0.22240488630E+04 0.  0.
        5    1    3    3  502    0  0.29033247515E+03  0.78931125493E+03 -0.49539708581E+03  0.97608686391E+03  0.46999998093E+01 0. -1.
       -5    1    3    3    0  502 -0.29033247515E+03 -0.78931125493E+03  0.99603073922E+03  0.13036121075E+04  0.46999998093E+01 0.  1.
</event>
<event>
 5   0  0.4798609E-05  0.2326914E+04  0.7818609E-02  0.8467384E-01
       -2   -1    0    0    0  501  0.00000000000E+00  0.00000000000E+00  0.14322803830E+04  0.14322803830E+04  0.25500000920E-02 0.  1.
        2   -1    0    0  501    0  0.00000000000E+00  0.00000000000E+00 -0.94508852338E+03  0.94508852338E+03  0.25500000920E-02 0. -1.
    10030    2    1    2    0    0  0.00000000000E+00  0.00000000000E+00  0.48719185963E+03  0.23773689064E+04  0.23269136230E+04 0.  0.
        2    1    3    3  502    0 -0.40612192016E+03 -0.93783271966E+03 -0.32448806094E+03  0.10722675626E+04  0.25500000920E-02 0.  1.
       -2    1    3    3    0  502  0.40612192016E+03  0.93783271966E+03  0.81167992057E+03  0.13051013438E+04  0.25500000920E-02 0. -1.
</event>
<event>
 5   0  0.2085063E-05  0.2296977E+04  0.7818609E-02  0.8479114E-01
       -1   -1    0    0    0  501  0.00000000000E+00  0.00000000000E+00  0.12852582164E+04  0.12852582164E+04  0.50400001928E-02 0. -1.
        1   -1    0    0  501    0  0.00000000000E+00  0.00000000000E+00 -0.10262726538E+04  0.10262726538E+04  0.50400001928E-02 0.  1.
    10030    2    1    2    0    0  0.00000000000E+00  0.00000000000E+00  0.25898556262E+03  0.23115308701E+04  0.22969765872E+04 0.  0.
        1    1    3    3  502    0  0.97570957792E+03 -0.32300971028E+03 -0.38627876890E+03  0.10979780238E+04  0.50400001928E-02 0.  1.
       -1    1    3    3    0  502 -0.97570957792E+03  0.32300971028E+03  0.64526433152E+03  0.12135528464E+04  0.50400001928E-02 0. -1.
</event>
<event>
 5   0  0.4436695E-05  0.2310054E+04  0.7818609E-02  0.8473967E-01
       -2   -1    0    0    0  501  0.00000000000E+00  0.00000000000E+00  0.83831247924E+03  0.83831247925E+03  0.25500000920E-02 0.  1.
        2   -1    0    0  501    0  0.00000000000E+00  0.00000000000E+00 -0.15913966777E+04  0.15913966777E+04  0.25500000920E-02 0. -1.
    10030    2    1    2    0    0  0.00000000000E+00  0.00000000000E+00 -0.75308419844E+03  0.24297091569E+04  0.23100542802E+04 0.  0.
        5    1    3    3  502    0  0.66667413558E+03  0.24276780649E+03  0.58208052397E+03  0.91773113563E+03  0.46999998093E+01 0.  1.
       -5    1    3    3    0  502 -0.66667413558E+03 -0.24276780649E+03 -0.13351647224E+04  0.15119780213E+04  0.46999998093E+01 0. -1.
</event>
<event>
 5   0  0.4436695E-05  0.2292455E+04  0.7818609E-02  0.8480902E-01
       -2   -1    0    0    0  501  0.00000000000E+00  0.00000000000E+00  0.21089213819E+04  0.21089213819E+04  0.25500000920E-02 0.  1.
        2   -1    0    0  501    0  0.00000000000E+00  0.00000000000E+00 -0.62299005719E+03  0.62299005719E+03  0.25500000920E-02 0. -1.
    10030    2    1    2    0    0  0.00000000000E+00  0.00000000000E+00  0.14859313247E+04  0.27319114391E+04  0.22924546253E+04 0.  0.
        5    1    3    3  502    0  0.88827332938E+02 -0.10150476275E+04  0.11734969625E+03  0.10256729608E+04  0.46999998093E+01 0. -1.
       -5    1    3    3    0  502 -0.88827332938E+02  0.10150476275E+04  0.13685816285E+04  0.17062384783E+04  0.46999998093E+01 0.  1.
</event>
<event>
 5   0  0.4602447E-05  0.2292346E+04  0.7818609E-02  0.8480945E-01
       -2   -1    0    0    0  501  0.00000000000E+00  0.00000000000E+00  0.49772054783E+03  0.49772054783E+03  0.25500000920E-02 0. -1.
        2   -1    0    0  501    0  0.00000000000E+00  0.00000000000E+00 -0.26394583653E+04  0.26394583653E+04  0.25500000920E-02 0.  1.
    10030    2    1    2    0    0  0.00000000000E+00  0.00000000000E+00 -0.21417378175E+04  0.31371789132E+04  0.22923461026E+04 0.  0.
        3    1    3    3  502    0  0.69979736858E+03 -0.82898614338E+03 -0.56473241502E+03  0.12230523675E+04  0.10100000352E+00 0. -1.
       -3    1    3    3    0  502 -0.69979736858E+03  0.82898614338E+03 -0.15770054025E+04  0.19141265456E+04  0.10100000352E+00 0.  1.
</event>
<event>
 5   0  0.2042951E-05  0.2307753E+04  0.7818609E-02  0.8474870E-01
        1   -1    0    0  501    0  0.00000000000E+00  0.00000000000E+00  0.12625237719E+04  0.12625237719E+04  0.50400001928E-02 0. -1.
       -1   -1    0    0    0  501  0.00000000000E+00  0.00000000000E+00 -0.10545791305E+04  0.10545791305E+04  0.50400001928E-02 0.  1.
    10030    2    1    2    0    0  0.00000000000E+00  0.00000000000E+00  0.20794464140E+03  0.23171029025E+04  0.23077532118E+04 0.  0.
        2    1    3    3  502    0  0.52585560476E+03 -0.47298594191E+03 -0.81141834289E+03  0.10764012010E+04  0.25500000920E-02 0.  1.
       -2    1    3    3    0  502 -0.52585560476E+03  0.47298594191E+03  0.10193629843E+04  0.12407017015E+04  0.25500000920E-02 0. -1.
</event>
<event>
 5   0  0.2043885E-05  0.2288757E+04  0.7818609E-02  0.8482367E-01
       -1   -1    0    0    0  501  0.00000000000E+00  0.00000000000E+00  0.14435181197E+04  0.14435181197E+04  0.50400001928E-02 0.  1.
        1   -1    0    0  501    0  0.00000000000E+00  0.00000000000E+00 -0.90722922818E+03  0.90722922820E+03  0.50400001928E-02 0. -1.
    10030    2    1    2    0    0  0.00000000000E+00  0.00000000000E+00  0.53628889156E+03  0.23507473479E+04  0.22887567190E+04 0.  0.
        5    1    3    3  502    0  0.66936169280E+03 -0.53424615807E+03 -0.51143643640E+03  0.99752360959E+03  0.46999998093E+01 0. -1.
       -5    1    3    3    0  502 -0.66936169280E+03  0.53424615807E+03  0.10477253280E+04  0.13532237384E+04  0.46999998093E+01 0.  1.
</event>
<event>
 5   0  0.4798609E-05  0.2315892E+04  0.7818609E-02  0.8471682E-01
        2   -1    0    0  501    0  0.00000000000E+00  0.00000000000E+00  0.10998551632E+04  0.10998551632E+04  0.25500000920E-02 0. -1.
       -2   -1    0    0    0  501  0.00000000000E+00  0.00000000000E+00 -0.12191045206E+04  0.12191045206E+04  0.25500000920E-02 0.  1.
    10030    2    1    2    0    0  0.00000000000E+00  0.00000000000E+00 -0.11924935739E+03  0.23189596837E+04  0.23158915358E+04 0.  0.
        2    1    3    3  502    0 -0.33428701932E+03  0.17064116267E+03  0.10372589947E+04  0.11030740863E+04  0.25500000920E-02 0. -1.
       -2    1    3    3    0  502  0.33428701932E+03 -0.17064116267E+03 -0.11565083521E+04  0.12158855975E+04  0.25500000920E-02 0.  1.
</event>
<event>
 5   0  0.4605516E-05  0.2348801E+04  0.7818609E-02  0.8458924E-01
        2   -1    0    0  501    0  0.00000000000E+00  0.00000000000E+00  0.11852380430E+04  0.11852380430E+04  0.25500000920E-02 0. -1.
       -2   -1    0    0    0  501  0.00000000000E+00  0.00000000000E+00 -0.11636622775E+04  0.11636622775E+04  0.25500000920E-02 0.  1.
    10030    2    1    2    0    0  0.00000000000E+00  0.00000000000E+00  0.21575765515E+02  0.23489003205E+04  0.23488012266E+04 0.  0.
        1    1    3    3  502    0  0.19165715995E+03 -0.10225508803E+04 -0.53409658305E+03  0.11694451375E+04  0.50400001928E-02 0.  1.
       -1    1    3    3    0  502 -0.19165715995E+03  0.10225508803E+04  0.55567234856E+03  0.11794551830E+04  0.50400001928E-02 0. -1.
</event>
<event>
 5   0  0.2042951E-05  0.2306743E+04  0.7818609E-02  0.8475267E-01
       -1   -1    0    0    0  501  0.00000000000E+00  0.00000000000E+00  0.64325232647E+03  0.64325232649E+03  0.50400001928E-02 0.  1.
        1   -1    0    0  501    0  0.00000000000E+00  0.00000000000E+00 -0.20680306093E+04  0.20680306093E+04  0.50400001928E-02 0. -1.
    10030    2    1    2    0    0  0.00000000000E+00  0.00000000000E+00 -0.14247782828E+04  0.27112829358E+04  0.23067427257E+04 0.  0.
        2    1    3    3  502    0 -0.14064232041E+03 -0.11207498027E+04 -0.43823452710E+03  0.12115733091E+04  0.25500000920E-02 0. -1.
       -2    1    3    3    0  502  0.14064232041E+03  0.11207498027E+04 -0.98654375574E+03  0.14997096267E+04  0.25500000920E-02 0.  1.
</event>
<event>
 5   0  0.1968318E-05  0.2297535E+04  0.7818609E-02  0.8478894E-01
        1   -1    0    0  501    0  0.00000000000E+00  0.00000000000E+00  0.60013762489E+03  0.60013762491E+03  0.50400001928E-02 0. -1.
       -1   -1    0    0    0  501  0.00000000000E+00  0.00000000000E+00 -0.21989409270E+04  0.21989409270E+04  0.50400001928E-02 0.  1.
    10030    2    1    2    0    0  0.00000000000E+00  0.00000000000E+00 -0.15988033021E+04  0.27990785519E+04  0.22975353623E+04 0.  0.
        3    1    3    3  502    0  0.66786176991E+03  0.30756153143E+03  0.27590173768E+03  0.78533764610E+03  0.10100000352E+00 0. -1.
       -3    1    3    3    0  502 -0.66786176991E+03 -0.30756153143E+03 -0.18747050398E+04  0.20137409058E+04  0.10100000352E+00 0.  1.
</event>
<event>
 5   0  0.4798609E-05  0.2300145E+04  0.7818609E-02  0.8477864E-01
        2   -1    0    0  501    0  0.00000000000E+00  0.00000000000E+00  0.14240955064E+04  0.14240955064E+04  0.25500000920E-02 0.  1.
       -2   -1    0    0    0  501  0.00000000000E+00  0.00000000000E+00 -0.92877666812E+03  0.92877666812E+03  0.25500000920E-02 0. -1.
    10030    2    1    2    0    0  0.00000000000E+00  0.00000000000E+00  0.49531883832E+03  0.23528721746E+04  0.23001449342E+04 0.  0.
        2    1    3    3  502    0 -0.93813839670E+03  0.64680973879E+03  0.88529251885E+02  0.11429365328E+04  0.25500000920E-02 0.  1.
       -2    1    3    3    0  502  0.93813839670E+03 -0.64680973879E+03  0.40678958644E+03  0.12099356418E+04  0.25500000920E-02 0. -1.
</event>
<event>
 5   0  0.2085063E-05  0.2290838E+04  0.7818609E-02  0.8481542E-01
       -1   -1    0    0    0  501  0.00000000000E+00  0.00000000000E+00  0.13151855968E+04  0.13151855968E+04  0.50400001928E-02 0. -1.
        1   -1    0    0  501    0  0.00000000000E+00  0.00000000000E+00 -0.99756590363E+03  0.99756590364E+03  0.50400001928E-02 0.  1.
    10030    2    1    2    0    0  0.00000000000E+00  0.00000000000E+00  0.31761969315E+03  0.23127515004E+04  0.22908376707E+04 0.  0.
        1    1    3    3  502    0 -0.66610682860E+03  0.78078227195E+03 -0.35464650106E+03  0.10858606743E+04  0.50400001928E-02 0. -1.
       -1    1    3    3    0  502  0.66610682860E+03 -0.78078227195E+03  0.67226619420E+03  0.12268908261E+04  0.50400001928E-02 0.  1.
</event>
<event>
 5   0  0.2085063E-05  0.2271877E+04  0.7818609E-02  0.8489093E-01
       -1   -1    0    0    0  501  0.00000000000E+00  0.00000000000E+00  0.84722612825E+03  0.84722612827E+03  0.50400001928E-02 0. -1.
        1   -1    0    0  501    0  0.00000000000E+00  0.00000000000E+00 -0.15230362667E+04  0.15230362667E+04  0.50400001928E-02 0.  1.
    10030    2    1    2    0    0  0.00000000000E+00  0.00000000000E+00 -0.67581013841E+03  0.23702623949E+04  0.22718768623E+04 0.  0.
        1    1    3    3  502    0  0.43884024885E+03  0.59468077495E+03 -0.12378917515E+04  0.14417357513E+04  0.50400001928E-02 0.  1.
       -1    1    3    3    0  502 -0.43884024885E+03 -0.59468077495E+03  0.56208161310E+03  0.92852664363E+03  0.50400001928E-02 0. -1.
</event>
<event>
 5   0  0.2042951E-05  0.2279907E+04  0.7818609E-02  0.8485886E-01
        1   -1    0    0  501    0  0.00000000000E+00  0.00000000000E+00  0.12598820606E+04  0.12598820606E+04  0.50400001928E-02 0. -1.
       -1   -1    0    0    0  501  0.00000000000E+00  0.00000000000E+00 -0.10314406425E+04  0.10314406425E+04  0.50400001928E-02 0.  1.
    10030    2    1    2    0    0  0.00000000000E+00  0.00000000000E+00  0.22844141813E+03  0.22913227031E+04  0.22799066315E+04 0.  0.
        2    1    3    3  502    0  0.81707876452E+03 -0.30650063816E+03 -0.62289111239E+03  0.10721724145E+04  0.25500000920E-02 0.  1.
       -2    1    3    3    0  502 -0.81707876452E+03  0.30650063816E+03  0.85133253052E+03  0.12191502886E+04  0.25500000920E-02 0. -1.
</event>
<event>
 5   0  0.4505107E-05  0.2242498E+04  0.7818609E-02  0.8500945E-01
       -2   -1    0    0    0  501  0.00000000000E+00  0.00000000000E+00  0.89281722238E+03  0.89281722238E+03  0.25500000920E-02 0.  1.
        2   -1    0    0  501    0  0.00000000000E+00  0.00000000000E+00 -0.14081263847E+04  0.14081263847E+04  0.25500000920E-02 0. -1.
    10030    2    1    2    0    0  0.00000000000E+00  0.00000000000E+00 -0.51530916230E+03  0.23009436071E+04  0.22424981494E+04 0.  0.
        4    1    3    3  502    0 -0.25051094973E+03 -0.10723076534E+04 -0.40967164382E+02  0.11019434472E+04  0.12699999809E+01 0. -1.
       -4    1    3    3    0  502  0.25051094973E+03  0.10723076534E+04 -0.47434199792E+03  0.11990001598E+04  0.12699999809E+01 0.  1.
</event>
<event>
 5   0  0.4436695E-05  0.2687617E+04  0.7818609E-02  0.8339034E-01
        2   -1    0    0  501    0  0.00000000000E+00  0.00000000000E+00  0.16553972736E+04  0.16553972736E+04  0.25500000920E-02 0. -1.
       -2   -1    0    0    0  501  0.00000000000E+00  0.00000000000E+00 -0.10908690438E+04  0.10908690438E+04  0.25500000920E-02 0.  1.
    10030    2    1    2    0    0  0.00000000000E+00  0.00000000000E+00  0.56452822982E+03  0.27462663173E+04  0.26876172651E+04 0.  0.
        5    1    3    3  502    0  0.90325547394E+03 -0.55340748740E+03  0.11271503842E+04  0.15468097417E+04  0.46999998093E+01 0. -1.
       -5    1    3    3    0  502 -0.90325547394E+03  0.55340748740E+03 -0.56262215437E+03  0.11994565757E+04  0.46999998093E+01 0.  1.
</event>
<event>
 5   0  0.4505107E-05  0.2286218E+04  0.7818609E-02  0.8483375E-01
       -2   -1    0    0    0  501  0.00000000000E+00  0.00000000000E+00  0.60609151352E+03  0.60609151353E+03  0.25500000920E-02 0. -1.
        2   -1    0    0  501    0  0.00000000000E+00  0.00000000000E+00 -0.21559416093E+04  0.21559416093E+04  0.25500000920E-02 0.  1.
    10030    2    1    2    0    0  0.00000000000E+00  0.00000000000E+00 -0.15498500957E+04  0.27620331228E+04  0.22862177613E+04 0.  0.
        4    1    3    3  502    0  0.64945207638E+03  0.59225138675E+03 -0.16578860457E+04  0.18764694130E+04  0.12699999809E+01 0.  1.
       -4    1    3    3    0  502 -0.64945207638E+03 -0.59225138675E+03  0.10803594998E+03  0.88556370974E+03  0.12699999809E+01 0. -1.
</event>
<event>
 5   0  0.4605516E-05  0.2315176E+04  0.7818609E-02  0.8471961E-01
       -2   -1    0    0    0  501  0.00000000000E+00  0.00000000000E+00  0.10664070162E+04  0.10664070162E+04  0.25500000920E-02 0.  1.
        2   -1    0    0  501    0  0.00000000000E+00  0.00000000000E+00 -0.12565654834E+04  0.12565654834E+04  0.25500000920E-02 0. -1.
    10030    2    1    2    0    0  0.00000000000E+00  0.00000000000E+00 -0.19015846727E+03  0.23229724996E+04  0.23151762333E+04 0.  0.
        1    1    3    3  502    0 -0.98644237001E+03  0.27560483959E+03 -0.63632476293E+03  0.12057925945E+04  0.50400001928E-02 0. -1.
       -1    1    3    3    0  502  0.98644237001E+03 -0.27560483959E+03  0.44616629565E+03  0.11171799051E+04  0.50400001928E-02 0.  1.
</event>
<event>
 5   0  0.4436695E-05  0.2300177E+04  0.7818609E-02  0.8477851E-01
       -2   -1    0    0    0  501  0.00000000000E+00  0.00000000000E+00  0.69505619751E+03  0.69505619751E+03  0.25500000920E-02 0.  1.
        2   -1    0    0  501    0  0.00000000000E+00  0.00000000000E+00 -0.19030170305E+04  0.19030170305E+04  0.25500000920E-02 0. -1.
    10030    2    1    2    0    0  0.00000000000E+00  0.00000000000E+00 -0.12079608330E+04  0.25980732280E+04  0.23001771941E+04 0.  0.
        5    1    3    3  502    0  0.61664697362E+03  0.37034882721E+03  0.40960613657E+03  0.82777474049E+03  0.46999998093E+01 0.  1.
       -5    1    3    3    0  502 -0.61664697362E+03 -0.37034882721E+03 -0.16175669696E+04  0.17702984875E+04  0.46999998093E+01 0. -1.
</event>
<event>
 5   0  0.4602447E-05  0.2107818E+04  0.7818609E-02  0.8557807E-01
        2   -1    0    0  501    0  0.00000000000E+00  0.00000000000E+00  0.19749281231E+04  0.19749281231E+04  0.25500000920E-02 0.  1.
       -2   -1    0    0    0  501  0.00000000000E+00  0.00000000000E+00 -0.56241241523E+03  0.56241241524E+03  0.25500000920E-02 0. -1.
    10030    2    1    2    0    0  0.00000000000E+00  0.00000000000E+00  0.14125157078E+04  0.25373405383E+04  0.21078179197E+04 0.  0.
        3    1    3    3  502    0  0.82836613247E+03  0.55894054131E+03  0.11093325000E+04  0.14930584663E+04  0.10100000352E+00 0.  1.
       -3    1    3    3    0  502 -0.82836613247E+03 -0.55894054131E+03  0.30318320787E+03  0.10442820720E+04  0.10100000352E+00 0. -1.
</event>
<event>
 5   0  0.4505107E-05  0.2318256E+04  0.7818609E-02  0.8470758E-01
        2   -1    0    0  501    0  0.00000000000E+00  0.00000000000E+00  0.20667093254E+04  0.20667093254E+04  0.25500000920E-02 0. -1.
       -2   -1    0    0    0  501  0.00000000000E+00  0.00000000000E+00 -0.65010490746E+03  0.65010490746E+03  0.25500000920E-02 0.  1.
    10030    2    1    2    0    0  0.00000000000E+00  0.00000000000E+00  0.14166044179E+04  0.27168142328E+04  0.23182561332E+04 0.  0.
        4    1    3    3  502    0 -0.68631865232E+03  0.15511503439E+03 -0.37119101023E+03  0.79553651418E+03  0.12699999809E+01 0.  1.
       -4    1    3    3    0  502  0.68631865232E+03 -0.15511503439E+03  0.17877954281E+04  0.19212777187E+04  0.12699999809E+01 0. -1.
</event>
<event>
 5   0  0.1968318E-05  0.2304775E+04  0.7818609E-02  0.8476041E-01
       -1   -1    0    0    0  501  0.00000000000E+00  0.00000000000E+00  0.45201874419E+03  0.45201874422E+03  0.50400001928E-02 0. -1.
        1   -1    0    0  501    0  0.00000000000E+00  0.00000000000E+00 -0.29379254123E+04  0.29379254123E+04  0.50400001928E-02 0.  1.
    10030    2    1    2    0    0  0.00000000000E+00  0.00000000000E+00 -0.24859066681E+04  0.33899441565E+04  0.23047753517E+04 0.  0.
        3    1    3    3  502    0  0.88243834286E+03  0.71739414539E+03 -0.96918216282E+03  0.14942107829E+04  0.10100000352E+00 0. -1.
       -3    1    3    3    0  502 -0.88243834286E+03 -0.71739414539E+03 -0.15167245053E+04  0.18957333737E+04  0.10100000352E+00 0.  1.
</event>
<event>
 5   0  0.2042951E-05  0.2301523E+04  0.7818609E-02  0.8477321E-01
       -1   -1    0    0    0  501  0.00000000000E+00  0.00000000000E+00  0.12837479505E+04  0.12837479506E+04  0.50400001928E-02 0.  1.
        1   -1    0    0  501    0  0.00000000000E+00  0.00000000000E+00 -0.10315512559E+04  0.10315512559E+04  0.50400001928E-02 0. -1.
    10030    2    1    2    0    0  0.00000000000E+00  0.00000000000E+00  0.25219669462E+03  0.23152992065E+04  0.23015228095E+04 0.  0.
        2    1    3    3  502    0 -0.77062008458E+03 -0.69400046246E+00 -0.73364938078E+03  0.10640005688E+04  0.25500000920E-02 0. -1.
       -2    1    3    3    0  502  0.77062008458E+03  0.69400046246E+00  0.98584607540E+03  0.12512986377E+04  0.25500000920E-02 0.  1.
</event>
<event>
 5   0  0.2043885E-05  0.2294483E+04  0.7818609E-02  0.8480100E-01
       -1   -1    0    0    0  501  0.00000000000E+00  0.00000000000E+00  0.79126880508E+03  0.79126880510E+03  0.50400001928E-02 0.  1.
        1   -1    0    0  501    0  0.00000000000E+00  0.00000000000E+00 -0.16633577468E+04  0.16633577468E+04  0.50400001928E-02 0. -1.
    10030    2    1    2    0    0  0.00000000000E+00  0.00000000000E+00 -0.87208894168E+03  0.24546265519E+04  0.22944830326E+04 0.  0.
        5    1    3    3  502    0 -0.36042318305E+03  0.36901457455E+03 -0.15322917803E+04  0.16167921379E+04  0.46999998093E+01 0. -1.
       -5    1    3    3    0  502  0.36042318305E+03 -0.36901457455E+03  0.66020283864E+03  0.83783441398E+03  0.46999998093E+01 0.  1.
</event>
<event>
 5   0  0.4505107E-05  0.2319425E+04  0.7818609E-02  0.8470301E-01
        2   -1    0    0  501    0  0.00000000000E+00  0.00000000000E+00  0.18106269228E+04  0.18106269228E+04  0.25500000920E-02 0. -1.
       -2   -1    0    0    0  501  0.00000000000E+00  0.00000000000E+00 -0.74279955618E+03  0.74279955618E+03  0.25500000920E-02 0.  1.
    10030    2    1    2    0    0  0.00000000000E+00  0.00000000000E+00  0.10678273666E+04  0.25534264789E+04  0.23194248206E+04 0.  0.
        4    1    3    3  502    0 -0.10074623924E+04 -0.96046667953E+02 -0.89548368391E+02  0.10159852153E+04  0.12699999809E+01 0.  1.
       -4    1    3    3    0  502  0.10074623924E+04  0.96046667953E+02  0.11573757350E+04  0.15374412637E+04  0.12699999809E+01 0. -1.
</event>
<event>
 5   0  0.2085063E-05  0.2302997E+04  0.7818609E-02  0.8476740E-01
        1   -1    0    0  501    0  0.00000000000E+00  0.00000000000E+00  0.18673656701E+04  0.18673656701E+04  0.50400001928E-02 0. -1.
       -1   -1    0    0    0  501  0.00000000000E+00  0.00000000000E+00 -0.71006388876E+03  0.71006388878E+03  0.50400001928E-02 0.  1.
    10030    2    1    2    0    0  0.00000000000E+00  0.00000000000E+00  0.11573017814E+04  0.25774295589E+04  0.23029971164E+04 0.  0.
        1    1    3    3  502    0 -0.32346454755E+02  0.91434163067E+03 -0.20386910295E+03  0.93735240005E+03  0.50400001928E-02 0.  1.
       -1    1    3    3    0  502  0.32346454755E+02 -0.91434163067E+03  0.13611708843E+04  0.16400771589E+04  0.50400001928E-02 0. -1.
</event>
<event>
 5   0  0.2043885E-05  0.2306884E+04  0.7818609E-02  0.8475212E-01
        1   -1    0    0  501    0  0.00000000000E+00  0.00000000000E+00  0.10429216248E+04  0.10429216249E+04  0.50400001928E-02 0. -1.
       -1   -1    0    0    0  501  0.00000000000E+00  0.00000000000E+00 -0.12756742174E+04  0.12756742174E+04  0.50400001928E-02 0.  1.
    10030    2    1    2    0    0  0.00000000000E+00  0.00000000000E+00 -0.23275259252E+03  0.23185958422E+04  0.23068838095E+04 0.  0.
        5    1    3    3  502    0  0.48336111569E+03  0.17679833737E+03  0.92110004588E+03  0.10551507024E+04  0.46999998093E+01 0. -1.
       -5    1    3    3    0  502 -0.48336111569E+03 -0.17679833737E+03 -0.11538526384E+04  0.12634451398E+04  0.46999998093E+01 0.  1.
</event>
<event>
 5   0  0.2085063E-05  0.2303779E+04  0.7818609E-02  0.8476433E-01
        1   -1    0    0  501    0  0.00000000000E+00  0.00000000000E+00  0.23935313804E+04  0.23935313804E+04  0.50400001928E-02 0.  1.
       -1   -1    0    0    0  501  0.00000000000E+00  0.00000000000E+00 -0.55434808351E+03  0.55434808353E+03  0.50400001928E-02 0. -1.
    10030    2    1    2    0    0  0.00000000000E+00  0.00000000000E+00  0.18391832969E+04  0.29478794640E+04  0.23037790984E+04 0.  0.
        1    1    3    3  502    0  0.11269372740E+03 -0.10490364586E+04  0.15110754618E+04  0.18429667439E+04  0.50400001928E-02 0.  1.
       -1    1    3    3    0  502 -0.11269372740E+03  0.10490364586E+04  0.32810783508E+03  0.11049127201E+04  0.50400001928E-02 0. -1.
</event>
<event>
 5   0  0.2042951E-05  0.2288724E+04  0.7818609E-02  0.8482380E-01
       -1   -1    0    0    0  501  0.00000000000E+00  0.00000000000E+00  0.15792526168E+04  0.15792526168E+04  0.50400001928E-02 0. -1.
        1   -1    0    0  501    0  0.00000000000E+00  0.00000000000E+00 -0.82923075548E+03  0.82923075549E+03  0.50400001928E-02 0.  1.
    10030    2    1    2    0    0  0.00000000000E+00  0.00000000000E+00  0.75002186132E+03  0.24084833723E+04  0.22887243963E+04 0.  0.
        2    1    3    3  502    0  0.21284414284E+03  0.28769493681E+03  0.15188525204E+04  0.15604435217E+04  0.25500000920E-02 0. -1.
       -2    1    3    3    0  502 -0.21284414284E+03 -0.28769493681E+03 -0.76883065907E+03  0.84803985056E+03  0.25500000920E-02 0.  1.
</event>
<event>
 5   0  0.4436695E-05  0.2302792E+04  0.7818609E-02  0.8476821E-01
       -2   -1    0    0    0  501  0.00000000000E+00  0.00000000000E+00  0.10583771375E+04  0.10583771375E+04  0.25500000920E-02 0. -1.
        2   -1    0    0  501    0  0.00000000000E+00  0.00000000000E+00 -0.12525896979E+04  0.12525896979E+04  0.25500000920E-02 0.  1.
    10030    2    1    2    0    0  0.00000000000E+00  0.00000000000E+00 -0.19421256044E+03  0.23109668354E+04  0.23027916092E+04 0.  0.
        5    1    3    3  502    0 -0.64010016887E+03 -0.46809000803E+03  0.74063494626E+03  0.10850800410E+04  0.46999998093E+01 0. -1.
       -5    1    3    3    0  502  0.64010016887E+03  0.46809000803E+03 -0.93484750670E+03  0.12258867944E+04  0.46999998093E+01 0.  1.
</event>
<event>
 5   0  0.4505107E-05  0.2062007E+04  0.7818609E-02  0.8578167E-01
       -2   -1    0    0    0  501  0.00000000000E+00  0.00000000000E+00  0.62782970352E+03  0.62782970352E+03  0.25500000920E-02 0.  1.
        2   -1    0    0  501    0  0.00000000000E+00  0.00000000000E+00 -0.16930841696E+04  0.16930841696E+04  0.25500000920E-02 0. -1.
    10030    2    1    2    0    0  0.00000000000E+00  0.00000000000E+00 -0.10652544661E+04  0.23209138731E+04  0.20620073058E+04 0.  0.
        4    1    3    3  502    0 -0.89679315875E+03  0.42692655440E+03 -0.22138856679E+03  0.10176044236E+04  0.12699999809E+01 0.  1.
       -4    1    3    3    0  502  0.89679315875E+03 -0.42692655440E+03 -0.84386589930E+03  0.13033094496E+04  0.12699999809E+01 0. -1.
</event>
<event>
 5   0  0.1968318E-05  0.2304912E+04  0.7818609E-02  0.8475987E-01
        1   -1    0    0  501    0  0.00000000000E+00  0.00000000000E+00  0.32718416466E+04  0.32718416466E+04  0.50400001928E-02 0.  1.
       -1   -1    0    0    0  501  0.00000000000E+00  0.00000000000E+00 -0.40593483466E+03  0.40593483469E+03  0.50400001928E-02 0. -1.
    10030    2    1    2    0    0  0.00000000000E+00  0.00000000000E+00  0.28659068120E+04  0.36777764813E+04  0.23049117102E+04 0.  0.
        3    1    3    3  502    0 -0.97306142034E+03 -0.42041315796E+03  0.71128107745E+03  0.12765251789E+04  0.10100000352E+00 0.  1.
       -3    1    3    3    0  502  0.97306142034E+03  0.42041315796E+03  0.21546257345E+04  0.24012513024E+04  0.10100000352E+00 0. -1.
</event>
<event>
 5   0  0.2042951E-05  0.2324663E+04  0.7818609E-02  0.8468260E-01
        1   -1    0    0  501    0  0.00000000000E+00  0.00000000000E+00  0.21932128729E+04  0.21932128729E+04  0.50400001928E-02 0.  1.
       -1   -1    0    0    0  501  0.00000000000E+00  0.00000000000E+00 -0.61599795456E+03  0.61599795458E+03  0.50400001928E-02 0. -1.
    10030    2    1    2    0    0  0.00000000000E+00  0.00000000000E+00  0.15772149183E+04  0.28092108275E+04  0.23246631099E+04 0.  0.
        2    1    3    3  502    0 -0.13132359836E+03  0.55048740595E+03  0.20154738455E+04  0.20934223400E+04  0.25500000920E-02 0.  1.
       -2    1    3    3    0  502  0.13132359836E+03 -0.55048740595E+03 -0.43825892717E+03  0.71578848750E+03  0.25500000920E-02 0. -1.
</event>
<event>
 5   0  0.4505107E-05  0.2209853E+04  0.7818609E-02  0.8514338E-01
       -2   -1    0    0    0  501  0.00000000000E+00  0.00000000000E+00  0.67059794509E+03  0.67059794509E+03  0.25500000920E-02 0. -1.
        2   -1    0    0  501    0  0.00000000000E+00  0.00000000000E+00 -0.18205582607E+04  0.18205582607E+04  0.25500000920E-02 0.  1.
    10030    2    1    2    0    0  0.00000000000E+00  0.00000000000E+00 -0.11499603156E+04  0.24911562058E+04  0.22098530526E+04 0.  0.
        4    1    3    3  502    0  0.16404385170E+03 -0.24100553536E+03 -0.17764179774E+04  0.18001823509E+04  0.12699999809E+01 0.  1.
       -4    1    3    3    0  502 -0.16404385170E+03  0.24100553536E+03  0.62645766171E+03  0.69097385492E+03  0.12699999809E+01 0. -1.
</event>
<event>
 5   0  0.2085063E-05  0.2297142E+04  0.7818609E-02  0.8479049E-01
       -1   -1    0    0    0  501  0.00000000000E+00  0.00000000000E+00  0.78344123120E+03  0.78344123122E+03  0.50400001928E-02 0.  1.
        1   -1    0    0  501    0  0.00000000000E+00  0.00000000000E+00 -0.16838728084E+04  0.16838728084E+04  0.50400001928E-02 0. -1.
    10030    2    1    2    0    0  0.00000000000E+00  0.00000000000E+00 -0.90043157724E+03  0.24673140397E+04  0.22971420385E+04 0.  0.
        1    1    3    3  502    0 -0.10022407146E+03 -0.69034055777E+03 -0.14302808278E+04  0.15913259241E+04  0.50400001928E-02 0. -1.
       -1    1    3    3    0  502  0.10022407146E+03  0.69034055777E+03  0.52984925060E+03  0.87598811556E+03  0.50400001928E-02 0.  1.
</event>
<event>
 5   0  0.4605516E-05  0.2297093E+04  0.7818609E-02  0.8479068E-01
       -2   -1    0    0    0  501  0.00000000000E+00  0.00000000000E+00  0.52430129148E+03  0.52430129149E+03  0.25500000920E-02 0. -1.
        2   -1    0    0  501    0  0.00000000000E+00  0.00000000000E+00 -0.25160332370E+04  0.25160332370E+04  0.25500000920E-02 0.  1.
    10030    2    1    2    0    0  0.00000000000E+00  0.00000000000E+00 -0.19917319455E+04  0.30403345285E+04  0.22970933595E+04 0.  0.
        1    1    3    3  502    0 -0.13482549927E+03 -0.10828458192E+04 -0.52154750366E+03  0.12094398629E+04  0.50400001928E-02 0.  1.
       -1    1    3    3    0  502  0.13482549927E+03  0.10828458192E+04 -0.14701844418E+04  0.18308946656E+04  0.50400001928E-02 0. -1.
</event>
<event>
 5   0  0.2085063E-05  0.2319189E+04  0.7818609E-02  0.8470393E-01
       -1   -1    0    0    0  501  0.00000000000E+00  0.00000000000E+00  0.76679897329E+03  0.76679897331E+03  0.50400001928E-02 0.  1.
        1   -1    0    0  501    0  0.00000000000E+00  0.00000000000E+00 -0.17536009987E+04  0.17536009987E+04  0.50400001928E-02 0. -1.
    10030    2    1    2    0    0  0.00000000000E+00  0.00000000000E+00 -0.98680202539E+03  0.25203999720E+04  0.23191890353E+04 0.  0.
        1    1    3    3  502    0  0.27410371326E+03  0.54795476170E+02  0.72963723409E+03  0.78134875903E+03  0.50400001928E-02 0.  1.
       -1    1    3    3    0  502 -0.27410371326E+03 -0.54795476170E+02 -0.17164392595E+04  0.17390512130E+04  0.50400001928E-02 0. -1.
</event>
<event>
 5   0  0.2085063E-05  0.2335020E+04  0.7818609E-02  0.8464240E-01
       -1   -1    0    0    0  501  0.00000000000E+00  0.00000000000E+00  0.90614949933E+03  0.90614949934E+03  0.50400001928E-02 0. -1.
        1   -1    0    0  501    0  0.00000000000E+00  0.00000000000E+00 -0.15042551390E+04  0.15042551391E+04  0.50400001928E-02 0.  1.
    10030    2    1    2    0    0  0.00000000000E+00  0.00000000000E+00 -0.59810563972E+03  0.24104046384E+04  0.23350203778E+04 0.  0.
        1    1    3    3  502    0 -0.87399773300E+03 -0.72220549109E+03 -0.58666437535E+03  0.12765687988E+04  0.50400001928E-02 0.  1.
       -1    1    3    3    0  502  0.87399773300E+03  0.72220549109E+03 -0.11441264368E+02  0.11338358396E+04  0.50400001928E-02 0. -1.
</event>
<event>
 5   0  0.4602447E-05  0.2284064E+04  0.7818609E-02  0.8484231E-01
        2   -1    0    0  501    0  0.00000000000E+00  0.00000000000E+00  0.20592293148E+04  0.20592293148E+04  0.25500000920E-02 0.  1.
       -2   -1    0    0    0  501  0.00000000000E+00  0.00000000000E+00 -0.63336202227E+03  0.63336202227E+03  0.25500000920E-02 0. -1.
    10030    2    1    2    0    0  0.00000000000E+00  0.00000000000E+00  0.14258672925E+04  0.26925913371E+04  0.22840644852E+04 0.  0.
        3    1    3    3  502    0  0.99957099831E+03 -0.54839055356E+03  0.63506416474E+03  0.13050597241E+04  0.10100000352E+00 0.  1.
       -3    1    3    3    0  502 -0.99957099831E+03  0.54839055356E+03  0.79080312778E+03  0.13875316130E+04  0.10100000352E+00 0. -1.
</event>
<event>
 5   0  0.2043885E-05  0.2293236E+04  0.7818609E-02  0.8480593E-01
        1   -1    0    0  501    0  0.00000000000E+00  0.00000000000E+00  0.54064266828E+03  0.54064266831E+03  0.50400001928E-02 0.  1.
       -1   -1    0    0    0  501  0.00000000000E+00  0.00000000000E+00 -0.24317961363E+04  0.24317961363E+04  0.50400001928E-02 0. -1.
    10030    2    1    2    0    0  0.00000000000E+00  0.00000000000E+00 -0.18911534680E+04  0.29724388046E+04  0.22932359250E+04 0.  0.
        5    1    3    3  502    0  0.56323314329E+03 -0.46563759102E+03 -0.20908136799E+04  0.22148530141E+04  0.46999998093E+01 0. -1.
       -5    1    3    3    0  502 -0.56323314329E+03  0.46563759102E+03  0.19966021186E+03  0.75758579056E+03  0.46999998093E+01 0.  1.
</event>
<event>
 5   0  0.4602447E-05  0.2306490E+04  0.7818609E-02  0.8475366E-01
        2   -1    0    0  501    0  0.00000000000E+00  0.00000000000E+00  0.17772105569E+04  0.17772105569E+04  0.25500000920E-02 0. -1.
       -2   -1    0    0    0  501  0.00000000000E+00  0.00000000000E+00 -0.74834939519E+03  0.74834939519E+03  0.25500000920E-02 0.  1.
    10030    2    1    2    0    0  0.00000000000E+00  0.00000000000E+00  0.10288611617E+04  0.25255599521E+04  0.23064903602E+04 0.  0.
        3    1    3    3  502    0 -0.15434050679E+03 -0.75851232319E+03 -0.42164091668E+03  0.88144370739E+03  0.10100000352E+00 0.  1.
       -3    1    3    3    0  502  0.15434050679E+03  0.75851232319E+03  0.14505020784E+04  0.16441162447E+04  0.10100000352E+00 0. -1.
</event>
<event>
 5   0  0.4505107E-05  0.2302024E+04  0.7818609E-02  0.8477123E-01
       -2   -1    0    0    0  501  0.00000000000E+00  0.00000000000E+00  0.45698938584E+03  0.45698938585E+03  0.25500000920E-02 0. -1.
        2   -1    0    0  501    0  0.00000000000E+00  0.00000000000E+00 -0.28990371215E+04  0.28990371215E+04  0.25500000920E-02 0.  1.
    10030    2    1    2    0    0  0.00000000000E+00  0.00000000000E+00 -0.24420477357E+04  0.33560265074E+04  0.23020244948E+04 0.  0.
        4    1    3    3  502    0  0.77543745106E+03  0.24748710560E+03 -0.34614820774E+02  0.81471032070E+03  0.12699999809E+01 0. -1.
       -4    1    3    3    0  502 -0.77543745106E+03 -0.24748710560E+03 -0.24074329149E+04  0.25413161867E+04  0.12699999809E+01 0.  1.
</event>
<event>
 5   0  0.4602447E-05  0.2283653E+04  0.7818609E-02  0.8484394E-01
       -2   -1    0    0    0  501  0.00000000000E+00  0.00000000000E+00  0.12607413451E+04  0.12607413451E+04  0.25500000920E-02 0.  1.
        2   -1    0    0  501    0  0.00000000000E+00  0.00000000000E+00 -0.10341281603E+04  0.10341281603E+04  0.25500000920E-02 0. -1.
    10030    2    1    2    0    0  0.00000000000E+00  0.00000000000E+00  0.22661318474E+03  0.22948695054E+04  0.22836533255E+04 0.  0.
        3    1    3    3  502    0 -0.25983182071E+03  0.94856558498E+03  0.69622359096E+03  0.12049964908E+04  0.10100000352E+00 0.  1.
       -3    1    3    3    0  502  0.25983182071E+03 -0.94856558498E+03 -0.46961040621E+03  0.10898730146E+04  0.10100000352E+00 0. -1.
</event>
<event>
 5   0  0.4605516E-05  0.2294085E+04  0.7818609E-02  0.8480257E-01
        2   -1    0    0  501    0  0.00000000000E+00  0.00000000000E+00  0.15022771299E+04  0.15022771299E+04  0.25500000920E-02 0.  1.
       -2   -1    0    0    0  501  0.00000000000E+00  0.00000000000E+00 -0.87580788435E+03  0.87580788435E+03  0.25500000920E-02 0. -1.
    10030    2    1    2    0    0  0.00000000000E+00  0.00000000000E+00  0.62646924551E+03  0.23780850142E+04  0.22940847018E+04 0.  0.
        1    1    3    3  502    0  0.13741531332E+03 -0.11227471389E+04  0.51063323456E+03  0.12410440792E+04  0.50400001928E-02 0.  1.
       -1    1    3    3    0  502 -0.13741531332E+03  0.11227471389E+04  0.11583601095E+03  0.11370409350E+04  0.50400001928E-02 0. -1.
</event>
<event>
 5   0  0.2042951E-05  0.2389756E+04  0.7818609E-02  0.8443349E-01
        1   -1    0    0  501    0  0.00000000000E+00  0.00000000000E+00  0.91272776019E+03  0.91272776020E+03  0.50400001928E-02 0.  1.
       -1   -1    0    0    0  501  0.00000000000E+00  0.00000000000E+00 -0.15642492228E+04  0.15642492228E+04  0.50400001928E-02 0. -1.
    10030    2    1    2    0    0  0.00000000000E+00  0.00000000000E+00 -0.65152146261E+03  0.24769769830E+04  0.23897562131E+04 0.  0.
        2    1    3    3  502    0  0.24519844254E+02  0.85747104940E+02 -0.15607946452E+04  0.15633405622E+04  0.25500000920E-02 0. -1.
       -2    1    3    3    0  502 -0.24519844254E+02 -0.85747104940E+02  0.90927318264E+03  0.91363642081E+03  0.25500000920E-02 0.  1.
</event>
<event>
 5   0  0.2031860E-05  0.2279680E+04  0.7818609E-02  0.8485976E-01
       -1   -1    0    0    0  501  0.00000000000E+00  0.00000000000E+00  0.10977958563E+04  0.10977958563E+04  0.50400001928E-02 0.  1.
        1   -1    0    0  501    0  0.00000000000E+00  0.00000000000E+00 -0.11834945299E+04  0.11834945300E+04  0.50400001928E-02 0. -1.
    10030    2    1    2    0    0  0.00000000000E+00  0.00000000000E+00 -0.85698673637E+02  0.22812903863E+04  0.22796801451E+04 0.  0.
        4    1    3    3  502    0  0.97192835840E+02  0.85611617447E+03 -0.78960188249E+03  0.11686976073E+04  0.12699999809E+01 0. -1.
       -4    1    3    3    0  502 -0.97192835840E+02 -0.85611617447E+03  0.70390320885E+03  0.11125927790E+04  0.12699999809E+01 0.  1.
</event>
<event>
 5   0  0.4436695E-05  0.2331694E+04  0.7818609E-02  0.8465529E-01
       -2   -1    0    0    0  501  0.00000000000E+00  0.00000000000E+00  0.88937811720E+03  0.88937811720E+03  0.25500000920E-02 0.  1.
        2   -1    0    0  501    0  0.00000000000E+00  0.00000000000E+00 -0.15282577588E+04  0.15282577588E+04  0.25500000920E-02 0. -1.
    10030    2    1    2    0    0  0.00000000000E+00  0.00000000000E+00 -0.63887964164E+03  0.24176358760E+04  0.23316938119E+04 0.  0.
        5    1    3    3  502    0 -0.37278917554E+03  0.91297015895E+03  0.32532480162E+03  0.10384337230E+04  0.46999998093E+01 0.  1.
       -5    1    3    3    0  502  0.37278917554E+03 -0.91297015895E+03 -0.96420444326E+03  0.13792021530E+04  0.46999998093E+01 0. -1.
</event>
<event>
 5   0  0.2085063E-05  0.2328372E+04  0.7818609E-02  0.8466818E-01
       -1   -1    0    0    0  501  0.00000000000E+00  0.00000000000E+00  0.13495307819E+04  0.13495307819E+04  0.50400001928E-02 0. -1.
        1   -1    0    0  501    0  0.00000000000E+00  0.00000000000E+00 -0.10042963089E+04  0.10042963089E+04  0.50400001928E-02 0.  1.
    10030    2    1    2    0    0  0.00000000000E+00  0.00000000000E+00  0.34523447304E+03  0.23538270908E+04  0.23283717771E+04 0.  0.
        1    1    3    3  502    0 -0.34035611342E+03 -0.44983324815E+03 -0.85691559311E+03  0.10259125542E+04  0.50400001928E-02 0.  1.
       -1    1    3    3    0  502  0.34035611342E+03  0.44983324815E+03  0.12021500662E+04  0.13279145367E+04  0.50400001928E-02 0. -1.
</event>
<event>
 5   0  0.2031860E-05  0.2325442E+04  0.7818609E-02  0.8467957E-01
       -1   -1    0    0    0  501  0.00000000000E+00  0.00000000000E+00  0.10070685487E+04  0.10070685488E+04  0.50400001928E-02 0. -1.
        1   -1    0    0  501    0  0.00000000000E+00  0.00000000000E+00 -0.13424309080E+04  0.13424309080E+04  0.50400001928E-02 0.  1.
    10030    2    1    2    0    0  0.00000000000E+00  0.00000000000E+00 -0.33536235921E+03  0.23494994567E+04  0.23254418473E+04 0.  0.
        4    1    3    3  502    0  0.45116059353E+03 -0.10640751460E+04 -0.39416903017E+02  0.11564415690E+04  0.12699999809E+01 0.  1.
       -4    1    3    3    0  502 -0.45116059353E+03  0.10640751460E+04 -0.29594545619E+03  0.11930578877E+04  0.12699999809E+01 0. -1.
</event>
<event>
 5   0  0.2043885E-05  0.2294224E+04  0.7818609E-02  0.8480202E-01
       -1   -1    0    0    0  501  0.00000000000E+00  0.00000000000E+00  0.21505769474E+04  0.21505769474E+04  0.50400001928E-02 0.  1.
        1   -1    0    0  501    0  0.00000000000E+00  0.00000000000E+00 -0.61186659478E+03  0.61186659480E+03  0.50400001928E-02 0. -1.
    10030    2    1    2    0    0  0.00000000000E+00  0.00000000000E+00  0.15387103526E+04  0.27624435422E+04  0.22942242206E+04 0.  0.
        5    1    3    3  502    0 -0.99379746188E+03  0.35149008974E+03  0.22462706074E+03  0.10778024331E+04  0.46999998093E+01 0. -1.
       -5    1    3    3    0  502  0.99379746188E+03 -0.35149008974E+03  0.13140832919E+04  0.16846411091E+04  0.46999998093E+01 0.  1.
</event>
<event>
 5   0  0.4505107E-05  0.2303811E+04  0.7818609E-02  0.8476420E-01
        2   -1    0    0  501    0  0.00000000000E+00  0.00000000000E+00  0.14506574819E+04  0.14506574819E+04  0.25500000920E-02 0.  1.
       -2   -1    0    0    0  501  0.00000000000E+00  0.00000000000E+00 -0.91467953920E+03  0.91467953920E+03  0.25500000920E-02 0. -1.
    10030    2    1    2    0    0  0.00000000000E+00  0.00000000000E+00  0.53597794273E+03  0.23653370211E+04  0.23038113787E+04 0.  0.
        4    1    3    3  502    0 -0.11378195304E+04 -0.95047035483E+02  0.42443242880E+03  0.12181181068E+04  0.12699999809E+01 0.  1.
       -4    1    3    3    0  502  0.11378195304E+04  0.95047035483E+02  0.11154551393E+03  0.11472189143E+04  0.12699999809E+01 0. -1.
</event>
<event>
 5   0  0.2085063E-05  0.2298228E+04  0.7818609E-02  0.8478620E-01
       -1   -1    0    0    0  501  0.00000000000E+00  0.00000000000E+00  0.10669760721E+04  0.10669760721E+04  0.50400001928E-02 0.  1.
        1   -1    0    0  501    0  0.00000000000E+00  0.00000000000E+00 -0.12375746000E+04  0.12375746001E+04  0.50400001928E-02 0. -1.
    10030    2    1    2    0    0  0.00000000000E+00  0.00000000000E+00 -0.17059852800E+03  0.23045506721E+04  0.22982275655E+04 0.  0.
        1    1    3    3  502    0 -0.10798167836E+02  0.59139029799E+02 -0.12359966660E+04  0.12374577906E+04  0.50400001928E-02 0. -1.
       -1    1    3    3    0  502  0.10798167836E+02 -0.59139029799E+02  0.10653981380E+04  0.10670928815E+04  0.50400001928E-02 0.  1.
</event>
<event>
 5   0  0.4798609E-05  0.2297275E+04  0.7818609E-02  0.8478996E-01
        2   -1    0    0  501    0  0.00000000000E+00  0.00000000000E+00  0.12684905070E+04  0.12684905070E+04  0.25500000920E-02 0. -1.
       -2   -1    0    0    0  501  0.00000000000E+00  0.00000000000E+00 -0.10401088724E+04  0.10401088724E+04  0.25500000920E-02 0.  1.
    10030    2    1    2    0    0  0.00000000000E+00  0.00000000000E+00  0.22838163454E+03  0.23085993794E+04  0.22972751084E+04 0.  0.
        2    1    3    3  502    0  0.16515577967E+02 -0.79868998169E+03 -0.71521987431E+03  0.10722490008E+04  0.25500000920E-02 0.  1.
       -2    1    3    3    0  502 -0.16515577967E+02  0.79868998169E+03  0.94360150885E+03  0.12363503786E+04  0.25500000920E-02 0. -1.
</event>
<event>
 5   0  0.4436695E-05  0.2186009E+04  0.7818609E-02  0.8524274E-01
       -2   -1    0    0    0  501  0.00000000000E+00  0.00000000000E+00  0.16285078734E+04  0.16285078734E+04  0.25500000920E-02 0.  1.
        2   -1    0    0  501    0  0.00000000000E+00  0.00000000000E+00 -0.73359117130E+03  0.73359117131E+03  0.25500000920E-02 0. -1.
    10030    2    1    2    0    0  0.00000000000E+00  0.00000000000E+00  0.89491670214E+03  0.23620990448E+04  0.21860091476E+04 0.  0.
        5    1    3    3  502    0  0.49670010971E+02 -0.79730918679E+03 -0.35859942413E+03  0.87566242715E+03  0.46999998093E+01 0. -1.
       -5    1    3    3    0  502 -0.49670010971E+02  0.79730918679E+03  0.12535161263E+04  0.14864366176E+04  0.46999998093E+01 0.  1.
</event>
<event>
 5   0  0.1968318E-05  0.2297377E+04  0.7818609E-02  0.8478956E-01
       -1   -1    0    0    0  501  0.00000000000E+00  0.00000000000E+00  0.13609478826E+04  0.13609478826E+04  0.50400001928E-02 0.  1.
        1   -1    0    0  501    0  0.00000000000E+00  0.00000000000E+00 -0.96953409056E+03  0.96953409057E+03  0.50400001928E-02 0. -1.
    10030    2    1    2    0    0  0.00000000000E+00  0.00000000000E+00  0.39141379200E+03  0.23304819731E+04  0.22973770850E+04 0.  0.
        3    1    3    3  502    0 -0.25208401484E+03  0.73781605838E+03 -0.65999245172E+03  0.10215228500E+04  0.10100000352E+00 0. -1.
       -3    1    3    3    0  502  0.25208401484E+03 -0.73781605838E+03  0.10514062437E+04  0.13089591231E+04  0.10100000352E+00 0.  1.
</event>
<event>
 5   0  0.2043885E-05  0.2302982E+04  0.7818609E-02  0.8476746E-01
        1   -1    0    0  501    0  0.00000000000E+00  0.00000000000E+00  0.17404614069E+04  0.17404614069E+04  0.50400001928E-02 0. -1.
       -1   -1    0    0    0  501  0.00000000000E+00  0.00000000000E+00 -0.76182791963E+03  0.76182791964E+03  0.50400001928E-02 0.  1.
    10030    2    1    2    0    0  0.00000000000E+00  0.00000000000E+00  0.97863348723E+03  0.25022893265E+04  0.23029824948E+04 0.  0.
        5    1    3    3  502    0  0.76609058155E+03 -0.63690652396E+03  0.11166626737E+04  0.14964966810E+04  0.46999998093E+01 0. -1.
       -5    1    3    3    0  502 -0.76609058155E+03  0.63690652396E+03 -0.13802918649E+03  0.10057926455E+04  0.46999998093E+01 0.  1.
</event>
<event>
 5   0  0.4798609E-05  0.2327392E+04  0.7818609E-02  0.8467199E-01
       -2   -1    0    0    0  501  0.00000000000E+00  0.00000000000E+00  0.15010461512E+04  0.15010461512E+04  0.25500000920E-02 0.  1.
        2   -1    0    0  501    0  0.00000000000E+00  0.00000000000E+00 -0.90216276722E+03  0.90216276722E+03  0.25500000920E-02 0. -1.
    10030    2    1    2    0    0  0.00000000000E+00  0.00000000000E+00  0.59888338396E+03  0.24032089184E+04  0.23273916297E+04 0.  0.
        2    1    3    3  502    0  0.20913767759E+03 -0.58303144860E+02 -0.88106425801E+03  0.90742054839E+03  0.25500000920E-02 0. -1.
       -2    1    3    3    0  502 -0.20913767759E+03  0.58303144860E+02  0.14799476420E+04  0.14957883700E+04  0.25500000920E-02 0.  1.
</event>
<event>
 5   0  0.2031860E-05  0.2171789E+04  0.7818609E-02  0.8530263E-01
        1   -1    0    0  501    0  0.00000000000E+00  0.00000000000E+00  0.24248682054E+04  0.24248682054E+04  0.50400001928E-02 0. -1.
       -1   -1    0    0    0  501  0.00000000000E+00  0.00000000000E+00 -0.48628061029E+03  0.48628061032E+03  0.50400001928E-02 0.  1.
    10030    2    1    2    0    0  0.00000000000E+00  0.00000000000E+00  0.19385875951E+04  0.29111488157E+04  0.21717885632E+04 0.  0.
        4    1    3    3  502    0 -0.20819300216E+02  0.72819611680E+03 -0.11012268918E+03  0.73677109563E+03  0.12699999809E+01 0.  1.
       -4    1    3    3    0  502  0.20819300216E+02 -0.72819611680E+03  0.20487102843E+04  0.21743777201E+04  0.12699999809E+01 0. -1.
</event>
<event>
 5   0  0.4602447E-05  0.2128497E+04  0.7818609E-02  0.8548793E-01
        2   -1    0    0  501    0  0.00000000000E+00  0.00000000000E+00  0.86731067424E+03  0.86731067425E+03  0.25500000920E-02 0. -1.
       -2   -1    0    0    0  501  0.00000000000E+00  0.00000000000E+00 -0.13059044838E+04  0.13059044838E+04  0.25500000920E-02 0.  1.
    10030    2    1    2    0    0  0.00000000000E+00  0.00000000000E+00 -0.43859380952E+03  0.21732151580E+04  0.21284970268E+04 0.  0.
        3    1    3    3  502    0 -0.78966101646E+03  0.58460465913E+03  0.19831679803E+03  0.10023256412E+04  0.10100000352E+00 0. -1.
       -3    1    3    3    0  502  0.78966101646E+03 -0.58460465913E+03 -0.63691060755E+03  0.11708895168E+04  0.10100000352E+00 0.  1.
</event>
<event>
 5   0  0.4436695E-05  0.2297710E+04  0.7818609E-02  0.8478824E-01
        2   -1    0    0  501    0  0.00000000000E+00  0.00000000000E+00  0.11387589111E+04  0.11387589111E+04  0.25500000920E-02 0. -1.
       -2   -1    0    0    0  501  0.00000000000E+00  0.00000000000E+00 -0.11590409994E+04  0.11590409994E+04  0.25500000920E-02 0.  1.
    10030    2    1    2    0    0  0.00000000000E+00  0.00000000000E+00 -0.20282088289E+02  0.22977999105E+04  0.22977103964E+04 0.  0.
        5    1    3    3  502    0  0.88110832471E+03  0.73569561657E+03 -0.57537576756E+02  0.11493183122E+04  0.46999998093E+01 0.  1.
       -5    1    3    3    0  502 -0.88110832471E+03 -0.73569561657E+03  0.37255488467E+02  0.11484815983E+04  0.46999998093E+01 0. -1.
</event>
<event>
 5   0  0.4605516E-05  0.2311334E+04  0.7818609E-02  0.8473466E-01
       -2   -1    0    0    0  501  0.00000000000E+00  0.00000000000E+00  0.58398514131E+03  0.58398514131E+03  0.25500000920E-02 0.  1.
        2   -1    0    0  501    0  0.00000000000E+00  0.00000000000E+00 -0.22869873776E+04  0.22869873776E+04  0.25500000920E-02 0. -1.
    10030    2    1    2    0    0  0.00000000000E+00  0.00000000000E+00 -0.17030022363E+04  0.28709725189E+04  0.23113343738E+04 0.  0.
        1    1    3    3  502    0  0.57913857009E+03  0.95857040909E+03 -0.12056882032E+04  0.16455828013E+04  0.50400001928E-02 0.  1.
       -1    1    3    3    0  502 -0.57913857009E+03 -0.95857040909E+03 -0.49731403311E+03  0.12253897176E+04  0.50400001928E-02 0. -1.
</event>
<event>
 5   0  0.2031860E-05  0.2324124E+04  0.7818609E-02  0.8468470E-01
        1   -1    0    0  501    0  0.00000000000E+00  0.00000000000E+00  0.13926268420E+04  0.13926268420E+04  0.50400001928E-02 0. -1.
       -1   -1    0    0    0  501  0.00000000000E+00  0.00000000000E+00 -0.96966961854E+03  0.96966961856E+03  0.50400001928E-02 0.  1.
    10030    2    1    2    0    0  0.00000000000E+00  0.00000000000E+00  0.42295722346E+03  0.23622964606E+04  0.23241238682E+04 0.  0.
        4    1    3    3  502    0  0.25282206012E+03 -0.92007342960E+02 -0.93757658669E+03  0.97541571345E+03  0.12699999809E+01 0.  1.
       -4    1    3    3    0  502 -0.25282206012E+03  0.92007342960E+02  0.13605338101E+04  0.13868807471E+04  0.12699999809E+01 0. -1.
</event>
<event>
 5   0  0.4605516E-05  0.2301672E+04  0.7818609E-02  0.8477262E-01
       -2   -1    0    0    0  501  0.00000000000E+00  0.00000000000E+00  0.56229003834E+03  0.56229003835E+03  0.25500000920E-02 0.  1.
        2   -1    0    0  501    0  0.00000000000E+00  0.00000000000E+00 -0.23554090630E+04  0.23554090630E+04  0.25500000920E-02 0. -1.
    10030    2    1    2    0    0  0.00000000000E+00  0.00000000000E+00 -0.17931190247E+04  0.29176991014E+04  0.23016716120E+04 0.  0.
        1    1    3    3  502    0 -0.37736948285E+03  0.46472030955E+03  0.34938018589E+03  0.69313722091E+03  0.50400001928E-02 0.  1.
       -1    1    3    3    0  502  0.37736948285E+03 -0.46472030955E+03 -0.21424992106E+04  0.22245618805E+04  0.50400001928E-02 0. -1.
</event>
<event>
 5   0  0.2085063E-05  0.2312104E+04  0.7818609E-02  0.8473164E-01
        1   -1    0    0  501    0  0.00000000000E+00  0.00000000000E+00  0.23582800207E+04  0.23582800207E+04  0.50400001928E-02 0.  1.
       -1   -1    0    0    0  501  0.00000000000E+00  0.00000000000E+00 -0.56670812571E+03  0.56670812573E+03  0.50400001928E-02 0. -1.
    10030    2    1    2    0    0  0.00000000000E+00  0.00000000000E+00  0.17915718950E+04  0.29249881464E+04  0.23121041936E+04 0.  0.
        1    1    3    3  502    0 -0.27154788324E+03 -0.26129237274E+03 -0.48682405785E+03  0.61563757217E+03  0.50400001928E-02 0. -1.
       -1    1    3    3    0  502  0.27154788324E+03  0.26129237274E+03  0.22783959528E+04  0.23093505743E+04  0.50400001928E-02 0.  1.
</event>
<event>
 5   0  0.4505107E-05  0.2201109E+04  0.7818609E-02  0.8517967E-01
        2   -1    0    0  501    0  0.00000000000E+00  0.00000000000E+00  0.18632042580E+04  0.18632042580E+04  0.25500000920E-02 0.  1.
       -2   -1    0    0    0  501  0.00000000000E+00  0.00000000000E+00 -0.65007365792E+03  0.65007365792E+03  0.25500000920E-02 0. -1.
    10030    2    1    2    0    0  0.00000000000E+00  0.00000000000E+00  0.12131306001E+04  0.25132779159E+04  0.22011088183E+04 0.  0.
        4    1    3    3  502    0 -0.79537617758E+03  0.75453341613E+03  0.49660315777E+03  0.12035614854E+04  0.12699999809E+01 0. -1.
       -4    1    3    3    0  502  0.79537617758E+03 -0.75453341613E+03  0.71652744232E+03  0.13097164305E+04  0.12699999809E+01 0.  1.
</event>
<event>
 5   0  0.2085063E-05  0.2303934E+04  0.7818609E-02  0.8476372E-01
        1   -1    0    0  501    0  0.00000000000E+00  0.00000000000E+00  0.15300320198E+04  0.15300320198E+04  0.50400001928E-02 0. -1.
       -1   -1    0    0    0  501  0.00000000000E+00  0.00000000000E+00 -0.86732005191E+03  0.86732005192E+03  0.50400001928E-02 0.  1.
    10030    2    1    2    0    0  0.00000000000E+00  0.00000000000E+00  0.66271196790E+03  0.23973520717E+04  0.23039335501E+04 0.  0.
        1    1    3    3  502    0  0.60450754356E+03  0.64518873824E+03 -0.43705116088E+03  0.98626142347E+03  0.50400001928E-02 0.  1.
       -1    1    3    3    0  502 -0.60450754356E+03 -0.64518873824E+03  0.10997631288E+04  0.14110906483E+04  0.50400001928E-02 0. -1.
</event>
<event>
 5   0  0.4436695E-05  0.2383114E+04  0.7818609E-02  0.8445853E-01
       -2   -1    0    0    0  501  0.00000000000E+00  0.00000000000E+00  0.81624661970E+03  0.81624661971E+03  0.25500000920E-02 0.  1.
        2   -1    0    0  501    0  0.00000000000E+00  0.00000000000E+00 -0.17394348584E+04  0.17394348584E+04  0.25500000920E-02 0. -1.
    10030    2    1    2    0    0  0.00000000000E+00  0.00000000000E+00 -0.92318823871E+03  0.25556814781E+04  0.23831137811E+04 0.  0.
        5    1    3    3  502    0 -0.14615051639E+03  0.11652508861E+03 -0.17236045625E+04  0.17337164842E+04  0.46999998093E+01 0. -1.
       -5    1    3    3    0  502  0.14615051639E+03 -0.11652508861E+03  0.80041632383E+03  0.82196499388E+03  0.46999998093E+01 0.  1.
</event>
<event>
 5   0  0.4436695E-05  0.2287884E+04  0.7818609E-02  0.8482714E-01
        2   -1    0    0  501    0  0.00000000000E+00  0.00000000000E+00  0.90323395380E+03  0.90323395380E+03  0.25500000920E-02 0. -1.
       -2   -1    0    0    0  501  0.00000000000E+00  0.00000000000E+00 -0.14487981035E+04  0.14487981035E+04  0.25500000920E-02 0.  1.
    10030    2    1    2    0    0  0.00000000000E+00  0.00000000000E+00 -0.54556414966E+03  0.23520320573E+04  0.22878842971E+04 0.  0.
        5    1    3    3  502    0  0.10033749709E+02 -0.98693227073E+03 -0.86730951009E+03  0.13139192743E+04  0.46999998093E+01 0.  1.
       -5    1    3    3    0  502 -0.10033749709E+02  0.98693227073E+03  0.32174536043E+03  0.10381127829E+04  0.46999998093E+01 0. -1.
</event>
<event>
 5   0  0.4798609E-05  0.2296631E+04  0.7818609E-02  0.8479251E-01
       -2   -1    0    0    0  501  0.00000000000E+00  0.00000000000E+00  0.90916403164E+03  0.90916403164E+03  0.25500000920E-02 0. -1.
        2   -1    0    0  501    0  0.00000000000E+00  0.00000000000E+00 -0.14503747261E+04  0.14503747261E+04  0.25500000920E-02 0.  1.
    10030    2    1    2    0    0  0.00000000000E+00  0.00000000000E+00 -0.54121069446E+03  0.23595387577E+04  0.22966310399E+04 0.  0.
        2    1    3    3  502    0  0.19136798850E+02  0.78359377195E+03  0.59157315676E+03  0.98201029339E+03  0.25500000920E-02 0. -1.
       -2    1    3    3    0  502 -0.19136798850E+02 -0.78359377195E+03 -0.11327838512E+04  0.13775284644E+04  0.25500000920E-02 0.  1.
</event>
<event>
 5   0  0.4798609E-05  0.2293720E+04  0.7818609E-02  0.8480401E-01
       -2   -1    0    0    0  501  0.00000000000E+00  0.00000000000E+00  0.83952640731E+03  0.83952640731E+03  0.25500000920E-02 0. -1.
        2   -1    0    0  501    0  0.00000000000E+00  0.00000000000E+00 -0.15667027342E+04  0.15667027343E+04  0.25500000920E-02 0.  1.
    10030    2    1    2    0    0  0.00000000000E+00  0.00000000000E+00 -0.72717632694E+03  0.24062291416E+04  0.22937203995E+04 0.  0.
        2    1    3    3  502    0  0.74658568097E+03  0.34719859355E+02  0.54896099443E+03  0.92733695121E+03  0.25500000920E-02 0. -1.
       -2    1    3    3    0  502 -0.74658568097E+03 -0.34719859355E+02 -0.12761373214E+04  0.14788921904E+04  0.25500000920E-02 0.  1.
</event>
<event>
 5   0  0.4605516E-05  0.2302755E+04  0.7818609E-02  0.8476836E-01
       -2   -1    0    0    0  501  0.00000000000E+00  0.00000000000E+00  0.85389624637E+03  0.85389624637E+03  0.25500000920E-02 0. -1.
        2   -1    0    0  501    0  0.00000000000E+00  0.00000000000E+00 -0.15524960921E+04  0.15524960921E+04  0.25500000920E-02 0.  1.
    10030    2    1    2    0    0  0.00000000000E+00  0.00000000000E+00 -0.69859984570E+03  0.24063923384E+04  0.23027553804E+04 0.  0.
        1    1    3    3  502    0 -0.21750378667E+03  0.56343255298E+03  0.67507557968E+03  0.90580968050E+03  0.50400001928E-02 0. -1.
       -1    1    3    3    0  502  0.21750378667E+03 -0.56343255298E+03 -0.13736754254E+04  0.15005826579E+04  0.50400001928E-02 0.  1.
</event>
<event>
 5   0  0.1968318E-05  0.2299574E+04  0.7818609E-02  0.8478089E-01
       -1   -1    0    0    0  501  0.00000000000E+00  0.00000000000E+00  0.52587434489E+03  0.52587434492E+03  0.50400001928E-02 0. -1.
        1   -1    0    0  501    0  0.00000000000E+00  0.00000000000E+00 -0.25139276944E+04  0.25139276944E+04  0.50400001928E-02 0.  1.
    10030    2    1    2    0    0  0.00000000000E+00  0.00000000000E+00 -0.19880533495E+04  0.30398020393E+04  0.22995739426E+04 0.  0.
        3    1    3    3  502    0 -0.62692990663E+03 -0.26950036292E+03  0.22923864128E+03  0.71987632153E+03  0.10100000352E+00 0. -1.
       -3    1    3    3    0  502  0.62692990663E+03  0.26950036292E+03 -0.22172919907E+04  0.23199257177E+04  0.10100000352E+00 0.  1.
</event>
<event>
 5   0  0.1968318E-05  0.2297907E+04  0.7818609E-02  0.8478747E-01
       -1   -1    0    0    0  501  0.00000000000E+00  0.00000000000E+00  0.13888139255E+04  0.13888139255E+04  0.50400001928E-02 0.  1.
        1   -1    0    0  501    0  0.00000000000E+00  0.00000000000E+00 -0.95051945446E+03  0.95051945447E+03  0.50400001928E-02 0. -1.
    10030    2    1    2    0    0  0.00000000000E+00  0.00000000000E+00  0.43829447104E+03  0.23393333800E+04  0.22979074436E+04 0.  0.
        3    1    3    3  502    0  0.10298751037E+04 -0.44231215837E+03 -0.38016853068E+02  0.11214847596E+04  0.10100000352E+00 0. -1.
       -3    1    3    3    0  502 -0.10298751037E+04  0.44231215837E+03  0.47631132411E+03  0.12178486204E+04  0.10100000352E+00 0.  1.
</event>
<event>
 5   0  0.4602447E-05  0.2268976E+04  0.7818609E-02  0.8490255E-01
       -2   -1    0    0    0  501  0.00000000000E+00  0.00000000000E+00  0.46991269518E+03  0.46991269518E+03  0.25500000920E-02 0. -1.
        2   -1    0    0  501    0  0.00000000000E+00  0.00000000000E+00 -0.27389401768E+04  0.27389401768E+04  0.25500000920E-02 0.  1.
    10030    2    1    2    0    0  0.00000000000E+00  0.00000000000E+00 -0.22690274816E+04  0.32088528720E+04  0.22689757693E+04 0.  0.
        3    1    3    3  502    0 -0.11253763687E+04 -0.34329753207E+02 -0.93747217396E+03  0.14650954202E+04  0.10100000352E+00 0.  1.
       -3    1    3    3    0  502  0.11253763687E+04  0.34329753207E+02 -0.13315553077E+04  0.17437574518E+04  0.10100000352E+00 0. -1.
</event>
<event>
 5   0  0.2085063E-05  0.2304458E+04  0.7818609E-02  0.8476166E-01
       -1   -1    0    0    0  501  0.00000000000E+00  0.00000000000E+00  0.74813704464E+03  0.74813704466E+03  0.50400001928E-02 0.  1.
        1   -1    0    0  501    0  0.00000000000E+00  0.00000000000E+00 -0.17745828308E+04  0.17745828308E+04  0.50400001928E-02 0. -1.
    10030    2    1    2    0    0  0.00000000000E+00  0.00000000000E+00 -0.10264457861E+04  0.25227198754E+04  0.23044575540E+04 0.  0.
        1    1    3    3  502    0  0.96014975844E+03 -0.44466150280E+01 -0.12105163185E+04  0.15450751077E+04  0.50400001928E-02 0. -1.
       -1    1    3    3    0  502 -0.96014975844E+03  0.44466150280E+01  0.18407053236E+03  0.97764476776E+03  0.50400001928E-02 0.  1.
</event>
<event>
 5   0  0.4798609E-05  0.2253698E+04  0.7818609E-02  0.8496404E-01
       -2   -1    0    0    0  501  0.00000000000E+00  0.00000000000E+00  0.99239036724E+03  0.99239036725E+03  0.25500000920E-02 0. -1.
        2   -1    0    0  501    0  0.00000000000E+00  0.00000000000E+00 -0.12795255106E+04  0.12795255106E+04  0.25500000920E-02 0.  1.
    10030    2    1    2    0    0  0.00000000000E+00  0.00000000000E+00 -0.28713514340E+03  0.22719158779E+04  0.22536981088E+04 0.  0.
        2    1    3    3  502    0 -0.38636800822E+03  0.46707762738E+03  0.81403059594E+03  0.10149322928E+04  0.25500000920E-02 0. -1.
       -2    1    3    3    0  502  0.38636800822E+03 -0.46707762738E+03 -0.11011657393E+04  0.12569835851E+04  0.25500000920E-02 0.  1.
</event>
<event>
 5   0  0.2031860E-05  0.2172334E+04  0.7818609E-02  0.8530032E-01
       -1   -1    0    0    0  501  0.00000000000E+00  0.00000000000E+00  0.80880406334E+03  0.80880406336E+03  0.50400001928E-02 0.  1.
        1   -1    0    0  501    0  0.00000000000E+00  0.00000000000E+00 -0.14586464725E+04  0.14586464725E+04  0.50400001928E-02 0. -1.
    10030    2    1    2    0    0  0.00000000000E+00  0.00000000000E+00 -0.64984240915E+03  0.22674505359E+04  0.21723344070E+04 0.  0.
        4    1    3    3  502    0  0.91639689614E+03 -0.13368202424E+03  0.26747028817E+03  0.96394819508E+03  0.12699999809E+01 0.  1.
       -4    1    3    3    0  502 -0.91639689614E+03  0.13368202424E+03 -0.91731269732E+03  0.13035023408E+04  0.12699999809E+01 0. -1.
</event>
<event>
 5   0  0.2085063E-05  0.2310084E+04  0.7818609E-02  0.8473956E-01
        1   -1    0    0  501    0  0.00000000000E+00  0.00000000000E+00  0.18303305230E+04  0.18303305230E+04  0.50400001928E-02 0.  1.
       -1   -1    0    0    0  501  0.00000000000E+00  0.00000000000E+00 -0.72889680526E+03  0.72889680528E+03  0.50400001928E-02 0. -1.
    10030    2    1    2    0    0  0.00000000000E+00  0.00000000000E+00  0.11014337177E+04  0.25592273283E+04  0.23100840425E+04 0.  0.
        1    1    3    3  502    0 -0.71576730596E+03 -0.28674587518E+03 -0.40201897556E+03  0.86957765033E+03  0.50400001928E-02 0. -1.
       -1    1    3    3    0  502  0.71576730596E+03  0.28674587518E+03  0.15034526933E+04  0.16896496779E+04  0.50400001928E-02 0.  1.
</event>
<event>
 5   0  0.2042951E-05  0.2325130E+04  0.7818609E-02  0.8468078E-01
        1   -1    0    0  501    0  0.00000000000E+00  0.00000000000E+00  0.15375371883E+04  0.15375371883E+04  0.50400001928E-02 0. -1.
       -1   -1    0    0    0  501  0.00000000000E+00  0.00000000000E+00 -0.87904080643E+03  0.87904080645E+03  0.50400001928E-02 0.  1.
    10030    2    1    2    0    0  0.00000000000E+00  0.00000000000E+00  0.65849638188E+03  0.24165779948E+04  0.23251304737E+04 0.  0.
        2    1    3    3  502    0 -0.36513267511E+03 -0.72871993721E+03 -0.53233280386E+03  0.97351570680E+03  0.25500000920E-02 0.  1.
       -2    1    3    3    0  502  0.36513267511E+03  0.72871993721E+03  0.11908291857E+04  0.14430622880E+04  0.25500000920E-02 0. -1.
</event>
<event>
 5   0  0.1968318E-05  0.2309268E+04  0.7818609E-02  0.8474276E-01
        1   -1    0    0  501    0  0.00000000000E+00  0.00000000000E+00  0.16569330725E+04  0.16569330726E+04  0.50400001928E-02 0. -1.
       -1   -1    0    0    0  501  0.00000000000E+00  0.00000000000E+00 -0.80460717662E+03  0.80460717664E+03  0.50400001928E-02 0.  1.
    10030    2    1    2    0    0  0.00000000000E+00  0.00000000000E+00  0.85232589592E+03  0.24615402492E+04  0.23092684914E+04 0.  0.
        3    1    3    3  502    0  0.86276934966E+03 -0.75077796302E+03  0.25714606166E+03  0.11722468203E+04  0.10100000352E+00 0.  1.
       -3    1    3    3    0  502 -0.86276934966E+03  0.75077796302E+03  0.59517983427E+03  0.12892934289E+04  0.10100000352E+00 0. -1.
</event>
<event>
 5   0  0.4505107E-05  0.2073604E+04  0.7818609E-02  0.8572961E-01
       -2   -1    0    0    0  501  0.00000000000E+00  0.00000000000E+00  0.72022257994E+03  0.72022257994E+03  0.25500000920E-02 0. -1.
        2   -1    0    0  501    0  0.00000000000E+00  0.00000000000E+00 -0.14925368726E+04  0.14925368726E+04  0.25500000920E-02 0.  1.
    10030    2    1    2    0    0  0.00000000000E+00  0.00000000000E+00 -0.77231429264E+03  0.22127594525E+04  0.20736043567E+04 0.  0.
        4    1    3    3  502    0 -0.47628850178E+03 -0.72018902678E+03  0.22632386904E+03  0.89260689994E+03  0.12699999809E+01 0. -1.
       -4    1    3    3    0  502  0.47628850178E+03  0.72018902678E+03 -0.99863816169E+03  0.13201525526E+04  0.12699999809E+01 0.  1.
</event>
<event>
 5   0  0.4505107E-05  0.2299651E+04  0.7818609E-02  0.8478059E-01
       -2   -1    0    0    0  501  0.00000000000E+00  0.00000000000E+00  0.17717509810E+04  0.17717509810E+04  0.25500000920E-02 0. -1.
        2   -1    0    0  501    0  0.00000000000E+00  0.00000000000E+00 -0.74621044481E+03  0.74621044481E+03  0.25500000920E-02 0.  1.
    10030    2    1    2    0    0  0.00000000000E+00  0.00000000000E+00  0.10255405362E+04  0.25179614258E+04  0.22996513541E+04 0.  0.
        4    1    3    3  502    0  0.45989415892E+03  0.89171097317E+02  0.16625234126E+04  0.17272636835E+04  0.12699999809E+01 0. -1.
       -4    1    3    3    0  502 -0.45989415892E+03 -0.89171097317E+02 -0.63698287639E+03  0.79069774233E+03  0.12699999809E+01 0.  1.
</event>
<event>
 5   0  0.2042951E-05  0.2285711E+04  0.7818609E-02  0.8483576E-01
       -1   -1    0    0    0  501  0.00000000000E+00  0.00000000000E+00  0.15506246348E+04  0.15506246348E+04  0.50400001928E-02 0. -1.
        1   -1    0    0  501    0  0.00000000000E+00  0.00000000000E+00 -0.84231784295E+03  0.84231784296E+03  0.50400001928E-02 0.  1.
    10030    2    1    2    0    0  0.00000000000E+00  0.00000000000E+00  0.70830679184E+03  0.23929424778E+04  0.22857110908E+04 0.  0.
        2    1    3    3  502    0  0.65500704217E+03  0.27631840922E+03  0.12909702773E+04  0.14737673987E+04  0.25500000920E-02 0. -1.
       -2    1    3    3    0  502 -0.65500704217E+03 -0.27631840922E+03 -0.58266348550E+03  0.91917507903E+03  0.25500000920E-02 0.  1.
</event>
<event>
 5   0  0.4505107E-05  0.2030397E+04  0.7818609E-02  0.8592539E-01
        2   -1    0    0  501    0  0.00000000000E+00  0.00000000000E+00  0.15925488328E+04  0.15925488328E+04  0.25500000920E-02 0. -1.
       -2   -1    0    0    0  501  0.00000000000E+00  0.00000000000E+00 -0.64715651318E+03  0.64715651318E+03  0.25500000920E-02 0.  1.
    10030    2    1    2    0    0  0.00000000000E+00  0.00000000000E+00  0.94539231967E+03  0.22397053460E+04  0.20303973500E+04 0.  0.
        4    1    3    3  502    0  0.21905488162E+03  0.64163929534E+03  0.13061956801E+04  0.14716775442E+04  0.12699999809E+01 0. -1.
       -4    1    3    3    0  502 -0.21905488162E+03 -0.64163929534E+03 -0.36080336048E+03  0.76802780179E+03  0.12699999809E+01 0.  1.
</event>
<event>
 5   0  0.4605516E-05  0.2312886E+04  0.7818609E-02  0.8472858E-01
        2   -1    0    0  501    0  0.00000000000E+00  0.00000000000E+00  0.89811996494E+03  0.89811996494E+03  0.25500000920E-02 0. -1.
       -2   -1    0    0    0  501  0.00000000000E+00  0.00000000000E+00 -0.14890659468E+04  0.14890659468E+04  0.25500000920E-02 0.  1.
    10030    2    1    2    0    0  0.00000000000E+00  0.00000000000E+00 -0.59094598182E+03  0.23871859117E+04  0.23128855189E+04 0.  0.
        1    1    3    3  502    0  0.80552073714E+03 -0.12956026101E+03  0.55043498825E+03  0.98418910556E+03  0.50400001928E-02 0. -1.
       -1    1    3    3    0  502 -0.80552073714E+03  0.12956026101E+03 -0.11413809701E+04  0.14029968061E+04  0.50400001928E-02 0.  1.
</event>
<event>
 5   0  0.4505107E-05  0.2156292E+04  0.7818609E-02  0.8536844E-01
       -2   -1    0    0    0  501  0.00000000000E+00  0.00000000000E+00  0.47737832219E+03  0.47737832220E+03  0.25500000920E-02 0. -1.
        2   -1    0    0  501    0  0.00000000000E+00  0.00000000000E+00 -0.24349627937E+04  0.24349627937E+04  0.25500000920E-02 0.  1.
    10030    2    1    2    0    0  0.00000000000E+00  0.00000000000E+00 -0.19575844715E+04  0.29123411159E+04  0.21562916807E+04 0.  0.
        4    1    3    3  502    0 -0.36966367942E+03 -0.92956295715E+03 -0.43574981655E+03  0.10911544541E+04  0.12699999809E+01 0. -1.
       -4    1    3    3    0  502  0.36966367942E+03  0.92956295715E+03 -0.15218346550E+04  0.18211866618E+04  0.12699999809E+01 0.  1.
</event>
<event>
 5   0  0.1968318E-05  0.2304319E+04  0.7818609E-02  0.8476220E-01
        1   -1    0    0  501    0  0.00000000000E+00  0.00000000000E+00  0.17914056957E+04  0.17914056957E+04  0.50400001928E-02 0.  1.
       -1   -1    0    0    0  501  0.00000000000E+00  0.00000000000E+00 -0.74102205479E+03  0.74102205481E+03  0.50400001928E-02 0. -1.
    10030    2    1    2    0    0  0.00000000000E+00  0.00000000000E+00  0.10503836409E+04  0.25324277505E+04  0.23043186669E+04 0.  0.
        3    1    3    3  502    0 -0.22953495500E+03  0.11301102321E+03 -0.70940881859E+03  0.75413438393E+03  0.10100000352E+00 0. -1.
       -3    1    3    3    0  502  0.22953495500E+03 -0.11301102321E+03  0.17597924595E+04  0.17782933666E+04  0.10100000352E+00 0.  1.
</event>
<event>
 5   0  0.4436695E-05  0.2267191E+04  0.7818609E-02  0.8490971E-01
       -2   -1    0    0    0  501  0.00000000000E+00  0.00000000000E+00  0.61920137306E+03  0.61920137306E+03  0.25500000920E-02 0.  1.
        2   -1    0    0  501    0  0.00000000000E+00  0.00000000000E+00 -0.20753171150E+04  0.20753171150E+04  0.25500000920E-02 0. -1.
    10030    2    1    2    0    0  0.00000000000E+00  0.00000000000E+00 -0.14561157419E+04  0.26945184880E+04  0.22671913965E+04 0.  0.
        5    1    3    3  502    0 -0.55451907389E+03  0.98270491676E+03 -0.85725182732E+03  0.14170755598E+04  0.46999998093E+01 0. -1.
       -5    1    3    3    0  502  0.55451907389E+03 -0.98270491676E+03 -0.59886391459E+03  0.12774429282E+04  0.46999998093E+01 0.  1.
</event>
<event>
 5   0  0.2043885E-05  0.2310483E+04  0.7818609E-02  0.8473799E-01
       -1   -1    0    0    0  501  0.00000000000E+00  0.00000000000E+00  0.99156541031E+03  0.99156541032E+03  0.50400001928E-02 0.  1.
        1   -1    0    0  501    0  0.00000000000E+00  0.00000000000E+00 -0.13459348962E+04  0.13459348962E+04  0.50400001928E-02 0. -1.
    10030    2    1    2    0    0  0.00000000000E+00  0.00000000000E+00 -0.35436948586E+03  0.23375003065E+04  0.23104826228E+04 0.  0.
        5    1    3    3  502    0 -0.40843513588E+03 -0.52001412040E+03  0.78116538493E+03  0.10234624538E+04  0.46999998093E+01 0.  1.
       -5    1    3    3    0  502  0.40843513588E+03  0.52001412040E+03 -0.11355348708E+04  0.13140378527E+04  0.46999998093E+01 0. -1.
</event>
<event>
 5   0  0.1968318E-05  0.2303366E+04  0.7818609E-02  0.8476595E-01
       -1   -1    0    0    0  501  0.00000000000E+00  0.00000000000E+00  0.11765479907E+04  0.11765479907E+04  0.50400001928E-02 0.  1.
        1   -1    0    0  501    0  0.00000000000E+00  0.00000000000E+00 -0.11273436354E+04  0.11273436354E+04  0.50400001928E-02 0. -1.
    10030    2    1    2    0    0  0.00000000000E+00  0.00000000000E+00  0.49204355234E+02  0.23038916261E+04  0.23033661360E+04 0.  0.
        3    1    3    3  502    0 -0.37009980416E+03  0.93398921695E+03  0.58781514182E+03  0.11639743870E+04  0.10100000352E+00 0.  1.
       -3    1    3    3    0  502  0.37009980416E+03 -0.93398921695E+03 -0.53861078658E+03  0.11399172391E+04  0.10100000352E+00 0. -1.
</event>
<event>
 5   0  0.4602447E-05  0.2281652E+04  0.7818609E-02  0.8485191E-01
       -2   -1    0    0    0  501  0.00000000000E+00  0.00000000000E+00  0.86579989502E+03  0.86579989503E+03  0.25500000920E-02 0.  1.
        2   -1    0    0  501    0  0.00000000000E+00  0.00000000000E+00 -0.15032156411E+04  0.15032156411E+04  0.25500000920E-02 0. -1.
    10030    2    1    2    0    0  0.00000000000E+00  0.00000000000E+00 -0.63741574608E+03  0.23690155361E+04  0.22816519842E+04 0.  0.
        3    1    3    3  502    0 -0.23766271384E+03  0.23604539844E+03  0.81359106508E+03  0.87984738850E+03  0.10100000352E+00 0.  1.
       -3    1    3    3    0  502  0.23766271384E+03 -0.23604539844E+03 -0.14510068112E+04  0.14891681476E+04  0.10100000352E+00 0. -1.
</event>
<event>
 5   0  0.2085063E-05  0.2326362E+04  0.7818609E-02  0.8467599E-01
        1   -1    0    0  501    0  0.00000000000E+00  0.00000000000E+00  0.10829524749E+04  0.10829524749E+04  0.50400001928E-02 0.  1.
       -1   -1    0    0    0  501  0.00000000000E+00  0.00000000000E+00 -0.12493533828E+04  0.12493533828E+04  0.50400001928E-02 0. -1.
    10030    2    1    2    0    0  0.00000000000E+00  0.00000000000E+00 -0.16640090786E+03  0.23323058577E+04  0.23263622572E+04 0.  0.
        1    1    3    3  502    0 -0.39190954210E+03 -0.10696311532E+04  0.15253097678E+03  0.11493344126E+04  0.50400001928E-02 0.  1.
       -1    1    3    3    0  502  0.39190954210E+03  0.10696311532E+04 -0.31893188464E+03  0.11829714452E+04  0.50400001928E-02 0. -1.
</event>
<event>
 5   0  0.2031860E-05  0.2308576E+04  0.7818609E-02  0.8474548E-01
       -1   -1    0    0    0  501  0.00000000000E+00  0.00000000000E+00  0.83123770200E+03  0.83123770202E+03  0.50400001928E-02 0. -1.
        1   -1    0    0  501    0  0.00000000000E+00  0.00000000000E+00 -0.16028872913E+04  0.16028872913E+04  0.50400001928E-02 0.  1.
    10030    2    1    2    0    0  0.00000000000E+00  0.00000000000E+00 -0.77164958927E+03  0.24341249933E+04  0.23085756202E+04 0.  0.
        4    1    3    3  502    0  0.26229900150E+03 -0.10719642172E+04 -0.29089635688E+02  0.11039727664E+04  0.12699999809E+01 0.  1.
       -4    1    3    3    0  502 -0.26229900150E+03  0.10719642172E+04 -0.74255995358E+03  0.13301522269E+04  0.12699999809E+01 0. -1.
</event>
<event>
 5   0  0.2043885E-05  0.2283509E+04  0.7818609E-02  0.8484452E-01
        1   -1    0    0  501    0  0.00000000000E+00  0.00000000000E+00  0.94711137462E+03  0.94711137463E+03  0.50400001928E-02 0.  1.
       -1   -1    0    0    0  501  0.00000000000E+00  0.00000000000E+00 -0.13763986346E+04  0.13763986346E+04  0.50400001928E-02 0. -1.
    10030    2    1    2    0    0  0.00000000000E+00  0.00000000000E+00 -0.42928726002E+03  0.23235100093E+04  0.22835085311E+04 0.  0.
        5    1    3    3  502    0 -0.60414648124E+03  0.13445905653E+03  0.76159460212E+03  0.98138709827E+03  0.46999998093E+01 0.  1.
       -5    1    3    3    0  502  0.60414648124E+03 -0.13445905653E+03 -0.11908818621E+04  0.13421229110E+04  0.46999998093E+01 0. -1.
</event>
<event>
 5   0  0.2031860E-05  0.2312303E+04  0.7818609E-02  0.8473086E-01
       -1   -1    0    0    0  501  0.00000000000E+00  0.00000000000E+00  0.13275495671E+04  0.13275495671E+04  0.50400001928E-02 0.  1.
        1   -1    0    0  501    0  0.00000000000E+00  0.00000000000E+00 -0.10068823667E+04  0.10068823667E+04  0.50400001928E-02 0. -1.
    10030    2    1    2    0    0  0.00000000000E+00  0.00000000000E+00  0.32066720035E+03  0.23344319338E+04  0.23123029646E+04 0.  0.
        4    1    3    3  502    0 -0.53881119237E+03  0.31765450723E+03  0.11419881662E+04  0.13020600876E+04  0.12699999809E+01 0.  1.
       -4    1    3    3    0  502  0.53881119237E+03 -0.31765450723E+03 -0.82132096588E+03  0.10323718462E+04  0.12699999809E+01 0. -1.
</event>
<event>
 5   0  0.2085063E-05  0.2289982E+04  0.7818609E-02  0.8481882E-01
       -1   -1    0    0    0  501  0.00000000000E+00  0.00000000000E+00  0.85699230551E+03  0.85699230552E+03  0.50400001928E-02 0. -1.
        1   -1    0    0  501    0  0.00000000000E+00  0.00000000000E+00 -0.15297738212E+04  0.15297738212E+04  0.50400001928E-02 0.  1.
    10030    2    1    2    0    0  0.00000000000E+00  0.00000000000E+00 -0.67278151567E+03  0.23867661267E+04  0.22899820034E+04 0.  0.
        1    1    3    3  502    0  0.38579129655E+03 -0.82828473143E+03  0.38278197754E+03  0.99066268890E+03  0.50400001928E-02 0. -1.
       -1    1    3    3    0  502 -0.38579129655E+03  0.82828473143E+03 -0.10555634932E+04  0.13961034378E+04  0.50400001928E-02 0.  1.
</event>
<event>
 5   0  0.4505107E-05  0.2424791E+04  0.7818609E-02  0.8430280E-01
       -2   -1    0    0    0  501  0.00000000000E+00  0.00000000000E+00  0.10584770791E+04  0.10584770791E+04  0.25500000920E-02 0. -1.
        2   -1    0    0  501    0  0.00000000000E+00  0.00000000000E+00 -0.13886959317E+04  0.13886959317E+04  0.25500000920E-02 0.  1.
    10030    2    1    2    0    0  0.00000000000E+00  0.00000000000E+00 -0.33021885253E+03  0.24471730108E+04  0.24247909713E+04 0.  0.
        4    1    3    3  502    0 -0.80670995641E+03  0.18475296261E+03 -0.10592822921E+04  0.13442452150E+04  0.12699999809E+01 0.  1.
       -4    1    3    3    0  502  0.80670995641E+03 -0.18475296261E+03  0.72906343953E+03  0.11029277958E+04  0.12699999809E+01 0. -1.
</event>
<event>
 5   0  0.2031860E-05  0.2276579E+04  0.7818609E-02  0.8487213E-01
        1   -1    0    0  501    0  0.00000000000E+00  0.00000000000E+00  0.14158086953E+04  0.14158086953E+04  0.50400001928E-02 0.  1.
       -1   -1    0    0    0  501  0.00000000000E+00  0.00000000000E+00 -0.91516811776E+03  0.91516811778E+03  0.50400001928E-02 0. -1.
    10030    2    1    2    0    0  0.00000000000E+00  0.00000000000E+00  0.50064057749E+03  0.23309768130E+04  0.22765789938E+04 0.  0.
        4    1    3    3  502    0  0.91197385564E+03  0.33715904590E+03  0.85634895661E+03  0.12956495221E+04  0.12699999809E+01 0.  1.
       -4    1    3    3    0  502 -0.91197385564E+03 -0.33715904590E+03 -0.35570837911E+03  0.10353272910E+04  0.12699999809E+01 0. -1.
</event>
<event>
 5   0  0.2085063E-05  0.2291647E+04  0.7818609E-02  0.8481222E-01
        1   -1    0    0  501    0  0.00000000000E+00  0.00000000000E+00  0.19602306435E+04  0.19602306435E+04  0.50400001928E-02 0.  1.
       -1   -1    0    0    0  501  0.00000000000E+00  0.00000000000E+00 -0.66977403758E+03  0.66977403760E+03  0.50400001928E-02 0. -1.
    10030    2    1    2    0    0  0.00000000000E+00  0.00000000000E+00  0.12904566059E+04  0.26300046811E+04  0.22916470869E+04 0.  0.
        1    1    3    3  502    0  0.93594852284E+03  0.41069057489E+03  0.50833820139E+02  0.10233525605E+04  0.50400001928E-02 0.  1.
       -1    1    3    3    0  502 -0.93594852284E+03 -0.41069057489E+03  0.12396227858E+04  0.16066521206E+04  0.50400001928E-02 0. -1.
</event>
<event>
 5   0  0.1968318E-05  0.2295680E+04  0.7818609E-02  0.8479626E-01
        1   -1    0    0  501    0  0.00000000000E+00  0.00000000000E+00  0.10269956228E+04  0.10269956228E+04  0.50400001928E-02 0.  1.
       -1   -1    0    0    0  501  0.00000000000E+00  0.00000000000E+00 -0.12829042837E+04  0.12829042837E+04  0.50400001928E-02 0. -1.
    10030    2    1    2    0    0  0.00000000000E+00  0.00000000000E+00 -0.25590866087E+03  0.23098999065E+04  0.22956803643E+04 0.  0.
        3    1    3    3  502    0 -0.46319885805E+01 -0.52295793113E+03  0.90015277315E+03  0.10410482593E+04  0.10100000352E+00 0.  1.
       -3    1    3    3    0  502  0.46319885805E+01  0.52295793113E+03 -0.11560614340E+04  0.12688516472E+04  0.10100000352E+00 0. -1.
</event>
<event>
 5   0  0.1968318E-05  0.2273521E+04  0.7818609E-02  0.8488435E-01
        1   -1    0    0  501    0  0.00000000000E+00  0.00000000000E+00  0.16037385053E+04  0.16037385053E+04  0.50400001928E-02 0.  1.
       -1   -1    0    0    0  501  0.00000000000E+00  0.00000000000E+00 -0.80575765357E+03  0.80575765358E+03  0.50400001928E-02 0. -1.
    10030    2    1    2    0    0  0.00000000000E+00  0.00000000000E+00  0.79798085170E+03  0.24094961589E+04  0.22735211237E+04 0.  0.
        3    1    3    3  502    0  0.65737069843E+03  0.87159859402E+03  0.63172999401E+02  0.10935315187E+04  0.10100000352E+00 0. -1.
       -3    1    3    3    0  502 -0.65737069843E+03 -0.87159859402E+03  0.73480785229E+03  0.13159646402E+04  0.10100000352E+00 0.  1.
</event>
<event>
 5   0  0.4505107E-05  0.2323048E+04  0.7818609E-02  0.8468889E-01
       -2   -1    0    0    0  501  0.00000000000E+00  0.00000000000E+00  0.91724432223E+03  0.91724432223E+03  0.25500000920E-02 0. -1.
        2   -1    0    0  501    0  0.00000000000E+00  0.00000000000E+00 -0.14708597067E+04  0.14708597068E+04  0.25500000920E-02 0.  1.
    10030    2    1    2    0    0  0.00000000000E+00  0.00000000000E+00 -0.55361538452E+03  0.23881040290E+04  0.23230477523E+04 0.  0.
        4    1    3    3  502    0  0.80749794265E+03  0.58189805684E+03  0.33868975021E+03  0.10513660807E+04  0.12699999809E+01 0. -1.
       -4    1    3    3    0  502 -0.80749794265E+03 -0.58189805684E+03 -0.89230513473E+03  0.13367379482E+04  0.12699999809E+01 0.  1.
</event>
<event>
 5   0  0.2042951E-05  0.2222825E+04  0.7818609E-02  0.8508988E-01
        1   -1    0    0  501    0  0.00000000000E+00  0.00000000000E+00  0.10452954181E+04  0.10452954181E+04  0.50400001928E-02 0. -1.
       -1   -1    0    0    0  501  0.00000000000E+00  0.00000000000E+00 -0.11817113115E+04  0.11817113116E+04  0.50400001928E-02 0.  1.
    10030    2    1    2    0    0  0.00000000000E+00  0.00000000000E+00 -0.13641589345E+03  0.22270067297E+04  0.22228247070E+04 0.  0.
        2    1    3    3  502    0 -0.98877061541E+03 -0.47637904009E+03  0.10714448243E+03  0.11027621048E+04  0.25500000920E-02 0. -1.
       -2    1    3    3    0  502  0.98877061541E+03  0.47637904009E+03 -0.24356037588E+03  0.11242446248E+04  0.25500000920E-02 0.  1.
</event>
<event>
 5   0  0.2031860E-05  0.2307613E+04  0.7818609E-02  0.8474926E-01
        1   -1    0    0  501    0  0.00000000000E+00  0.00000000000E+00  0.18629153993E+04  0.18629153993E+04  0.50400001928E-02 0.  1.
       -1   -1    0    0    0  501  0.00000000000E+00  0.00000000000E+00 -0.71461598132E+03  0.71461598134E+03  0.50400001928E-02 0. -1.
    10030    2    1    2    0    0  0.00000000000E+00  0.00000000000E+00  0.11482994180E+04  0.25775313806E+04  0.23076127199E+04 0.  0.
        4    1    3    3  502    0  0.57237851219E+03 -0.27996292707E+03 -0.50027388411E+03  0.81010614969E+03  0.12699999809E+01 0. -1.
       -4    1    3    3    0  502 -0.57237851219E+03  0.27996292707E+03  0.16485733021E+04  0.17674252309E+04  0.12699999809E+01 0.  1.
</event>
<event>
 5   0  0.4505107E-05  0.1913673E+04  0.7818609E-02  0.8648080E-01
       -2   -1    0    0    0  501  0.00000000000E+00  0.00000000000E+00  0.97300326088E+03  0.97300326089E+03  0.25500000920E-02 0. -1.
        2   -1    0    0  501    0  0.00000000000E+00  0.00000000000E+00 -0.94093878035E+03  0.94093878035E+03  0.25500000920E-02 0.  1.
    10030    2    1    2    0    0  0.00000000000E+00  0.00000000000E+00  0.32064480536E+02  0.19139420412E+04  0.19136734325E+04 0.  0.
        4    1    3    3  502    0 -0.58373125414E+03 -0.63421868082E+03  0.43149321530E+03  0.96393128381E+03  0.12699999809E+01 0. -1.
       -4    1    3    3    0  502  0.58373125414E+03  0.63421868082E+03 -0.39942873477E+03  0.95001075742E+03  0.12699999809E+01 0.  1.
</event>
<event>
 5   0  0.4436695E-05  0.2305813E+04  0.7818609E-02  0.8475633E-01
       -2   -1    0    0    0  501  0.00000000000E+00  0.00000000000E+00  0.54118752327E+03  0.54118752328E+03  0.25500000920E-02 0.  1.
        2   -1    0    0  501    0  0.00000000000E+00  0.00000000000E+00 -0.24560677065E+04  0.24560677065E+04  0.25500000920E-02 0. -1.
    10030    2    1    2    0    0  0.00000000000E+00  0.00000000000E+00 -0.19148801833E+04  0.29972552298E+04  0.23058128277E+04 0.  0.
        5    1    3    3  502    0 -0.97910565050E+03 -0.42856903173E+03 -0.39555392370E+03  0.11396509493E+04  0.46999998093E+01 0. -1.
       -5    1    3    3    0  502  0.97910565050E+03  0.42856903173E+03 -0.15193262596E+04  0.18576042805E+04  0.46999998093E+01 0.  1.
</event>
<event>
 5   0  0.2031860E-05  0.2302767E+04  0.7818609E-02  0.8476831E-01
       -1   -1    0    0    0  501  0.00000000000E+00  0.00000000000E+00  0.79293702904E+03  0.79293702906E+03  0.50400001928E-02 0.  1.
        1   -1    0    0  501    0  0.00000000000E+00  0.00000000000E+00 -0.16718651850E+04  0.16718651850E+04  0.50400001928E-02 0. -1.
    10030    2    1    2    0    0  0.00000000000E+00  0.00000000000E+00 -0.87892815593E+03  0.24648022140E+04  0.23027668686E+04 0.  0.
        4    1    3    3  502    0 -0.71649953405E+03  0.16685730879E+03  0.50856152656E+03  0.89434298957E+03  0.12699999809E+01 0. -1.
       -4    1    3    3    0  502  0.71649953405E+03 -0.16685730879E+03 -0.13874896825E+04  0.15704592245E+04  0.12699999809E+01 0.  1.
</event>
<event>
 5   0  0.4505107E-05  0.2262990E+04  0.7818609E-02  0.8492658E-01
        2   -1    0    0  501    0  0.00000000000E+00  0.00000000000E+00  0.22000417195E+04  0.22000417195E+04  0.25500000920E-02 0.  1.
       -2   -1    0    0    0  501  0.00000000000E+00  0.00000000000E+00 -0.58193495389E+03  0.58193495389E+03  0.25500000920E-02 0. -1.
    10030    2    1    2    0    0  0.00000000000E+00  0.00000000000E+00  0.16181067656E+04  0.27819766734E+04  0.22629902135E+04 0.  0.
        4    1    3    3  502    0  0.55365005609E+03  0.61885030444E+03 -0.13583832805E+03  0.84140225111E+03  0.12699999809E+01 0. -1.
       -4    1    3    3    0  502 -0.55365005609E+03 -0.61885030444E+03  0.17539450937E+04  0.19405744223E+04  0.12699999809E+01 0.  1.
</event>
<event>
 5   0  0.4602447E-05  0.2171053E+04  0.7818609E-02  0.8530574E-01
       -2   -1    0    0    0  501  0.00000000000E+00  0.00000000000E+00  0.12577916148E+04  0.12577916148E+04  0.25500000920E-02 0. -1.
        2   -1    0    0  501    0  0.00000000000E+00  0.00000000000E+00 -0.93685461879E+03  0.93685461880E+03  0.25500000920E-02 0.  1.
    10030    2    1    2    0    0  0.00000000000E+00  0.00000000000E+00  0.32093699602E+03  0.21946462336E+04  0.21710530936E+04 0.  0.
        3    1    3    3  502    0  0.63154560622E+03  0.84056020589E+03  0.43354590913E+03  0.11372569534E+04  0.10100000352E+00 0. -1.
       -3    1    3    3    0  502 -0.63154560622E+03 -0.84056020589E+03 -0.11260891311E+03  0.10573892802E+04  0.10100000352E+00 0.  1.
</event>
<event>
 5   0  0.2043885E-05  0.2315558E+04  0.7818609E-02  0.8471812E-01
        1   -1    0    0  501    0  0.00000000000E+00  0.00000000000E+00  0.13053492397E+04  0.13053492397E+04  0.50400001928E-02 0.  1.
       -1   -1    0    0    0  501  0.00000000000E+00  0.00000000000E+00 -0.10268917622E+04  0.10268917622E+04  0.50400001928E-02 0. -1.
    10030    2    1    2    0    0  0.00000000000E+00  0.00000000000E+00  0.27845747757E+03  0.23322410019E+04  0.23155581453E+04 0.  0.
        5    1    3    3  502    0 -0.58408822872E+02 -0.12382616920E+03 -0.10187000298E+04  0.10278698125E+04  0.46999998093E+01 0. -1.
       -5    1    3    3    0  502  0.58408822872E+02  0.12382616920E+03  0.12971575074E+04  0.13043711894E+04  0.46999998093E+01 0.  1.
</event>
<event>
 5   0  0.4798609E-05  0.2329186E+04  0.7818609E-02  0.8466502E-01
        2   -1    0    0  501    0  0.00000000000E+00  0.00000000000E+00  0.84571973318E+03  0.84571973319E+03  0.25500000920E-02 0.  1.
       -2   -1    0    0    0  501  0.00000000000E+00  0.00000000000E+00 -0.16036950413E+04  0.16036950413E+04  0.25500000920E-02 0. -1.
    10030    2    1    2    0    0  0.00000000000E+00  0.00000000000E+00 -0.75797530815E+03  0.24494147745E+04  0.23291857311E+04 0.  0.
        2    1    3    3  502    0  0.44431728204E+03  0.43581127189E+03  0.65616355314E+03  0.90437819539E+03  0.25500000920E-02 0.  1.
       -2    1    3    3    0  502 -0.44431728204E+03 -0.43581127189E+03 -0.14141388613E+04  0.15450365791E+04  0.25500000920E-02 0. -1.
</event>
<event>
 5   0  0.1604500E-05  0.2343708E+04  0.7818609E-02  0.8460884E-01
       -3   -1    0    0    0  501  0.00000000000E+00  0.00000000000E+00  0.11187957525E+04  0.11187957570E+04  0.10100000352E+00 0.  1.
        3   -1    0    0  501    0  0.00000000000E+00  0.00000000000E+00 -0.12274290091E+04  0.12274290132E+04  0.10100000352E+00 0. -1.
    10030    2    1    2    0    0  0.00000000000E+00  0.00000000000E+00 -0.10863325657E+03  0.23462247703E+04  0.23437084904E+04 0.  0.
        2    1    3    3  502    0 -0.32866835009E+02  0.75295843330E+03  0.84398492433E+03  0.11315198556E+04  0.25500000920E-02 0.  1.
       -2    1    3    3    0  502  0.32866835009E+02 -0.75295843330E+03 -0.95261818089E+03  0.12147049147E+04  0.25500000920E-02 0. -1.
</event>
<event>
 5   0  0.4798609E-05  0.2356290E+04  0.7818609E-02  0.8456051E-01
       -2   -1    0    0    0  501  0.00000000000E+00  0.00000000000E+00  0.71282215484E+03  0.71282215485E+03  0.25500000920E-02 0. -1.
        2   -1    0    0  501    0  0.00000000000E+00  0.00000000000E+00 -0.19472263525E+04  0.19472263525E+04  0.25500000920E-02 0.  1.
    10030    2    1    2    0    0  0.00000000000E+00  0.00000000000E+00 -0.12344041976E+04  0.26600485073E+04  0.23562903765E+04 0.  0.
        2    1    3    3  502    0 -0.29380678593E+03  0.91069074690E+03 -0.13930755246E+04  0.16900708509E+04  0.25500000920E-02 0.  1.
       -2    1    3    3    0  502  0.29380678593E+03 -0.91069074690E+03  0.15867132693E+03  0.96997765642E+03  0.25500000920E-02 0. -1.
</event>
<event>
 5   0  0.1968318E-05  0.2328066E+04  0.7818609E-02  0.8466937E-01
        1   -1    0    0  501    0  0.00000000000E+00  0.00000000000E+00  0.13755858809E+04  0.13755858809E+04  0.50400001928E-02 0.  1.
       -1   -1    0    0    0  501  0.00000000000E+00  0.00000000000E+00 -0.98501522935E+03  0.98501522937E+03  0.50400001928E-02 0. -1.
    10030    2    1    2    0    0  0.00000000000E+00  0.00000000000E+00  0.39057065153E+03  0.23606011103E+04  0.23280661863E+04 0.  0.
        3    1    3    3  502    0 -0.34274808915E+03 -0.29120954756E+03  0.12839252531E+04  0.13604202729E+04  0.10100000352E+00 0.  1.
       -3    1    3    3    0  502  0.34274808915E+03  0.29120954756E+03 -0.89335460153E+03  0.10001808374E+04  0.10100000352E+00 0. -1.
</event>
<event>
 5   0  0.4602447E-05  0.2288370E+04  0.7818609E-02  0.8482521E-01
        2   -1    0    0  501    0  0.00000000000E+00  0.00000000000E+00  0.10821613992E+04  0.10821613992E+04  0.25500000920E-02 0.  1.
       -2   -1    0    0    0  501  0.00000000000E+00  0.00000000000E+00 -0.12097636397E+04  0.12097636397E+04  0.25500000920E-02 0. -1.
    10030    2    1    2    0    0  0.00000000000E+00  0.00000000000E+00 -0.12760224048E+03  0.22919250390E+04  0.22883701738E+04 0.  0.
        3    1    3    3  502    0 -0.80621116201E+03  0.20075765271E+03 -0.85171210388E+03  0.11898292276E+04  0.10100000352E+00 0. -1.
       -3    1    3    3    0  502  0.80621116201E+03 -0.20075765271E+03  0.72410986340E+03  0.11020958113E+04  0.10100000352E+00 0.  1.
</event>
<event>
 5   0  0.2031860E-05  0.2330976E+04  0.7818609E-02  0.8465807E-01
       -1   -1    0    0    0  501  0.00000000000E+00  0.00000000000E+00  0.93506366018E+03  0.93506366019E+03  0.50400001928E-02 0. -1.
        1   -1    0    0  501    0  0.00000000000E+00  0.00000000000E+00 -0.14526946429E+04  0.14526946429E+04  0.50400001928E-02 0.  1.
    10030    2    1    2    0    0  0.00000000000E+00  0.00000000000E+00 -0.51763098269E+03  0.23877583031E+04  0.23309757355E+04 0.  0.
        4    1    3    3  502    0 -0.37211351523E+03 -0.46202156188E+03  0.76883150954E+03  0.97110035259E+03  0.12699999809E+01 0. -1.
       -4    1    3    3    0  502  0.37211351523E+03  0.46202156188E+03 -0.12864624922E+04  0.14166579505E+04  0.12699999809E+01 0.  1.
</event>
<event>
 5   0  0.2085063E-05  0.2303859E+04  0.7818609E-02  0.8476401E-01
        1   -1    0    0  501    0  0.00000000000E+00  0.00000000000E+00  0.10871648664E+04  0.10871648664E+04  0.50400001928E-02 0. -1.
       -1   -1    0    0    0  501  0.00000000000E+00  0.00000000000E+00 -0.12205526030E+04  0.12205526030E+04  0.50400001928E-02 0.  1.
    10030    2    1    2    0    0  0.00000000000E+00  0.00000000000E+00 -0.13338773666E+03  0.23077174694E+04  0.23038592905E+04 0.  0.
        1    1    3    3  502    0  0.76690745333E+03  0.79230365108E+03  0.26710553637E+03  0.11345648880E+04  0.50400001928E-02 0. -1.
       -1    1    3    3    0  502 -0.76690745333E+03 -0.79230365108E+03 -0.40049327304E+03  0.11731525814E+04  0.50400001928E-02 0.  1.
</event>
<event>
 5   0  0.4798609E-05  0.2288645E+04  0.7818609E-02  0.8482412E-01
       -2   -1    0    0    0  501  0.00000000000E+00  0.00000000000E+00  0.93499751926E+03  0.93499751927E+03  0.25500000920E-02 0. -1.
        2   -1    0    0  501    0  0.00000000000E+00  0.00000000000E+00 -0.14005103844E+04  0.14005103844E+04  0.25500000920E-02 0.  1.
    10030    2    1    2    0    0  0.00000000000E+00  0.00000000000E+00 -0.46551286512E+03  0.23355079037E+04  0.22886447825E+04 0.  0.
        2    1    3    3  502    0  0.30098192948E+03  0.68054826904E+03  0.65437605528E+03  0.99093092095E+03  0.25500000920E-02 0. -1.
       -2    1    3    3    0  502 -0.30098192948E+03 -0.68054826904E+03 -0.11198889204E+04  0.13445769827E+04  0.25500000920E-02 0.  1.
</event>
<event>
 5   0  0.1968318E-05  0.2320088E+04  0.7818609E-02  0.8470043E-01
        1   -1    0    0  501    0  0.00000000000E+00  0.00000000000E+00  0.22441020307E+04  0.22441020307E+04  0.50400001928E-02 0. -1.
       -1   -1    0    0    0  501  0.00000000000E+00  0.00000000000E+00 -0.59966164340E+03  0.59966164342E+03  0.50400001928E-02 0.  1.
    10030    2    1    2    0    0  0.00000000000E+00  0.00000000000E+00  0.16444403873E+04  0.28437636741E+04  0.23200878533E+04 0.  0.
        3    1    3    3  502    0 -0.96689400686E+03  0.50444971129E+03  0.13068786007E+04  0.17021413628E+04  0.10100000352E+00 0.  1.
       -3    1    3    3    0  502  0.96689400686E+03 -0.50444971129E+03  0.33756178657E+03  0.11416223113E+04  0.10100000352E+00 0. -1.
</event>
<event>
 5   0  0.4505107E-05  0.2355025E+04  0.7818609E-02  0.8456536E-01
       -2   -1    0    0    0  501  0.00000000000E+00  0.00000000000E+00  0.11207215456E+04  0.11207215456E+04  0.25500000920E-02 0.  1.
        2   -1    0    0  501    0  0.00000000000E+00  0.00000000000E+00 -0.12371814205E+04  0.12371814205E+04  0.25500000920E-02 0. -1.
    10030    2    1    2    0    0  0.00000000000E+00  0.00000000000E+00 -0.11645987493E+03  0.23579029660E+04  0.23550251580E+04 0.  0.
        4    1    3    3  502    0  0.59766941079E+03 -0.17026887416E+03 -0.10596191371E+04  0.12284113898E+04  0.12699999809E+01 0. -1.
       -4    1    3    3    0  502 -0.59766941079E+03  0.17026887416E+03  0.94315926214E+03  0.11294915762E+04  0.12699999809E+01 0.  1.
</event>
<event>
 5   0  0.4602447E-05  0.2304061E+04  0.7818609E-02  0.8476322E-01
        2   -1    0    0  501    0  0.00000000000E+00  0.00000000000E+00  0.13531722129E+04  0.13531722129E+04  0.25500000920E-02 0.  1.
       -2   -1    0    0    0  501  0.00000000000E+00  0.00000000000E+00 -0.98078725929E+03  0.98078725930E+03  0.25500000920E-02 0. -1.
    10030    2    1    2    0    0  0.00000000000E+00  0.00000000000E+00  0.37238495360E+03  0.23339594722E+04  0.23040608204E+04 0.  0.
        3    1    3    3  502    0  0.10803214398E+03 -0.69692008489E+03 -0.73656490446E+03  0.10197531160E+04  0.10100000352E+00 0.  1.
       -3    1    3    3    0  502 -0.10803214398E+03  0.69692008489E+03  0.11089498581E+04  0.13142063562E+04  0.10100000352E+00 0. -1.
</event>
<event>
 5   0  0.4436695E-05  0.2364566E+04  0.7818609E-02  0.8452890E-01
        2   -1    0    0  501    0  0.00000000000E+00  0.00000000000E+00  0.16639892597E+04  0.16639892597E+04  0.25500000920E-02 0.  1.
       -2   -1    0    0    0  501  0.00000000000E+00  0.00000000000E+00 -0.84002521667E+03  0.84002521667E+03  0.25500000920E-02 0. -1.
    10030    2    1    2    0    0  0.00000000000E+00  0.00000000000E+00  0.82396404300E+03  0.25040144763E+04  0.23645658700E+04 0.  0.
        5    1    3    3  502    0 -0.39431025409E+03 -0.94786951594E+03 -0.20897223592E+03  0.10476777563E+04  0.46999998093E+01 0. -1.
       -5    1    3    3    0  502  0.39431025409E+03  0.94786951594E+03  0.10329362789E+04  0.14563367200E+04  0.46999998093E+01 0.  1.
</event>
<event>
 5   0  0.2031860E-05  0.2172539E+04  0.7818609E-02  0.8529946E-01
        1   -1    0    0  501    0  0.00000000000E+00  0.00000000000E+00  0.22008013428E+04  0.22008013428E+04  0.50400001928E-02 0.  1.
       -1   -1    0    0    0  501  0.00000000000E+00  0.00000000000E+00 -0.53615973702E+03  0.53615973704E+03  0.50400001928E-02 0. -1.
    10030    2    1    2    0    0  0.00000000000E+00  0.00000000000E+00  0.16646416058E+04  0.27369610799E+04  0.21725386710E+04 0.  0.
        4    1    3    3  502    0 -0.29819239220E+03 -0.66440133723E+03  0.18477150131E+04  0.19860514148E+04  0.12699999809E+01 0.  1.
       -4    1    3    3    0  502  0.29819239220E+03  0.66440133723E+03 -0.18307340733E+03  0.75090966504E+03  0.12699999809E+01 0. -1.
</event>
<event>
 5   0  0.1968318E-05  0.2254719E+04  0.7818609E-02  0.8495992E-01
        1   -1    0    0  501    0  0.00000000000E+00  0.00000000000E+00  0.10316054040E+04  0.10316054040E+04  0.50400001928E-02 0. -1.
       -1   -1    0    0    0  501  0.00000000000E+00  0.00000000000E+00 -0.12320020329E+04  0.12320020329E+04  0.50400001928E-02 0.  1.
    10030    2    1    2    0    0  0.00000000000E+00  0.00000000000E+00 -0.20039662890E+03  0.22636074369E+04  0.22547194548E+04 0.  0.
        3    1    3    3  502    0 -0.89168408729E+03 -0.66108929239E+02 -0.78954103018E+03  0.11928310654E+04  0.10100000352E+00 0.  1.
       -3    1    3    3    0  502  0.89168408729E+03  0.66108929239E+02  0.58914440128E+03  0.10707763715E+04  0.10100000352E+00 0. -1.
</event>
<event>
 5   0  0.2043885E-05  0.2295642E+04  0.7818609E-02  0.8479641E-01
       -1   -1    0    0    0  501  0.00000000000E+00  0.00000000000E+00  0.94272893279E+03  0.94272893280E+03  0.50400001928E-02 0.  1.
        1   -1    0    0  501    0  0.00000000000E+00  0.00000000000E+00 -0.13975310709E+04  0.13975310709E+04  0.50400001928E-02 0. -1.
    10030    2    1    2    0    0  0.00000000000E+00  0.00000000000E+00 -0.45480213808E+03  0.23402600037E+04  0.22956419364E+04 0.  0.
        5    1    3    3  502    0  0.97417612747E+03 -0.21414716594E+03  0.35161052664E+03  0.10576058758E+04  0.46999998093E+01 0. -1.
       -5    1    3    3    0  502 -0.97417612747E+03  0.21414716594E+03 -0.80641266472E+03  0.12826541279E+04  0.46999998093E+01 0.  1.
</event>
<event>
 5   0  0.4505107E-05  0.2308663E+04  0.7818609E-02  0.8474513E-01
       -2   -1    0    0    0  501  0.00000000000E+00  0.00000000000E+00  0.58447334475E+03  0.58447334475E+03  0.25500000920E-02 0.  1.
        2   -1    0    0  501    0  0.00000000000E+00  0.00000000000E+00 -0.22797974979E+04  0.22797974979E+04  0.25500000920E-02 0. -1.
    10030    2    1    2    0    0  0.00000000000E+00  0.00000000000E+00 -0.16953241531E+04  0.28642708427E+04  0.23086627029E+04 0.  0.
        4    1    3    3  502    0 -0.84438371401E+03 -0.27904661438E+03 -0.17607325605E+04  0.19725698041E+04  0.12699999809E+01 0. -1.
       -4    1    3    3    0  502  0.84438371401E+03  0.27904661438E+03  0.65408407384E+02  0.89170103854E+03  0.12699999809E+01 0.  1.
</event>
<event>
 5   0  0.4605516E-05  0.2314757E+04  0.7818609E-02  0.8472125E-01
       -2   -1    0    0    0  501  0.00000000000E+00  0.00000000000E+00  0.94323269801E+03  0.94323269801E+03  0.25500000920E-02 0.  1.
        2   -1    0    0  501    0  0.00000000000E+00  0.00000000000E+00 -0.14201431153E+04  0.14201431153E+04  0.25500000920E-02 0. -1.
    10030    2    1    2    0    0  0.00000000000E+00  0.00000000000E+00 -0.47691041725E+03  0.23633758133E+04  0.23147573714E+04 0.  0.
        1    1    3    3  502    0  0.11100382516E+03 -0.80096153605E+03  0.60698528509E+03  0.10110847481E+04  0.50400001928E-02 0.  1.
       -1    1    3    3    0  502 -0.11100382516E+03  0.80096153605E+03 -0.10838957023E+04  0.13522910652E+04  0.50400001928E-02 0. -1.
</event>
<event>
 5   0  0.4436695E-05  0.2238873E+04  0.7818609E-02  0.8502420E-01
        2   -1    0    0  501    0  0.00000000000E+00  0.00000000000E+00  0.13333376313E+04  0.13333376313E+04  0.25500000920E-02 0. -1.
       -2   -1    0    0    0  501  0.00000000000E+00  0.00000000000E+00 -0.93985031947E+03  0.93985031948E+03  0.25500000920E-02 0.  1.
    10030    2    1    2    0    0  0.00000000000E+00  0.00000000000E+00  0.39348731181E+03  0.22731879508E+04  0.22388727509E+04 0.  0.
        5    1    3    3  502    0 -0.70774883995E+03  0.70300897896E+02  0.10744379528E+04  0.12885222703E+04  0.46999998093E+01 0. -1.
       -5    1    3    3    0  502  0.70774883995E+03 -0.70300897896E+02 -0.68095064101E+03  0.98466568042E+03  0.46999998093E+01 0.  1.
</event>
<event>
 5   0  0.4505107E-05  0.2136933E+04  0.7818609E-02  0.8545146E-01
        2   -1    0    0  501    0  0.00000000000E+00  0.00000000000E+00  0.21663480744E+04  0.21663480744E+04  0.25500000920E-02 0. -1.
       -2   -1    0    0    0  501  0.00000000000E+00  0.00000000000E+00 -0.52697936952E+03  0.52697936952E+03  0.25500000920E-02 0.  1.
    10030    2    1    2    0    0  0.00000000000E+00  0.00000000000E+00  0.16393687049E+04  0.26933274439E+04  0.21369330756E+04 0.  0.
        4    1    3    3  502    0 -0.42351519614E+03 -0.30128122859E+03 -0.35691295976E+03  0.63049502282E+03  0.12699999809E+01 0.  1.
       -4    1    3    3    0  502  0.42351519614E+03  0.30128122859E+03  0.19962816647E+04  0.20628324211E+04  0.12699999809E+01 0. -1.
</event>
<event>
 5   0  0.4798609E-05  0.2316967E+04  0.7818609E-02  0.8471261E-01
       -2   -1    0    0    0  501  0.00000000000E+00  0.00000000000E+00  0.72081036254E+03  0.72081036254E+03  0.25500000920E-02 0.  1.
        2   -1    0    0  501    0  0.00000000000E+00  0.00000000000E+00 -0.18619097887E+04  0.18619097887E+04  0.25500000920E-02 0. -1.
    10030    2    1    2    0    0  0.00000000000E+00  0.00000000000E+00 -0.11410994262E+04  0.25827201513E+04  0.23169668706E+04 0.  0.
        2    1    3    3  502    0  0.12961303589E+03 -0.27041428161E+03 -0.18178973761E+04  0.18424641903E+04  0.25500000920E-02 0. -1.
       -2    1    3    3    0  502 -0.12961303589E+03  0.27041428161E+03  0.67679794986E+03  0.74025596095E+03  0.25500000920E-02 0.  1.
</event>
<event>
 5   0  0.4436695E-05  0.2312385E+04  0.7818609E-02  0.8473054E-01
        2   -1    0    0  501    0  0.00000000000E+00  0.00000000000E+00  0.22728625947E+04  0.22728625947E+04  0.25500000920E-02 0.  1.
       -2   -1    0    0    0  501  0.00000000000E+00  0.00000000000E+00 -0.58814874371E+03  0.58814874372E+03  0.25500000920E-02 0. -1.
    10030    2    1    2    0    0  0.00000000000E+00  0.00000000000E+00  0.16847138510E+04  0.28610113384E+04  0.23123851580E+04 0.  0.
        5    1    3    3  502    0  0.58901528689E+03  0.44487335061E+02  0.20720675983E+04  0.21546239470E+04  0.46999998093E+01 0.  1.
       -5    1    3    3    0  502 -0.58901528689E+03 -0.44487335061E+02 -0.38735374731E+03  0.70638739139E+03  0.46999998093E+01 0. -1.
</event>
<event>
 5   0  0.4436695E-05  0.2297135E+04  0.7818609E-02  0.8479052E-01
       -2   -1    0    0    0  501  0.00000000000E+00  0.00000000000E+00  0.73620046212E+03  0.73620046212E+03  0.25500000920E-02 0.  1.
        2   -1    0    0  501    0  0.00000000000E+00  0.00000000000E+00 -0.17919134813E+04  0.17919134813E+04  0.25500000920E-02 0. -1.
    10030    2    1    2    0    0  0.00000000000E+00  0.00000000000E+00 -0.10557130192E+04  0.25281139434E+04  0.22971352011E+04 0.  0.
        5    1    3    3  502    0  0.94645586781E+03  0.24218816039E+03  0.13681751456E+03  0.98649629347E+03  0.46999998093E+01 0.  1.
       -5    1    3    3    0  502 -0.94645586781E+03 -0.24218816039E+03 -0.11925305337E+04  0.15416176500E+04  0.46999998093E+01 0. -1.
</event>
<event>
 5   0  0.2042951E-05  0.2292164E+04  0.7818609E-02  0.8481017E-01
       -1   -1    0    0    0  501  0.00000000000E+00  0.00000000000E+00  0.97504450913E+03  0.97504450914E+03  0.50400001928E-02 0.  1.
        1   -1    0    0  501    0  0.00000000000E+00  0.00000000000E+00 -0.13471225970E+04  0.13471225970E+04  0.50400001928E-02 0. -1.
    10030    2    1    2    0    0  0.00000000000E+00  0.00000000000E+00 -0.37207808783E+03  0.23221671061E+04  0.22921644717E+04 0.  0.
        2    1    3    3  502    0 -0.63967960638E+03 -0.57454236329E+03  0.58164969941E+03  0.10380776940E+04  0.25500000920E-02 0.  1.
       -2    1    3    3    0  502  0.63967960638E+03  0.57454236329E+03 -0.95372778725E+03  0.12840894121E+04  0.25500000920E-02 0. -1.
</event>
<event>
 5   0  0.2042951E-05  0.2304593E+04  0.7818609E-02  0.8476112E-01
        1   -1    0    0  501    0  0.00000000000E+00  0.00000000000E+00  0.12071849591E+04  0.12071849591E+04  0.50400001928E-02 0. -1.
       -1   -1    0    0    0  501  0.00000000000E+00  0.00000000000E+00 -0.10999036273E+04  0.10999036273E+04  0.50400001928E-02 0.  1.
    10030    2    1    2    0    0  0.00000000000E+00  0.00000000000E+00  0.10728133179E+03  0.23070885864E+04  0.23045929058E+04 0.  0.
        2    1    3    3  502    0 -0.36031779678E+03 -0.67158420139E+03  0.91882935527E+03  0.11937762095E+04  0.25500000920E-02 0. -1.
       -2    1    3    3    0  502  0.36031779678E+03  0.67158420139E+03 -0.81154802348E+03  0.11133123769E+04  0.25500000920E-02 0.  1.
</event>
<event>
 5   0  0.1604500E-05  0.2296991E+04  0.7818609E-02  0.8479108E-01
       -4   -1    0    0    0  501  0.00000000000E+00  0.00000000000E+00  0.10782525577E+04  0.10782533056E+04  0.12699999809E+01 0. -1.
        4   -1    0    0  501    0  0.00000000000E+00  0.00000000000E+00 -0.12233129531E+04  0.12233136124E+04  0.12699999809E+01 0.  1.
    10030    2    1    2    0    0  0.00000000000E+00  0.00000000000E+00 -0.14506039546E+03  0.23015669180E+04  0.22969910230E+04 0.  0.
        5    1    3    3  502    0  0.86071889514E+03  0.13150530422E+03 -0.82294750693E+03  0.11980798599E+04  0.46999998093E+01 0.  1.
       -5    1    3    3    0  502 -0.86071889514E+03 -0.13150530422E+03  0.67788711146E+03  0.11034870581E+04  0.46999998093E+01 0. -1.
</event>
<event>
 5   0  0.2043885E-05  0.2291614E+04  0.7818609E-02  0.8481235E-01
       -1   -1    0    0    0  501  0.00000000000E+00  0.00000000000E+00  0.14726887266E+04  0.14726887266E+04  0.50400001928E-02 0.  1.
        1   -1    0    0  501    0  0.00000000000E+00  0.00000000000E+00 -0.89148045622E+03  0.89148045623E+03  0.50400001928E-02 0. -1.
    10030    2    1    2    0    0  0.00000000000E+00  0.00000000000E+00  0.58120827034E+03  0.23641691828E+04  0.22916135956E+04 0.  0.
        5    1    3    3  502    0  0.24968060273E+02 -0.28349121637E+03  0.14356369118E+04  0.14635798940E+04  0.46999998093E+01 0.  1.
       -5    1    3    3    0  502 -0.24968060273E+02  0.28349121637E+03 -0.85442864141E+03  0.90058928878E+03  0.46999998093E+01 0. -1.
</event>
<event>
 5   0  0.4602447E-05  0.2291586E+04  0.7818609E-02  0.8481246E-01
       -2   -1    0    0    0  501  0.00000000000E+00  0.00000000000E+00  0.69168574525E+03  0.69168574525E+03  0.25500000920E-02 0. -1.
        2   -1    0    0  501    0  0.00000000000E+00  0.00000000000E+00 -0.18980324719E+04  0.18980324719E+04  0.25500000920E-02 0.  1.
    10030    2    1    2    0    0  0.00000000000E+00  0.00000000000E+00 -0.12063467266E+04  0.25897182171E+04  0.22915863543E+04 0.  0.
        3    1    3    3  502    0  0.79680160563E+03  0.32772279168E+03 -0.14567882592E+04  0.16924913794E+04  0.10100000352E+00 0.  1.
       -3    1    3    3    0  502 -0.79680160563E+03 -0.32772279168E+03  0.25044153258E+03  0.89722683774E+03  0.10100000352E+00 0. -1.
</event>
<event>
 5   0  0.2085063E-05  0.2293101E+04  0.7818609E-02  0.8480646E-01
        1   -1    0    0  501    0  0.00000000000E+00  0.00000000000E+00  0.10236010512E+04  0.10236010512E+04  0.50400001928E-02 0. -1.
       -1   -1    0    0    0  501  0.00000000000E+00  0.00000000000E+00 -0.12842676264E+04  0.12842676264E+04  0.50400001928E-02 0.  1.
    10030    2    1    2    0    0  0.00000000000E+00  0.00000000000E+00 -0.26066657521E+03  0.23078686775E+04  0.22931006889E+04 0.  0.
        1    1    3    3  502    0 -0.91280776219E+03 -0.35933251244E+03  0.46698690681E+03  0.10864688842E+04  0.50400001928E-02 0. -1.
       -1    1    3    3    0  502  0.91280776219E+03  0.35933251244E+03 -0.72765348202E+03  0.12213997933E+04  0.50400001928E-02 0.  1.
</event>
<event>
 5   0  0.2042951E-05  0.2288774E+04  0.7818609E-02  0.8482360E-01
        1   -1    0    0  501    0  0.00000000000E+00  0.00000000000E+00  0.18831949766E+04  0.18831949766E+04  0.50400001928E-02 0. -1.
       -1   -1    0    0    0  501  0.00000000000E+00  0.00000000000E+00 -0.69542562374E+03  0.69542562375E+03  0.50400001928E-02 0.  1.
    10030    2    1    2    0    0  0.00000000000E+00  0.00000000000E+00  0.11877693529E+04  0.25786206004E+04  0.22887743805E+04 0.  0.
        2    1    3    3  502    0 -0.96130078798E+02 -0.52302539999E+03 -0.54776480259E+03  0.76344144506E+03  0.25500000920E-02 0.  1.
       -2    1    3    3    0  502  0.96130078798E+02  0.52302539999E+03  0.17355341554E+04  0.18151791553E+04  0.25500000920E-02 0. -1.
</event>
<event>
 5   0  0.2043885E-05  0.2321586E+04  0.7818609E-02  0.8469458E-01
       -1   -1    0    0    0  501  0.00000000000E+00  0.00000000000E+00  0.91926780607E+03  0.91926780609E+03  0.50400001928E-02 0. -1.
        1   -1    0    0  501    0  0.00000000000E+00  0.00000000000E+00 -0.14657753174E+04  0.14657753174E+04  0.50400001928E-02 0.  1.
    10030    2    1    2    0    0  0.00000000000E+00  0.00000000000E+00 -0.54650751133E+03  0.23850431235E+04  0.23215857169E+04 0.  0.
        5    1    3    3  502    0  0.78379746910E+03  0.72882919060E+03  0.18834670864E+03  0.10867506772E+04  0.46999998093E+01 0. -1.
       -5    1    3    3    0  502 -0.78379746910E+03 -0.72882919060E+03 -0.73485421998E+03  0.12982924463E+04  0.46999998093E+01 0.  1.
</event>
<event>
 5   0  0.4798609E-05  0.2315175E+04  0.7818609E-02  0.8471962E-01
       -2   -1    0    0    0  501  0.00000000000E+00  0.00000000000E+00  0.78623468794E+03  0.78623468794E+03  0.25500000920E-02 0. -1.
        2   -1    0    0  501    0  0.00000000000E+00  0.00000000000E+00 -0.17043368673E+04  0.17043368673E+04  0.25500000920E-02 0.  1.
    10030    2    1    2    0    0  0.00000000000E+00  0.00000000000E+00 -0.91810217938E+03  0.24905715553E+04  0.23151749524E+04 0.  0.
        2    1    3    3  502    0  0.21234107678E+03 -0.10325829333E+04  0.55396559063E+02  0.10556443652E+04  0.25500000920E-02 0. -1.
       -2    1    3    3    0  502 -0.21234107678E+03  0.10325829333E+04 -0.97349873844E+03  0.14349271901E+04  0.25500000920E-02 0.  1.
</event>
<event>
 5   0  0.4505107E-05  0.2400543E+04  0.7818609E-02  0.8439300E-01
       -2   -1    0    0    0  501  0.00000000000E+00  0.00000000000E+00  0.97476243076E+03  0.97476243076E+03  0.25500000920E-02 0.  1.
        2   -1    0    0  501    0  0.00000000000E+00  0.00000000000E+00 -0.14779510380E+04  0.14779510380E+04  0.25500000920E-02 0. -1.
    10030    2    1    2    0    0  0.00000000000E+00  0.00000000000E+00 -0.50318860728E+03  0.24527134688E+04  0.24005425607E+04 0.  0.
        4    1    3    3  502    0 -0.36349752710E+03 -0.42803431617E+03 -0.13354529990E+04  0.14487167264E+04  0.12699999809E+01 0. -1.
       -4    1    3    3    0  502  0.36349752710E+03  0.42803431617E+03  0.83226439172E+03  0.10039967424E+04  0.12699999809E+01 0.  1.
</event>
<event>
 5   0  0.1968318E-05  0.2306679E+04  0.7818609E-02  0.8475292E-01
       -1   -1    0    0    0  501  0.00000000000E+00  0.00000000000E+00  0.74336409122E+03  0.74336409124E+03  0.50400001928E-02 0. -1.
        1   -1    0    0  501    0  0.00000000000E+00  0.00000000000E+00 -0.17894217177E+04  0.17894217177E+04  0.50400001928E-02 0.  1.
    10030    2    1    2    0    0  0.00000000000E+00  0.00000000000E+00 -0.10460576264E+04  0.25327858089E+04  0.23066788671E+04 0.  0.
        3    1    3    3  502    0  0.24114265186E+03 -0.16445832935E+03  0.70213799177E+03  0.76039074845E+03  0.10100000352E+00 0. -1.
       -3    1    3    3    0  502 -0.24114265186E+03  0.16445832935E+03 -0.17481956182E+04  0.17723950605E+04  0.10100000352E+00 0.  1.
</event>
<event>
 5   0  0.4798609E-05  0.2286772E+04  0.7818609E-02  0.8483155E-01
       -2   -1    0    0    0  501  0.00000000000E+00  0.00000000000E+00  0.61561205556E+03  0.61561205557E+03  0.25500000920E-02 0.  1.
        2   -1    0    0  501    0  0.00000000000E+00  0.00000000000E+00 -0.21236293107E+04  0.21236293107E+04  0.25500000920E-02 0. -1.
    10030    2    1    2    0    0  0.00000000000E+00  0.00000000000E+00 -0.15080172551E+04  0.27392413663E+04  0.22867722276E+04 0.  0.
        2    1    3    3  502    0 -0.61824852066E+03 -0.86349915555E+03 -0.24654717542E+03  0.10902511337E+04  0.25500000920E-02 0.  1.
       -2    1    3    3    0  502  0.61824852066E+03  0.86349915555E+03 -0.12614700797E+04  0.16489902325E+04  0.25500000920E-02 0. -1.
</event>
<event>
 5   0  0.2043885E-05  0.2306885E+04  0.7818609E-02  0.8475211E-01
        1   -1    0    0  501    0  0.00000000000E+00  0.00000000000E+00  0.15757786730E+04  0.15757786730E+04  0.50400001928E-02 0.  1.
       -1   -1    0    0    0  501  0.00000000000E+00  0.00000000000E+00 -0.84429983876E+03  0.84429983877E+03  0.50400001928E-02 0. -1.
    10030    2    1    2    0    0  0.00000000000E+00  0.00000000000E+00  0.73147883422E+03  0.24200785118E+04  0.23068850683E+04 0.  0.
        5    1    3    3  502    0 -0.20369302271E+03 -0.11065046398E+04  0.99176663685E+02  0.11294695507E+04  0.46999998093E+01 0. -1.
       -5    1    3    3    0  502  0.20369302271E+03  0.11065046398E+04  0.63230217054E+03  0.12906089610E+04  0.46999998093E+01 0.  1.
</event>
<event>
 5   0  0.2031860E-05  0.2322779E+04  0.7818609E-02  0.8468994E-01
       -1   -1    0    0    0  501  0.00000000000E+00  0.00000000000E+00  0.74421314368E+03  0.74421314370E+03  0.50400001928E-02 0. -1.
        1   -1    0    0  501    0  0.00000000000E+00  0.00000000000E+00 -0.18124177251E+04  0.18124177251E+04  0.50400001928E-02 0.  1.
    10030    2    1    2    0    0  0.00000000000E+00  0.00000000000E+00 -0.10682045814E+04  0.25566308688E+04  0.23227785886E+04 0.  0.
        4    1    3    3  502    0 -0.72629679558E+03 -0.26477032943E+03  0.41988325741E+03  0.87972377788E+03  0.12699999809E+01 0. -1.
       -4    1    3    3    0  502  0.72629679558E+03  0.26477032943E+03 -0.14880878388E+04  0.16769070909E+04  0.12699999809E+01 0.  1.
</event>
<event>
 5   0  0.2042951E-05  0.2258529E+04  0.7818609E-02  0.8494454E-01
        1   -1    0    0  501    0  0.00000000000E+00  0.00000000000E+00  0.11329001004E+04  0.11329001005E+04  0.50400001928E-02 0. -1.
       -1   -1    0    0    0  501  0.00000000000E+00  0.00000000000E+00 -0.11256405471E+04  0.11256405471E+04  0.50400001928E-02 0.  1.
    10030    2    1    2    0    0  0.00000000000E+00  0.00000000000E+00  0.72595533241E+01  0.22585406476E+04  0.22585289805E+04 0.  0.
        2    1    3    3  502    0  0.57982491647E+03  0.59177510287E+03 -0.76373562944E+03  0.11268038063E+04  0.25500000920E-02 0.  1.
       -2    1    3    3    0  502 -0.57982491647E+03 -0.59177510287E+03  0.77099518277E+03  0.11317368413E+04  0.25500000920E-02 0. -1.
</event>
<event>
 5   0  0.2043885E-05  0.2296897E+04  0.7818609E-02  0.8479146E-01
       -1   -1    0    0    0  501  0.00000000000E+00  0.00000000000E+00  0.55837680649E+03  0.55837680651E+03  0.50400001928E-02 0.  1.
        1   -1    0    0  501    0  0.00000000000E+00  0.00000000000E+00 -0.23620848967E+04  0.23620848967E+04  0.50400001928E-02 0. -1.
    10030    2    1    2    0    0  0.00000000000E+00  0.00000000000E+00 -0.18037080902E+04  0.29204617032E+04  0.22968965334E+04 0.  0.
        5    1    3    3  502    0  0.10120273958E+04 -0.54226329246E+02 -0.15886558582E+04  0.18844069281E+04  0.46999998093E+01 0. -1.
       -5    1    3    3    0  502 -0.10120273958E+04  0.54226329246E+02 -0.21505223195E+03  0.10360547751E+04  0.46999998093E+01 0.  1.
</event>
<event>
 5   0  0.2085063E-05  0.2269885E+04  0.7818609E-02  0.8489890E-01
        1   -1    0    0  501    0  0.00000000000E+00  0.00000000000E+00  0.13602251715E+04  0.13602251715E+04  0.50400001928E-02 0. -1.
       -1   -1    0    0    0  501  0.00000000000E+00  0.00000000000E+00 -0.94697185450E+03  0.94697185452E+03  0.50400001928E-02 0.  1.
    10030    2    1    2    0    0  0.00000000000E+00  0.00000000000E+00  0.41325331702E+03  0.23071970260E+04  0.22698854185E+04 0.  0.
        1    1    3    3  502    0  0.29611758371E+03  0.65133150589E+03 -0.68886391969E+03  0.99320282613E+03  0.50400001928E-02 0.  1.
       -1    1    3    3    0  502 -0.29611758371E+03 -0.65133150589E+03  0.11021172367E+04  0.13139941999E+04  0.50400001928E-02 0. -1.
</event>
<event>
 5   0  0.4602447E-05  0.2245267E+04  0.7818609E-02  0.8499820E-01
        2   -1    0    0  501    0  0.00000000000E+00  0.00000000000E+00  0.10282858795E+04  0.10282858795E+04  0.25500000920E-02 0. -1.
       -2   -1    0    0    0  501  0.00000000000E+00  0.00000000000E+00 -0.12256375858E+04  0.12256375858E+04  0.25500000920E-02 0.  1.
    10030    2    1    2    0    0  0.00000000000E+00  0.00000000000E+00 -0.19735170630E+03  0.22539234653E+04  0.22452668642E+04 0.  0.
        3    1    3    3  502    0 -0.22327969084E+03 -0.10821327972E+04  0.10068641365E+03  0.11095057346E+04  0.10100000352E+00 0.  1.
       -3    1    3    3    0  502  0.22327969084E+03  0.10821327972E+04 -0.29803811996E+03  0.11444177306E+04  0.10100000352E+00 0. -1.
</event>
<event>
 5   0  0.4602447E-05  0.2233152E+04  0.7818609E-02  0.8504755E-01
        2   -1    0    0  501    0  0.00000000000E+00  0.00000000000E+00  0.10944404204E+04  0.10944404204E+04  0.25500000920E-02 0.  1.
       -2   -1    0    0    0  501  0.00000000000E+00  0.00000000000E+00 -0.11391597032E+04  0.11391597032E+04  0.25500000920E-02 0. -1.
    10030    2    1    2    0    0  0.00000000000E+00  0.00000000000E+00 -0.44719282720E+02  0.22336001236E+04  0.22331524126E+04 0.  0.
        3    1    3    3  502    0 -0.32439420395E+03  0.10314126065E+04  0.25644137665E+03  0.11112181399E+04  0.10100000352E+00 0.  1.
       -3    1    3    3    0  502  0.32439420395E+03 -0.10314126065E+04 -0.30116065937E+03  0.11223819837E+04  0.10100000352E+00 0. -1.
</event>
<event>
 5   0  0.2043885E-05  0.2301587E+04  0.7818609E-02  0.8477296E-01
        1   -1    0    0  501    0  0.00000000000E+00  0.00000000000E+00  0.23908131303E+04  0.23908131303E+04  0.50400001928E-02 0. -1.
       -1   -1    0    0    0  501  0.00000000000E+00  0.00000000000E+00 -0.55392263744E+03  0.55392263746E+03  0.50400001928E-02 0.  1.
    10030    2    1    2    0    0  0.00000000000E+00  0.00000000000E+00  0.18368904929E+04  0.29447357678E+04  0.23015868568E+04 0.  0.
        5    1    3    3  502    0 -0.70650289830E+03  0.85879251033E+03  0.12971943142E+04  0.17086269634E+04  0.46999998093E+01 0. -1.
       -5    1    3    3    0  502  0.70650289830E+03 -0.85879251033E+03  0.53969617865E+03  0.12361088044E+04  0.46999998093E+01 0.  1.
</event>
<event>
 5   0  0.1968318E-05  0.2279266E+04  0.7818609E-02  0.8486141E-01
       -1   -1    0    0    0  501  0.00000000000E+00  0.00000000000E+00  0.13261053842E+04  0.13261053842E+04  0.50400001928E-02 0. -1.
        1   -1    0    0  501    0  0.00000000000E+00  0.00000000000E+00 -0.97938165528E+03  0.97938165529E+03  0.50400001928E-02 0.  1.
    10030    2    1    2    0    0  0.00000000000E+00  0.00000000000E+00  0.34672372893E+03  0.23054870395E+04  0.22792659224E+04 0.  0.
        3    1    3    3  502    0  0.91338880798E+03 -0.16068530961E+03  0.84329873383E+03  0.12534957710E+04  0.10100000352E+00 0. -1.
       -3    1    3    3    0  502 -0.91338880798E+03  0.16068530961E+03 -0.49657500491E+03  0.10519912685E+04  0.10100000352E+00 0.  1.
</event>
<event>
 5   0  0.1968318E-05  0.2294521E+04  0.7818609E-02  0.8480084E-01
       -1   -1    0    0    0  501  0.00000000000E+00  0.00000000000E+00  0.54365298395E+03  0.54365298397E+03  0.50400001928E-02 0. -1.
        1   -1    0    0  501    0  0.00000000000E+00  0.00000000000E+00 -0.24210425049E+04  0.24210425049E+04  0.50400001928E-02 0.  1.
    10030    2    1    2    0    0  0.00000000000E+00  0.00000000000E+00 -0.18773895209E+04  0.29646954889E+04  0.22945212852E+04 0.  0.
        3    1    3    3  502    0  0.85943944333E+03 -0.19103299270E+03 -0.18891192606E+04  0.20842028097E+04  0.10100000352E+00 0.  1.
       -3    1    3    3    0  502 -0.85943944333E+03  0.19103299270E+03  0.11729739649E+02  0.88049267916E+03  0.10100000352E+00 0. -1.
</event>
<event>
 5   0  0.4798609E-05  0.2298158E+04  0.7818609E-02  0.8478648E-01
       -2   -1    0    0    0  501  0.00000000000E+00  0.00000000000E+00  0.67205808129E+03  0.67205808129E+03  0.25500000920E-02 0. -1.
        2   -1    0    0  501    0  0.00000000000E+00  0.00000000000E+00 -0.19646859973E+04  0.19646859973E+04  0.25500000920E-02 0.  1.
    10030    2    1    2    0    0  0.00000000000E+00  0.00000000000E+00 -0.12926279160E+04  0.26367440786E+04  0.22981584816E+04 0.  0.
        2    1    3    3  502    0  0.76478581557E+03  0.40550073752E+03 -0.15133296142E+04  0.17434146704E+04  0.25500000920E-02 0.  1.
       -2    1    3    3    0  502 -0.76478581557E+03 -0.40550073752E+03  0.22070169823E+03  0.89332940813E+03  0.25500000920E-02 0. -1.
</event>
<event>
 5   0  0.4798609E-05  0.2322701E+04  0.7818609E-02  0.8469024E-01
       -2   -1    0    0    0  501  0.00000000000E+00  0.00000000000E+00  0.12822045208E+04  0.12822045208E+04  0.25500000920E-02 0.  1.
        2   -1    0    0  501    0  0.00000000000E+00  0.00000000000E+00 -0.10518872428E+04  0.10518872428E+04  0.25500000920E-02 0. -1.
    10030    2    1    2    0    0  0.00000000000E+00  0.00000000000E+00  0.23031727804E+03  0.23340917636E+04  0.23227006506E+04 0.  0.
        2    1    3    3  502    0  0.25810112237E+03  0.25354578318E+02  0.12527331279E+04  0.12792964213E+04  0.25500000920E-02 0.  1.
       -2    1    3    3    0  502 -0.25810112237E+03 -0.25354578318E+02 -0.10224158498E+04  0.10547953422E+04  0.25500000920E-02 0. -1.
</event>
<event>
 5   0  0.2031860E-05  0.2263371E+04  0.7818609E-02  0.8492505E-01
        1   -1    0    0  501    0  0.00000000000E+00  0.00000000000E+00  0.65437515612E+03  0.65437515614E+03  0.50400001928E-02 0. -1.
       -1   -1    0    0    0  501  0.00000000000E+00  0.00000000000E+00 -0.19571519899E+04  0.19571519900E+04  0.50400001928E-02 0.  1.
    10030    2    1    2    0    0  0.00000000000E+00  0.00000000000E+00 -0.13027768338E+04  0.26115271461E+04  0.22633706183E+04 0.  0.
        4    1    3    3  502    0  0.67382046599E+03 -0.81724788484E+03 -0.19161975252E+03  0.10764050669E+04  0.12699999809E+01 0.  1.
       -4    1    3    3    0  502 -0.67382046599E+03  0.81724788484E+03 -0.11111570813E+04  0.15351220792E+04  0.12699999809E+01 0. -1.
</event>
<event>
 5   0  0.4605516E-05  0.2330638E+04  0.7818609E-02  0.8465938E-01
       -2   -1    0    0    0  501  0.00000000000E+00  0.00000000000E+00  0.67632679382E+03  0.67632679382E+03  0.25500000920E-02 0. -1.
        2   -1    0    0  501    0  0.00000000000E+00  0.00000000000E+00 -0.20078583625E+04  0.20078583625E+04  0.25500000920E-02 0.  1.
    10030    2    1    2    0    0  0.00000000000E+00  0.00000000000E+00 -0.13315315687E+04  0.26841851563E+04  0.23306380318E+04 0.  0.
        1    1    3    3  502    0 -0.10071534090E+04 -0.68299025676E+02 -0.13362718047E+04  0.16747074617E+04  0.50400001928E-02 0.  1.
       -1    1    3    3    0  502  0.10071534090E+04  0.68299025676E+02  0.47402359686E+01  0.10094776947E+04  0.50400001928E-02 0. -1.
</event>
<event>
 5   0  0.1604500E-05  0.2306126E+04  0.7818609E-02  0.8475510E-01
        3   -1    0    0  501    0  0.00000000000E+00  0.00000000000E+00  0.17339446996E+04  0.17339447025E+04  0.10100000352E+00 0.  1.
       -3   -1    0    0    0  501  0.00000000000E+00  0.00000000000E+00 -0.76677983736E+03  0.76677984401E+03  0.10100000352E+00 0. -1.
    10030    2    1    2    0    0  0.00000000000E+00  0.00000000000E+00  0.96716486221E+03  0.25007245465E+04  0.23061256225E+04 0.  0.
        5    1    3    3  502    0  0.19001211942E+03 -0.91822732980E+01  0.17168000676E+04  0.17273139500E+04  0.46999998093E+01 0.  1.
       -5    1    3    3    0  502 -0.19001211942E+03  0.91822732980E+01 -0.74963520540E+03  0.77341059654E+03  0.46999998093E+01 0. -1.
</event>
<event>
 5   0  0.4436695E-05  0.2280365E+04  0.7818609E-02  0.8485703E-01
        2   -1    0    0  501    0  0.00000000000E+00  0.00000000000E+00  0.13884453783E+04  0.13884453783E+04  0.25500000920E-02 0. -1.
       -2   -1    0    0    0  501  0.00000000000E+00  0.00000000000E+00 -0.93631075882E+03  0.93631075883E+03  0.25500000920E-02 0.  1.
    10030    2    1    2    0    0  0.00000000000E+00  0.00000000000E+00  0.45213461943E+03  0.23247561371E+04  0.22803651863E+04 0.  0.
        5    1    3    3  502    0  0.65332164246E+02 -0.11052611729E+04  0.50362390822E+03  0.12163591916E+04  0.46999998093E+01 0. -1.
       -5    1    3    3    0  502 -0.65332164246E+02  0.11052611729E+04 -0.51489288794E+02  0.11083969455E+04  0.46999998093E+01 0.  1.
</event>
<event>
 5   0  0.4436695E-05  0.2305294E+04  0.7818609E-02  0.8475837E-01
        2   -1    0    0  501    0  0.00000000000E+00  0.00000000000E+00  0.10827567132E+04  0.10827567132E+04  0.25500000920E-02 0. -1.
       -2   -1    0    0    0  501  0.00000000000E+00  0.00000000000E+00 -0.12270481960E+04  0.12270481960E+04  0.25500000920E-02 0.  1.
    10030    2    1    2    0    0  0.00000000000E+00  0.00000000000E+00 -0.14429148274E+03  0.23098049092E+04  0.23052936226E+04 0.  0.
        5    1    3    3  502    0 -0.60043895768E+03 -0.72508409175E+03  0.59421113307E+03  0.11132757263E+04  0.46999998093E+01 0. -1.
       -5    1    3    3    0  502  0.60043895768E+03  0.72508409175E+03 -0.73850261580E+03  0.11965291829E+04  0.46999998093E+01 0.  1.
</event>
<event>
 5   0  0.4798609E-05  0.2316441E+04  0.7818609E-02  0.8471467E-01
       -2   -1    0    0    0  501  0.00000000000E+00  0.00000000000E+00  0.10780502096E+04  0.10780502096E+04  0.25500000920E-02 0.  1.
        2   -1    0    0  501    0  0.00000000000E+00  0.00000000000E+00 -0.12443529960E+04  0.12443529960E+04  0.25500000920E-02 0. -1.
    10030    2    1    2    0    0  0.00000000000E+00  0.00000000000E+00 -0.16630278635E+03  0.23224032056E+04  0.23164412431E+04 0.  0.
        2    1    3    3  502    0  0.68266404270E+03  0.92490971453E+03  0.58587267516E+02  0.11510519724E+04  0.25500000920E-02 0. -1.
       -2    1    3    3    0  502 -0.68266404270E+03 -0.92490971453E+03 -0.22489005387E+03  0.11713512332E+04  0.25500000920E-02 0.  1.
</event>
<event>
 5   0  0.2043885E-05  0.2302303E+04  0.7818609E-02  0.8477014E-01
       -1   -1    0    0    0  501  0.00000000000E+00  0.00000000000E+00  0.11618829710E+04  0.11618829710E+04  0.50400001928E-02 0.  1.
        1   -1    0    0  501    0  0.00000000000E+00  0.00000000000E+00 -0.11405187777E+04  0.11405187778E+04  0.50400001928E-02 0. -1.
    10030    2    1    2    0    0  0.00000000000E+00  0.00000000000E+00  0.21364193248E+02  0.23024017488E+04  0.23023026265E+04 0.  0.
        5    1    3    3  502    0  0.33406922757E+03 -0.47725798682E+03 -0.98220999371E+03  0.11419877392E+04  0.46999998093E+01 0. -1.
       -5    1    3    3    0  502 -0.33406922757E+03  0.47725798682E+03  0.10035741870E+04  0.11604140095E+04  0.46999998093E+01 0.  1.
</event>
<event>
 5   0  0.4602447E-05  0.2301979E+04  0.7818609E-02  0.8477141E-01
       -2   -1    0    0    0  501  0.00000000000E+00  0.00000000000E+00  0.66435907481E+03  0.66435907481E+03  0.25500000920E-02 0.  1.
        2   -1    0    0  501    0  0.00000000000E+00  0.00000000000E+00 -0.19940673497E+04  0.19940673497E+04  0.25500000920E-02 0. -1.
    10030    2    1    2    0    0  0.00000000000E+00  0.00000000000E+00 -0.13297082749E+04  0.26584264246E+04  0.23019789222E+04 0.  0.
        3    1    3    3  502    0 -0.11255365666E+04  0.33143888453E+01 -0.94281713834E+03  0.14682464761E+04  0.10100000352E+00 0. -1.
       -3    1    3    3    0  502  0.11255365666E+04 -0.33143888453E+01 -0.38689113659E+03  0.11901799485E+04  0.10100000352E+00 0.  1.
</event>
<event>
 5   0  0.1968318E-05  0.2286364E+04  0.7818609E-02  0.8483317E-01
       -1   -1    0    0    0  501  0.00000000000E+00  0.00000000000E+00  0.69157490374E+03  0.69157490376E+03  0.50400001928E-02 0. -1.
        1   -1    0    0  501    0  0.00000000000E+00  0.00000000000E+00 -0.18896935344E+04  0.18896935344E+04  0.50400001928E-02 0.  1.
    10030    2    1    2    0    0  0.00000000000E+00  0.00000000000E+00 -0.11981186306E+04  0.25812684381E+04  0.22863635968E+04 0.  0.
        3    1    3    3  502    0  0.54122949846E+03 -0.88924820187E+03 -0.11324047511E+04  0.15381912317E+04  0.10100000352E+00 0.  1.
       -3    1    3    3    0  502 -0.54122949846E+03  0.88924820187E+03 -0.65713879492E+02  0.10430772065E+04  0.10100000352E+00 0. -1.
</event>
<event>
 5   0  0.4505107E-05  0.1946537E+04  0.7818609E-02  0.8632033E-01
        2   -1    0    0  501    0  0.00000000000E+00  0.00000000000E+00  0.19748821835E+04  0.19748821835E+04  0.25500000920E-02 0.  1.
       -2   -1    0    0    0  501  0.00000000000E+00  0.00000000000E+00 -0.47964955952E+03  0.47964955953E+03  0.25500000920E-02 0. -1.
    10030    2    1    2    0    0  0.00000000000E+00  0.00000000000E+00  0.14952326239E+04  0.24545317430E+04  0.19465367907E+04 0.  0.
        4    1    3    3  502    0  0.63880945295E+03 -0.56163523904E+03  0.13440690093E+04  0.15906083030E+04  0.12699999809E+01 0. -1.
       -4    1    3    3    0  502 -0.63880945295E+03  0.56163523904E+03  0.15116361467E+03  0.86392344001E+03  0.12699999809E+01 0.  1.
</event>
<event>
 5   0  0.2042951E-05  0.2289889E+04  0.7818609E-02  0.8481918E-01
       -1   -1    0    0    0  501  0.00000000000E+00  0.00000000000E+00  0.89654742156E+03  0.89654742158E+03  0.50400001928E-02 0. -1.
        1   -1    0    0  501    0  0.00000000000E+00  0.00000000000E+00 -0.14621626885E+04  0.14621626885E+04  0.50400001928E-02 0.  1.
    10030    2    1    2    0    0  0.00000000000E+00  0.00000000000E+00 -0.56561526689E+03  0.23587101100E+04  0.22898892447E+04 0.  0.
        2    1    3    3  502    0 -0.55306782882E+03 -0.21145839664E+03  0.72659270316E+03  0.93730231680E+03  0.25500000920E-02 0. -1.
       -2    1    3    3    0  502  0.55306782882E+03  0.21145839664E+03 -0.12922079701E+04  0.14214077932E+04  0.25500000920E-02 0.  1.
</event>
<event>
 5   0  0.2085063E-05  0.2299506E+04  0.7818609E-02  0.8478116E-01
       -1   -1    0    0    0  501  0.00000000000E+00  0.00000000000E+00  0.88407233856E+03  0.88407233857E+03  0.50400001928E-02 0.  1.
        1   -1    0    0  501    0  0.00000000000E+00  0.00000000000E+00 -0.14952754931E+04  0.14952754931E+04  0.50400001928E-02 0. -1.
    10030    2    1    2    0    0  0.00000000000E+00  0.00000000000E+00 -0.61120315454E+03  0.23793478317E+04  0.22995057747E+04 0.  0.
        1    1    3    3  502    0  0.83829606440E+03  0.77041028266E+03 -0.47134898178E+03  0.12322508502E+04  0.50400001928E-02 0.  1.
       -1    1    3    3    0  502 -0.83829606440E+03 -0.77041028266E+03 -0.13985417275E+03  0.11470969815E+04  0.50400001928E-02 0. -1.
</event>
<event>
 5   0  0.4436695E-05  0.2293963E+04  0.7818609E-02  0.8480305E-01
        2   -1    0    0  501    0  0.00000000000E+00  0.00000000000E+00  0.15195636851E+04  0.15195636851E+04  0.25500000920E-02 0.  1.
       -2   -1    0    0    0  501  0.00000000000E+00  0.00000000000E+00 -0.86575281859E+03  0.86575281860E+03  0.25500000920E-02 0. -1.
    10030    2    1    2    0    0  0.00000000000E+00  0.00000000000E+00  0.65381086652E+03  0.23853165037E+04  0.22939629844E+04 0.  0.
        5    1    3    3  502    0 -0.74303670560E+03 -0.15316382410E+03  0.12213843569E+04  0.14378332797E+04  0.46999998093E+01 0.  1.
       -5    1    3    3    0  502  0.74303670560E+03  0.15316382410E+03 -0.56757349036E+03  0.94748322404E+03  0.46999998093E+01 0. -1.
</event>
<event>
 5   0  0.2043885E-05  0.2292861E+04  0.7818609E-02  0.8480741E-01
        1   -1    0    0  501    0  0.00000000000E+00  0.00000000000E+00  0.19389978977E+04  0.19389978978E+04  0.50400001928E-02 0.  1.
       -1   -1    0    0    0  501  0.00000000000E+00  0.00000000000E+00 -0.67782590119E+03  0.67782590121E+03  0.50400001928E-02 0. -1.
    10030    2    1    2    0    0  0.00000000000E+00  0.00000000000E+00  0.12611719966E+04  0.26168237990E+04  0.22928610926E+04 0.  0.
        5    1    3    3  502    0  0.51600530012E+03 -0.91844865871E+03  0.11451063554E+03  0.10596906077E+04  0.46999998093E+01 0. -1.
       -5    1    3    3    0  502 -0.51600530012E+03  0.91844865871E+03  0.11466613610E+04  0.15571331912E+04  0.46999998093E+01 0.  1.
</event>
<event>
 5   0  0.4602447E-05  0.2300141E+04  0.7818609E-02  0.8477866E-01
       -2   -1    0    0    0  501  0.00000000000E+00  0.00000000000E+00  0.11064789669E+04  0.11064789669E+04  0.25500000920E-02 0. -1.
        2   -1    0    0  501    0  0.00000000000E+00  0.00000000000E+00 -0.11953792901E+04  0.11953792902E+04  0.25500000920E-02 0.  1.
    10030    2    1    2    0    0  0.00000000000E+00  0.00000000000E+00 -0.88900323216E+02  0.23018582571E+04  0.23001409018E+04 0.  0.
        3    1    3    3  502    0  0.85493097769E+03 -0.33914489221E+03 -0.73542624950E+03  0.11776153927E+04  0.10100000352E+00 0.  1.
       -3    1    3    3    0  502 -0.85493097769E+03  0.33914489221E+03  0.64652592628E+03  0.11242428644E+04  0.10100000352E+00 0. -1.
</event>
<event>
 5   0  0.4605516E-05  0.2285362E+04  0.7818609E-02  0.8483715E-01
       -2   -1    0    0    0  501  0.00000000000E+00  0.00000000000E+00  0.10826986546E+04  0.10826986546E+04  0.25500000920E-02 0. -1.
        2   -1    0    0  501    0  0.00000000000E+00  0.00000000000E+00 -0.12059863415E+04  0.12059863415E+04  0.25500000920E-02 0.  1.
    10030    2    1    2    0    0  0.00000000000E+00  0.00000000000E+00 -0.12328768685E+03  0.22886849961E+04  0.22853619314E+04 0.  0.
        1    1    3    3  502    0 -0.13312782820E+02  0.39686814557E+03 -0.11346672848E+04  0.12021445015E+04  0.50400001928E-02 0.  1.
       -1    1    3    3    0  502  0.13312782820E+02 -0.39686814557E+03  0.10113795980E+04  0.10865404946E+04  0.50400001928E-02 0. -1.
</event>
<event>
 5   0  0.2042951E-05  0.2291871E+04  0.7818609E-02  0.8481133E-01
       -1   -1    0    0    0  501  0.00000000000E+00  0.00000000000E+00  0.17346775989E+04  0.17346775989E+04  0.50400001928E-02 0.  1.
        1   -1    0    0  501    0  0.00000000000E+00  0.00000000000E+00 -0.75700995761E+03  0.75700995763E+03  0.50400001928E-02 0. -1.
    10030    2    1    2    0    0  0.00000000000E+00  0.00000000000E+00  0.97766764132E+03  0.24916875566E+04  0.22918710397E+04 0.  0.
        2    1    3    3  502    0  0.26248566607E+03  0.90819775543E+02  0.16975278499E+04  0.17201010894E+04  0.25500000920E-02 0.  1.
       -2    1    3    3    0  502 -0.26248566607E+03 -0.90819775543E+02 -0.71986020855E+03  0.77158646721E+03  0.25500000920E-02 0. -1.
</event>
<event>
 5   0  0.2042951E-05  0.2341322E+04  0.7818609E-02  0.8461804E-01
       -1   -1    0    0    0  501  0.00000000000E+00  0.00000000000E+00  0.88497230477E+03  0.88497230479E+03  0.50400001928E-02 0. -1.
        1   -1    0    0  501    0  0.00000000000E+00  0.00000000000E+00 -0.15485769249E+04  0.15485769249E+04  0.50400001928E-02 0.  1.
    10030    2    1    2    0    0  0.00000000000E+00  0.00000000000E+00 -0.66360462015E+03  0.24335492297E+04  0.23413224386E+04 0.  0.
        2    1    3    3  502    0 -0.54578268609E+03 -0.44294689605E+03  0.64121802375E+03  0.95144166776E+03  0.25500000920E-02 0. -1.
       -2    1    3    3    0  502  0.54578268609E+03  0.44294689605E+03 -0.13048226439E+04  0.14821075620E+04  0.25500000920E-02 0.  1.
</event>
<event>
 5   0  0.4602447E-05  0.2302022E+04  0.7818609E-02  0.8477124E-01
       -2   -1    0    0    0  501  0.00000000000E+00  0.00000000000E+00  0.63042795463E+03  0.63042795464E+03  0.25500000920E-02 0. -1.
        2   -1    0    0  501    0  0.00000000000E+00  0.00000000000E+00 -0.21014718054E+04  0.21014718054E+04  0.25500000920E-02 0.  1.
    10030    2    1    2    0    0  0.00000000000E+00  0.00000000000E+00 -0.14710438508E+04  0.27318997601E+04  0.23020222171E+04 0.  0.
        3    1    3    3  502    0 -0.70501656020E+03  0.84351018722E+03 -0.33086516622E+03  0.11480546827E+04  0.10100000352E+00 0. -1.
       -3    1    3    3    0  502  0.70501656020E+03 -0.84351018722E+03 -0.11401786846E+04  0.15838450774E+04  0.10100000352E+00 0.  1.
</event>
<event>
 5   0  0.4602447E-05  0.2291521E+04  0.7818609E-02  0.8481272E-01
        2   -1    0    0  501    0  0.00000000000E+00  0.00000000000E+00  0.11436444655E+04  0.11436444655E+04  0.25500000920E-02 0. -1.
       -2   -1    0    0    0  501  0.00000000000E+00  0.00000000000E+00 -0.11478806925E+04  0.11478806925E+04  0.25500000920E-02 0.  1.
    10030    2    1    2    0    0  0.00000000000E+00  0.00000000000E+00 -0.42362270065E+01  0.22915251579E+04  0.22915212423E+04 0.  0.
        3    1    3    3  502    0 -0.14665968071E+03 -0.10948998613E+04 -0.30617886137E+03  0.11463246807E+04  0.10100000352E+00 0.  1.
       -3    1    3    3    0  502  0.14665968071E+03  0.10948998613E+04  0.30194263436E+03  0.11452004772E+04  0.10100000352E+00 0. -1.
</event>
<event>
 5   0  0.2031860E-05  0.2313556E+04  0.7818609E-02  0.8472595E-01
        1   -1    0    0  501    0  0.00000000000E+00  0.00000000000E+00  0.13483554161E+04  0.13483554161E+04  0.50400001928E-02 0.  1.
       -1   -1    0    0    0  501  0.00000000000E+00  0.00000000000E+00 -0.99242028437E+03  0.99242028438E+03  0.50400001928E-02 0. -1.
    10030    2    1    2    0    0  0.00000000000E+00  0.00000000000E+00  0.35593513175E+03  0.23407757005E+04  0.23135559345E+04 0.  0.
        4    1    3    3  502    0 -0.10750743987E+04 -0.42700535738E+03  0.17403407491E+03  0.11697897290E+04  0.12699999809E+01 0. -1.
       -4    1    3    3    0  502  0.10750743987E+04  0.42700535738E+03  0.18190105684E+03  0.11709859715E+04  0.12699999809E+01 0.  1.
</event>
<event>
 5   0  0.2031860E-05  0.2223994E+04  0.7818609E-02  0.8508507E-01
        1   -1    0    0  501    0  0.00000000000E+00  0.00000000000E+00  0.18670036069E+04  0.18670036069E+04  0.50400001928E-02 0.  1.
       -1   -1    0    0    0  501  0.00000000000E+00  0.00000000000E+00 -0.66231139077E+03  0.66231139079E+03  0.50400001928E-02 0. -1.
    10030    2    1    2    0    0  0.00000000000E+00  0.00000000000E+00  0.12046922161E+04  0.25293149977E+04  0.22239943844E+04 0.  0.
        4    1    3    3  502    0  0.64566589076E+03 -0.84716920010E+03  0.96548747684E+03  0.14376187871E+04  0.12699999809E+01 0.  1.
       -4    1    3    3    0  502 -0.64566589076E+03  0.84716920010E+03  0.23920473927E+03  0.10916962106E+04  0.12699999809E+01 0. -1.
</event>
<event>
 5   0  0.2085063E-05  0.2341125E+04  0.7818609E-02  0.8461880E-01
       -1   -1    0    0    0  501  0.00000000000E+00  0.00000000000E+00  0.60652512028E+03  0.60652512030E+03  0.50400001928E-02 0.  1.
        1   -1    0    0  501    0  0.00000000000E+00  0.00000000000E+00 -0.22591253137E+04  0.22591253137E+04  0.50400001928E-02 0. -1.
    10030    2    1    2    0    0  0.00000000000E+00  0.00000000000E+00 -0.16526001934E+04  0.28656504340E+04  0.23411247319E+04 0.  0.
        1    1    3    3  502    0 -0.39344102493E+03 -0.41165919550E+03  0.42555943133E+03  0.71088674411E+03  0.50400001928E-02 0.  1.
       -1    1    3    3    0  502  0.39344102493E+03  0.41165919550E+03 -0.20781596247E+04  0.21547636898E+04  0.50400001928E-02 0. -1.
</event>
<event>
 5   0  0.2085063E-05  0.2219410E+04  0.7818609E-02  0.8510393E-01
        1   -1    0    0  501    0  0.00000000000E+00  0.00000000000E+00  0.23761420013E+04  0.23761420013E+04  0.50400001928E-02 0. -1.
       -1   -1    0    0    0  501  0.00000000000E+00  0.00000000000E+00 -0.51825389371E+03  0.51825389374E+03  0.50400001928E-02 0.  1.
    10030    2    1    2    0    0  0.00000000000E+00  0.00000000000E+00  0.18578881076E+04  0.28943958950E+04  0.22194096911E+04 0.  0.
        1    1    3    3  502    0  0.28068845534E+03  0.98676632805E+03  0.37726362180E+03  0.10930789704E+04  0.50400001928E-02 0.  1.
       -1    1    3    3    0  502 -0.28068845534E+03 -0.98676632805E+03  0.14806244858E+04  0.18013169247E+04  0.50400001928E-02 0. -1.
</event>
<event>
 5   0  0.2042951E-05  0.2304483E+04  0.7818609E-02  0.8476156E-01
        1   -1    0    0  501    0  0.00000000000E+00  0.00000000000E+00  0.11779805037E+04  0.11779805037E+04  0.50400001928E-02 0. -1.
       -1   -1    0    0    0  501  0.00000000000E+00  0.00000000000E+00 -0.11270644442E+04  0.11270644442E+04  0.50400001928E-02 0.  1.
    10030    2    1    2    0    0  0.00000000000E+00  0.00000000000E+00  0.50916059555E+02  0.23050449479E+04  0.23044825378E+04 0.  0.
        2    1    3    3  502    0  0.67668301757E+03  0.27424145601E+02  0.95789149504E+03  0.11731189651E+04  0.25500000920E-02 0. -1.
       -2    1    3    3    0  502 -0.67668301757E+03 -0.27424145601E+02 -0.90697543549E+03  0.11319259828E+04  0.25500000920E-02 0.  1.
</event>
<event>
 5   0  0.2043885E-05  0.2337349E+04  0.7818609E-02  0.8463339E-01
        1   -1    0    0  501    0  0.00000000000E+00  0.00000000000E+00  0.10145650136E+04  0.10145650136E+04  0.50400001928E-02 0.  1.
       -1   -1    0    0    0  501  0.00000000000E+00  0.00000000000E+00 -0.13461931710E+04  0.13461931710E+04  0.50400001928E-02 0. -1.
    10030    2    1    2    0    0  0.00000000000E+00  0.00000000000E+00 -0.33162815739E+03  0.23607581846E+04  0.23373493473E+04 0.  0.
        5    1    3    3  502    0 -0.88488135692E+03 -0.36192648495E+03  0.51305780573E+03  0.10850143770E+04  0.46999998093E+01 0.  1.
       -5    1    3    3    0  502  0.88488135692E+03  0.36192648495E+03 -0.84468596311E+03  0.12757438076E+04  0.46999998093E+01 0. -1.
</event>
<event>
 5   0  0.2042951E-05  0.2297158E+04  0.7818609E-02  0.8479043E-01
       -1   -1    0    0    0  501  0.00000000000E+00  0.00000000000E+00  0.78578793527E+03  0.78578793529E+03  0.50400001928E-02 0. -1.
        1   -1    0    0  501    0  0.00000000000E+00  0.00000000000E+00 -0.16788668898E+04  0.16788668898E+04  0.50400001928E-02 0.  1.
    10030    2    1    2    0    0  0.00000000000E+00  0.00000000000E+00 -0.89307895455E+03  0.24646548251E+04  0.22971576759E+04 0.  0.
        2    1    3    3  502    0  0.11275813107E+04  0.50972344090E+02 -0.67463310886E+03  0.13149781838E+04  0.25500000920E-02 0.  1.
       -2    1    3    3    0  502 -0.11275813107E+04 -0.50972344090E+02 -0.21844584569E+03  0.11496766414E+04  0.25500000920E-02 0. -1.
</event>
<event>
 5   0  0.4605516E-05  0.2285279E+04  0.7818609E-02  0.8483748E-01
        2   -1    0    0  501    0  0.00000000000E+00  0.00000000000E+00  0.13829287768E+04  0.13829287768E+04  0.25500000920E-02 0.  1.
       -2   -1    0    0    0  501  0.00000000000E+00  0.00000000000E+00 -0.94410156965E+03  0.94410156965E+03  0.25500000920E-02 0. -1.
    10030    2    1    2    0    0  0.00000000000E+00  0.00000000000E+00  0.43882720711E+03  0.23270303464E+04  0.22852791767E+04 0.  0.
        1    1    3    3  502    0 -0.73460043801E+03 -0.87491599335E+03  0.19643069488E+03  0.11591810975E+04  0.50400001928E-02 0. -1.
       -1    1    3    3    0  502  0.73460043801E+03  0.87491599335E+03  0.24239651222E+03  0.11678492489E+04  0.50400001928E-02 0.  1.
</event>
<event>
 5   0  0.4605516E-05  0.2187217E+04  0.7818609E-02  0.8523767E-01
       -2   -1    0    0    0  501  0.00000000000E+00  0.00000000000E+00  0.12770879314E+04  0.12770879314E+04  0.25500000920E-02 0. -1.
        2   -1    0    0  501    0  0.00000000000E+00  0.00000000000E+00 -0.93648987303E+03  0.93648987303E+03  0.25500000920E-02 0.  1.
    10030    2    1    2    0    0  0.00000000000E+00  0.00000000000E+00  0.34059805841E+03  0.22135778045E+04  0.21872173324E+04 0.  0.
        1    1    3    3  502    0  0.88114075765E+03 -0.60006182052E+03 -0.76560138708E+02  0.10688052573E+04  0.50400001928E-02 0. -1.
       -1    1    3    3    0  502 -0.88114075765E+03  0.60006182052E+03  0.41715819712E+03  0.11447725471E+04  0.50400001928E-02 0.  1.
</event>
<event>
 5   0  0.4798609E-05  0.2274767E+04  0.7818609E-02  0.8487937E-01
        2   -1    0    0  501    0  0.00000000000E+00  0.00000000000E+00  0.15792240647E+04  0.15792240647E+04  0.25500000920E-02 0.  1.
       -2   -1    0    0    0  501  0.00000000000E+00  0.00000000000E+00 -0.81916290612E+03  0.81916290612E+03  0.25500000920E-02 0. -1.
    10030    2    1    2    0    0  0.00000000000E+00  0.00000000000E+00  0.76006115863E+03  0.23983869709E+04  0.22747674820E+04 0.  0.
        2    1    3    3  502    0  0.86738310213E+03  0.21031296710E+03 -0.36330556012E+03  0.96362644215E+03  0.25500000920E-02 0. -1.
       -2    1    3    3    0  502 -0.86738310213E+03 -0.21031296710E+03  0.11233667187E+04  0.14347605287E+04  0.25500000920E-02 0.  1.
</event>
<event>
 5   0  0.2031860E-05  0.2297726E+04  0.7818609E-02  0.8478818E-01
       -1   -1    0    0    0  501  0.00000000000E+00  0.00000000000E+00  0.14258312677E+04  0.14258312677E+04  0.50400001928E-02 0.  1.
        1   -1    0    0  501    0  0.00000000000E+00  0.00000000000E+00 -0.92569556375E+03  0.92569556376E+03  0.50400001928E-02 0. -1.
    10030    2    1    2    0    0  0.00000000000E+00  0.00000000000E+00  0.50013570395E+03  0.23515268315E+04  0.22977255530E+04 0.  0.
        4    1    3    3  502    0 -0.99462782631E+03  0.26180170437E+03 -0.27383609826E+03  0.10643366323E+04  0.12699999809E+01 0. -1.
       -4    1    3    3    0  502  0.99462782631E+03 -0.26180170437E+03  0.77397180221E+03  0.12871901992E+04  0.12699999809E+01 0.  1.
</event>
<event>
 5   0  0.2031860E-05  0.2356664E+04  0.7818609E-02  0.8455909E-01
        1   -1    0    0  501    0  0.00000000000E+00  0.00000000000E+00  0.14060094065E+04  0.14060094065E+04  0.50400001928E-02 0. -1.
       -1   -1    0    0    0  501  0.00000000000E+00  0.00000000000E+00 -0.98752249419E+03  0.98752249420E+03  0.50400001928E-02 0.  1.
    10030    2    1    2    0    0  0.00000000000E+00  0.00000000000E+00  0.41848691234E+03  0.23935319007E+04  0.23566636722E+04 0.  0.
        4    1    3    3  502    0  0.59390301216E+03 -0.79001547225E+03 -0.44236896718E+03  0.10828375456E+04  0.12699999809E+01 0.  1.
       -4    1    3    3    0  502 -0.59390301216E+03  0.79001547225E+03  0.86085587953E+03  0.13106943551E+04  0.12699999809E+01 0. -1.
</event>
<event>
 5   0  0.2085063E-05  0.2300717E+04  0.7818609E-02  0.8477638E-01
        1   -1    0    0  501    0  0.00000000000E+00  0.00000000000E+00  0.17167248799E+04  0.17167248799E+04  0.50400001928E-02 0. -1.
       -1   -1    0    0    0  501  0.00000000000E+00  0.00000000000E+00 -0.77084263700E+03  0.77084263702E+03  0.50400001928E-02 0.  1.
    10030    2    1    2    0    0  0.00000000000E+00  0.00000000000E+00  0.94588224291E+03  0.24875675169E+04  0.23007170478E+04 0.  0.
        1    1    3    3  502    0  0.69393843893E+03 -0.90758465548E+03  0.61825994366E+03  0.12990403465E+04  0.50400001928E-02 0.  1.
       -1    1    3    3    0  502 -0.69393843893E+03  0.90758465548E+03  0.32762229925E+03  0.11885271704E+04  0.50400001928E-02 0. -1.
</event>
<event>
 5   0  0.2042951E-05  0.2318507E+04  0.7818609E-02  0.8470660E-01
        1   -1    0    0  501    0  0.00000000000E+00  0.00000000000E+00  0.13621785673E+04  0.13621785673E+04  0.50400001928E-02 0.  1.
       -1   -1    0    0    0  501  0.00000000000E+00  0.00000000000E+00 -0.98655847576E+03  0.98655847577E+03  0.50400001928E-02 0. -1.
    10030    2    1    2    0    0  0.00000000000E+00  0.00000000000E+00  0.37562009153E+03  0.23487370431E+04  0.23185071154E+04 0.  0.
        2    1    3    3  502    0  0.92936328176E+03  0.58274439513E+03 -0.19199385495E+03  0.11136286544E+04  0.25500000920E-02 0. -1.
       -2    1    3    3    0  502 -0.92936328176E+03 -0.58274439513E+03  0.56761394648E+03  0.12351083887E+04  0.25500000920E-02 0.  1.
</event>
<event>
 5   0  0.2042951E-05  0.2232167E+04  0.7818609E-02  0.8505157E-01
       -1   -1    0    0    0  501  0.00000000000E+00  0.00000000000E+00  0.13319706390E+04  0.13319706390E+04  0.50400001928E-02 0.  1.
        1   -1    0    0  501    0  0.00000000000E+00  0.00000000000E+00 -0.93518796951E+03  0.93518796953E+03  0.50400001928E-02 0. -1.
    10030    2    1    2    0    0  0.00000000000E+00  0.00000000000E+00  0.39678266951E+03  0.22671586086E+04  0.22321674824E+04 0.  0.
        2    1    3    3  502    0 -0.56727623979E+03  0.94802983704E+03  0.35924057264E+03  0.11617300432E+04  0.25500000920E-02 0. -1.
       -2    1    3    3    0  502  0.56727623979E+03 -0.94802983704E+03  0.37542096869E+02  0.11054285654E+04  0.25500000920E-02 0.  1.
</event>
<event>
 5   0  0.4602447E-05  0.2322395E+04  0.7818609E-02  0.8469143E-01
       -2   -1    0    0    0  501  0.00000000000E+00  0.00000000000E+00  0.85364605907E+03  0.85364605908E+03  0.25500000920E-02 0.  1.
        2   -1    0    0  501    0  0.00000000000E+00  0.00000000000E+00 -0.15795532138E+04  0.15795532138E+04  0.25500000920E-02 0. -1.
    10030    2    1    2    0    0  0.00000000000E+00  0.00000000000E+00 -0.72590715474E+03  0.24331992729E+04  0.23223947779E+04 0.  0.
        3    1    3    3  502    0 -0.30122817529E+03  0.52413088034E+03  0.67577584860E+03  0.90671086961E+03  0.10100000352E+00 0.  1.
       -3    1    3    3    0  502  0.30122817529E+03 -0.52413088034E+03 -0.14016830033E+04  0.15264884033E+04  0.10100000352E+00 0. -1.
</event>
<event>
 5   0  0.4605516E-05  0.2267091E+04  0.7818609E-02  0.8491011E-01
        2   -1    0    0  501    0  0.00000000000E+00  0.00000000000E+00  0.12046030048E+04  0.12046030048E+04  0.25500000920E-02 0.  1.
       -2   -1    0    0    0  501  0.00000000000E+00  0.00000000000E+00 -0.10666796977E+04  0.10666796977E+04  0.25500000920E-02 0. -1.
    10030    2    1    2    0    0  0.00000000000E+00  0.00000000000E+00  0.13792330703E+03  0.22712827025E+04  0.22670911486E+04 0.  0.
        1    1    3    3  502    0 -0.44083659124E+03  0.10326760110E+04 -0.86789359445E+02  0.11261833940E+04  0.50400001928E-02 0.  1.
       -1    1    3    3    0  502  0.44083659124E+03 -0.10326760110E+04  0.22471266647E+03  0.11450993085E+04  0.50400001928E-02 0. -1.
</event>
<event>
 5   0  0.4602447E-05  0.2296731E+04  0.7818609E-02  0.8479211E-01
        2   -1    0    0  501    0  0.00000000000E+00  0.00000000000E+00  0.17234927118E+04  0.17234927118E+04  0.25500000920E-02 0.  1.
       -2   -1    0    0    0  501  0.00000000000E+00  0.00000000000E+00 -0.76515740147E+03  0.76515740147E+03  0.25500000920E-02 0. -1.
    10030    2    1    2    0    0  0.00000000000E+00  0.00000000000E+00  0.95833531038E+03  0.24886501133E+04  0.22967308983E+04 0.  0.
        3    1    3    3  502    0 -0.40458835509E+03 -0.10375601934E+04  0.78279767765E+03  0.13612476286E+04  0.10100000352E+00 0.  1.
       -3    1    3    3    0  502  0.40458835509E+03  0.10375601934E+04  0.17553763273E+03  0.11274024848E+04  0.10100000352E+00 0. -1.
</event>
<event>
 5   0  0.2085063E-05  0.2314470E+04  0.7818609E-02  0.8472238E-01
       -1   -1    0    0    0  501  0.00000000000E+00  0.00000000000E+00  0.13145842217E+04  0.13145842217E+04  0.50400001928E-02 0. -1.
        1   -1    0    0  501    0  0.00000000000E+00  0.00000000000E+00 -0.10187193767E+04  0.10187193767E+04  0.50400001928E-02 0.  1.
    10030    2    1    2    0    0  0.00000000000E+00  0.00000000000E+00  0.29586484506E+03  0.23333035984E+04  0.23144696317E+04 0.  0.
        1    1    3    3  502    0  0.20239025267E+03 -0.29458946361E+03  0.12575468386E+04  0.13073518339E+04  0.50400001928E-02 0. -1.
       -1    1    3    3    0  502 -0.20239025267E+03  0.29458946361E+03 -0.96168199351E+03  0.10259517645E+04  0.50400001928E-02 0.  1.
</event>
<event>
 5   0  0.4798609E-05  0.2294900E+04  0.7818609E-02  0.8479935E-01
       -2   -1    0    0    0  501  0.00000000000E+00  0.00000000000E+00  0.97836331389E+03  0.97836331389E+03  0.25500000920E-02 0. -1.
        2   -1    0    0  501    0  0.00000000000E+00  0.00000000000E+00 -0.13457597088E+04  0.13457597088E+04  0.25500000920E-02 0.  1.
    10030    2    1    2    0    0  0.00000000000E+00  0.00000000000E+00 -0.36739639492E+03  0.23241230227E+04  0.22949003712E+04 0.  0.
        2    1    3    3  502    0 -0.57297752984E+03 -0.57252524475E+03 -0.10067919080E+04  0.12921758207E+04  0.25500000920E-02 0.  1.
       -2    1    3    3    0  502  0.57297752984E+03  0.57252524475E+03  0.63939551308E+03  0.10319472020E+04  0.25500000920E-02 0. -1.
</event>
<event>
 5   0  0.4798609E-05  0.2310605E+04  0.7818609E-02  0.8473751E-01
        2   -1    0    0  501    0  0.00000000000E+00  0.00000000000E+00  0.17672492715E+04  0.17672492715E+04  0.25500000920E-02 0.  1.
       -2   -1    0    0    0  501  0.00000000000E+00  0.00000000000E+00 -0.75525529428E+03  0.75525529428E+03  0.25500000920E-02 0. -1.
    10030    2    1    2    0    0  0.00000000000E+00  0.00000000000E+00  0.10119939772E+04  0.25225045658E+04  0.23106054346E+04 0.  0.
        2    1    3    3  502    0 -0.87245117052E+03  0.20243391078E+03 -0.29070533481E+03  0.94162631913E+03  0.25500000920E-02 0.  1.
       -2    1    3    3    0  502  0.87245117052E+03 -0.20243391078E+03  0.13026993120E+04  0.15808782467E+04  0.25500000920E-02 0. -1.
</event>
<event>
 5   0  0.2085063E-05  0.2309058E+04  0.7818609E-02  0.8474358E-01
       -1   -1    0    0    0  501  0.00000000000E+00  0.00000000000E+00  0.62134133713E+03  0.62134133715E+03  0.50400001928E-02 0. -1.
        1   -1    0    0  501    0  0.00000000000E+00  0.00000000000E+00 -0.21452581722E+04  0.21452581722E+04  0.50400001928E-02 0.  1.
    10030    2    1    2    0    0  0.00000000000E+00  0.00000000000E+00 -0.15239168351E+04  0.27665995093E+04  0.23090583200E+04 0.  0.
        1    1    3    3  502    0  0.99531587803E+03  0.57777983149E+03 -0.87212541605E+03  0.14439826772E+04  0.50400001928E-02 0.  1.
       -1    1    3    3    0  502 -0.99531587803E+03 -0.57777983149E+03 -0.65179141900E+03  0.13226168321E+04  0.50400001928E-02 0. -1.
</event>
<event>
 5   0  0.2031860E-05  0.2303807E+04  0.7818609E-02  0.8476421E-01
        1   -1    0    0  501    0  0.00000000000E+00  0.00000000000E+00  0.89945133686E+03  0.89945133687E+03  0.50400001928E-02 0. -1.
       -1   -1    0    0    0  501  0.00000000000E+00  0.00000000000E+00 -0.14752127403E+04  0.14752127403E+04  0.50400001928E-02 0.  1.
    10030    2    1    2    0    0  0.00000000000E+00  0.00000000000E+00 -0.57576140343E+03  0.23746640772E+04  0.23038073456E+04 0.  0.
        4    1    3    3  502    0  0.83534943816E+03  0.53654432878E+03 -0.88996238734E+03  0.13333128531E+04  0.12699999809E+01 0.  1.
       -4    1    3    3    0  502 -0.83534943816E+03 -0.53654432878E+03  0.31420098390E+03  0.10413512240E+04  0.12699999809E+01 0. -1.
</event>
<event>
 5   0  0.2043885E-05  0.2305372E+04  0.7818609E-02  0.8475806E-01
        1   -1    0    0  501    0  0.00000000000E+00  0.00000000000E+00  0.12996474819E+04  0.12996474819E+04  0.50400001928E-02 0. -1.
       -1   -1    0    0    0  501  0.00000000000E+00  0.00000000000E+00 -0.10223428104E+04  0.10223428104E+04  0.50400001928E-02 0.  1.
    10030    2    1    2    0    0  0.00000000000E+00  0.00000000000E+00  0.27730467155E+03  0.23219902923E+04  0.23053722122E+04 0.  0.
        5    1    3    3  502    0 -0.55271615067E+03 -0.89595391557E+03  0.61154136035E+03  0.12174701177E+04  0.46999998093E+01 0. -1.
       -5    1    3    3    0  502  0.55271615067E+03  0.89595391557E+03 -0.33423668880E+03  0.11045201746E+04  0.46999998093E+01 0.  1.
</event>
<event>
 5   0  0.4505107E-05  0.2295326E+04  0.7818609E-02  0.8479766E-01
       -2   -1    0    0    0  501  0.00000000000E+00  0.00000000000E+00  0.10051370087E+04  0.10051370087E+04  0.25500000920E-02 0.  1.
        2   -1    0    0  501    0  0.00000000000E+00  0.00000000000E+00 -0.13103993375E+04  0.13103993375E+04  0.25500000920E-02 0. -1.
    10030    2    1    2    0    0  0.00000000000E+00  0.00000000000E+00 -0.30526232879E+03  0.23155363463E+04  0.22953264433E+04 0.  0.
        4    1    3    3  502    0 -0.22053425868E+03  0.19991877420E+03  0.96551707921E+03  0.10103601925E+04  0.12699999809E+01 0.  1.
       -4    1    3    3    0  502  0.22053425868E+03 -0.19991877420E+03 -0.12707794080E+04  0.13051761537E+04  0.12699999809E+01 0. -1.
</event>
<event>
 5   0  0.2043885E-05  0.2308901E+04  0.7818609E-02  0.8474420E-01
       -1   -1    0    0    0  501  0.00000000000E+00  0.00000000000E+00  0.89945776970E+03  0.89945776972E+03  0.50400001928E-02 0. -1.
        1   -1    0    0  501    0  0.00000000000E+00  0.00000000000E+00 -0.14817326415E+04  0.14817326415E+04  0.50400001928E-02 0.  1.
    10030    2    1    2    0    0  0.00000000000E+00  0.00000000000E+00 -0.58227487177E+03  0.23811904112E+04  0.23089009827E+04 0.  0.
        5    1    3    3  502    0 -0.58478973671E+03  0.58066774815E+03 -0.11248917985E+04  0.13944739934E+04  0.46999998093E+01 0.  1.
       -5    1    3    3    0  502  0.58478973671E+03 -0.58066774815E+03  0.54261692677E+03  0.98671641778E+03  0.46999998093E+01 0. -1.
</event>
<event>
 5   0  0.4605516E-05  0.2309105E+04  0.7818609E-02  0.8474340E-01
       -2   -1    0    0    0  501  0.00000000000E+00  0.00000000000E+00  0.10094034559E+04  0.10094034559E+04  0.25500000920E-02 0.  1.
        2   -1    0    0  501    0  0.00000000000E+00  0.00000000000E+00 -0.13205739328E+04  0.13205739328E+04  0.25500000920E-02 0. -1.
    10030    2    1    2    0    0  0.00000000000E+00  0.00000000000E+00 -0.31117047690E+03  0.23299773887E+04  0.23091053605E+04 0.  0.
        1    1    3    3  502    0  0.27395039200E+03 -0.15908549354E+03 -0.12758616287E+04  0.13146025663E+04  0.50400001928E-02 0. -1.
       -1    1    3    3    0  502 -0.27395039200E+03  0.15908549354E+03  0.96469115183E+03  0.10153748224E+04  0.50400001928E-02 0.  1.
</event>
<event>
 5   0  0.2043885E-05  0.2299881E+04  0.7818609E-02  0.8477968E-01
        1   -1    0    0  501    0  0.00000000000E+00  0.00000000000E+00  0.93763118644E+03  0.93763118645E+03  0.50400001928E-02 0. -1.
       -1   -1    0    0    0  501  0.00000000000E+00  0.00000000000E+00 -0.14103238700E+04  0.14103238700E+04  0.50400001928E-02 0.  1.
    10030    2    1    2    0    0  0.00000000000E+00  0.00000000000E+00 -0.47269268356E+03  0.23479550565E+04  0.22998814261E+04 0.  0.
        5    1    3    3  502    0  0.76052413556E+03 -0.32988631271E+03  0.57725582402E+03  0.10101823184E+04  0.46999998093E+01 0. -1.
       -5    1    3    3    0  502 -0.76052413556E+03  0.32988631271E+03 -0.10499485076E+04  0.13377727380E+04  0.46999998093E+01 0.  1.
</event>
<event>
 5   0  0.1968318E-05  0.2278547E+04  0.7818609E-02  0.8486428E-01
        1   -1    0    0  501    0  0.00000000000E+00  0.00000000000E+00  0.12497408642E+04  0.12497408643E+04  0.50400001928E-02 0.  1.
       -1   -1    0    0    0  501  0.00000000000E+00  0.00000000000E+00 -0.10385702822E+04  0.10385702822E+04  0.50400001928E-02 0. -1.
    10030    2    1    2    0    0  0.00000000000E+00  0.00000000000E+00  0.21117058204E+03  0.22883111465E+04  0.22785466614E+04 0.  0.
        3    1    3    3  502    0  0.17668409653E+03  0.11149220892E+04  0.26011207505E+03  0.11584156580E+04  0.10100000352E+00 0.  1.
       -3    1    3    3    0  502 -0.17668409653E+03 -0.11149220892E+04 -0.48941493011E+02  0.11298954885E+04  0.10100000352E+00 0. -1.
</event>
<event>
 5   0  0.1968318E-05  0.2154783E+04  0.7818609E-02  0.8537488E-01
        1   -1    0    0  501    0  0.00000000000E+00  0.00000000000E+00  0.95762589062E+03  0.95762589063E+03  0.50400001928E-02 0.  1.
       -1   -1    0    0    0  501  0.00000000000E+00  0.00000000000E+00 -0.12121356136E+04  0.12121356136E+04  0.50400001928E-02 0. -1.
    10030    2    1    2    0    0  0.00000000000E+00  0.00000000000E+00 -0.25450972297E+03  0.21697615042E+04  0.21547830021E+04 0.  0.
        3    1    3    3  502    0 -0.12524791165E+03 -0.15852602792E+03 -0.11928904720E+04  0.12098781878E+04  0.10100000352E+00 0. -1.
       -3    1    3    3    0  502  0.12524791165E+03  0.15852602792E+03  0.93838074901E+03  0.95988331646E+03  0.10100000352E+00 0.  1.
</event>
<event>
 5   0  0.2043885E-05  0.2312032E+04  0.7818609E-02  0.8473192E-01
        1   -1    0    0  501    0  0.00000000000E+00  0.00000000000E+00  0.14991618412E+04  0.14991618412E+04  0.50400001928E-02 0.  1.
       -1   -1    0    0    0  501  0.00000000000E+00  0.00000000000E+00 -0.89141349129E+03  0.89141349130E+03  0.50400001928E-02 0. -1.
    10030    2    1    2    0    0  0.00000000000E+00  0.00000000000E+00  0.60774834990E+03  0.23905753325E+04  0.23120320853E+04 0.  0.
        5    1    3    3  502    0  0.11492015550E+04  0.12336103046E+03  0.32626253789E+03  0.12009793884E+04  0.46999998093E+01 0.  1.
       -5    1    3    3    0  502 -0.11492015550E+04 -0.12336103046E+03  0.28148581200E+03  0.11895959441E+04  0.46999998093E+01 0. -1.
</event>
<event>
 5   0  0.4505107E-05  0.2321859E+04  0.7818609E-02  0.8469352E-01
        2   -1    0    0  501    0  0.00000000000E+00  0.00000000000E+00  0.74753315257E+03  0.74753315257E+03  0.25500000920E-02 0. -1.
       -2   -1    0    0    0  501  0.00000000000E+00  0.00000000000E+00 -0.18029393511E+04  0.18029393512E+04  0.25500000920E-02 0.  1.
    10030    2    1    2    0    0  0.00000000000E+00  0.00000000000E+00 -0.10554061986E+04  0.25504725037E+04  0.23218586840E+04 0.  0.
        4    1    3    3  502    0 -0.54699801793E+03 -0.76950757640E+03 -0.12698003316E+04  0.15823221027E+04  0.12699999809E+01 0.  1.
       -4    1    3    3    0  502  0.54699801793E+03  0.76950757640E+03  0.21439413303E+03  0.96815040099E+03  0.12699999809E+01 0. -1.
</event>
<event>
 5   0  0.4602447E-05  0.2303902E+04  0.7818609E-02  0.8476384E-01
       -2   -1    0    0    0  501  0.00000000000E+00  0.00000000000E+00  0.11204764276E+04  0.11204764276E+04  0.25500000920E-02 0. -1.
        2   -1    0    0  501    0  0.00000000000E+00  0.00000000000E+00 -0.11843097079E+04  0.11843097079E+04  0.25500000920E-02 0.  1.
    10030    2    1    2    0    0  0.00000000000E+00  0.00000000000E+00 -0.63833280283E+02  0.23047861356E+04  0.23039020038E+04 0.  0.
        3    1    3    3  502    0  0.43226663029E+03  0.49019733193E+03  0.91704806215E+03  0.11261105729E+04  0.10100000352E+00 0. -1.
       -3    1    3    3    0  502 -0.43226663029E+03 -0.49019733193E+03 -0.98088134244E+03  0.11786755627E+04  0.10100000352E+00 0.  1.
</event>
<event>
 5   0  0.4798609E-05  0.2280868E+04  0.7818609E-02  0.8485503E-01
        2   -1    0    0  501    0  0.00000000000E+00  0.00000000000E+00  0.21951887234E+04  0.21951887234E+04  0.25500000920E-02 0. -1.
       -2   -1    0    0    0  501  0.00000000000E+00  0.00000000000E+00 -0.59247285141E+03  0.59247285142E+03  0.25500000920E-02 0.  1.
    10030    2    1    2    0    0  0.00000000000E+00  0.00000000000E+00  0.16027158720E+04  0.27876615748E+04  0.22808680123E+04 0.  0.
        2    1    3    3  502    0 -0.10967521663E+03 -0.64955021590E+03 -0.33642825622E+03  0.73968108514E+03  0.25500000920E-02 0.  1.
       -2    1    3    3    0  502  0.10967521663E+03  0.64955021590E+03  0.19391441282E+04  0.20479804897E+04  0.25500000920E-02 0. -1.
</event>
<event>
 5   0  0.4605516E-05  0.2276825E+04  0.7818609E-02  0.8487115E-01
        2   -1    0    0  501    0  0.00000000000E+00  0.00000000000E+00  0.13881904434E+04  0.13881904434E+04  0.25500000920E-02 0.  1.
       -2   -1    0    0    0  501  0.00000000000E+00  0.00000000000E+00 -0.93357761975E+03  0.93357761975E+03  0.25500000920E-02 0. -1.
    10030    2    1    2    0    0  0.00000000000E+00  0.00000000000E+00  0.45461282361E+03  0.23217680631E+04  0.22768254477E+04 0.  0.
        1    1    3    3  502    0 -0.61896956102E+03 -0.91268988602E+03 -0.60862175048E+02  0.11044593020E+04  0.50400001928E-02 0. -1.
       -1    1    3    3    0  502  0.61896956102E+03  0.91268988602E+03  0.51547499866E+03  0.12173087611E+04  0.50400001928E-02 0.  1.
</event>
<event>
 5   0  0.4436695E-05  0.2311174E+04  0.7818609E-02  0.8473528E-01
        2   -1    0    0  501    0  0.00000000000E+00  0.00000000000E+00  0.18632614046E+04  0.18632614046E+04  0.25500000920E-02 0.  1.
       -2   -1    0    0    0  501  0.00000000000E+00  0.00000000000E+00 -0.71669024491E+03  0.71669024492E+03  0.25500000920E-02 0. -1.
    10030    2    1    2    0    0  0.00000000000E+00  0.00000000000E+00  0.11465711597E+04  0.25799516495E+04  0.23111739635E+04 0.  0.
        5    1    3    3  502    0  0.12621607257E+03 -0.43067793723E+03  0.17619929738E+04  0.18182561185E+04  0.46999998093E+01 0.  1.
       -5    1    3    3    0  502 -0.12621607257E+03  0.43067793723E+03 -0.61542181417E+03  0.76169553100E+03  0.46999998093E+01 0. -1.
</event>
<event>
 5   0  0.4602447E-05  0.2292554E+04  0.7818609E-02  0.8480863E-01
        2   -1    0    0  501    0  0.00000000000E+00  0.00000000000E+00  0.15886920073E+04  0.15886920073E+04  0.25500000920E-02 0. -1.
       -2   -1    0    0    0  501  0.00000000000E+00  0.00000000000E+00 -0.82706456702E+03  0.82706456703E+03  0.25500000920E-02 0.  1.
    10030    2    1    2    0    0  0.00000000000E+00  0.00000000000E+00  0.76162744026E+03  0.24157565743E+04  0.22925539184E+04 0.  0.
        3    1    3    3  502    0  0.61658450461E+03 -0.95143875251E+03  0.55882632246E+03  0.12640011946E+04  0.10100000352E+00 0.  1.
       -3    1    3    3    0  502 -0.61658450461E+03  0.95143875251E+03  0.20280111780E+03  0.11517553797E+04  0.10100000352E+00 0. -1.
</event>
<event>
 5   0  0.2085063E-05  0.2293090E+04  0.7818609E-02  0.8480651E-01
       -1   -1    0    0    0  501  0.00000000000E+00  0.00000000000E+00  0.15702797651E+04  0.15702797651E+04  0.50400001928E-02 0. -1.
        1   -1    0    0  501    0  0.00000000000E+00  0.00000000000E+00 -0.83715328570E+03  0.83715328572E+03  0.50400001928E-02 0.  1.
    10030    2    1    2    0    0  0.00000000000E+00  0.00000000000E+00  0.73312647940E+03  0.24074330508E+04  0.22930895010E+04 0.  0.
        1    1    3    3  502    0  0.89475106011E+03  0.59424043366E+03 -0.54514473764E+02  0.10754873223E+04  0.50400001928E-02 0.  1.
       -1    1    3    3    0  502 -0.89475106011E+03 -0.59424043366E+03  0.78764095316E+03  0.13319457285E+04  0.50400001928E-02 0. -1.
</event>
<event>
 5   0  0.1968318E-05  0.2276253E+04  0.7818609E-02  0.8487343E-01
       -1   -1    0    0    0  501  0.00000000000E+00  0.00000000000E+00  0.71617291505E+03  0.71617291507E+03  0.50400001928E-02 0. -1.
        1   -1    0    0  501    0  0.00000000000E+00  0.00000000000E+00 -0.18086859512E+04  0.18086859512E+04  0.50400001928E-02 0.  1.
    10030    2    1    2    0    0  0.00000000000E+00  0.00000000000E+00 -0.10925130362E+04  0.25248588663E+04  0.22762529650E+04 0.  0.
        3    1    3    3  502    0  0.44265292731E+03 -0.99588887606E+03 -0.91009938370E+03  0.14198651929E+04  0.10100000352E+00 0.  1.
       -3    1    3    3    0  502 -0.44265292731E+03  0.99588887606E+03 -0.18241365248E+03  0.11049936734E+04  0.10100000352E+00 0. -1.
</event>
<event>
 5   0  0.2043885E-05  0.2293907E+04  0.7818609E-02  0.8480327E-01
        1   -1    0    0  501    0  0.00000000000E+00  0.00000000000E+00  0.16416983880E+04  0.16416983880E+04  0.50400001928E-02 0.  1.
       -1   -1    0    0    0  501  0.00000000000E+00  0.00000000000E+00 -0.80130583370E+03  0.80130583371E+03  0.50400001928E-02 0. -1.
    10030    2    1    2    0    0  0.00000000000E+00  0.00000000000E+00  0.84039255433E+03  0.24430042217E+04  0.22939071433E+04 0.  0.
        5    1    3    3  502    0  0.79607301436E+03  0.76374496937E+03  0.86048851612E+02  0.11065555193E+04  0.46999998093E+01 0. -1.
       -5    1    3    3    0  502 -0.79607301436E+03 -0.76374496937E+03  0.75434370272E+03  0.13364487024E+04  0.46999998093E+01 0.  1.
</event>
<event>
 5   0  0.1968318E-05  0.2302588E+04  0.7818609E-02  0.8476901E-01
        1   -1    0    0  501    0  0.00000000000E+00  0.00000000000E+00  0.11001146893E+04  0.11001146894E+04  0.50400001928E-02 0. -1.
       -1   -1    0    0    0  501  0.00000000000E+00  0.00000000000E+00 -0.12048547434E+04  0.12048547435E+04  0.50400001928E-02 0.  1.
    10030    2    1    2    0    0  0.00000000000E+00  0.00000000000E+00 -0.10474005410E+03  0.23049694328E+04  0.23025884581E+04 0.  0.
        3    1    3    3  502    0  0.10284343076E+03  0.80774894398E+02 -0.11973959094E+04  0.12045158068E+04  0.10100000352E+00 0.  1.
       -3    1    3    3    0  502 -0.10284343076E+03 -0.80774894398E+02  0.10926558553E+04  0.11004536260E+04  0.10100000352E+00 0. -1.
</event>
<event>
 5   0  0.4798609E-05  0.2366551E+04  0.7818609E-02  0.8452134E-01
        2   -1    0    0  501    0  0.00000000000E+00  0.00000000000E+00  0.16597107101E+04  0.16597107101E+04  0.25500000920E-02 0.  1.
       -2   -1    0    0    0  501  0.00000000000E+00  0.00000000000E+00 -0.84360507439E+03  0.84360507439E+03  0.25500000920E-02 0. -1.
    10030    2    1    2    0    0  0.00000000000E+00  0.00000000000E+00  0.81610563575E+03  0.25033157845E+04  0.23665505506E+04 0.  0.
        2    1    3    3  502    0  0.11539963937E+04  0.25897677864E+03  0.36898997745E+03  0.12389230210E+04  0.25500000920E-02 0.  1.
       -2    1    3    3    0  502 -0.11539963937E+04 -0.25897677864E+03  0.44711565831E+03  0.12643927635E+04  0.25500000920E-02 0. -1.
</event>
<event>
 5   0  0.4602447E-05  0.2300056E+04  0.7818609E-02  0.8477899E-01
       -2   -1    0    0    0  501  0.00000000000E+00  0.00000000000E+00  0.26527400606E+04  0.26527400606E+04  0.25500000920E-02 0. -1.
        2   -1    0    0  501    0  0.00000000000E+00  0.00000000000E+00 -0.49856531156E+03  0.49856531157E+03  0.25500000920E-02 0.  1.
    10030    2    1    2    0    0  0.00000000000E+00  0.00000000000E+00  0.21541747490E+04  0.31513053722E+04  0.23000558035E+04 0.  0.
        3    1    3    3  502    0 -0.93482702512E+03  0.53568921298E+03  0.52614436534E+03  0.11990381158E+04  0.10100000352E+00 0.  1.
       -3    1    3    3    0  502  0.93482702512E+03 -0.53568921298E+03  0.16280303837E+04  0.19522672563E+04  0.10100000352E+00 0. -1.
</event>
<event>
 5   0  0.1968318E-05  0.2287273E+04  0.7818609E-02  0.8482956E-01
       -1   -1    0    0    0  501  0.00000000000E+00  0.00000000000E+00  0.82544307194E+03  0.82544307195E+03  0.50400001928E-02 0.  1.
        1   -1    0    0  501    0  0.00000000000E+00  0.00000000000E+00 -0.15844883339E+04  0.15844883339E+04  0.50400001928E-02 0. -1.
    10030    2    1    2    0    0  0.00000000000E+00  0.00000000000E+00 -0.75904526197E+03  0.24099314059E+04  0.22872734142E+04 0.  0.
        3    1    3    3  502    0  0.62227376302E+02  0.11364499694E+04 -0.49738818484E+03  0.12420892866E+04  0.10100000352E+00 0. -1.
       -3    1    3    3    0  502 -0.62227376302E+02 -0.11364499694E+04 -0.26165707713E+03  0.11678421193E+04  0.10100000352E+00 0.  1.
</event>
<event>
 5   0  0.2042951E-05  0.2313147E+04  0.7818609E-02  0.8472755E-01
       -1   -1    0    0    0  501  0.00000000000E+00  0.00000000000E+00  0.99049967675E+03  0.99049967677E+03  0.50400001928E-02 0. -1.
        1   -1    0    0  501    0  0.00000000000E+00  0.00000000000E+00 -0.13504924058E+04  0.13504924058E+04  0.50400001928E-02 0.  1.
    10030    2    1    2    0    0  0.00000000000E+00  0.00000000000E+00 -0.35999272900E+03  0.23409920825E+04  0.23131470264E+04 0.  0.
        2    1    3    3  502    0 -0.16713427767E+03 -0.34745802985E+03 -0.12835358556E+04  0.13401959714E+04  0.25500000920E-02 0.  1.
       -2    1    3    3    0  502  0.16713427767E+03  0.34745802985E+03  0.92354312659E+03  0.10007961111E+04  0.25500000920E-02 0. -1.
</event>
<event>
 5   0  0.4798609E-05  0.2301047E+04  0.7818609E-02  0.8477508E-01
        2   -1    0    0  501    0  0.00000000000E+00  0.00000000000E+00  0.19532664174E+04  0.19532664174E+04  0.25500000920E-02 0.  1.
       -2   -1    0    0    0  501  0.00000000000E+00  0.00000000000E+00 -0.67768766444E+03  0.67768766445E+03  0.25500000920E-02 0. -1.
    10030    2    1    2    0    0  0.00000000000E+00  0.00000000000E+00  0.12755787529E+04  0.26309540818E+04  0.23010472020E+04 0.  0.
        2    1    3    3  502    0 -0.10750422709E+03 -0.66778839681E+03 -0.42634959481E+03  0.79954516992E+03  0.25500000920E-02 0. -1.
       -2    1    3    3    0  502  0.10750422709E+03  0.66778839681E+03  0.17019283477E+04  0.18314089119E+04  0.25500000920E-02 0.  1.
</event>
<event>
 5   0  0.2031860E-05  0.2299761E+04  0.7818609E-02  0.8478016E-01
        1   -1    0    0  501    0  0.00000000000E+00  0.00000000000E+00  0.10145291187E+04  0.10145291187E+04  0.50400001928E-02 0.  1.
       -1   -1    0    0    0  501  0.00000000000E+00  0.00000000000E+00 -0.13032889802E+04  0.13032889802E+04  0.50400001928E-02 0. -1.
    10030    2    1    2    0    0  0.00000000000E+00  0.00000000000E+00 -0.28875986149E+03  0.23178180989E+04  0.22997605271E+04 0.  0.
        4    1    3    3  502    0 -0.56908768570E+03 -0.11146830797E+03  0.85636021738E+03  0.10342342155E+04  0.12699999809E+01 0.  1.
       -4    1    3    3    0  502  0.56908768570E+03  0.11146830797E+03 -0.11451200789E+04  0.12835838834E+04  0.12699999809E+01 0. -1.
</event>
<event>
 5   0  0.4605516E-05  0.2277071E+04  0.7818609E-02  0.8487017E-01
       -2   -1    0    0    0  501  0.00000000000E+00  0.00000000000E+00  0.73834849045E+03  0.73834849046E+03  0.25500000920E-02 0. -1.
        2   -1    0    0  501    0  0.00000000000E+00  0.00000000000E+00 -0.17556254194E+04  0.17556254194E+04  0.25500000920E-02 0.  1.
    10030    2    1    2    0    0  0.00000000000E+00  0.00000000000E+00 -0.10172769290E+04  0.24939739099E+04  0.22770712578E+04 0.  0.
        1    1    3    3  502    0 -0.88943889803E+03  0.58318532966E+03 -0.95360961883E+03  0.14284880074E+04  0.50400001928E-02 0.  1.
       -1    1    3    3    0  502  0.88943889803E+03 -0.58318532966E+03 -0.63667310145E+02  0.10654859025E+04  0.50400001928E-02 0. -1.
</event>
<event>
 5   0  0.2031860E-05  0.2315297E+04  0.7818609E-02  0.8471914E-01
       -1   -1    0    0    0  501  0.00000000000E+00  0.00000000000E+00  0.67429188554E+03  0.67429188556E+03  0.50400001928E-02 0.  1.
        1   -1    0    0  501    0  0.00000000000E+00  0.00000000000E+00 -0.19874931107E+04  0.19874931107E+04  0.50400001928E-02 0. -1.
    10030    2    1    2    0    0  0.00000000000E+00  0.00000000000E+00 -0.13132012251E+04  0.26617849962E+04  0.23152973694E+04 0.  0.
        4    1    3    3  502    0 -0.84797125464E+03  0.36906944228E+03 -0.14571422773E+04  0.17258426148E+04  0.12699999809E+01 0. -1.
       -4    1    3    3    0  502  0.84797125464E+03 -0.36906944228E+03  0.14394105219E+03  0.93594238141E+03  0.12699999809E+01 0.  1.
</event>
<event>
 5   0  0.1968318E-05  0.2293050E+04  0.7818609E-02  0.8480666E-01
       -1   -1    0    0    0  501  0.00000000000E+00  0.00000000000E+00  0.62283518712E+03  0.62283518714E+03  0.50400001928E-02 0.  1.
        1   -1    0    0  501    0  0.00000000000E+00  0.00000000000E+00 -0.21105419611E+04  0.21105419611E+04  0.50400001928E-02 0. -1.
    10030    2    1    2    0    0  0.00000000000E+00  0.00000000000E+00 -0.14877067740E+04  0.27333771483E+04  0.22930501934E+04 0.  0.
        3    1    3    3  502    0 -0.60866945230E+03 -0.22630598360E+03 -0.18701936996E+04  0.19797265934E+04  0.10100000352E+00 0. -1.
       -3    1    3    3    0  502  0.60866945230E+03  0.22630598360E+03  0.38248692562E+03  0.75365055486E+03  0.10100000352E+00 0.  1.
</event>
<event>
 5   0  0.2042951E-05  0.2307389E+04  0.7818609E-02  0.8475013E-01
       -1   -1    0    0    0  501  0.00000000000E+00  0.00000000000E+00  0.75147694632E+03  0.75147694634E+03  0.50400001928E-02 0.  1.
        1   -1    0    0  501    0  0.00000000000E+00  0.00000000000E+00 -0.17711941490E+04  0.17711941490E+04  0.50400001928E-02 0. -1.
    10030    2    1    2    0    0  0.00000000000E+00  0.00000000000E+00 -0.10197172026E+04  0.25226710953E+04  0.23073894950E+04 0.  0.
        2    1    3    3  502    0  0.41406723224E+03  0.90584513041E+02 -0.16829834174E+04  0.17355374989E+04  0.25500000920E-02 0. -1.
       -2    1    3    3    0  502 -0.41406723224E+03 -0.90584513041E+02  0.66326621481E+03  0.78713359637E+03  0.25500000920E-02 0.  1.
</event>
<event>
 5   0  0.4605516E-05  0.2237787E+04  0.7818609E-02  0.8502863E-01
       -2   -1    0    0    0  501  0.00000000000E+00  0.00000000000E+00  0.70437922408E+03  0.70437922409E+03  0.25500000920E-02 0. -1.
        2   -1    0    0  501    0  0.00000000000E+00  0.00000000000E+00 -0.17773421505E+04  0.17773421505E+04  0.25500000920E-02 0.  1.
    10030    2    1    2    0    0  0.00000000000E+00  0.00000000000E+00 -0.10729629264E+04  0.24817213746E+04  0.22377871971E+04 0.  0.
        1    1    3    3  502    0 -0.58381156810E+03  0.11641762655E+02 -0.15949594781E+04  0.16984896863E+04  0.50400001928E-02 0.  1.
       -1    1    3    3    0  502  0.58381156810E+03 -0.11641762655E+02  0.52199655162E+03  0.78323168834E+03  0.50400001928E-02 0. -1.
</event>
<event>
 5   0  0.4436695E-05  0.2258546E+04  0.7818609E-02  0.8494448E-01
       -2   -1    0    0    0  501  0.00000000000E+00  0.00000000000E+00  0.11511071621E+04  0.11511071621E+04  0.25500000920E-02 0. -1.
        2   -1    0    0  501    0  0.00000000000E+00  0.00000000000E+00 -0.11078526898E+04  0.11078526899E+04  0.25500000920E-02 0.  1.
    10030    2    1    2    0    0  0.00000000000E+00  0.00000000000E+00  0.43254472230E+02  0.22589598519E+04  0.22585456965E+04 0.  0.
        5    1    3    3  502    0 -0.73028715754E+03 -0.37065157098E+02  0.88233248914E+03  0.11459606755E+04  0.46999998093E+01 0. -1.
       -5    1    3    3    0  502  0.73028715754E+03  0.37065157098E+02 -0.83907801691E+03  0.11129991765E+04  0.46999998093E+01 0.  1.
</event>
<event>
 5   0  0.2043885E-05  0.2323118E+04  0.7818609E-02  0.8468861E-01
        1   -1    0    0  501    0  0.00000000000E+00  0.00000000000E+00  0.13940581459E+04  0.13940581459E+04  0.50400001928E-02 0. -1.
       -1   -1    0    0    0  501  0.00000000000E+00  0.00000000000E+00 -0.96783567828E+03  0.96783567829E+03  0.50400001928E-02 0.  1.
    10030    2    1    2    0    0  0.00000000000E+00  0.00000000000E+00  0.42622246762E+03  0.23618938242E+04  0.23231179145E+04 0.  0.
        5    1    3    3  502    0  0.55255955582E+03 -0.10200590546E+04  0.15422572624E+03  0.11703205554E+04  0.46999998093E+01 0.  1.
       -5    1    3    3    0  502 -0.55255955582E+03  0.10200590546E+04  0.27199674138E+03  0.11915732688E+04  0.46999998093E+01 0. -1.
</event>
<event>
 5   0  0.4505107E-05  0.2356800E+04  0.7818609E-02  0.8455856E-01
       -2   -1    0    0    0  501  0.00000000000E+00  0.00000000000E+00  0.12502129330E+04  0.12502129330E+04  0.25500000920E-02 0. -1.
        2   -1    0    0  501    0  0.00000000000E+00  0.00000000000E+00 -0.11107120591E+04  0.11107120591E+04  0.25500000920E-02 0.  1.
    10030    2    1    2    0    0  0.00000000000E+00  0.00000000000E+00  0.13950087394E+03  0.23609249921E+04  0.23568000179E+04 0.  0.
        4    1    3    3  502    0 -0.94171355568E+03 -0.34162589681E+03 -0.55189374115E+03  0.11437311698E+04  0.12699999809E+01 0.  1.
       -4    1    3    3    0  502  0.94171355568E+03  0.34162589681E+03  0.69139461509E+03  0.12171938223E+04  0.12699999809E+01 0. -1.
</event>
<event>
 5   0  0.2085063E-05  0.2210346E+04  0.7818609E-02  0.8514134E-01
       -1   -1    0    0    0  501  0.00000000000E+00  0.00000000000E+00  0.20197147965E+04  0.20197147965E+04  0.50400001928E-02 0. -1.
        1   -1    0    0  501    0  0.00000000000E+00  0.00000000000E+00 -0.60474269596E+03  0.60474269598E+03  0.50400001928E-02 0.  1.
    10030    2    1    2    0    0  0.00000000000E+00  0.00000000000E+00  0.14149721006E+04  0.26244574925E+04  0.22103463721E+04 0.  0.
        1    1    3    3  502    0  0.51996172422E+03  0.95513603372E+03  0.47371732646E+03  0.11861927090E+04  0.50400001928E-02 0. -1.
       -1    1    3    3    0  502 -0.51996172422E+03 -0.95513603372E+03  0.94125477412E+03  0.14382647835E+04  0.50400001928E-02 0.  1.
</event>
<event>
 5   0  0.2043885E-05  0.2215878E+04  0.7818609E-02  0.8511848E-01
        1   -1    0    0  501    0  0.00000000000E+00  0.00000000000E+00  0.12502012534E+04  0.12502012535E+04  0.50400001928E-02 0.  1.
       -1   -1    0    0    0  501  0.00000000000E+00  0.00000000000E+00 -0.98186500138E+03  0.98186500139E+03  0.50400001928E-02 0. -1.
    10030    2    1    2    0    0  0.00000000000E+00  0.00000000000E+00  0.26833625207E+03  0.22320662549E+04  0.22158780250E+04 0.  0.
        5    1    3    3  502    0 -0.77394463176E+03 -0.13158555852E+03 -0.65333722338E+03  0.10213602057E+04  0.46999998093E+01 0. -1.
       -5    1    3    3    0  502  0.77394463176E+03  0.13158555852E+03  0.92167347544E+03  0.12107060492E+04  0.46999998093E+01 0.  1.
</event>
<event>
 5   0  0.2042951E-05  0.2304147E+04  0.7818609E-02  0.8476288E-01
        1   -1    0    0  501    0  0.00000000000E+00  0.00000000000E+00  0.15837905916E+04  0.15837905916E+04  0.50400001928E-02 0. -1.
       -1   -1    0    0    0  501  0.00000000000E+00  0.00000000000E+00 -0.83803598702E+03  0.83803598704E+03  0.50400001928E-02 0.  1.
    10030    2    1    2    0    0  0.00000000000E+00  0.00000000000E+00  0.74575460457E+03  0.24218265786E+04  0.23041471409E+04 0.  0.
        2    1    3    3  502    0 -0.11471785377E+04  0.69169323713E+02  0.28832948725E+03  0.11848784267E+04  0.25500000920E-02 0.  1.
       -2    1    3    3    0  502  0.11471785377E+04 -0.69169323713E+02  0.45742511732E+03  0.12369481520E+04  0.25500000920E-02 0. -1.
</event>
<event>
 5   0  0.2042951E-05  0.2271540E+04  0.7818609E-02  0.8489228E-01
       -1   -1    0    0    0  501  0.00000000000E+00  0.00000000000E+00  0.13129634426E+04  0.13129634426E+04  0.50400001928E-02 0.  1.
        1   -1    0    0  501    0  0.00000000000E+00  0.00000000000E+00 -0.98249017352E+03  0.98249017353E+03  0.50400001928E-02 0. -1.
    10030    2    1    2    0    0  0.00000000000E+00  0.00000000000E+00  0.33047326908E+03  0.22954536161E+04  0.22715401652E+04 0.  0.
        2    1    3    3  502    0 -0.79180495104E+03 -0.41280482938E+03  0.87448779278E+03  0.12498367123E+04  0.25500000920E-02 0.  1.
       -2    1    3    3    0  502  0.79180495104E+03  0.41280482938E+03 -0.54401452370E+03  0.10456169039E+04  0.25500000920E-02 0. -1.
</event>
<event>
 5   0  0.2043885E-05  0.2336078E+04  0.7818609E-02  0.8463831E-01
       -1   -1    0    0    0  501  0.00000000000E+00  0.00000000000E+00  0.74765966987E+03  0.74765966988E+03  0.50400001928E-02 0. -1.
        1   -1    0    0  501    0  0.00000000000E+00  0.00000000000E+00 -0.18247802228E+04  0.18247802228E+04  0.50400001928E-02 0.  1.
    10030    2    1    2    0    0  0.00000000000E+00  0.00000000000E+00 -0.10771205529E+04  0.25724398927E+04  0.23360775492E+04 0.  0.
        5    1    3    3  502    0  0.16655532705E+03 -0.71194632883E+03 -0.15415913782E+04  0.17062046534E+04  0.46999998093E+01 0.  1.
       -5    1    3    3    0  502 -0.16655532705E+03  0.71194632883E+03  0.46447082530E+03  0.86623523921E+03  0.46999998093E+01 0. -1.
</event>
<event>
 5   0  0.2043885E-05  0.2339944E+04  0.7818609E-02  0.8462336E-01
        1   -1    0    0  501    0  0.00000000000E+00  0.00000000000E+00  0.85934360697E+03  0.85934360699E+03  0.50400001928E-02 0.  1.
       -1   -1    0    0    0  501  0.00000000000E+00  0.00000000000E+00 -0.15928835817E+04  0.15928835817E+04  0.50400001928E-02 0. -1.
    10030    2    1    2    0    0  0.00000000000E+00  0.00000000000E+00 -0.73353997472E+03  0.24522271887E+04  0.23399438648E+04 0.  0.
        5    1    3    3  502    0  0.16358046469E+03  0.10432207098E+04  0.16113205127E+03  0.10682011261E+04  0.46999998093E+01 0.  1.
       -5    1    3    3    0  502 -0.16358046469E+03 -0.10432207098E+04 -0.89467202599E+03  0.13840260626E+04  0.46999998093E+01 0. -1.
</event>
<event>
 5   0  0.2042951E-05  0.2155226E+04  0.7818609E-02  0.8537298E-01
       -1   -1    0    0    0  501  0.00000000000E+00  0.00000000000E+00  0.10492400434E+04  0.10492400434E+04  0.50400001928E-02 0.  1.
        1   -1    0    0  501    0  0.00000000000E+00  0.00000000000E+00 -0.11067534047E+04  0.11067534047E+04  0.50400001928E-02 0. -1.
    10030    2    1    2    0    0  0.00000000000E+00  0.00000000000E+00 -0.57513361239E+02  0.21559934481E+04  0.21552261973E+04 0.  0.
        2    1    3    3  502    0  0.21253913203E+02 -0.45695372231E+03  0.94729121127E+03  0.10519596343E+04  0.25500000920E-02 0.  1.
       -2    1    3    3    0  502 -0.21253913203E+02  0.45695372231E+03 -0.10048045725E+04  0.11040338138E+04  0.25500000920E-02 0. -1.
</event>
<event>
 5   0  0.2042951E-05  0.2269872E+04  0.7818609E-02  0.8489896E-01
        1   -1    0    0  501    0  0.00000000000E+00  0.00000000000E+00  0.14465676733E+04  0.14465676733E+04  0.50400001928E-02 0. -1.
       -1   -1    0    0    0  501  0.00000000000E+00  0.00000000000E+00 -0.89043861224E+03  0.89043861225E+03  0.50400001928E-02 0.  1.
    10030    2    1    2    0    0  0.00000000000E+00  0.00000000000E+00  0.55612906106E+03  0.23370062856E+04  0.22698719889E+04 0.  0.
        2    1    3    3  502    0  0.43082925648E+03  0.65032058435E+03 -0.57066420044E+03  0.96653418995E+03  0.25500000920E-02 0.  1.
       -2    1    3    3    0  502 -0.43082925648E+03 -0.65032058435E+03  0.11267932615E+04  0.13704720956E+04  0.25500000920E-02 0. -1.
</event>
<event>
 5   0  0.1604500E-05  0.2247199E+04  0.7818609E-02  0.8499036E-01
        4   -1    0    0  501    0  0.00000000000E+00  0.00000000000E+00  0.10852597899E+04  0.10852605329E+04  0.12699999809E+01 0. -1.
       -4   -1    0    0    0  501  0.00000000000E+00  0.00000000000E+00 -0.11632916990E+04  0.11632923922E+04  0.12699999809E+01 0.  1.
    10030    2    1    2    0    0  0.00000000000E+00  0.00000000000E+00 -0.78031909102E+02  0.22485529251E+04  0.22471985400E+04 0.  0.
        5    1    3    3  502    0  0.75049055587E+03  0.19959724116E+03 -0.85152635417E+03  0.11524731472E+04  0.46999998093E+01 0.  1.
       -5    1    3    3    0  502 -0.75049055587E+03 -0.19959724116E+03  0.77349444506E+03  0.10960797780E+04  0.46999998093E+01 0. -1.
</event>
<event>
 5   0  0.4605516E-05  0.2299279E+04  0.7818609E-02  0.8478206E-01
       -2   -1    0    0    0  501  0.00000000000E+00  0.00000000000E+00  0.91987299801E+03  0.91987299801E+03  0.25500000920E-02 0. -1.
        2   -1    0    0  501    0  0.00000000000E+00  0.00000000000E+00 -0.14367966611E+04  0.14367966611E+04  0.25500000920E-02 0.  1.
    10030    2    1    2    0    0  0.00000000000E+00  0.00000000000E+00 -0.51692366310E+03  0.23566696591E+04  0.22992785409E+04 0.  0.
        1    1    3    3  502    0 -0.31564326399E+03  0.10854336712E+04 -0.47315014337E+03  0.12254256334E+04  0.50400001928E-02 0.  1.
       -1    1    3    3    0  502  0.31564326399E+03 -0.10854336712E+04 -0.43773519731E+02  0.11312440257E+04  0.50400001928E-02 0. -1.
</event>
<event>
 5   0  0.2043885E-05  0.2289885E+04  0.7818609E-02  0.8481920E-01
       -1   -1    0    0    0  501  0.00000000000E+00  0.00000000000E+00  0.10968396139E+04  0.10968396140E+04  0.50400001928E-02 0.  1.
        1   -1    0    0  501    0  0.00000000000E+00  0.00000000000E+00 -0.11951549569E+04  0.11951549569E+04  0.50400001928E-02 0. -1.
    10030    2    1    2    0    0  0.00000000000E+00  0.00000000000E+00 -0.98315342945E+02  0.22919945709E+04  0.22898849766E+04 0.  0.
        5    1    3    3  502    0 -0.10251200521E+04  0.47908198098E+03  0.12558995572E+03  0.11385014680E+04  0.46999998093E+01 0.  1.
       -5    1    3    3    0  502  0.10251200521E+04 -0.47908198098E+03 -0.22390529867E+03  0.11534931029E+04  0.46999998093E+01 0. -1.
</event>
<event>
 5   0  0.2042951E-05  0.2314995E+04  0.7818609E-02  0.8472032E-01
       -1   -1    0    0    0  501  0.00000000000E+00  0.00000000000E+00  0.83640763747E+03  0.83640763749E+03  0.50400001928E-02 0. -1.
        1   -1    0    0  501    0  0.00000000000E+00  0.00000000000E+00 -0.16018506773E+04  0.16018506773E+04  0.50400001928E-02 0.  1.
    10030    2    1    2    0    0  0.00000000000E+00  0.00000000000E+00 -0.76544303981E+03  0.24382583148E+04  0.23149947219E+04 0.  0.
        2    1    3    3  502    0  0.52490523295E+03 -0.56092250296E+02 -0.14676813439E+04  0.15597308651E+04  0.25500000920E-02 0.  1.
       -2    1    3    3    0  502 -0.52490523295E+03  0.56092250296E+02  0.70223830412E+03  0.87852744971E+03  0.25500000920E-02 0. -1.
</event>
<event>
 5   0  0.2085063E-05  0.2304769E+04  0.7818609E-02  0.8476043E-01
        1   -1    0    0  501    0  0.00000000000E+00  0.00000000000E+00  0.22163364563E+04  0.22163364563E+04  0.50400001928E-02 0.  1.
       -1   -1    0    0    0  501  0.00000000000E+00  0.00000000000E+00 -0.59918262587E+03  0.59918262589E+03  0.50400001928E-02 0. -1.
    10030    2    1    2    0    0  0.00000000000E+00  0.00000000000E+00  0.16171538304E+04  0.28155190822E+04  0.23047692272E+04 0.  0.
        1    1    3    3  502    0  0.18841728336E+03 -0.10104234299E+04  0.14451421418E+04  0.17733844452E+04  0.50400001928E-02 0.  1.
       -1    1    3    3    0  502 -0.18841728336E+03  0.10104234299E+04  0.17201168854E+03  0.10421346369E+04  0.50400001928E-02 0. -1.
</event>
<event>
 5   0  0.4436695E-05  0.2328449E+04  0.7818609E-02  0.8466788E-01
       -2   -1    0    0    0  501  0.00000000000E+00  0.00000000000E+00  0.13224993213E+04  0.13224993213E+04  0.25500000920E-02 0. -1.
        2   -1    0    0  501    0  0.00000000000E+00  0.00000000000E+00 -0.10248921352E+04  0.10248921352E+04  0.25500000920E-02 0.  1.
    10030    2    1    2    0    0  0.00000000000E+00  0.00000000000E+00  0.29760718618E+03  0.23473914565E+04  0.23284494009E+04 0.  0.
        5    1    3    3  502    0  0.37429031923E+02 -0.86212104722E+03 -0.63905471112E+03  0.10738094087E+04  0.46999998093E+01 0.  1.
       -5    1    3    3    0  502 -0.37429031923E+02  0.86212104722E+03  0.93666189730E+03  0.12735820478E+04  0.46999998093E+01 0. -1.
</event>
<event>
 5   0  0.4436695E-05  0.2331448E+04  0.7818609E-02  0.8465624E-01
       -2   -1    0    0    0  501  0.00000000000E+00  0.00000000000E+00  0.10425449762E+04  0.10425449762E+04  0.25500000920E-02 0. -1.
        2   -1    0    0  501    0  0.00000000000E+00  0.00000000000E+00 -0.13034569994E+04  0.13034569994E+04  0.25500000920E-02 0.  1.
    10030    2    1    2    0    0  0.00000000000E+00  0.00000000000E+00 -0.26091202323E+03  0.23460019756E+04  0.23314480877E+04 0.  0.
        5    1    3    3  502    0  0.40733671896E+03  0.79406423162E+03  0.62417834379E+03  0.10890738733E+04  0.46999998093E+01 0. -1.
       -5    1    3    3    0  502 -0.40733671896E+03 -0.79406423162E+03 -0.88509036702E+03  0.12569281023E+04  0.46999998093E+01 0.  1.
</event>
<event>
 5   0  0.4505107E-05  0.2284986E+04  0.7818609E-02  0.8483864E-01
       -2   -1    0    0    0  501  0.00000000000E+00  0.00000000000E+00  0.12621088848E+04  0.12621088848E+04  0.25500000920E-02 0.  1.
        2   -1    0    0  501    0  0.00000000000E+00  0.00000000000E+00 -0.10342139047E+04  0.10342139047E+04  0.25500000920E-02 0. -1.
    10030    2    1    2    0    0  0.00000000000E+00  0.00000000000E+00  0.22789498010E+03  0.22963227895E+04  0.22849862650E+04 0.  0.
        4    1    3    3  502    0  0.62865478166E+03  0.80416332283E+03 -0.40182726361E+03  0.10969741323E+04  0.12699999809E+01 0. -1.
       -4    1    3    3    0  502 -0.62865478166E+03 -0.80416332283E+03  0.62972224371E+03  0.11993486572E+04  0.12699999809E+01 0.  1.
</event>
<event>
 5   0  0.2043885E-05  0.2304772E+04  0.7818609E-02  0.8476042E-01
       -1   -1    0    0    0  501  0.00000000000E+00  0.00000000000E+00  0.11934762563E+04  0.11934762563E+04  0.50400001928E-02 0. -1.
        1   -1    0    0  501    0  0.00000000000E+00  0.00000000000E+00 -0.11127103227E+04  0.11127103227E+04  0.50400001928E-02 0.  1.
    10030    2    1    2    0    0  0.00000000000E+00  0.00000000000E+00  0.80765933621E+02  0.23061865790E+04  0.23047718761E+04 0.  0.
        5    1    3    3  502    0 -0.71589208878E+03  0.76222310994E+03 -0.44415150878E+03  0.11361242031E+04  0.46999998093E+01 0. -1.
       -5    1    3    3    0  502  0.71589208878E+03 -0.76222310994E+03  0.52491744240E+03  0.11700623759E+04  0.46999998093E+01 0.  1.
</event>
<event>
 5   0  0.4798609E-05  0.2295765E+04  0.7818609E-02  0.8479593E-01
        2   -1    0    0  501    0  0.00000000000E+00  0.00000000000E+00  0.21333471914E+04  0.21333471914E+04  0.25500000920E-02 0. -1.
       -2   -1    0    0    0  501  0.00000000000E+00  0.00000000000E+00 -0.61763678462E+03  0.61763678462E+03  0.25500000920E-02 0.  1.
    10030    2    1    2    0    0  0.00000000000E+00  0.00000000000E+00  0.15157104067E+04  0.27509839760E+04  0.22957645347E+04 0.  0.
        2    1    3    3  502    0 -0.73197657971E+03 -0.11457426539E+03 -0.29276048825E+03  0.79663396803E+03  0.25500000920E-02 0.  1.
       -2    1    3    3    0  502  0.73197657971E+03  0.11457426539E+03  0.18084708950E+04  0.19543500079E+04  0.25500000920E-02 0. -1.
</event>
<event>
 5   0  0.2042951E-05  0.2266606E+04  0.7818609E-02  0.8491206E-01
        1   -1    0    0  501    0  0.00000000000E+00  0.00000000000E+00  0.97875296271E+03  0.97875296272E+03  0.50400001928E-02 0.  1.
       -1   -1    0    0    0  501  0.00000000000E+00  0.00000000000E+00 -0.13122569726E+04  0.13122569726E+04  0.50400001928E-02 0. -1.
    10030    2    1    2    0    0  0.00000000000E+00  0.00000000000E+00 -0.33350400987E+03  0.22910099353E+04  0.22666057441E+04 0.  0.
        2    1    3    3  502    0 -0.79227611287E+02  0.38116533355E+03 -0.12425476651E+04  0.13021093372E+04  0.25500000920E-02 0. -1.
       -2    1    3    3    0  502  0.79227611287E+02 -0.38116533355E+03  0.90904365523E+03  0.98890059814E+03  0.25500000920E-02 0.  1.
</event>
<event>
 5   0  0.4798609E-05  0.2212644E+04  0.7818609E-02  0.8513184E-01
       -2   -1    0    0    0  501  0.00000000000E+00  0.00000000000E+00  0.96744311015E+03  0.96744311016E+03  0.25500000920E-02 0.  1.
        2   -1    0    0  501    0  0.00000000000E+00  0.00000000000E+00 -0.12651370789E+04  0.12651370789E+04  0.25500000920E-02 0. -1.
    10030    2    1    2    0    0  0.00000000000E+00  0.00000000000E+00 -0.29769396870E+03  0.22325801890E+04  0.22126438036E+04 0.  0.
        2    1    3    3  502    0  0.12352918299E+03 -0.15859735072E+03 -0.12465534405E+04  0.12626591222E+04  0.25500000920E-02 0. -1.
       -2    1    3    3    0  502 -0.12352918299E+03  0.15859735072E+03  0.94885947180E+03  0.96992106686E+03  0.25500000920E-02 0.  1.
</event>
<event>
 5   0  0.2043885E-05  0.2288814E+04  0.7818609E-02  0.8482344E-01
        1   -1    0    0  501    0  0.00000000000E+00  0.00000000000E+00  0.10078649752E+04  0.10078649753E+04  0.50400001928E-02 0.  1.
       -1   -1    0    0    0  501  0.00000000000E+00  0.00000000000E+00 -0.12994477959E+04  0.12994477959E+04  0.50400001928E-02 0. -1.
    10030    2    1    2    0    0  0.00000000000E+00  0.00000000000E+00 -0.29158282066E+03  0.23073127712E+04  0.22888144710E+04 0.  0.
        5    1    3    3  502    0  0.67700325188E+03  0.49961571689E+03  0.63616878189E+03  0.10548374646E+04  0.46999998093E+01 0.  1.
       -5    1    3    3    0  502 -0.67700325188E+03 -0.49961571689E+03 -0.92775160255E+03  0.12524753066E+04  0.46999998093E+01 0. -1.
</event>
<event>
 5   0  0.4505107E-05  0.2289323E+04  0.7818609E-02  0.8482143E-01
       -2   -1    0    0    0  501  0.00000000000E+00  0.00000000000E+00  0.96058136540E+03  0.96058136540E+03  0.25500000920E-02 0.  1.
        2   -1    0    0  501    0  0.00000000000E+00  0.00000000000E+00 -0.13640181461E+04  0.13640181461E+04  0.25500000920E-02 0. -1.
    10030    2    1    2    0    0  0.00000000000E+00  0.00000000000E+00 -0.40343678065E+03  0.23245995115E+04  0.22893234050E+04 0.  0.
        4    1    3    3  502    0  0.42200638987E+03  0.97038607809E+03  0.24148205317E+03  0.10853818354E+04  0.12699999809E+01 0.  1.
       -4    1    3    3    0  502 -0.42200638987E+03 -0.97038607809E+03 -0.64491883382E+03  0.12392176761E+04  0.12699999809E+01 0. -1.
</event>
<event>
 5   0  0.2085063E-05  0.2313046E+04  0.7818609E-02  0.8472795E-01
       -1   -1    0    0    0  501  0.00000000000E+00  0.00000000000E+00  0.82589286085E+03  0.82589286087E+03  0.50400001928E-02 0. -1.
        1   -1    0    0  501    0  0.00000000000E+00  0.00000000000E+00 -0.16195138019E+04  0.16195138019E+04  0.50400001928E-02 0.  1.
    10030    2    1    2    0    0  0.00000000000E+00  0.00000000000E+00 -0.79362094102E+03  0.24454066628E+04  0.23130455136E+04 0.  0.
        1    1    3    3  502    0 -0.98040798027E+03 -0.60708995898E+03 -0.49010326946E+03  0.12529801438E+04  0.50400001928E-02 0. -1.
       -1    1    3    3    0  502  0.98040798027E+03  0.60708995898E+03 -0.30351767156E+03  0.11924265189E+04  0.50400001928E-02 0.  1.
</event>
<event>
 5   0  0.2043885E-05  0.2299035E+04  0.7818609E-02  0.8478302E-01
       -1   -1    0    0    0  501  0.00000000000E+00  0.00000000000E+00  0.73097498349E+03  0.73097498351E+03  0.50400001928E-02 0.  1.
        1   -1    0    0  501    0  0.00000000000E+00  0.00000000000E+00 -0.18077091562E+04  0.18077091562E+04  0.50400001928E-02 0. -1.
    10030    2    1    2    0    0  0.00000000000E+00  0.00000000000E+00 -0.10767341727E+04  0.25386841397E+04  0.22990347284E+04 0.  0.
        5    1    3    3  502    0  0.33325731351E+03 -0.96892264439E+03  0.37000375474E+02  0.10253109995E+04  0.46999998093E+01 0.  1.
       -5    1    3    3    0  502 -0.33325731351E+03  0.96892264439E+03 -0.11137345481E+04  0.15133731402E+04  0.46999998093E+01 0. -1.
</event>
<event>
 5   0  0.2085063E-05  0.2302806E+04  0.7818609E-02  0.8476816E-01
        1   -1    0    0  501    0  0.00000000000E+00  0.00000000000E+00  0.20089385815E+04  0.20089385815E+04  0.50400001928E-02 0. -1.
       -1   -1    0    0    0  501  0.00000000000E+00  0.00000000000E+00 -0.65991495938E+03  0.65991495940E+03  0.50400001928E-02 0.  1.
    10030    2    1    2    0    0  0.00000000000E+00  0.00000000000E+00  0.13490236221E+04  0.26688535409E+04  0.23028057864E+04 0.  0.
        1    1    3    3  502    0  0.30425429246E+03  0.24795781468E+03 -0.57998911778E+03  0.70031502133E+03  0.50400001928E-02 0.  1.
       -1    1    3    3    0  502 -0.30425429246E+03 -0.24795781468E+03  0.19290127399E+04  0.19685385196E+04  0.50400001928E-02 0. -1.
</event>
<event>
 5   0  0.4798609E-05  0.2022725E+04  0.7818609E-02  0.8596069E-01
        2   -1    0    0  501    0  0.00000000000E+00  0.00000000000E+00  0.71180619113E+03  0.71180619113E+03  0.25500000920E-02 0. -1.
       -2   -1    0    0    0  501  0.00000000000E+00  0.00000000000E+00 -0.14369838629E+04  0.14369838629E+04  0.25500000920E-02 0.  1.
    10030    2    1    2    0    0  0.00000000000E+00  0.00000000000E+00 -0.72517767178E+03  0.21487900540E+04  0.20227249048E+04 0.  0.
        2    1    3    3  502    0  0.63260314618E+03  0.21315453976E+03  0.44452077314E+03  0.80201017209E+03  0.25500000920E-02 0. -1.
       -2    1    3    3    0  502 -0.63260314618E+03 -0.21315453976E+03 -0.11696984449E+04  0.13467798820E+04  0.25500000920E-02 0.  1.
</event>
<event>
 5   0  0.4602447E-05  0.2303115E+04  0.7818609E-02  0.8476694E-01
        2   -1    0    0  501    0  0.00000000000E+00  0.00000000000E+00  0.13630033542E+04  0.13630033542E+04  0.25500000920E-02 0. -1.
       -2   -1    0    0    0  501  0.00000000000E+00  0.00000000000E+00 -0.97291358204E+03  0.97291358204E+03  0.25500000920E-02 0.  1.
    10030    2    1    2    0    0  0.00000000000E+00  0.00000000000E+00  0.39008977215E+03  0.23359169362E+04  0.23031148262E+04 0.  0.
        3    1    3    3  502    0 -0.75318022134E+03 -0.42905393010E+03 -0.57385311127E+03  0.10395552531E+04  0.10100000352E+00 0.  1.
       -3    1    3    3    0  502  0.75318022134E+03  0.42905393010E+03  0.96394288342E+03  0.12963616831E+04  0.10100000352E+00 0. -1.
</event>
<event>
 5   0  0.2043885E-05  0.2272191E+04  0.7818609E-02  0.8488967E-01
       -1   -1    0    0    0  501  0.00000000000E+00  0.00000000000E+00  0.77168310011E+03  0.77168310012E+03  0.50400001928E-02 0.  1.
        1   -1    0    0  501    0  0.00000000000E+00  0.00000000000E+00 -0.16725951213E+04  0.16725951213E+04  0.50400001928E-02 0. -1.
    10030    2    1    2    0    0  0.00000000000E+00  0.00000000000E+00 -0.90091202123E+03  0.24442782215E+04  0.22721913550E+04 0.  0.
        5    1    3    3  502    0  0.55017738917E+02 -0.35565517829E+03  0.70873322108E+03  0.79488516536E+03  0.46999998093E+01 0.  1.
       -5    1    3    3    0  502 -0.55017738917E+02  0.35565517829E+03 -0.16096452423E+04  0.16493930561E+04  0.46999998093E+01 0. -1.
</event>
<event>
 5   0  0.4436695E-05  0.2262310E+04  0.7818609E-02  0.8492932E-01
       -2   -1    0    0    0  501  0.00000000000E+00  0.00000000000E+00  0.15117862316E+04  0.15117862316E+04  0.25500000920E-02 0. -1.
        2   -1    0    0  501    0  0.00000000000E+00  0.00000000000E+00 -0.84635767364E+03  0.84635767364E+03  0.25500000920E-02 0.  1.
    10030    2    1    2    0    0  0.00000000000E+00  0.00000000000E+00  0.66542855798E+03  0.23581439053E+04  0.22623102157E+04 0.  0.
        5    1    3    3  502    0 -0.26128637216E+03  0.58237806381E+03  0.13061114698E+04  0.14537482723E+04  0.46999998093E+01 0. -1.
       -5    1    3    3    0  502  0.26128637216E+03 -0.58237806381E+03 -0.64068291184E+03  0.90439563301E+03  0.46999998093E+01 0.  1.
</event>
<event>
 5   0  0.4436695E-05  0.2310481E+04  0.7818609E-02  0.8473800E-01
       -2   -1    0    0    0  501  0.00000000000E+00  0.00000000000E+00  0.94606768880E+03  0.94606768881E+03  0.25500000920E-02 0.  1.
        2   -1    0    0  501    0  0.00000000000E+00  0.00000000000E+00 -0.14106610394E+04  0.14106610394E+04  0.25500000920E-02 0. -1.
    10030    2    1    2    0    0  0.00000000000E+00  0.00000000000E+00 -0.46459335063E+03  0.23567287282E+04  0.23104811874E+04 0.  0.
        5    1    3    3  502    0 -0.74591299872E+03 -0.79122211025E+03  0.16556217370E+03  0.10999325219E+04  0.46999998093E+01 0.  1.
       -5    1    3    3    0  502  0.74591299872E+03  0.79122211025E+03 -0.63015552434E+03  0.12567962063E+04  0.46999998093E+01 0. -1.
</event>
<event>
 5   0  0.4436695E-05  0.2279781E+04  0.7818609E-02  0.8485936E-01
       -2   -1    0    0    0  501  0.00000000000E+00  0.00000000000E+00  0.87473532643E+03  0.87473532643E+03  0.25500000920E-02 0. -1.
        2   -1    0    0  501    0  0.00000000000E+00  0.00000000000E+00 -0.14854214785E+04  0.14854214785E+04  0.25500000920E-02 0.  1.
    10030    2    1    2    0    0  0.00000000000E+00  0.00000000000E+00 -0.61068615203E+03  0.23601568049E+04  0.22797812543E+04 0.  0.
        5    1    3    3  502    0 -0.71619800516E+03 -0.82923459870E+03  0.19995761431E+02  0.10958975877E+04  0.46999998093E+01 0.  1.
       -5    1    3    3    0  502  0.71619800516E+03  0.82923459870E+03 -0.63068191346E+03  0.12642592172E+04  0.46999998093E+01 0. -1.
</event>
<event>
 5   0  0.2085063E-05  0.2303677E+04  0.7818609E-02  0.8476473E-01
       -1   -1    0    0    0  501  0.00000000000E+00  0.00000000000E+00  0.83186276241E+03  0.83186276243E+03  0.50400001928E-02 0.  1.
        1   -1    0    0  501    0  0.00000000000E+00  0.00000000000E+00 -0.15948923756E+04  0.15948923756E+04  0.50400001928E-02 0. -1.
    10030    2    1    2    0    0  0.00000000000E+00  0.00000000000E+00 -0.76302961315E+03  0.24267551380E+04  0.23036766937E+04 0.  0.
        1    1    3    3  502    0  0.61535031289E+03 -0.96949277794E+03 -0.47666978132E+03  0.12432965594E+04  0.50400001928E-02 0.  1.
       -1    1    3    3    0  502 -0.61535031289E+03  0.96949277794E+03 -0.28635983183E+03  0.11834585786E+04  0.50400001928E-02 0. -1.
</event>
<event>
 5   0  0.4505107E-05  0.2392827E+04  0.7818609E-02  0.8442194E-01
       -2   -1    0    0    0  501  0.00000000000E+00  0.00000000000E+00  0.86636080636E+03  0.86636080636E+03  0.25500000920E-02 0.  1.
        2   -1    0    0  501    0  0.00000000000E+00  0.00000000000E+00 -0.16522045513E+04  0.16522045513E+04  0.25500000920E-02 0. -1.
    10030    2    1    2    0    0  0.00000000000E+00  0.00000000000E+00 -0.78584374495E+03  0.25185653577E+04  0.23928270037E+04 0.  0.
        4    1    3    3  502    0  0.67226796508E+03  0.97249760510E+03 -0.19967724767E+03  0.11989864157E+04  0.12699999809E+01 0. -1.
       -4    1    3    3    0  502 -0.67226796508E+03 -0.97249760510E+03 -0.58616649728E+03  0.13195789420E+04  0.12699999809E+01 0.  1.
</event>
<event>
 5   0  0.2085063E-05  0.2232387E+04  0.7818609E-02  0.8505068E-01
        1   -1    0    0  501    0  0.00000000000E+00  0.00000000000E+00  0.13923655743E+04  0.13923655743E+04  0.50400001928E-02 0.  1.
       -1   -1    0    0    0  501  0.00000000000E+00  0.00000000000E+00 -0.89479950179E+03  0.89479950180E+03  0.50400001928E-02 0. -1.
    10030    2    1    2    0    0  0.00000000000E+00  0.00000000000E+00  0.49756607254E+03  0.22871650761E+04  0.22323870831E+04 0.  0.
        1    1    3    3  502    0  0.92928538381E+03  0.37935061942E+03 -0.25147038376E+03  0.10347538697E+04  0.50400001928E-02 0. -1.
       -1    1    3    3    0  502 -0.92928538381E+03 -0.37935061942E+03  0.74903645630E+03  0.12524112064E+04  0.50400001928E-02 0.  1.
</event>
<event>
 5   0  0.1968318E-05  0.2338506E+04  0.7818609E-02  0.8462892E-01
       -1   -1    0    0    0  501  0.00000000000E+00  0.00000000000E+00  0.11864223277E+04  0.11864223277E+04  0.50400001928E-02 0.  1.
        1   -1    0    0  501    0  0.00000000000E+00  0.00000000000E+00 -0.11523321052E+04  0.11523321053E+04  0.50400001928E-02 0. -1.
    10030    2    1    2    0    0  0.00000000000E+00  0.00000000000E+00  0.34090222444E+02  0.23387544330E+04  0.23385059663E+04 0.  0.
        3    1    3    3  502    0  0.39609801507E+03  0.51077940440E+03 -0.95741116879E+03  0.11551733177E+04  0.10100000352E+00 0. -1.
       -3    1    3    3    0  502 -0.39609801507E+03 -0.51077940440E+03  0.99150139123E+03  0.11835811153E+04  0.10100000352E+00 0.  1.
</event>
<event>
 5   0  0.2042951E-05  0.2291333E+04  0.7818609E-02  0.8481346E-01
        1   -1    0    0  501    0  0.00000000000E+00  0.00000000000E+00  0.14109999766E+04  0.14109999766E+04  0.50400001928E-02 0.  1.
       -1   -1    0    0    0  501  0.00000000000E+00  0.00000000000E+00 -0.93022790307E+03  0.93022790308E+03  0.50400001928E-02 0. -1.
    10030    2    1    2    0    0  0.00000000000E+00  0.00000000000E+00  0.48077207355E+03  0.23412278797E+04  0.22913328431E+04 0.  0.
        2    1    3    3  502    0 -0.43587559895E+03 -0.24300434635E+03 -0.81333800219E+03  0.95423129058E+03  0.25500000920E-02 0. -1.
       -2    1    3    3    0  502  0.43587559895E+03  0.24300434635E+03  0.12941100757E+04  0.13869965891E+04  0.25500000920E-02 0.  1.
</event>
<event>
 5   0  0.4505107E-05  0.2298221E+04  0.7818609E-02  0.8478623E-01
        2   -1    0    0  501    0  0.00000000000E+00  0.00000000000E+00  0.18034053665E+04  0.18034053665E+04  0.25500000920E-02 0. -1.
       -2   -1    0    0    0  501  0.00000000000E+00  0.00000000000E+00 -0.73220058244E+03  0.73220058245E+03  0.25500000920E-02 0.  1.
    10030    2    1    2    0    0  0.00000000000E+00  0.00000000000E+00  0.10712047841E+04  0.25356059489E+04  0.22982205810E+04 0.  0.
        4    1    3    3  502    0 -0.26877890001E+03 -0.13438976505E+02 -0.69694205667E+03  0.74709607577E+03  0.12699999809E+01 0.  1.
       -4    1    3    3    0  502  0.26877890001E+03  0.13438976505E+02  0.17681468407E+04  0.17885098732E+04  0.12699999809E+01 0. -1.
</event>
<event>
 5   0  0.2031860E-05  0.2316731E+04  0.7818609E-02  0.8471353E-01
       -1   -1    0    0    0  501  0.00000000000E+00  0.00000000000E+00  0.80662348786E+03  0.80662348788E+03  0.50400001928E-02 0.  1.
        1   -1    0    0  501    0  0.00000000000E+00  0.00000000000E+00 -0.16634905682E+04  0.16634905682E+04  0.50400001928E-02 0. -1.
    10030    2    1    2    0    0  0.00000000000E+00  0.00000000000E+00 -0.85686708037E+03  0.24701140561E+04  0.23167309418E+04 0.  0.
        4    1    3    3  502    0 -0.68398296428E+03 -0.69253547355E+03 -0.10980002060E+04  0.14673255068E+04  0.12699999809E+01 0. -1.
       -4    1    3    3    0  502  0.68398296428E+03  0.69253547355E+03  0.24113312561E+03  0.10027885494E+04  0.12699999809E+01 0.  1.
</event>
<event>
 5   0  0.1968318E-05  0.2153400E+04  0.7818609E-02  0.8538078E-01
       -1   -1    0    0    0  501  0.00000000000E+00  0.00000000000E+00  0.92335067041E+03  0.92335067042E+03  0.50400001928E-02 0. -1.
        1   -1    0    0  501    0  0.00000000000E+00  0.00000000000E+00 -0.12555178371E+04  0.12555178371E+04  0.50400001928E-02 0.  1.
    10030    2    1    2    0    0  0.00000000000E+00  0.00000000000E+00 -0.33216716664E+03  0.21788685075E+04  0.21534003219E+04 0.  0.
        3    1    3    3  502    0  0.85120732231E+03 -0.16811023738E+03  0.47900532119E+03  0.99109084619E+03  0.10100000352E+00 0. -1.
       -3    1    3    3    0  502 -0.85120732231E+03  0.16811023738E+03 -0.81117248783E+03  0.11877776613E+04  0.10100000352E+00 0.  1.
</event>
<event>
 5   0  0.4605516E-05  0.2357313E+04  0.7818609E-02  0.8455660E-01
       -2   -1    0    0    0  501  0.00000000000E+00  0.00000000000E+00  0.95884986835E+03  0.95884986835E+03  0.25500000920E-02 0.  1.
        2   -1    0    0  501    0  0.00000000000E+00  0.00000000000E+00 -0.14488518202E+04  0.14488518202E+04  0.25500000920E-02 0. -1.
    10030    2    1    2    0    0  0.00000000000E+00  0.00000000000E+00 -0.49000195188E+03  0.24077016886E+04  0.23573131969E+04 0.  0.
        1    1    3    3  502    0  0.26474478980E+03  0.58441906386E+03  0.76486812089E+03  0.99832794627E+03  0.50400001928E-02 0.  1.
       -1    1    3    3    0  502 -0.26474478980E+03 -0.58441906386E+03 -0.12548700728E+04  0.14093737423E+04  0.50400001928E-02 0. -1.
</event>
<event>
 5   0  0.4436695E-05  0.2322648E+04  0.7818609E-02  0.8469045E-01
       -2   -1    0    0    0  501  0.00000000000E+00  0.00000000000E+00  0.91786530690E+03  0.91786530690E+03  0.25500000920E-02 0. -1.
        2   -1    0    0  501    0  0.00000000000E+00  0.00000000000E+00 -0.14693587665E+04  0.14693587665E+04  0.25500000920E-02 0.  1.
    10030    2    1    2    0    0  0.00000000000E+00  0.00000000000E+00 -0.55149345960E+03  0.23872240734E+04  0.23226480019E+04 0.  0.
        5    1    3    3  502    0  0.30920691891E+03  0.69684163246E+03  0.62465435992E+03  0.98560252577E+03  0.46999998093E+01 0. -1.
       -5    1    3    3    0  502 -0.30920691891E+03 -0.69684163246E+03 -0.11761478195E+04  0.14016215476E+04  0.46999998093E+01 0.  1.
</event>
<event>
 5   0  0.2031860E-05  0.2307715E+04  0.7818609E-02  0.8474885E-01
        1   -1    0    0  501    0  0.00000000000E+00  0.00000000000E+00  0.12598563341E+04  0.12598563341E+04  0.50400001928E-02 0.  1.
       -1   -1    0    0    0  501  0.00000000000E+00  0.00000000000E+00 -0.10567768188E+04  0.10567768189E+04  0.50400001928E-02 0. -1.
    10030    2    1    2    0    0  0.00000000000E+00  0.00000000000E+00  0.20307951528E+03  0.23166331530E+04  0.23077148602E+04 0.  0.
        4    1    3    3  502    0  0.52167848521E+03  0.56952241588E+03  0.96210473806E+03  0.12337549854E+04  0.12699999809E+01 0.  1.
       -4    1    3    3    0  502 -0.52167848521E+03 -0.56952241588E+03 -0.75902522278E+03  0.10828781676E+04  0.12699999809E+01 0. -1.
</event>
<event>
 5   0  0.4505107E-05  0.2288391E+04  0.7818609E-02  0.8482512E-01
        2   -1    0    0  501    0  0.00000000000E+00  0.00000000000E+00  0.19741979883E+04  0.19741979883E+04  0.25500000920E-02 0. -1.
       -2   -1    0    0    0  501  0.00000000000E+00  0.00000000000E+00 -0.66314695554E+03  0.66314695554E+03  0.25500000920E-02 0.  1.
    10030    2    1    2    0    0  0.00000000000E+00  0.00000000000E+00  0.13110510328E+04  0.26373449438E+04  0.22883910379E+04 0.  0.
        4    1    3    3  502    0  0.17062491232E+02  0.11073841431E+04  0.32431579968E+03  0.11540247484E+04  0.12699999809E+01 0.  1.
       -4    1    3    3    0  502 -0.17062491232E+02 -0.11073841431E+04  0.98673523307E+03  0.14833201954E+04  0.12699999809E+01 0. -1.
</event>
<event>
 5   0  0.4798609E-05  0.2263127E+04  0.7818609E-02  0.8492603E-01
       -2   -1    0    0    0  501  0.00000000000E+00  0.00000000000E+00  0.81107536638E+03  0.81107536639E+03  0.25500000920E-02 0.  1.
        2   -1    0    0  501    0  0.00000000000E+00  0.00000000000E+00 -0.15786886967E+04  0.15786886967E+04  0.25500000920E-02 0. -1.
    10030    2    1    2    0    0  0.00000000000E+00  0.00000000000E+00 -0.76761333034E+03  0.23897640631E+04  0.22631266099E+04 0.  0.
        2    1    3    3  502    0  0.26252512297E+03  0.60022291733E+03  0.59045218683E+03  0.88194148084E+03  0.25500000920E-02 0.  1.
       -2    1    3    3    0  502 -0.26252512297E+03 -0.60022291733E+03 -0.13580655172E+04  0.15078225823E+04  0.25500000920E-02 0. -1.
</event>
<event>
 5   0  0.2085063E-05  0.2286293E+04  0.7818609E-02  0.8483345E-01
        1   -1    0    0  501    0  0.00000000000E+00  0.00000000000E+00  0.10503447491E+04  0.10503447491E+04  0.50400001928E-02 0.  1.
       -1   -1    0    0    0  501  0.00000000000E+00  0.00000000000E+00 -0.12441479463E+04  0.12441479464E+04  0.50400001928E-02 0. -1.
    10030    2    1    2    0    0  0.00000000000E+00  0.00000000000E+00 -0.19380319722E+03  0.22944926955E+04  0.22862932993E+04 0.  0.
        1    1    3    3  502    0 -0.45322208861E+03 -0.76866784175E+03 -0.81397351051E+03  0.12078134742E+04  0.50400001928E-02 0. -1.
       -1    1    3    3    0  502  0.45322208861E+03  0.76866784175E+03  0.62017031329E+03  0.10866792213E+04  0.50400001928E-02 0.  1.
</event>
<event>
 5   0  0.4798609E-05  0.2297717E+04  0.7818609E-02  0.8478822E-01
       -2   -1    0    0    0  501  0.00000000000E+00  0.00000000000E+00  0.78918734792E+03  0.78918734793E+03  0.25500000920E-02 0.  1.
        2   -1    0    0  501    0  0.00000000000E+00  0.00000000000E+00 -0.16724497807E+04  0.16724497807E+04  0.25500000920E-02 0. -1.
    10030    2    1    2    0    0  0.00000000000E+00  0.00000000000E+00 -0.88326243282E+03  0.24616371287E+04  0.22977173081E+04 0.  0.
        2    1    3    3  502    0 -0.48855731052E+03  0.35267856655E+03 -0.14895782567E+04  0.16068334698E+04  0.25500000920E-02 0. -1.
       -2    1    3    3    0  502  0.48855731052E+03 -0.35267856655E+03  0.60631582384E+03  0.85480365887E+03  0.25500000920E-02 0.  1.
</event>
<event>
 5   0  0.2042951E-05  0.2277535E+04  0.7818609E-02  0.8486832E-01
       -1   -1    0    0    0  501  0.00000000000E+00  0.00000000000E+00  0.11142505557E+04  0.11142505557E+04  0.50400001928E-02 0. -1.
        1   -1    0    0  501    0  0.00000000000E+00  0.00000000000E+00 -0.11638236211E+04  0.11638236211E+04  0.50400001928E-02 0.  1.
    10030    2    1    2    0    0  0.00000000000E+00  0.00000000000E+00 -0.49573065387E+02  0.22780741768E+04  0.22775347344E+04 0.  0.
        2    1    3    3  502    0  0.43338148130E+03 -0.93428886655E+03  0.46120499629E+03  0.11284614495E+04  0.25500000920E-02 0. -1.
       -2    1    3    3    0  502 -0.43338148130E+03  0.93428886655E+03 -0.51077806167E+03  0.11496127273E+04  0.25500000920E-02 0.  1.
</event>
<event>
 5   0  0.2031860E-05  0.2307903E+04  0.7818609E-02  0.8474812E-01
       -1   -1    0    0    0  501  0.00000000000E+00  0.00000000000E+00  0.52659941272E+03  0.52659941274E+03  0.50400001928E-02 0. -1.
        1   -1    0    0  501    0  0.00000000000E+00  0.00000000000E+00 -0.25286844186E+04  0.25286844186E+04  0.50400001928E-02 0.  1.
    10030    2    1    2    0    0  0.00000000000E+00  0.00000000000E+00 -0.20020850059E+04  0.30552838314E+04  0.23079027101E+04 0.  0.
        4    1    3    3  502    0  0.26512287515E+03 -0.57583755731E+03  0.27542826048E+03  0.69118837585E+03  0.12699999809E+01 0. -1.
       -4    1    3    3    0  502 -0.26512287515E+03  0.57583755731E+03 -0.22775132664E+04  0.23640954555E+04  0.12699999809E+01 0.  1.
</event>
<event>
 5   0  0.4605516E-05  0.2273287E+04  0.7818609E-02  0.8488529E-01
        2   -1    0    0  501    0  0.00000000000E+00  0.00000000000E+00  0.20477322809E+04  0.20477322809E+04  0.25500000920E-02 0. -1.
       -2   -1    0    0    0  501  0.00000000000E+00  0.00000000000E+00 -0.63092182960E+03  0.63092182960E+03  0.25500000920E-02 0.  1.
    10030    2    1    2    0    0  0.00000000000E+00  0.00000000000E+00  0.14168104513E+04  0.26786541105E+04  0.22732874848E+04 0.  0.
        1    1    3    3  502    0  0.33399210268E+03  0.15673337782E+03 -0.55840536455E+03  0.66927769092E+03  0.50400001928E-02 0.  1.
       -1    1    3    3    0  502 -0.33399210268E+03 -0.15673337782E+03  0.19752158158E+04  0.20093764195E+04  0.50400001928E-02 0. -1.
</event>
<event>
 5   0  0.4798609E-05  0.2288781E+04  0.7818609E-02  0.8482358E-01
        2   -1    0    0  501    0  0.00000000000E+00  0.00000000000E+00  0.65268440254E+03  0.65268440255E+03  0.25500000920E-02 0. -1.
       -2   -1    0    0    0  501  0.00000000000E+00  0.00000000000E+00 -0.20065288233E+04  0.20065288233E+04  0.25500000920E-02 0.  1.
    10030    2    1    2    0    0  0.00000000000E+00  0.00000000000E+00 -0.13538444207E+04  0.26592132258E+04  0.22887813930E+04 0.  0.
        2    1    3    3  502    0 -0.44400519428E+02  0.35755736242E+03  0.58506554390E+03  0.68711015435E+03  0.25500000920E-02 0. -1.
       -2    1    3    3    0  502  0.44400519428E+02 -0.35755736242E+03 -0.19389099646E+04  0.19721030715E+04  0.25500000920E-02 0.  1.
</event>
<event>
 5   0  0.2085063E-05  0.2286217E+04  0.7818609E-02  0.8483375E-01
       -1   -1    0    0    0  501  0.00000000000E+00  0.00000000000E+00  0.10868468413E+04  0.10868468413E+04  0.50400001928E-02 0.  1.
        1   -1    0    0  501    0  0.00000000000E+00  0.00000000000E+00 -0.12022826323E+04  0.12022826323E+04  0.50400001928E-02 0. -1.
    10030    2    1    2    0    0  0.00000000000E+00  0.00000000000E+00 -0.11543579093E+03  0.22891294736E+04  0.22862170337E+04 0.  0.
        1    1    3    3  502    0  0.61858081698E+03 -0.47318142144E+02  0.90361761752E+03  0.10960866902E+04  0.50400001928E-02 0.  1.
       -1    1    3    3    0  502 -0.61858081698E+03  0.47318142144E+02 -0.10190534085E+04  0.11930427834E+04  0.50400001928E-02 0. -1.
</event>
<event>
 5   0  0.2042951E-05  0.2279525E+04  0.7818609E-02  0.8486038E-01
        1   -1    0    0  501    0  0.00000000000E+00  0.00000000000E+00  0.16350285257E+04  0.16350285257E+04  0.50400001928E-02 0.  1.
       -1   -1    0    0    0  501  0.00000000000E+00  0.00000000000E+00 -0.79451715841E+03  0.79451715842E+03  0.50400001928E-02 0. -1.
    10030    2    1    2    0    0  0.00000000000E+00  0.00000000000E+00  0.84051136728E+03  0.24295456841E+04  0.22795247032E+04 0.  0.
        2    1    3    3  502    0  0.66549901604E+03 -0.84937191755E+03  0.29033388478E+02  0.10794278727E+04  0.25500000920E-02 0. -1.
       -2    1    3    3    0  502 -0.66549901604E+03  0.84937191755E+03  0.81147797880E+03  0.13501178114E+04  0.25500000920E-02 0.  1.
</event>
<event>
 5   0  0.4605516E-05  0.2353120E+04  0.7818609E-02  0.8457266E-01
        2   -1    0    0  501    0  0.00000000000E+00  0.00000000000E+00  0.22229737726E+04  0.22229737726E+04  0.25500000920E-02 0. -1.
       -2   -1    0    0    0  501  0.00000000000E+00  0.00000000000E+00 -0.62272133048E+03  0.62272133048E+03  0.25500000920E-02 0.  1.
    10030    2    1    2    0    0  0.00000000000E+00  0.00000000000E+00  0.16002524421E+04  0.28456951031E+04  0.23531197890E+04 0.  0.
        1    1    3    3  502    0  0.50739372432E+03  0.94995500319E+03  0.13730344517E+04  0.17450176232E+04  0.50400001928E-02 0. -1.
       -1    1    3    3    0  502 -0.50739372432E+03 -0.94995500319E+03  0.22721799038E+03  0.11006774799E+04  0.50400001928E-02 0.  1.
</event>
<event>
 5   0  0.2042951E-05  0.2314139E+04  0.7818609E-02  0.8472367E-01
       -1   -1    0    0    0  501  0.00000000000E+00  0.00000000000E+00  0.19251972514E+04  0.19251972514E+04  0.50400001928E-02 0. -1.
        1   -1    0    0  501    0  0.00000000000E+00  0.00000000000E+00 -0.69541419335E+03  0.69541419337E+03  0.50400001928E-02 0.  1.
    10030    2    1    2    0    0  0.00000000000E+00  0.00000000000E+00  0.12297830581E+04  0.26206114448E+04  0.23141387112E+04 0.  0.
        2    1    3    3  502    0 -0.83629023148E+03  0.32875161284E+01 -0.29064390459E+03  0.88536209446E+03  0.25500000920E-02 0.  1.
       -2    1    3    3    0  502  0.83629023148E+03 -0.32875161284E+01  0.15204269627E+04  0.17352493503E+04  0.25500000920E-02 0. -1.
</event>
<event>
 5   0  0.1968318E-05  0.2278887E+04  0.7818609E-02  0.8486293E-01
       -1   -1    0    0    0  501  0.00000000000E+00  0.00000000000E+00  0.12066612055E+04  0.12066612055E+04  0.50400001928E-02 0.  1.
        1   -1    0    0  501    0  0.00000000000E+00  0.00000000000E+00 -0.10759700442E+04  0.10759700442E+04  0.50400001928E-02 0. -1.
    10030    2    1    2    0    0  0.00000000000E+00  0.00000000000E+00  0.13069116130E+03  0.22826312497E+04  0.22788868428E+04 0.  0.
        3    1    3    3  502    0 -0.12533057714E+02 -0.42681412079E+02  0.12057911325E+04  0.12066113898E+04  0.10100000352E+00 0.  1.
       -3    1    3    3    0  502  0.12533057714E+02  0.42681412079E+02 -0.10750999712E+04  0.10760198599E+04  0.10100000352E+00 0. -1.
</event>
<event>
 5   0  0.4505107E-05  0.2300970E+04  0.7818609E-02  0.8477539E-01
       -2   -1    0    0    0  501  0.00000000000E+00  0.00000000000E+00  0.53226150976E+03  0.53226150977E+03  0.25500000920E-02 0.  1.
        2   -1    0    0  501    0  0.00000000000E+00  0.00000000000E+00 -0.24867766305E+04  0.24867766305E+04  0.25500000920E-02 0. -1.
    10030    2    1    2    0    0  0.00000000000E+00  0.00000000000E+00 -0.19545151207E+04  0.30190381403E+04  0.23009697815E+04 0.  0.
        4    1    3    3  502    0  0.27690764769E+03 -0.43624607871E+03  0.37145128086E+03  0.63636951019E+03  0.12699999809E+01 0.  1.
       -4    1    3    3    0  502 -0.27690764769E+03  0.43624607871E+03 -0.23259664016E+04  0.23826686301E+04  0.12699999809E+01 0. -1.
</event>
<event>
 5   0  0.4505107E-05  0.2315796E+04  0.7818609E-02  0.8471719E-01
        2   -1    0    0  501    0  0.00000000000E+00  0.00000000000E+00  0.12825212744E+04  0.12825212744E+04  0.25500000920E-02 0. -1.
       -2   -1    0    0    0  501  0.00000000000E+00  0.00000000000E+00 -0.10453840048E+04  0.10453840048E+04  0.25500000920E-02 0.  1.
    10030    2    1    2    0    0  0.00000000000E+00  0.00000000000E+00  0.23713726964E+03  0.23279052792E+04  0.23157955229E+04 0.  0.
        4    1    3    3  502    0  0.99881263705E+03  0.24619477955E+03 -0.41570577634E+03  0.11095275836E+04  0.12699999809E+01 0.  1.
       -4    1    3    3    0  502 -0.99881263705E+03 -0.24619477955E+03  0.65284304597E+03  0.12183776955E+04  0.12699999809E+01 0. -1.
</event>
<event>
 5   0  0.4505107E-05  0.1852224E+04  0.7818609E-02  0.8679010E-01
       -2   -1    0    0    0  501  0.00000000000E+00  0.00000000000E+00  0.88226086158E+03  0.88226086158E+03  0.25500000920E-02 0. -1.
        2   -1    0    0  501    0  0.00000000000E+00  0.00000000000E+00 -0.97214219982E+03  0.97214219982E+03  0.25500000920E-02 0.  1.
    10030    2    1    2    0    0  0.00000000000E+00  0.00000000000E+00 -0.89881338242E+02  0.18544030614E+04  0.18522235446E+04 0.  0.
        4    1    3    3  502    0  0.68906161596E+03  0.70187680059E+02 -0.66043979339E+03  0.95703424945E+03  0.12699999809E+01 0.  1.
       -4    1    3    3    0  502 -0.68906161596E+03 -0.70187680059E+02  0.57055845515E+03  0.89736881195E+03  0.12699999809E+01 0. -1.
</event>
<event>
 5   0  0.4602447E-05  0.2246238E+04  0.7818609E-02  0.8499425E-01
        2   -1    0    0  501    0  0.00000000000E+00  0.00000000000E+00  0.15505211237E+04  0.15505211237E+04  0.25500000920E-02 0. -1.
       -2   -1    0    0    0  501  0.00000000000E+00  0.00000000000E+00 -0.81353075413E+03  0.81353075414E+03  0.25500000920E-02 0.  1.
    10030    2    1    2    0    0  0.00000000000E+00  0.00000000000E+00  0.73699036952E+03  0.23640518778E+04  0.22462382946E+04 0.  0.
        3    1    3    3  502    0  0.27422728928E+03 -0.33792619073E+02 -0.77720308505E+03  0.82485586189E+03  0.10100000352E+00 0.  1.
       -3    1    3    3    0  502 -0.27422728928E+03  0.33792619073E+02  0.15141934546E+04  0.15391960159E+04  0.10100000352E+00 0. -1.
</event>
<event>
 5   0  0.2085063E-05  0.2299178E+04  0.7818609E-02  0.8478245E-01
       -1   -1    0    0    0  501  0.00000000000E+00  0.00000000000E+00  0.76360781879E+03  0.76360781881E+03  0.50400001928E-02 0. -1.
        1   -1    0    0  501    0  0.00000000000E+00  0.00000000000E+00 -0.17306723478E+04  0.17306723478E+04  0.50400001928E-02 0.  1.
    10030    2    1    2    0    0  0.00000000000E+00  0.00000000000E+00 -0.96706452896E+03  0.24942801666E+04  0.22991780588E+04 0.  0.
        1    1    3    3  502    0  0.10182478552E+04  0.44978566416E+02 -0.10603491517E+04  0.14707794157E+04  0.50400001928E-02 0.  1.
       -1    1    3    3    0  502 -0.10182478552E+04 -0.44978566416E+02  0.93284622745E+02  0.10235007509E+04  0.50400001928E-02 0. -1.
</event>
<event>
 5   0  0.4798609E-05  0.2294332E+04  0.7818609E-02  0.8480159E-01
        2   -1    0    0  501    0  0.00000000000E+00  0.00000000000E+00  0.22140930099E+04  0.22140930099E+04  0.25500000920E-02 0.  1.
       -2   -1    0    0    0  501  0.00000000000E+00  0.00000000000E+00 -0.59436986319E+03  0.59436986320E+03  0.25500000920E-02 0. -1.
    10030    2    1    2    0    0  0.00000000000E+00  0.00000000000E+00  0.16197231467E+04  0.28084628731E+04  0.22943322858E+04 0.  0.
        2    1    3    3  502    0  0.26430783997E+03 -0.85284446356E+03  0.16915340165E+04  0.19127178679E+04  0.25500000920E-02 0.  1.
       -2    1    3    3    0  502 -0.26430783997E+03  0.85284446356E+03 -0.71810869786E+02  0.89574500518E+03  0.25500000920E-02 0. -1.
</event>
<event>
 5   0  0.4605516E-05  0.2305270E+04  0.7818609E-02  0.8475846E-01
       -2   -1    0    0    0  501  0.00000000000E+00  0.00000000000E+00  0.86496386657E+03  0.86496386658E+03  0.25500000920E-02 0.  1.
        2   -1    0    0  501    0  0.00000000000E+00  0.00000000000E+00 -0.15359802751E+04  0.15359802751E+04  0.25500000920E-02 0. -1.
    10030    2    1    2    0    0  0.00000000000E+00  0.00000000000E+00 -0.67101640854E+03  0.24009441417E+04  0.23052699953E+04 0.  0.
        1    1    3    3  502    0 -0.23289450243E+02 -0.11739228860E+03  0.85847515753E+03  0.86677733244E+03  0.50400001928E-02 0.  1.
       -1    1    3    3    0  502  0.23289450243E+02  0.11739228860E+03 -0.15294915661E+04  0.15341668093E+04  0.50400001928E-02 0. -1.
</event>
<event>
 5   0  0.2042951E-05  0.2309113E+04  0.7818609E-02  0.8474337E-01
       -1   -1    0    0    0  501  0.00000000000E+00  0.00000000000E+00  0.57699345931E+03  0.57699345933E+03  0.50400001928E-02 0. -1.
        1   -1    0    0  501    0  0.00000000000E+00  0.00000000000E+00 -0.23102523211E+04  0.23102523211E+04  0.50400001928E-02 0.  1.
    10030    2    1    2    0    0  0.00000000000E+00  0.00000000000E+00 -0.17332588618E+04  0.28872457805E+04  0.23091127982E+04 0.  0.
        2    1    3    3  502    0  0.85809571840E+03  0.58784055943E+03 -0.24005086508E+03  0.10674779637E+04  0.25500000920E-02 0. -1.
       -2    1    3    3    0  502 -0.85809571840E+03 -0.58784055943E+03 -0.14932079967E+04  0.18197678167E+04  0.25500000920E-02 0.  1.
</event>
<event>
 5   0  0.2042951E-05  0.2293774E+04  0.7818609E-02  0.8480380E-01
       -1   -1    0    0    0  501  0.00000000000E+00  0.00000000000E+00  0.14293896074E+04  0.14293896074E+04  0.50400001928E-02 0.  1.
        1   -1    0    0  501    0  0.00000000000E+00  0.00000000000E+00 -0.92021751251E+03  0.92021751252E+03  0.50400001928E-02 0. -1.
    10030    2    1    2    0    0  0.00000000000E+00  0.00000000000E+00  0.50917209486E+03  0.23496071199E+04  0.22937736147E+04 0.  0.
        2    1    3    3  502    0 -0.10863167406E+04  0.31815368906E+03  0.65585999477E+02  0.11338462656E+04  0.25500000920E-02 0. -1.
       -2    1    3    3    0  502  0.10863167406E+04 -0.31815368906E+03  0.44358609538E+03  0.12157608543E+04  0.25500000920E-02 0.  1.
</event>
<event>
 5   0  0.4605516E-05  0.2289241E+04  0.7818609E-02  0.8482175E-01
        2   -1    0    0  501    0  0.00000000000E+00  0.00000000000E+00  0.10864387623E+04  0.10864387623E+04  0.25500000920E-02 0. -1.
       -2   -1    0    0    0  501  0.00000000000E+00  0.00000000000E+00 -0.12059179307E+04  0.12059179307E+04  0.25500000920E-02 0.  1.
    10030    2    1    2    0    0  0.00000000000E+00  0.00000000000E+00 -0.11947916842E+03  0.22923566930E+04  0.22892409083E+04 0.  0.
        1    1    3    3  502    0  0.32601500456E+03 -0.21732108068E+03 -0.11366761651E+04  0.12023090034E+04  0.50400001928E-02 0.  1.
       -1    1    3    3    0  502 -0.32601500456E+03  0.21732108068E+03  0.10171969967E+04  0.10900476895E+04  0.50400001928E-02 0. -1.
</event>
<event>
 5   0  0.4505107E-05  0.2329364E+04  0.7818609E-02  0.8466432E-01
        2   -1    0    0  501    0  0.00000000000E+00  0.00000000000E+00  0.16161605645E+04  0.16161605645E+04  0.25500000920E-02 0.  1.
       -2   -1    0    0    0  501  0.00000000000E+00  0.00000000000E+00 -0.83932518661E+03  0.83932518661E+03  0.25500000920E-02 0. -1.
    10030    2    1    2    0    0  0.00000000000E+00  0.00000000000E+00  0.77683537792E+03  0.24554857511E+04  0.23293640913E+04 0.  0.
        4    1    3    3  502    0 -0.10531014756E+04  0.10242005650E+03 -0.12473521308E+03  0.10653980815E+04  0.12699999809E+01 0. -1.
       -4    1    3    3    0  502  0.10531014756E+04 -0.10242005650E+03  0.90157059101E+03  0.13900876696E+04  0.12699999809E+01 0.  1.
</event>
<event>
 5   0  0.4505107E-05  0.2303134E+04  0.7818609E-02  0.8476686E-01
       -2   -1    0    0    0  501  0.00000000000E+00  0.00000000000E+00  0.10300449012E+04  0.10300449012E+04  0.25500000920E-02 0.  1.
        2   -1    0    0  501    0  0.00000000000E+00  0.00000000000E+00 -0.12874263460E+04  0.12874263460E+04  0.25500000920E-02 0. -1.
    10030    2    1    2    0    0  0.00000000000E+00  0.00000000000E+00 -0.25738144476E+03  0.23174712472E+04  0.23031343369E+04 0.  0.
        4    1    3    3  502    0 -0.63309168186E+03 -0.15907425982E+03  0.82589577157E+03  0.10527179756E+04  0.12699999809E+01 0.  1.
       -4    1    3    3    0  502  0.63309168186E+03  0.15907425982E+03 -0.10832772163E+04  0.12647532716E+04  0.12699999809E+01 0. -1.
</event>
<event>
 5   0  0.1968318E-05  0.2302965E+04  0.7818609E-02  0.8476753E-01
        1   -1    0    0  501    0  0.00000000000E+00  0.00000000000E+00  0.86896097978E+03  0.86896097979E+03  0.50400001928E-02 0.  1.
       -1   -1    0    0    0  501  0.00000000000E+00  0.00000000000E+00 -0.15258588743E+04  0.15258588743E+04  0.50400001928E-02 0. -1.
    10030    2    1    2    0    0  0.00000000000E+00  0.00000000000E+00 -0.65689789453E+03  0.23948198541E+04  0.23029648911E+04 0.  0.
        3    1    3    3  502    0 -0.30960632719E+03  0.68258898902E+02  0.82267964961E+03  0.88165592563E+03  0.10100000352E+00 0.  1.
       -3    1    3    3    0  502  0.30960632719E+03 -0.68258898902E+02 -0.14795775441E+04  0.15131639285E+04  0.10100000352E+00 0. -1.
</event>
<event>
 5   0  0.2043885E-05  0.2293148E+04  0.7818609E-02  0.8480628E-01
       -1   -1    0    0    0  501  0.00000000000E+00  0.00000000000E+00  0.74246734432E+03  0.74246734434E+03  0.50400001928E-02 0.  1.
        1   -1    0    0  501    0  0.00000000000E+00  0.00000000000E+00 -0.17706255414E+04  0.17706255414E+04  0.50400001928E-02 0. -1.
    10030    2    1    2    0    0  0.00000000000E+00  0.00000000000E+00 -0.10281581971E+04  0.25130928857E+04  0.22931477436E+04 0.  0.
        5    1    3    3  502    0  0.29729144616E+03  0.87490717328E+03  0.22982361929E+03  0.95220047878E+03  0.46999998093E+01 0.  1.
       -5    1    3    3    0  502 -0.29729144616E+03 -0.87490717328E+03 -0.12579818163E+04  0.15608924069E+04  0.46999998093E+01 0. -1.
</event>
<event>
 5   0  0.4798609E-05  0.2280211E+04  0.7818609E-02  0.8485765E-01
       -2   -1    0    0    0  501  0.00000000000E+00  0.00000000000E+00  0.90964731417E+03  0.90964731417E+03  0.25500000920E-02 0. -1.
        2   -1    0    0  501    0  0.00000000000E+00  0.00000000000E+00 -0.14289498649E+04  0.14289498649E+04  0.25500000920E-02 0.  1.
    10030    2    1    2    0    0  0.00000000000E+00  0.00000000000E+00 -0.51930255068E+03  0.23385971790E+04  0.22802108733E+04 0.  0.
        2    1    3    3  502    0  0.32938685198E+03 -0.20379998339E+03  0.84009753755E+03  0.92509134905E+03  0.25500000920E-02 0. -1.
       -2    1    3    3    0  502 -0.32938685198E+03  0.20379998339E+03 -0.13594000882E+04  0.14135058300E+04  0.25500000920E-02 0.  1.
</event>
<event>
 5   0  0.2042951E-05  0.2316801E+04  0.7818609E-02  0.8471326E-01
       -1   -1    0    0    0  501  0.00000000000E+00  0.00000000000E+00  0.62871282377E+03  0.62871282379E+03  0.50400001928E-02 0.  1.
        1   -1    0    0  501    0  0.00000000000E+00  0.00000000000E+00 -0.21343471083E+04  0.21343471083E+04  0.50400001928E-02 0. -1.
    10030    2    1    2    0    0  0.00000000000E+00  0.00000000000E+00 -0.15056342845E+04  0.27630599321E+04  0.23168007229E+04 0.  0.
        2    1    3    3  502    0  0.40939969894E+03  0.63147364984E+03  0.29744892449E+03  0.80922366910E+03  0.25500000920E-02 0.  1.
       -2    1    3    3    0  502 -0.40939969894E+03 -0.63147364984E+03 -0.18030832090E+04  0.19538362630E+04  0.25500000920E-02 0. -1.
</event>
<event>
 5   0  0.2042951E-05  0.2043514E+04  0.7818609E-02  0.8586542E-01
       -1   -1    0    0    0  501  0.00000000000E+00  0.00000000000E+00  0.16733229003E+04  0.16733229003E+04  0.50400001928E-02 0. -1.
        1   -1    0    0  501    0  0.00000000000E+00  0.00000000000E+00 -0.62390087247E+03  0.62390087249E+03  0.50400001928E-02 0.  1.
    10030    2    1    2    0    0  0.00000000000E+00  0.00000000000E+00  0.10494220278E+04  0.22972237728E+04  0.20435142451E+04 0.  0.
        2    1    3    3  502    0 -0.44317840730E+03 -0.49669850334E+03 -0.34668645774E+03  0.75053847597E+03  0.25500000920E-02 0.  1.
       -2    1    3    3    0  502  0.44317840730E+03  0.49669850334E+03  0.13961084856E+04  0.15466852968E+04  0.25500000920E-02 0. -1.
</event>
<event>
 5   0  0.2085063E-05  0.2023089E+04  0.7818609E-02  0.8595901E-01
        1   -1    0    0  501    0  0.00000000000E+00  0.00000000000E+00  0.17938205172E+04  0.17938205172E+04  0.50400001928E-02 0.  1.
       -1   -1    0    0    0  501  0.00000000000E+00  0.00000000000E+00 -0.57041519272E+03  0.57041519274E+03  0.50400001928E-02 0. -1.
    10030    2    1    2    0    0  0.00000000000E+00  0.00000000000E+00  0.12234053245E+04  0.23642357099E+04  0.20230891983E+04 0.  0.
        1    1    3    3  502    0 -0.85053653415E+03  0.42614239424E+03  0.20990455813E+03  0.97420206304E+03  0.50400001928E-02 0. -1.
       -1    1    3    3    0  502  0.85053653415E+03 -0.42614239424E+03  0.10135007663E+04  0.13900336469E+04  0.50400001928E-02 0.  1.
</event>
<event>
 5   0  0.4798609E-05  0.2294672E+04  0.7818609E-02  0.8480025E-01
        2   -1    0    0  501    0  0.00000000000E+00  0.00000000000E+00  0.12023068117E+04  0.12023068117E+04  0.25500000920E-02 0.  1.
       -2   -1    0    0    0  501  0.00000000000E+00  0.00000000000E+00 -0.10948786281E+04  0.10948786281E+04  0.25500000920E-02 0. -1.
    10030    2    1    2    0    0  0.00000000000E+00  0.00000000000E+00  0.10742818365E+03  0.22971854398E+04  0.22946721182E+04 0.  0.
        2    1    3    3  502    0 -0.50579452089E+03 -0.82298689369E+02 -0.97394757570E+03  0.11005339849E+04  0.25500000920E-02 0. -1.
       -2    1    3    3    0  502  0.50579452089E+03  0.82298689369E+02  0.10813757594E+04  0.11966514549E+04  0.25500000920E-02 0.  1.
</event>
<event>
 5   0  0.4505107E-05  0.2255709E+04  0.7818609E-02  0.8495592E-01
       -2   -1    0    0    0  501  0.00000000000E+00  0.00000000000E+00  0.14522701316E+04  0.14522701316E+04  0.25500000920E-02 0. -1.
        2   -1    0    0  501    0  0.00000000000E+00  0.00000000000E+00 -0.87590817623E+03  0.87590817624E+03  0.25500000920E-02 0.  1.
    10030    2    1    2    0    0  0.00000000000E+00  0.00000000000E+00  0.57636195534E+03  0.23281783078E+04  0.22557085648E+04 0.  0.
        4    1    3    3  502    0 -0.96739998620E+03  0.57715376159E+03  0.34550328200E+03  0.11782798176E+04  0.12699999809E+01 0. -1.
       -4    1    3    3    0  502  0.96739998620E+03 -0.57715376159E+03  0.23085867334E+03  0.11498984902E+04  0.12699999809E+01 0.  1.
</event>
<event>
 5   0  0.2085063E-05  0.2288332E+04  0.7818609E-02  0.8482536E-01
       -1   -1    0    0    0  501  0.00000000000E+00  0.00000000000E+00  0.22795587138E+04  0.22795587138E+04  0.50400001928E-02 0. -1.
        1   -1    0    0  501    0  0.00000000000E+00  0.00000000000E+00 -0.57428467825E+03  0.57428467828E+03  0.50400001928E-02 0.  1.
    10030    2    1    2    0    0  0.00000000000E+00  0.00000000000E+00  0.17052740355E+04  0.28538433920E+04  0.22883318313E+04 0.  0.
        1    1    3    3  502    0 -0.86533645889E+03 -0.48161878007E+02 -0.78951036101E+02  0.87026433898E+03  0.50400001928E-02 0.  1.
       -1    1    3    3    0  502  0.86533645889E+03  0.48161878007E+02  0.17842250716E+04  0.19835790531E+04  0.50400001928E-02 0. -1.
</event>
<event>
 5   0  0.4605516E-05  0.2311896E+04  0.7818609E-02  0.8473245E-01
       -2   -1    0    0    0  501  0.00000000000E+00  0.00000000000E+00  0.93964289468E+03  0.93964289469E+03  0.25500000920E-02 0. -1.
        2   -1    0    0  501    0  0.00000000000E+00  0.00000000000E+00 -0.14220463135E+04  0.14220463135E+04  0.25500000920E-02 0.  1.
    10030    2    1    2    0    0  0.00000000000E+00  0.00000000000E+00 -0.48240341879E+03  0.23616892082E+04  0.23118959443E+04 0.  0.
        1    1    3    3  502    0  0.97905127747E+03 -0.69862261253E+02 -0.86492027476E+03  0.13082466209E+04  0.50400001928E-02 0.  1.
       -1    1    3    3    0  502 -0.97905127747E+03  0.69862261253E+02  0.38251685597E+03  0.10534425872E+04  0.50400001928E-02 0. -1.
</event>
<event>
 5   0  0.2042951E-05  0.2139233E+04  0.7818609E-02  0.8544155E-01
        1   -1    0    0  501    0  0.00000000000E+00  0.00000000000E+00  0.53944845059E+03  0.53944845062E+03  0.50400001928E-02 0. -1.
       -1   -1    0    0    0  501  0.00000000000E+00  0.00000000000E+00 -0.21208314187E+04  0.21208314187E+04  0.50400001928E-02 0.  1.
    10030    2    1    2    0    0  0.00000000000E+00  0.00000000000E+00 -0.15813829681E+04  0.26602798693E+04  0.21392327810E+04 0.  0.
        2    1    3    3  502    0  0.27774385992E+03  0.17637288421E+03 -0.20563413070E+04  0.20824957663E+04  0.25500000920E-02 0.  1.
       -2    1    3    3    0  502 -0.27774385992E+03 -0.17637288421E+03  0.47495833887E+03  0.57778410299E+03  0.25500000920E-02 0. -1.
</event>
<event>
 5   0  0.2085063E-05  0.2352176E+04  0.7818609E-02  0.8457628E-01
        1   -1    0    0  501    0  0.00000000000E+00  0.00000000000E+00  0.12225991094E+04  0.12225991095E+04  0.50400001928E-02 0. -1.
       -1   -1    0    0    0  501  0.00000000000E+00  0.00000000000E+00 -0.11313462984E+04  0.11313462984E+04  0.50400001928E-02 0.  1.
    10030    2    1    2    0    0  0.00000000000E+00  0.00000000000E+00  0.91252811068E+02  0.23539454078E+04  0.23521759942E+04 0.  0.
        1    1    3    3  502    0  0.64247148915E+03 -0.78741790336E+03  0.63800614808E+03  0.11999368375E+04  0.50400001928E-02 0. -1.
       -1    1    3    3    0  502 -0.64247148915E+03  0.78741790336E+03 -0.54675333701E+03  0.11540085704E+04  0.50400001928E-02 0.  1.
</event>
<event>
 5   0  0.1968318E-05  0.2089439E+04  0.7818609E-02  0.8565910E-01
        1   -1    0    0  501    0  0.00000000000E+00  0.00000000000E+00  0.22253247025E+04  0.22253247025E+04  0.50400001928E-02 0. -1.
       -1   -1    0    0    0  501  0.00000000000E+00  0.00000000000E+00 -0.49046292382E+03  0.49046292385E+03  0.50400001928E-02 0.  1.
    10030    2    1    2    0    0  0.00000000000E+00  0.00000000000E+00  0.17348617787E+04  0.27157876264E+04  0.20894394082E+04 0.  0.
        3    1    3    3  502    0 -0.69190487300E+03  0.43759564725E+03  0.23865133770E+02  0.81901883896E+03  0.10100000352E+00 0.  1.
       -3    1    3    3    0  502  0.69190487300E+03 -0.43759564725E+03  0.17109966449E+04  0.18967687874E+04  0.10100000352E+00 0. -1.
</event>
<event>
 5   0  0.2085063E-05  0.2312916E+04  0.7818609E-02  0.8472846E-01
       -1   -1    0    0    0  501  0.00000000000E+00  0.00000000000E+00  0.11220871087E+04  0.11220871087E+04  0.50400001928E-02 0. -1.
        1   -1    0    0  501    0  0.00000000000E+00  0.00000000000E+00 -0.11918817377E+04  0.11918817377E+04  0.50400001928E-02 0.  1.
    10030    2    1    2    0    0  0.00000000000E+00  0.00000000000E+00 -0.69794629022E+02  0.23139688464E+04  0.23129160235E+04 0.  0.
        1    1    3    3  502    0  0.91116409725E+03  0.46509866552E+03 -0.57445565773E+03  0.11732587453E+04  0.50400001928E-02 0.  1.
       -1    1    3    3    0  502 -0.91116409725E+03 -0.46509866552E+03  0.50466102871E+03  0.11407101011E+04  0.50400001928E-02 0. -1.
</event>
<event>
 5   0  0.2085063E-05  0.2316497E+04  0.7818609E-02  0.8471445E-01
        1   -1    0    0  501    0  0.00000000000E+00  0.00000000000E+00  0.13940991188E+04  0.13940991188E+04  0.50400001928E-02 0.  1.
       -1   -1    0    0    0  501  0.00000000000E+00  0.00000000000E+00 -0.96229821137E+03  0.96229821138E+03  0.50400001928E-02 0. -1.
    10030    2    1    2    0    0  0.00000000000E+00  0.00000000000E+00  0.43180090742E+03  0.23563973302E+04  0.23164965690E+04 0.  0.
        1    1    3    3  502    0 -0.67301271010E+03  0.61828785405E+03  0.93971356729E+03  0.13108346833E+04  0.50400001928E-02 0.  1.
       -1    1    3    3    0  502  0.67301271010E+03 -0.61828785405E+03 -0.50791265987E+03  0.10455626469E+04  0.50400001928E-02 0. -1.
</event>
<event>
 5   0  0.2042951E-05  0.2387165E+04  0.7818609E-02  0.8444324E-01
        1   -1    0    0  501    0  0.00000000000E+00  0.00000000000E+00  0.13160232374E+04  0.13160232374E+04  0.50400001928E-02 0. -1.
       -1   -1    0    0    0  501  0.00000000000E+00  0.00000000000E+00 -0.10825338653E+04  0.10825338653E+04  0.50400001928E-02 0.  1.
    10030    2    1    2    0    0  0.00000000000E+00  0.00000000000E+00  0.23348937206E+03  0.23985571027E+04  0.23871654505E+04 0.  0.
        2    1    3    3  502    0 -0.99982498541E+02 -0.10284798477E+04 -0.48349407613E+03  0.11408478508E+04  0.25500000920E-02 0.  1.
       -2    1    3    3    0  502  0.99982498541E+02  0.10284798477E+04  0.71698344819E+03  0.12577092518E+04  0.25500000920E-02 0. -1.
</event>
<event>
 5   0  0.2085063E-05  0.2111052E+04  0.7818609E-02  0.8556391E-01
       -1   -1    0    0    0  501  0.00000000000E+00  0.00000000000E+00  0.11674777256E+04  0.11674777256E+04  0.50400001928E-02 0. -1.
        1   -1    0    0  501    0  0.00000000000E+00  0.00000000000E+00 -0.95430913131E+03  0.95430913132E+03  0.50400001928E-02 0.  1.
    10030    2    1    2    0    0  0.00000000000E+00  0.00000000000E+00  0.21316859430E+03  0.21217868569E+04  0.21110515429E+04 0.  0.
        1    1    3    3  502    0  0.27829979893E+03 -0.88447330076E+03  0.61352091903E+03  0.11118235993E+04  0.50400001928E-02 0.  1.
       -1    1    3    3    0  502 -0.27829979893E+03  0.88447330076E+03 -0.40035232473E+03  0.10099632576E+04  0.50400001928E-02 0. -1.
</event>
<event>
 5   0  0.4798609E-05  0.2291880E+04  0.7818609E-02  0.8481130E-01
       -2   -1    0    0    0  501  0.00000000000E+00  0.00000000000E+00  0.71825976558E+03  0.71825976558E+03  0.25500000920E-02 0. -1.
        2   -1    0    0  501    0  0.00000000000E+00  0.00000000000E+00 -0.18282772935E+04  0.18282772935E+04  0.25500000920E-02 0.  1.
    10030    2    1    2    0    0  0.00000000000E+00  0.00000000000E+00 -0.11100175279E+04  0.25465370591E+04  0.22918795956E+04 0.  0.
        2    1    3    3  502    0  0.87074889407E+03  0.17049461317E+03  0.25076338702E+03  0.92203813691E+03  0.25500000920E-02 0. -1.
       -2    1    3    3    0  502 -0.87074889407E+03 -0.17049461317E+03 -0.13607809149E+04  0.16244989222E+04  0.25500000920E-02 0.  1.
</event>
<event>
 5   0  0.2042951E-05  0.2294470E+04  0.7818609E-02  0.8480105E-01
       -1   -1    0    0    0  501  0.00000000000E+00  0.00000000000E+00  0.70162750188E+03  0.70162750189E+03  0.50400001928E-02 0.  1.
        1   -1    0    0  501    0  0.00000000000E+00  0.00000000000E+00 -0.18758503940E+04  0.18758503940E+04  0.50400001928E-02 0. -1.
    10030    2    1    2    0    0  0.00000000000E+00  0.00000000000E+00 -0.11742228921E+04  0.25774778959E+04  0.22944700703E+04 0.  0.
        2    1    3    3  502    0 -0.17034291243E+03  0.36320708150E+03  0.62026701350E+03  0.73869294021E+03  0.25500000920E-02 0.  1.
       -2    1    3    3    0  502  0.17034291243E+03 -0.36320708150E+03 -0.17944899056E+04  0.18387849557E+04  0.25500000920E-02 0. -1.
</event>
<event>
 5   0  0.2043885E-05  0.2298321E+04  0.7818609E-02  0.8478583E-01
        1   -1    0    0  501    0  0.00000000000E+00  0.00000000000E+00  0.12228168998E+04  0.12228168999E+04  0.50400001928E-02 0.  1.
       -1   -1    0    0    0  501  0.00000000000E+00  0.00000000000E+00 -0.10799407034E+04  0.10799407034E+04  0.50400001928E-02 0. -1.
    10030    2    1    2    0    0  0.00000000000E+00  0.00000000000E+00  0.14287619647E+03  0.23027576033E+04  0.22983209027E+04 0.  0.
        5    1    3    3  502    0  0.81950138564E+03 -0.26362672145E+03  0.83413427410E+03  0.11987008161E+04  0.46999998093E+01 0.  1.
       -5    1    3    3    0  502 -0.81950138564E+03  0.26362672145E+03 -0.69125807764E+03  0.11040567871E+04  0.46999998093E+01 0. -1.
</event>
<event>
 5   0  0.4605516E-05  0.2327671E+04  0.7818609E-02  0.8467090E-01
        2   -1    0    0  501    0  0.00000000000E+00  0.00000000000E+00  0.12782176798E+04  0.12782176798E+04  0.25500000920E-02 0.  1.
       -2   -1    0    0    0  501  0.00000000000E+00  0.00000000000E+00 -0.10596885833E+04  0.10596885833E+04  0.25500000920E-02 0. -1.
    10030    2    1    2    0    0  0.00000000000E+00  0.00000000000E+00  0.21852909647E+03  0.23379062631E+04  0.23276706660E+04 0.  0.
        1    1    3    3  502    0  0.11320396759E+04  0.74313902974E+02  0.37016881723E+03  0.11933404114E+04  0.50400001928E-02 0. -1.
       -1    1    3    3    0  502 -0.11320396759E+04 -0.74313902974E+02 -0.15163972076E+03  0.11445658518E+04  0.50400001928E-02 0.  1.
</event>
<event>
 5   0  0.4605516E-05  0.2199594E+04  0.7818609E-02  0.8518597E-01
       -2   -1    0    0    0  501  0.00000000000E+00  0.00000000000E+00  0.73825160716E+03  0.73825160716E+03  0.25500000920E-02 0.  1.
        2   -1    0    0  501    0  0.00000000000E+00  0.00000000000E+00 -0.16384028626E+04  0.16384028627E+04  0.25500000920E-02 0. -1.
    10030    2    1    2    0    0  0.00000000000E+00  0.00000000000E+00 -0.90015125549E+03  0.23766544698E+04  0.21995940958E+04 0.  0.
        1    1    3    3  502    0 -0.22252299228E+02 -0.37610313663E+03 -0.15664985955E+04  0.16111693219E+04  0.50400001928E-02 0. -1.
       -1    1    3    3    0  502  0.22252299228E+02  0.37610313663E+03  0.66634733996E+03  0.76548514793E+03  0.50400001928E-02 0.  1.
</event>
<event>
 5   0  0.4798609E-05  0.2287880E+04  0.7818609E-02  0.8482715E-01
        2   -1    0    0  501    0  0.00000000000E+00  0.00000000000E+00  0.29695023979E+04  0.29695023979E+04  0.25500000920E-02 0. -1.
       -2   -1    0    0    0  501  0.00000000000E+00  0.00000000000E+00 -0.44067939813E+03  0.44067939813E+03  0.25500000920E-02 0.  1.
    10030    2    1    2    0    0  0.00000000000E+00  0.00000000000E+00  0.25288229997E+04  0.34101817960E+04  0.22878798303E+04 0.  0.
        2    1    3    3  502    0  0.73712295598E+03  0.50417661198E+03  0.23299712615E+04  0.24952575794E+04  0.25500000920E-02 0. -1.
       -2    1    3    3    0  502 -0.73712295598E+03 -0.50417661198E+03  0.19885173827E+03  0.91492421660E+03  0.25500000920E-02 0.  1.
</event>
<event>
 5   0  0.4436695E-05  0.2253338E+04  0.7818609E-02  0.8496550E-01
       -2   -1    0    0    0  501  0.00000000000E+00  0.00000000000E+00  0.73985101097E+03  0.73985101097E+03  0.25500000920E-02 0.  1.
        2   -1    0    0  501    0  0.00000000000E+00  0.00000000000E+00 -0.17157276826E+04  0.17157276826E+04  0.25500000920E-02 0. -1.
    10030    2    1    2    0    0  0.00000000000E+00  0.00000000000E+00 -0.97587667167E+03  0.24555786936E+04  0.22533378447E+04 0.  0.
        5    1    3    3  502    0  0.62496011291E+02 -0.32993286063E+03 -0.16599151323E+04  0.16935471001E+04  0.46999998093E+01 0. -1.
       -5    1    3    3    0  502 -0.62496011291E+02  0.32993286063E+03  0.68403846059E+03  0.76203159352E+03  0.46999998093E+01 0.  1.
</event>
<event>
 5   0  0.2031860E-05  0.2292044E+04  0.7818609E-02  0.8481065E-01
       -1   -1    0    0    0  501  0.00000000000E+00  0.00000000000E+00  0.64087881264E+03  0.64087881266E+03  0.50400001928E-02 0. -1.
        1   -1    0    0  501    0  0.00000000000E+00  0.00000000000E+00 -0.20493213278E+04  0.20493213278E+04  0.50400001928E-02 0.  1.
    10030    2    1    2    0    0  0.00000000000E+00  0.00000000000E+00 -0.14084425152E+04  0.26902001405E+04  0.22920441700E+04 0.  0.
        4    1    3    3  502    0  0.63350913621E+03 -0.72807061587E+03 -0.14295947125E+04  0.17248661694E+04  0.12699999809E+01 0.  1.
       -4    1    3    3    0  502 -0.63350913621E+03  0.72807061587E+03  0.21152197363E+02  0.96533397108E+03  0.12699999809E+01 0. -1.
</event>
<event>
 5   0  0.4605516E-05  0.2286921E+04  0.7818609E-02  0.8483096E-01
        2   -1    0    0  501    0  0.00000000000E+00  0.00000000000E+00  0.14152920133E+04  0.14152920133E+04  0.25500000920E-02 0.  1.
       -2   -1    0    0    0  501  0.00000000000E+00  0.00000000000E+00 -0.92383895753E+03  0.92383895754E+03  0.25500000920E-02 0. -1.
    10030    2    1    2    0    0  0.00000000000E+00  0.00000000000E+00  0.49145305578E+03  0.23391309708E+04  0.22869209852E+04 0.  0.
        1    1    3    3  502    0 -0.80032338320E+03 -0.41043811421E+03 -0.47645574240E+03  0.10178344845E+04  0.50400001928E-02 0. -1.
       -1    1    3    3    0  502  0.80032338320E+03  0.41043811421E+03  0.96790879818E+03  0.13212964864E+04  0.50400001928E-02 0.  1.
</event>
<event>
 5   0  0.2085063E-05  0.2293539E+04  0.7818609E-02  0.8480473E-01
        1   -1    0    0  501    0  0.00000000000E+00  0.00000000000E+00  0.14879853770E+04  0.14879853770E+04  0.50400001928E-02 0. -1.
       -1   -1    0    0    0  501  0.00000000000E+00  0.00000000000E+00 -0.88379943691E+03  0.88379943692E+03  0.50400001928E-02 0.  1.
    10030    2    1    2    0    0  0.00000000000E+00  0.00000000000E+00  0.60418594011E+03  0.23717848139E+04  0.22935393072E+04 0.  0.
        1    1    3    3  502    0  0.35282786618E+03  0.41391936624E+03 -0.74193567951E+03  0.91993765955E+03  0.50400001928E-02 0.  1.
       -1    1    3    3    0  502 -0.35282786618E+03 -0.41391936624E+03  0.13461216196E+04  0.14518471544E+04  0.50400001928E-02 0. -1.
</event>
<event>
 5   0  0.2042951E-05  0.2307307E+04  0.7818609E-02  0.8475046E-01
        1   -1    0    0  501    0  0.00000000000E+00  0.00000000000E+00  0.13645979392E+04  0.13645979392E+04  0.50400001928E-02 0.  1.
       -1   -1    0    0    0  501  0.00000000000E+00  0.00000000000E+00 -0.97531774197E+03  0.97531774198E+03  0.50400001928E-02 0. -1.
    10030    2    1    2    0    0  0.00000000000E+00  0.00000000000E+00  0.38928019720E+03  0.23399156811E+04  0.23073071583E+04 0.  0.
        2    1    3    3  502    0  0.10374131015E+04  0.44232308664E+03  0.44105749774E+03  0.12109530843E+04  0.25500000920E-02 0. -1.
       -2    1    3    3    0  502 -0.10374131015E+04 -0.44232308664E+03 -0.51777300548E+02  0.11289625968E+04  0.25500000920E-02 0.  1.
</event>
<event>
 5   0  0.2085063E-05  0.2295229E+04  0.7818609E-02  0.8479805E-01
        1   -1    0    0  501    0  0.00000000000E+00  0.00000000000E+00  0.68196980577E+03  0.68196980579E+03  0.50400001928E-02 0.  1.
       -1   -1    0    0    0  501  0.00000000000E+00  0.00000000000E+00 -0.19311976847E+04  0.19311976847E+04  0.50400001928E-02 0. -1.
    10030    2    1    2    0    0  0.00000000000E+00  0.00000000000E+00 -0.12492278789E+04  0.26131674905E+04  0.22952285376E+04 0.  0.
        1    1    3    3  502    0  0.25773905587E+03  0.47177593881E+03 -0.17789741942E+04  0.18584270610E+04  0.50400001928E-02 0. -1.
       -1    1    3    3    0  502 -0.25773905587E+03 -0.47177593881E+03  0.52974631527E+03  0.75474042951E+03  0.50400001928E-02 0.  1.
</event>
<event>
 5   0  0.2043885E-05  0.2303866E+04  0.7818609E-02  0.8476398E-01
       -1   -1    0    0    0  501  0.00000000000E+00  0.00000000000E+00  0.10723237100E+04  0.10723237100E+04  0.50400001928E-02 0.  1.
        1   -1    0    0  501    0  0.00000000000E+00  0.00000000000E+00 -0.12374521775E+04  0.12374521776E+04  0.50400001928E-02 0. -1.
    10030    2    1    2    0    0  0.00000000000E+00  0.00000000000E+00 -0.16512846756E+03  0.23097758875E+04  0.23038657165E+04 0.  0.
        5    1    3    3  502    0  0.85505886519E+03  0.49054315974E+03  0.51492514061E+03  0.11121727586E+04  0.46999998093E+01 0.  1.
       -5    1    3    3    0  502 -0.85505886519E+03 -0.49054315974E+03 -0.68005360817E+03  0.11976031290E+04  0.46999998093E+01 0. -1.
</event>
<event>
 5   0  0.2042951E-05  0.2308905E+04  0.7818609E-02  0.8474418E-01
        1   -1    0    0  501    0  0.00000000000E+00  0.00000000000E+00  0.96261152572E+03  0.96261152574E+03  0.50400001928E-02 0.  1.
       -1   -1    0    0    0  501  0.00000000000E+00  0.00000000000E+00 -0.13845253504E+04  0.13845253504E+04  0.50400001928E-02 0. -1.
    10030    2    1    2    0    0  0.00000000000E+00  0.00000000000E+00 -0.42191382464E+03  0.23471368761E+04  0.23089045541E+04 0.  0.
        2    1    3    3  502    0 -0.62191545531E+03 -0.94682914633E+03  0.15203498452E+02  0.11329145653E+04  0.25500000920E-02 0. -1.
       -2    1    3    3    0  502  0.62191545531E+03  0.94682914633E+03 -0.43711732309E+03  0.12142223108E+04  0.25500000920E-02 0.  1.
</event>
<event>
 5   0  0.4605516E-05  0.2058576E+04  0.7818609E-02  0.8579714E-01
       -2   -1    0    0    0  501  0.00000000000E+00  0.00000000000E+00  0.66199734414E+03  0.66199734414E+03  0.25500000920E-02 0.  1.
        2   -1    0    0  501    0  0.00000000000E+00  0.00000000000E+00 -0.16003597838E+04  0.16003597838E+04  0.25500000920E-02 0. -1.
    10030    2    1    2    0    0  0.00000000000E+00  0.00000000000E+00 -0.93836243965E+03  0.22623571279E+04  0.20585761356E+04 0.  0.
        1    1    3    3  502    0  0.66509563058E+03  0.51345559593E+03  0.18418277583E+03  0.86018145861E+03  0.50400001928E-02 0.  1.
       -1    1    3    3    0  502 -0.66509563058E+03 -0.51345559593E+03 -0.11225452155E+04  0.14021756693E+04  0.50400001928E-02 0. -1.
</event>
<event>
 5   0  0.4602447E-05  0.2382395E+04  0.7818609E-02  0.8446124E-01
        2   -1    0    0  501    0  0.00000000000E+00  0.00000000000E+00  0.20567457358E+04  0.20567457358E+04  0.25500000920E-02 0.  1.
       -2   -1    0    0    0  501  0.00000000000E+00  0.00000000000E+00 -0.68990108963E+03  0.68990108963E+03  0.25500000920E-02 0. -1.
    10030    2    1    2    0    0  0.00000000000E+00  0.00000000000E+00  0.13668446462E+04  0.27466468254E+04  0.23823946980E+04 0.  0.
        3    1    3    3  502    0 -0.12066702460E+02 -0.59683474843E+03  0.18718499605E+04  0.19647339787E+04  0.10100000352E+00 0.  1.
       -3    1    3    3    0  502  0.12066702460E+02  0.59683474843E+03 -0.50500531431E+03  0.78191284676E+03  0.10100000352E+00 0. -1.
</event>
<event>
 5   0  0.2085063E-05  0.2323268E+04  0.7818609E-02  0.8468803E-01
        1   -1    0    0  501    0  0.00000000000E+00  0.00000000000E+00  0.23403316573E+04  0.23403316574E+04  0.50400001928E-02 0. -1.
       -1   -1    0    0    0  501  0.00000000000E+00  0.00000000000E+00 -0.57658236725E+03  0.57658236727E+03  0.50400001928E-02 0.  1.
    10030    2    1    2    0    0  0.00000000000E+00  0.00000000000E+00  0.17637492901E+04  0.29169140246E+04  0.23232683592E+04 0.  0.
        1    1    3    3  502    0 -0.72715485322E+03 -0.75978816859E+03  0.15012449629E+04  0.18329671793E+04  0.50400001928E-02 0.  1.
       -1    1    3    3    0  502  0.72715485322E+03  0.75978816859E+03  0.26250432719E+03  0.10839468453E+04  0.50400001928E-02 0. -1.
</event>
<event>
 5   0  0.2042951E-05  0.2299914E+04  0.7818609E-02  0.8477955E-01
        1   -1    0    0  501    0  0.00000000000E+00  0.00000000000E+00  0.19961573188E+04  0.19961573188E+04  0.50400001928E-02 0. -1.
       -1   -1    0    0    0  501  0.00000000000E+00  0.00000000000E+00 -0.66247347868E+03  0.66247347870E+03  0.50400001928E-02 0.  1.
    10030    2    1    2    0    0  0.00000000000E+00  0.00000000000E+00  0.13336838401E+04  0.26586307975E+04  0.22999141575E+04 0.  0.
        2    1    3    3  502    0 -0.30115006243E+03  0.61327590880E+03  0.17360997719E+04  0.18657012404E+04  0.25500000920E-02 0. -1.
       -2    1    3    3    0  502  0.30115006243E+03 -0.61327590880E+03 -0.40241593176E+03  0.79292955712E+03  0.25500000920E-02 0.  1.
</event>
<event>
 5   0  0.2085063E-05  0.2275994E+04  0.7818609E-02  0.8487447E-01
        1   -1    0    0  501    0  0.00000000000E+00  0.00000000000E+00  0.91142042024E+03  0.91142042025E+03  0.50400001928E-02 0. -1.
       -1   -1    0    0    0  501  0.00000000000E+00  0.00000000000E+00 -0.14209001521E+04  0.14209001521E+04  0.50400001928E-02 0.  1.
    10030    2    1    2    0    0  0.00000000000E+00  0.00000000000E+00 -0.50947973186E+03  0.23323205724E+04  0.22759942124E+04 0.  0.
        1    1    3    3  502    0  0.10380283744E+04 -0.39977300314E+03 -0.50092702910E+03  0.12199382151E+04  0.50400001928E-02 0. -1.
       -1    1    3    3    0  502 -0.10380283744E+04  0.39977300314E+03 -0.85527027543E+01  0.11123823573E+04  0.50400001928E-02 0.  1.
</event>
<event>
 5   0  0.2042951E-05  0.2285722E+04  0.7818609E-02  0.8483572E-01
        1   -1    0    0  501    0  0.00000000000E+00  0.00000000000E+00  0.24731462563E+04  0.24731462563E+04  0.50400001928E-02 0. -1.
       -1   -1    0    0    0  501  0.00000000000E+00  0.00000000000E+00 -0.52812515805E+03  0.52812515807E+03  0.50400001928E-02 0.  1.
    10030    2    1    2    0    0  0.00000000000E+00  0.00000000000E+00  0.19450210983E+04  0.30012714144E+04  0.22857215557E+04 0.  0.
        2    1    3    3  502    0  0.73504045252E+03 -0.21218794806E+03  0.20873084307E+04  0.22230979908E+04  0.25500000920E-02 0. -1.
       -2    1    3    3    0  502 -0.73504045252E+03  0.21218794806E+03 -0.14228733241E+03  0.77817342354E+03  0.25500000920E-02 0.  1.
</event>
<event>
 5   0  0.1968318E-05  0.2080789E+04  0.7818609E-02  0.8569753E-01
        1   -1    0    0  501    0  0.00000000000E+00  0.00000000000E+00  0.83061262066E+03  0.83061262068E+03  0.50400001928E-02 0. -1.
       -1   -1    0    0    0  501  0.00000000000E+00  0.00000000000E+00 -0.13031598597E+04  0.13031598597E+04  0.50400001928E-02 0.  1.
    10030    2    1    2    0    0  0.00000000000E+00  0.00000000000E+00 -0.47254723900E+03  0.21337724804E+04  0.20807892985E+04 0.  0.
        3    1    3    3  502    0 -0.53260210064E+03 -0.47085386917E+03  0.54270892268E+03  0.89437204153E+03  0.10100000352E+00 0. -1.
       -3    1    3    3    0  502  0.53260210064E+03  0.47085386917E+03 -0.10152561617E+04  0.12394004388E+04  0.10100000352E+00 0.  1.
</event>
<event>
 5   0  0.4605516E-05  0.2503399E+04  0.7818609E-02  0.8401776E-01
        2   -1    0    0  501    0  0.00000000000E+00  0.00000000000E+00  0.17943270812E+04  0.17943270812E+04  0.25500000920E-02 0.  1.
       -2   -1    0    0    0  501  0.00000000000E+00  0.00000000000E+00 -0.87316967126E+03  0.87316967127E+03  0.25500000920E-02 0. -1.
    10030    2    1    2    0    0  0.00000000000E+00  0.00000000000E+00  0.92115740991E+03  0.26674967524E+04  0.25033992791E+04 0.  0.
        1    1    3    3  502    0  0.55142481429E+03  0.10543370485E+04  0.87471456571E+03  0.14767604779E+04  0.50400001928E-02 0. -1.
       -1    1    3    3    0  502 -0.55142481429E+03 -0.10543370485E+04  0.46442844203E+02  0.11907362745E+04  0.50400001928E-02 0.  1.
</event>
<event>
 5   0  0.2043885E-05  0.2313158E+04  0.7818609E-02  0.8472751E-01
        1   -1    0    0  501    0  0.00000000000E+00  0.00000000000E+00  0.14170945806E+04  0.14170945806E+04  0.50400001928E-02 0.  1.
       -1   -1    0    0    0  501  0.00000000000E+00  0.00000000000E+00 -0.94395600476E+03  0.94395600477E+03  0.50400001928E-02 0. -1.
    10030    2    1    2    0    0  0.00000000000E+00  0.00000000000E+00  0.47313857588E+03  0.23610505854E+04  0.23131579615E+04 0.  0.
        5    1    3    3  502    0 -0.11312317814E+03  0.80275398569E+03  0.10785372530E+04  0.13492499809E+04  0.46999998093E+01 0.  1.
       -5    1    3    3    0  502  0.11312317814E+03 -0.80275398569E+03 -0.60539867711E+03  0.10118006045E+04  0.46999998093E+01 0. -1.
</event>
<event>
 5   0  0.4798609E-05  0.2343068E+04  0.7818609E-02  0.8461131E-01
       -2   -1    0    0    0  501  0.00000000000E+00  0.00000000000E+00  0.14300807562E+04  0.14300807562E+04  0.25500000920E-02 0. -1.
        2   -1    0    0  501    0  0.00000000000E+00  0.00000000000E+00 -0.95973008749E+03  0.95973008749E+03  0.25500000920E-02 0.  1.
    10030    2    1    2    0    0  0.00000000000E+00  0.00000000000E+00  0.47035066872E+03  0.23898108437E+04  0.23430676723E+04 0.  0.
        2    1    3    3  502    0 -0.99296980874E+03  0.60741987050E+03  0.10008075641E+03  0.11683167798E+04  0.25500000920E-02 0.  1.
       -2    1    3    3    0  502  0.99296980874E+03 -0.60741987050E+03  0.37026991231E+03  0.12214940639E+04  0.25500000920E-02 0. -1.
</event>
<event>
 5   0  0.2042951E-05  0.2367238E+04  0.7818609E-02  0.8451872E-01
        1   -1    0    0  501    0  0.00000000000E+00  0.00000000000E+00  0.11158144237E+04  0.11158144237E+04  0.50400001928E-02 0. -1.
       -1   -1    0    0    0  501  0.00000000000E+00  0.00000000000E+00 -0.12555435815E+04  0.12555435815E+04  0.50400001928E-02 0.  1.
    10030    2    1    2    0    0  0.00000000000E+00  0.00000000000E+00 -0.13972915779E+03  0.23713580052E+04  0.23672377471E+04 0.  0.
        2    1    3    3  502    0 -0.22019751987E+03 -0.50715768480E+03 -0.11182317655E+04  0.12474526630E+04  0.25500000920E-02 0.  1.
       -2    1    3    3    0  502  0.22019751987E+03  0.50715768480E+03  0.97850260768E+03  0.11239053422E+04  0.25500000920E-02 0. -1.
</event>
<event>
 5   0  0.4602447E-05  0.2318584E+04  0.7818609E-02  0.8470630E-01
       -2   -1    0    0    0  501  0.00000000000E+00  0.00000000000E+00  0.52827286343E+03  0.52827286344E+03  0.25500000920E-02 0. -1.
        2   -1    0    0  501    0  0.00000000000E+00  0.00000000000E+00 -0.25440591690E+04  0.25440591690E+04  0.25500000920E-02 0.  1.
    10030    2    1    2    0    0  0.00000000000E+00  0.00000000000E+00 -0.20157863056E+04  0.30723320324E+04  0.23185835520E+04 0.  0.
        3    1    3    3  502    0  0.62408584779E+03  0.95745640921E+03 -0.75043156007E+03  0.13672430133E+04  0.10100000352E+00 0. -1.
       -3    1    3    3    0  502 -0.62408584779E+03 -0.95745640921E+03 -0.12653547455E+04  0.17050890191E+04  0.10100000352E+00 0.  1.
</event>
<event>
 5   0  0.2085063E-05  0.2319245E+04  0.7818609E-02  0.8470372E-01
        1   -1    0    0  501    0  0.00000000000E+00  0.00000000000E+00  0.15144825011E+04  0.15144825011E+04  0.50400001928E-02 0.  1.
       -1   -1    0    0    0  501  0.00000000000E+00  0.00000000000E+00 -0.88790988838E+03  0.88790988840E+03  0.50400001928E-02 0. -1.
    10030    2    1    2    0    0  0.00000000000E+00  0.00000000000E+00  0.62657261273E+03  0.24023923895E+04  0.23192446948E+04 0.  0.
        1    1    3    3  502    0 -0.73526105217E+03 -0.68626874596E+03  0.91117112956E+03  0.13571316936E+04  0.50400001928E-02 0.  1.
       -1    1    3    3    0  502  0.73526105217E+03  0.68626874596E+03 -0.28459851683E+03  0.10452606959E+04  0.50400001928E-02 0. -1.
</event>
<event>
 5   0  0.4602447E-05  0.2297479E+04  0.7818609E-02  0.8478916E-01
        2   -1    0    0  501    0  0.00000000000E+00  0.00000000000E+00  0.96851935406E+03  0.96851935407E+03  0.25500000920E-02 0.  1.
       -2   -1    0    0    0  501  0.00000000000E+00  0.00000000000E+00 -0.13624942163E+04  0.13624942163E+04  0.25500000920E-02 0. -1.
    10030    2    1    2    0    0  0.00000000000E+00  0.00000000000E+00 -0.39397486228E+03  0.23310135704E+04  0.22974786339E+04 0.  0.
        3    1    3    3  502    0 -0.25947652328E+03 -0.10515673111E+04 -0.58530110357E+03  0.12311373879E+04  0.10100000352E+00 0.  1.
       -3    1    3    3    0  502  0.25947652328E+03  0.10515673111E+04  0.19132624128E+03  0.10998761825E+04  0.10100000352E+00 0. -1.
</event>
<event>
 5   0  0.1968318E-05  0.2336129E+04  0.7818609E-02  0.8463810E-01
       -1   -1    0    0    0  501  0.00000000000E+00  0.00000000000E+00  0.77108652674E+03  0.77108652676E+03  0.50400001928E-02 0. -1.
        1   -1    0    0  501    0  0.00000000000E+00  0.00000000000E+00 -0.17694190816E+04  0.17694190816E+04  0.50400001928E-02 0.  1.
    10030    2    1    2    0    0  0.00000000000E+00  0.00000000000E+00 -0.99833255489E+03  0.25405056084E+04  0.23361294605E+04 0.  0.
        3    1    3    3  502    0  0.39573229985E+03  0.10742605026E+04 -0.75125533400E+03  0.13693152550E+04  0.10100000352E+00 0.  1.
       -3    1    3    3    0  502 -0.39573229985E+03 -0.10742605026E+04 -0.24707722089E+03  0.11711903534E+04  0.10100000352E+00 0. -1.
</event>
<event>
 5   0  0.2043885E-05  0.2309759E+04  0.7818609E-02  0.8474083E-01
       -1   -1    0    0    0  501  0.00000000000E+00  0.00000000000E+00  0.86423754079E+03  0.86423754081E+03  0.50400001928E-02 0.  1.
        1   -1    0    0  501    0  0.00000000000E+00  0.00000000000E+00 -0.15432637149E+04  0.15432637149E+04  0.50400001928E-02 0. -1.
    10030    2    1    2    0    0  0.00000000000E+00  0.00000000000E+00 -0.67902617410E+03  0.24075012557E+04  0.23097588080E+04 0.  0.
        5    1    3    3  502    0 -0.10054249948E+04  0.21466953531E+03 -0.88785703736E+03  0.13584088627E+04  0.46999998093E+01 0. -1.
       -5    1    3    3    0  502  0.10054249948E+04 -0.21466953531E+03  0.20883086326E+03  0.10490923930E+04  0.46999998093E+01 0.  1.
</event>
<event>
 5   0  0.1968318E-05  0.2376374E+04  0.7818609E-02  0.8448402E-01
        1   -1    0    0  501    0  0.00000000000E+00  0.00000000000E+00  0.17513421717E+04  0.17513421718E+04  0.50400001928E-02 0. -1.
       -1   -1    0    0    0  501  0.00000000000E+00  0.00000000000E+00 -0.80611807394E+03  0.80611807396E+03  0.50400001928E-02 0.  1.
    10030    2    1    2    0    0  0.00000000000E+00  0.00000000000E+00  0.94522409780E+03  0.25574602457E+04  0.23763741947E+04 0.  0.
        3    1    3    3  502    0  0.65613180868E+03  0.79488408290E+03 -0.16356748916E+03  0.10436014514E+04  0.10100000352E+00 0.  1.
       -3    1    3    3    0  502 -0.65613180868E+03 -0.79488408290E+03  0.11087915870E+04  0.15138587943E+04  0.10100000352E+00 0. -1.
</event>
<event>
 5   0  0.4436695E-05  0.2338081E+04  0.7818609E-02  0.8463056E-01
        2   -1    0    0  501    0  0.00000000000E+00  0.00000000000E+00  0.15590937221E+04  0.15590937221E+04  0.25500000920E-02 0. -1.
       -2   -1    0    0    0  501  0.00000000000E+00  0.00000000000E+00 -0.87657070026E+03  0.87657070026E+03  0.25500000920E-02 0.  1.
    10030    2    1    2    0    0  0.00000000000E+00  0.00000000000E+00  0.68252302187E+03  0.24356644224E+04  0.23380811584E+04 0.  0.
        5    1    3    3  502    0 -0.74327599777E+03 -0.83467262151E+03  0.69834499685E+03  0.13178943124E+04  0.46999998093E+01 0. -1.
       -5    1    3    3    0  502  0.74327599777E+03  0.83467262151E+03 -0.15821974975E+02  0.11177701100E+04  0.46999998093E+01 0.  1.
</event>
<event>
 5   0  0.4605516E-05  0.2318568E+04  0.7818609E-02  0.8470636E-01
        2   -1    0    0  501    0  0.00000000000E+00  0.00000000000E+00  0.95768585317E+03  0.95768585317E+03  0.25500000920E-02 0. -1.
       -2   -1    0    0    0  501  0.00000000000E+00  0.00000000000E+00 -0.14033196155E+04  0.14033196155E+04  0.25500000920E-02 0.  1.
    10030    2    1    2    0    0  0.00000000000E+00  0.00000000000E+00 -0.44563376229E+03  0.23610054686E+04  0.23185679573E+04 0.  0.
        1    1    3    3  502    0 -0.48784027858E+02 -0.90437821022E+03 -0.95970518421E+03  0.13195885227E+04  0.50400001928E-02 0. -1.
       -1    1    3    3    0  502  0.48784027858E+02  0.90437821022E+03  0.51407142192E+03  0.10414169460E+04  0.50400001928E-02 0.  1.
</event>
<event>
 5   0  0.4605516E-05  0.2337063E+04  0.7818609E-02  0.8463450E-01
       -2   -1    0    0    0  501  0.00000000000E+00  0.00000000000E+00  0.54180228769E+03  0.54180228770E+03  0.25500000920E-02 0. -1.
        2   -1    0    0  501    0  0.00000000000E+00  0.00000000000E+00 -0.25202284148E+04  0.25202284148E+04  0.25500000920E-02 0.  1.
    10030    2    1    2    0    0  0.00000000000E+00  0.00000000000E+00 -0.19784261271E+04  0.30620307025E+04  0.23370627040E+04 0.  0.
        1    1    3    3  502    0 -0.99947006431E+02  0.41336083904E+02  0.53523000234E+03  0.54604874449E+03  0.50400001928E-02 0. -1.
       -1    1    3    3    0  502  0.99947006431E+02 -0.41336083904E+02 -0.25136561294E+04  0.25159819580E+04  0.50400001928E-02 0.  1.
</event>
<event>
 5   0  0.2042951E-05  0.2286641E+04  0.7818609E-02  0.8483207E-01
        1   -1    0    0  501    0  0.00000000000E+00  0.00000000000E+00  0.17309968810E+04  0.17309968810E+04  0.50400001928E-02 0. -1.
       -1   -1    0    0    0  501  0.00000000000E+00  0.00000000000E+00 -0.75516128198E+03  0.75516128199E+03  0.50400001928E-02 0.  1.
    10030    2    1    2    0    0  0.00000000000E+00  0.00000000000E+00  0.97583559900E+03  0.24861581630E+04  0.22866410508E+04 0.  0.
        2    1    3    3  502    0  0.65383843149E+03  0.91951364331E+03  0.28693235056E+03  0.11641907956E+04  0.25500000920E-02 0.  1.
       -2    1    3    3    0  502 -0.65383843149E+03 -0.91951364331E+03  0.68890324844E+03  0.13219673674E+04  0.25500000920E-02 0. -1.
</event>
<event>
 5   0  0.1604500E-05  0.2321287E+04  0.7818609E-02  0.8469575E-01
        4   -1    0    0  501    0  0.00000000000E+00  0.00000000000E+00  0.87835069604E+03  0.87835161418E+03  0.12699999809E+01 0. -1.
       -4   -1    0    0    0  501  0.00000000000E+00  0.00000000000E+00 -0.15336598009E+04  0.15336603268E+04  0.12699999809E+01 0.  1.
    10030    2    1    2    0    0  0.00000000000E+00  0.00000000000E+00 -0.65530910491E+03  0.24120119410E+04  0.23212866218E+04 0.  0.
        4    1    3    3  502    0  0.11182235061E+04  0.31020167422E+03 -0.34950977377E+03  0.12119437211E+04  0.12699999809E+01 0. -1.
       -4    1    3    3    0  502 -0.11182235061E+04 -0.31020167422E+03 -0.30579933114E+03  0.12000682198E+04  0.12699999809E+01 0.  1.
</event>
<event>
 5   0  0.4798609E-05  0.2429663E+04  0.7818609E-02  0.8428481E-01
       -2   -1    0    0    0  501  0.00000000000E+00  0.00000000000E+00  0.12167043971E+04  0.12167043971E+04  0.25500000920E-02 0. -1.
        2   -1    0    0  501    0  0.00000000000E+00  0.00000000000E+00 -0.12129618175E+04  0.12129618175E+04  0.25500000920E-02 0.  1.
    10030    2    1    2    0    0  0.00000000000E+00  0.00000000000E+00  0.37425796076E+01  0.24296662146E+04  0.24296633321E+04 0.  0.
        2    1    3    3  502    0 -0.13502740927E+03  0.10823162713E+04 -0.53308267413E+03  0.12140090814E+04  0.25500000920E-02 0.  1.
       -2    1    3    3    0  502  0.13502740927E+03 -0.10823162713E+04  0.53682525374E+03  0.12156571331E+04  0.25500000920E-02 0. -1.
</event>
<event>
 5   0  0.2043885E-05  0.2310625E+04  0.7818609E-02  0.8473743E-01
        1   -1    0    0  501    0  0.00000000000E+00  0.00000000000E+00  0.18993940331E+04  0.18993940331E+04  0.50400001928E-02 0.  1.
       -1   -1    0    0    0  501  0.00000000000E+00  0.00000000000E+00 -0.70272269060E+03  0.70272269062E+03  0.50400001928E-02 0. -1.
    10030    2    1    2    0    0  0.00000000000E+00  0.00000000000E+00  0.11966713425E+04  0.26021167237E+04  0.23106252708E+04 0.  0.
        5    1    3    3  502    0  0.72162500954E+03 -0.64589424582E+02 -0.41508328398E+03  0.83500339568E+03  0.46999998093E+01 0. -1.
       -5    1    3    3    0  502 -0.72162500954E+03  0.64589424582E+02  0.16117546265E+04  0.17671133280E+04  0.46999998093E+01 0.  1.
</event>
<event>
 5   0  0.2031860E-05  0.2307688E+04  0.7818609E-02  0.8474896E-01
        1   -1    0    0  501    0  0.00000000000E+00  0.00000000000E+00  0.18752343682E+04  0.18752343682E+04  0.50400001928E-02 0.  1.
       -1   -1    0    0    0  501  0.00000000000E+00  0.00000000000E+00 -0.70996751703E+03  0.70996751705E+03  0.50400001928E-02 0. -1.
    10030    2    1    2    0    0  0.00000000000E+00  0.00000000000E+00  0.11652668512E+04  0.25852018853E+04  0.23076875770E+04 0.  0.
        4    1    3    3  502    0  0.24267547446E+03 -0.10504528802E+04  0.10431817863E+04  0.15001908184E+04  0.12699999809E+01 0.  1.
       -4    1    3    3    0  502 -0.24267547446E+03  0.10504528802E+04  0.12208506495E+03  0.10850110669E+04  0.12699999809E+01 0. -1.
</event>
<event>
 5   0  0.1968318E-05  0.1982825E+04  0.7818609E-02  0.8614693E-01
        1   -1    0    0  501    0  0.00000000000E+00  0.00000000000E+00  0.84554880911E+03  0.84554880912E+03  0.50400001928E-02 0.  1.
       -1   -1    0    0    0  501  0.00000000000E+00  0.00000000000E+00 -0.11624387505E+04  0.11624387505E+04  0.50400001928E-02 0. -1.
    10030    2    1    2    0    0  0.00000000000E+00  0.00000000000E+00 -0.31688994142E+03  0.20079875597E+04  0.19828249557E+04 0.  0.
        3    1    3    3  502    0  0.77296652108E+03 -0.46741575908E+03  0.25532788093E+03  0.93869434404E+03  0.10100000352E+00 0. -1.
       -3    1    3    3    0  502 -0.77296652108E+03  0.46741575908E+03 -0.57221782236E+03  0.10692932156E+04  0.10100000352E+00 0.  1.
</event>
<event>
 5   0  0.2043885E-05  0.2297618E+04  0.7818609E-02  0.8478861E-01
        1   -1    0    0  501    0  0.00000000000E+00  0.00000000000E+00  0.20605834944E+04  0.20605834944E+04  0.50400001928E-02 0.  1.
       -1   -1    0    0    0  501  0.00000000000E+00  0.00000000000E+00 -0.64047971595E+03  0.64047971597E+03  0.50400001928E-02 0. -1.
    10030    2    1    2    0    0  0.00000000000E+00  0.00000000000E+00  0.14201037784E+04  0.27010632104E+04  0.22976178370E+04 0.  0.
        5    1    3    3  502    0  0.64129053483E+03 -0.93715139480E+03  0.91446161579E+03  0.14580015170E+04  0.46999998093E+01 0. -1.
       -5    1    3    3    0  502 -0.64129053483E+03  0.93715139480E+03  0.50564216265E+03  0.12430616934E+04  0.46999998093E+01 0.  1.
</event>
<event>
 5   0  0.4798609E-05  0.2235126E+04  0.7818609E-02  0.8503948E-01
       -2   -1    0    0    0  501  0.00000000000E+00  0.00000000000E+00  0.46114043516E+03  0.46114043516E+03  0.25500000920E-02 0. -1.
        2   -1    0    0  501    0  0.00000000000E+00  0.00000000000E+00 -0.27083879693E+04  0.27083879693E+04  0.25500000920E-02 0.  1.
    10030    2    1    2    0    0  0.00000000000E+00  0.00000000000E+00 -0.22472475342E+04  0.31695284045E+04  0.22351261322E+04 0.  0.
        2    1    3    3  502    0  0.61525277273E+03  0.59988041558E+02  0.19662337674E+03  0.64868736057E+03  0.25500000920E-02 0. -1.
       -2    1    3    3    0  502 -0.61525277273E+03 -0.59988041558E+02 -0.24438709109E+04  0.25208410439E+04  0.25500000920E-02 0.  1.
</event>
<event>
 5   0  0.4798609E-05  0.2288282E+04  0.7818609E-02  0.8482556E-01
        2   -1    0    0  501    0  0.00000000000E+00  0.00000000000E+00  0.93197169464E+03  0.93197169464E+03  0.25500000920E-02 0.  1.
       -2   -1    0    0    0  501  0.00000000000E+00  0.00000000000E+00 -0.14046114018E+04  0.14046114018E+04  0.25500000920E-02 0. -1.
    10030    2    1    2    0    0  0.00000000000E+00  0.00000000000E+00 -0.47263970714E+03  0.23365830964E+04  0.22882815110E+04 0.  0.
        2    1    3    3  502    0 -0.55439095061E+03  0.58268746863E+03  0.59460383220E+03  0.10002138419E+04  0.25500000920E-02 0.  1.
       -2    1    3    3    0  502  0.55439095061E+03 -0.58268746863E+03 -0.10672435393E+04  0.13363692545E+04  0.25500000920E-02 0. -1.
</event>
<event>
 5   0  0.2031860E-05  0.2328257E+04  0.7818609E-02  0.8466862E-01
        1   -1    0    0  501    0  0.00000000000E+00  0.00000000000E+00  0.12783236859E+04  0.12783236859E+04  0.50400001928E-02 0.  1.
       -1   -1    0    0    0  501  0.00000000000E+00  0.00000000000E+00 -0.10601345279E+04  0.10601345279E+04  0.50400001928E-02 0. -1.
    10030    2    1    2    0    0  0.00000000000E+00  0.00000000000E+00  0.21818915802E+03  0.23384582138E+04  0.23282569251E+04 0.  0.
        4    1    3    3  502    0 -0.23713410801E+03 -0.85032081659E+03  0.87131056299E+03  0.12403474458E+04  0.12699999809E+01 0.  1.
       -4    1    3    3    0  502  0.23713410801E+03  0.85032081659E+03 -0.65312140496E+03  0.10981107680E+04  0.12699999809E+01 0. -1.
</event>
<event>
 5   0  0.2085063E-05  0.2255726E+04  0.7818609E-02  0.8495585E-01
        1   -1    0    0  501    0  0.00000000000E+00  0.00000000000E+00  0.18530145203E+04  0.18530145203E+04  0.50400001928E-02 0.  1.
       -1   -1    0    0    0  501  0.00000000000E+00  0.00000000000E+00 -0.68648960839E+03  0.68648960841E+03  0.50400001928E-02 0. -1.
    10030    2    1    2    0    0  0.00000000000E+00  0.00000000000E+00  0.11665249119E+04  0.25395041287E+04  0.22557262355E+04 0.  0.
        1    1    3    3  502    0  0.11050230063E+04 -0.19265864564E+03  0.45061810083E+03  0.12088216871E+04  0.50400001928E-02 0.  1.
       -1    1    3    3    0  502 -0.11050230063E+04  0.19265864564E+03  0.71590681103E+03  0.13306824416E+04  0.50400001928E-02 0. -1.
</event>
<event>
 5   0  0.2085063E-05  0.2355909E+04  0.7818609E-02  0.8456197E-01
        1   -1    0    0  501    0  0.00000000000E+00  0.00000000000E+00  0.20937936301E+04  0.20937936301E+04  0.50400001928E-02 0.  1.
       -1   -1    0    0    0  501  0.00000000000E+00  0.00000000000E+00 -0.66270943976E+03  0.66270943978E+03  0.50400001928E-02 0. -1.
    10030    2    1    2    0    0  0.00000000000E+00  0.00000000000E+00  0.14310841904E+04  0.27565030699E+04  0.23559089996E+04 0.  0.
        1    1    3    3  502    0 -0.11466518224E+04  0.26592976237E+03  0.76848891127E+03  0.14057397508E+04  0.50400001928E-02 0. -1.
       -1    1    3    3    0  502  0.11466518224E+04 -0.26592976237E+03  0.66259527910E+03  0.13507633191E+04  0.50400001928E-02 0.  1.
</event>
<event>
 5   0  0.2043885E-05  0.2284675E+04  0.7818609E-02  0.8483988E-01
        1   -1    0    0  501    0  0.00000000000E+00  0.00000000000E+00  0.12589819047E+04  0.12589819047E+04  0.50400001928E-02 0. -1.
       -1   -1    0    0    0  501  0.00000000000E+00  0.00000000000E+00 -0.10365000941E+04  0.10365000941E+04  0.50400001928E-02 0.  1.
    10030    2    1    2    0    0  0.00000000000E+00  0.00000000000E+00  0.22248181064E+03  0.22954819988E+04  0.22846749114E+04 0.  0.
        5    1    3    3  502    0 -0.10283298418E+04 -0.39614317107E+03 -0.19104951431E+03  0.11184425253E+04  0.46999998093E+01 0.  1.
       -5    1    3    3    0  502  0.10283298418E+04  0.39614317107E+03  0.41353132495E+03  0.11770394735E+04  0.46999998093E+01 0. -1.
</event>
<event>
 5   0  0.4605516E-05  0.2440999E+04  0.7818609E-02  0.8424312E-01
       -2   -1    0    0    0  501  0.00000000000E+00  0.00000000000E+00  0.62861192555E+03  0.62861192555E+03  0.25500000920E-02 0.  1.
        2   -1    0    0  501    0  0.00000000000E+00  0.00000000000E+00 -0.23696967287E+04  0.23696967287E+04  0.25500000920E-02 0. -1.
    10030    2    1    2    0    0  0.00000000000E+00  0.00000000000E+00 -0.17410848031E+04  0.29983086542E+04  0.24409994868E+04 0.  0.
        1    1    3    3  502    0 -0.82613069933E+03 -0.23724853542E+03  0.19380300182E+03  0.88110067726E+03  0.50400001928E-02 0.  1.
       -1    1    3    3    0  502  0.82613069933E+03  0.23724853542E+03 -0.19348878050E+04  0.21172079770E+04  0.50400001928E-02 0. -1.
</event>
<event>
 5   0  0.4602447E-05  0.2282013E+04  0.7818609E-02  0.8485047E-01
        2   -1    0    0  501    0  0.00000000000E+00  0.00000000000E+00  0.24310861181E+04  0.24310861181E+04  0.25500000920E-02 0.  1.
       -2   -1    0    0    0  501  0.00000000000E+00  0.00000000000E+00 -0.53552016076E+03  0.53552016077E+03  0.25500000920E-02 0. -1.
    10030    2    1    2    0    0  0.00000000000E+00  0.00000000000E+00  0.18955659573E+04  0.29666062788E+04  0.22820128210E+04 0.  0.
        3    1    3    3  502    0 -0.95613786639E+03 -0.61292081829E+03  0.10903330934E+04  0.15743880760E+04  0.10100000352E+00 0. -1.
       -3    1    3    3    0  502  0.95613786639E+03  0.61292081829E+03  0.80523286394E+03  0.13922182029E+04  0.10100000352E+00 0.  1.
</event>
<event>
 5   0  0.4605516E-05  0.2305129E+04  0.7818609E-02  0.8475902E-01
        2   -1    0    0  501    0  0.00000000000E+00  0.00000000000E+00  0.13828582400E+04  0.13828582400E+04  0.25500000920E-02 0.  1.
       -2   -1    0    0    0  501  0.00000000000E+00  0.00000000000E+00 -0.96062246971E+03  0.96062246971E+03  0.25500000920E-02 0. -1.
    10030    2    1    2    0    0  0.00000000000E+00  0.00000000000E+00  0.42223577030E+03  0.23434807097E+04  0.23051288014E+04 0.  0.
        1    1    3    3  502    0 -0.70479936025E+03  0.53802878784E+03  0.95970262493E+03  0.13066163335E+04  0.50400001928E-02 0.  1.
       -1    1    3    3    0  502  0.70479936025E+03 -0.53802878784E+03 -0.53746685463E+03  0.10368643762E+04  0.50400001928E-02 0. -1.
</event>
<event>
 5   0  0.4602447E-05  0.2297524E+04  0.7818609E-02  0.8478898E-01
        2   -1    0    0  501    0  0.00000000000E+00  0.00000000000E+00  0.61624664304E+03  0.61624664305E+03  0.25500000920E-02 0.  1.
       -2   -1    0    0    0  501  0.00000000000E+00  0.00000000000E+00 -0.21414391461E+04  0.21414391461E+04  0.25500000920E-02 0. -1.
    10030    2    1    2    0    0  0.00000000000E+00  0.00000000000E+00 -0.15251925031E+04  0.27576857892E+04  0.22975244809E+04 0.  0.
        3    1    3    3  502    0 -0.31904406149E+03 -0.27136163740E+03  0.52133272193E+03  0.66874065868E+03  0.10100000352E+00 0.  1.
       -3    1    3    3    0  502  0.31904406149E+03  0.27136163740E+03 -0.20465252250E+04  0.20889451305E+04  0.10100000352E+00 0. -1.
</event>
<event>
 5   0  0.4436695E-05  0.2289247E+04  0.7818609E-02  0.8482173E-01
       -2   -1    0    0    0  501  0.00000000000E+00  0.00000000000E+00  0.17467768238E+04  0.17467768238E+04  0.25500000920E-02 0. -1.
        2   -1    0    0  501    0  0.00000000000E+00  0.00000000000E+00 -0.75004626368E+03  0.75004626368E+03  0.25500000920E-02 0.  1.
    10030    2    1    2    0    0  0.00000000000E+00  0.00000000000E+00  0.99673056017E+03  0.24968230875E+04  0.22892474136E+04 0.  0.
        5    1    3    3  502    0 -0.30088699446E+03  0.49312848070E+03  0.15761107042E+04  0.16786469920E+04  0.46999998093E+01 0. -1.
       -5    1    3    3    0  502  0.30088699446E+03 -0.49312848070E+03 -0.57938014406E+03  0.81817609549E+03  0.46999998093E+01 0.  1.
</event>
<event>
 5   0  0.1604500E-05  0.2301738E+04  0.7818609E-02  0.8477236E-01
       -4   -1    0    0    0  501  0.00000000000E+00  0.00000000000E+00  0.85136266972E+03  0.85136361697E+03  0.12699999809E+01 0.  1.
        4   -1    0    0  501    0  0.00000000000E+00  0.00000000000E+00 -0.15557384614E+04  0.15557389797E+04  0.12699999809E+01 0. -1.
    10030    2    1    2    0    0  0.00000000000E+00  0.00000000000E+00 -0.70437579165E+03  0.24071025967E+04  0.23017379641E+04 0.  0.
        2    1    3    3  502    0  0.11088205416E+04 -0.17908494319E+03 -0.61456102288E+03  0.12803279506E+04  0.25500000920E-02 0. -1.
       -2    1    3    3    0  502 -0.11088205416E+04  0.17908494319E+03 -0.89814768773E+02  0.11267746461E+04  0.25500000920E-02 0.  1.
</event>
<event>
 5   0  0.1968318E-05  0.2299557E+04  0.7818609E-02  0.8478096E-01
        1   -1    0    0  501    0  0.00000000000E+00  0.00000000000E+00  0.13631322521E+04  0.13631322521E+04  0.50400001928E-02 0.  1.
       -1   -1    0    0    0  501  0.00000000000E+00  0.00000000000E+00 -0.96981834342E+03  0.96981834343E+03  0.50400001928E-02 0. -1.
    10030    2    1    2    0    0  0.00000000000E+00  0.00000000000E+00  0.39331390864E+03  0.23329505955E+04  0.22995570552E+04 0.  0.
        3    1    3    3  502    0 -0.98150596799E+02 -0.52270848617E+03  0.12308388023E+04  0.13408287991E+04  0.10100000352E+00 0.  1.
       -3    1    3    3    0  502  0.98150596799E+02  0.52270848617E+03 -0.83752489364E+03  0.99212179637E+03  0.10100000352E+00 0. -1.
</event>
<event>
 5   0  0.4605516E-05  0.2296124E+04  0.7818609E-02  0.8479451E-01
       -2   -1    0    0    0  501  0.00000000000E+00  0.00000000000E+00  0.99614670330E+03  0.99614670330E+03  0.25500000920E-02 0.  1.
        2   -1    0    0  501    0  0.00000000000E+00  0.00000000000E+00 -0.13231445585E+04  0.13231445585E+04  0.25500000920E-02 0. -1.
    10030    2    1    2    0    0  0.00000000000E+00  0.00000000000E+00 -0.32699785516E+03  0.23192912618E+04  0.22961237684E+04 0.  0.
        1    1    3    3  502    0 -0.58325545077E+03  0.70035007400E+03  0.54166310819E+03  0.10602245374E+04  0.50400001928E-02 0.  1.
       -1    1    3    3    0  502  0.58325545077E+03 -0.70035007400E+03 -0.86866096335E+03  0.12590667243E+04  0.50400001928E-02 0. -1.
</event>
<event>
 5   0  0.1968318E-05  0.2243318E+04  0.7818609E-02  0.8500612E-01
       -1   -1    0    0    0  501  0.00000000000E+00  0.00000000000E+00  0.65006725634E+03  0.65006725636E+03  0.50400001928E-02 0.  1.
        1   -1    0    0  501    0  0.00000000000E+00  0.00000000000E+00 -0.19353666258E+04  0.19353666258E+04  0.50400001928E-02 0. -1.
    10030    2    1    2    0    0  0.00000000000E+00  0.00000000000E+00 -0.12852993695E+04  0.25854338822E+04  0.22433176079E+04 0.  0.
        3    1    3    3  502    0 -0.31110324924E+03  0.96337093837E+03 -0.86036889152E+02  0.10160074572E+04  0.10100000352E+00 0.  1.
       -3    1    3    3    0  502  0.31110324924E+03 -0.96337093837E+03 -0.11992624803E+04  0.15694264250E+04  0.10100000352E+00 0. -1.
</event>
<event>
 5   0  0.2042951E-05  0.2261403E+04  0.7818609E-02  0.8493297E-01
        1   -1    0    0  501    0  0.00000000000E+00  0.00000000000E+00  0.16895645935E+04  0.16895645935E+04  0.50400001928E-02 0. -1.
       -1   -1    0    0    0  501  0.00000000000E+00  0.00000000000E+00 -0.75669576893E+03  0.75669576895E+03  0.50400001928E-02 0.  1.
    10030    2    1    2    0    0  0.00000000000E+00  0.00000000000E+00  0.93286882460E+03  0.24462603625E+04  0.22614034397E+04 0.  0.
        2    1    3    3  502    0 -0.56155975566E+03  0.43344935299E+02  0.15270174256E+04  0.16275780659E+04  0.25500000920E-02 0. -1.
       -2    1    3    3    0  502  0.56155975566E+03 -0.43344935299E+02 -0.59414860101E+03  0.81868229655E+03  0.25500000920E-02 0.  1.
</event>
<event>
 5   0  0.2031860E-05  0.2079645E+04  0.7818609E-02  0.8570263E-01
        1   -1    0    0  501    0  0.00000000000E+00  0.00000000000E+00  0.13298965871E+04  0.13298965872E+04  0.50400001928E-02 0. -1.
       -1   -1    0    0    0  501  0.00000000000E+00  0.00000000000E+00 -0.81301897155E+03  0.81301897156E+03  0.50400001928E-02 0.  1.
    10030    2    1    2    0    0  0.00000000000E+00  0.00000000000E+00  0.51687761560E+03  0.21429155587E+04  0.20796453117E+04 0.  0.
        4    1    3    3  502    0  0.41349790098E+03  0.55916325462E+03  0.10549938777E+04  0.12635892348E+04  0.12699999809E+01 0. -1.
       -4    1    3    3    0  502 -0.41349790098E+03 -0.55916325462E+03 -0.53811626212E+03  0.87932632389E+03  0.12699999809E+01 0.  1.
</event>
<event>
 5   0  0.4505107E-05  0.2296318E+04  0.7818609E-02  0.8479374E-01
        2   -1    0    0  501    0  0.00000000000E+00  0.00000000000E+00  0.11501369741E+04  0.11501369741E+04  0.25500000920E-02 0.  1.
       -2   -1    0    0    0  501  0.00000000000E+00  0.00000000000E+00 -0.11461840205E+04  0.11461840205E+04  0.25500000920E-02 0. -1.
    10030    2    1    2    0    0  0.00000000000E+00  0.00000000000E+00  0.39529535606E+01  0.22963209946E+04  0.22963175922E+04 0.  0.
        4    1    3    3  502    0 -0.69555289410E+03  0.61373614824E+03 -0.67463454635E+03  0.11469957594E+04  0.12699999809E+01 0. -1.
       -4    1    3    3    0  502  0.69555289410E+03 -0.61373614824E+03  0.67858749991E+03  0.11493252351E+04  0.12699999809E+01 0.  1.
</event>
<event>
 5   0  0.2043885E-05  0.2313725E+04  0.7818609E-02  0.8472529E-01
       -1   -1    0    0    0  501  0.00000000000E+00  0.00000000000E+00  0.10408616565E+04  0.10408616565E+04  0.50400001928E-02 0.  1.
        1   -1    0    0  501    0  0.00000000000E+00  0.00000000000E+00 -0.12857914877E+04  0.12857914877E+04  0.50400001928E-02 0. -1.
    10030    2    1    2    0    0  0.00000000000E+00  0.00000000000E+00 -0.24492983123E+03  0.23266531442E+04  0.23137251849E+04 0.  0.
        5    1    3    3  502    0 -0.71535272211E+03 -0.55968349703E+02  0.79004521426E+03  0.10672654327E+04  0.46999998093E+01 0.  1.
       -5    1    3    3    0  502  0.71535272211E+03  0.55968349703E+02 -0.10349750455E+04  0.12593877115E+04  0.46999998093E+01 0. -1.
</event>
<event>
 5   0  0.2043885E-05  0.2294159E+04  0.7818609E-02  0.8480228E-01
        1   -1    0    0  501    0  0.00000000000E+00  0.00000000000E+00  0.18264552815E+04  0.18264552815E+04  0.50400001928E-02 0. -1.
       -1   -1    0    0    0  501  0.00000000000E+00  0.00000000000E+00 -0.72040688214E+03  0.72040688216E+03  0.50400001928E-02 0.  1.
    10030    2    1    2    0    0  0.00000000000E+00  0.00000000000E+00  0.11060483993E+04  0.25468621636E+04  0.22941586299E+04 0.  0.
        5    1    3    3  502    0 -0.10628246024E+04 -0.33665344401E+03  0.85263577116E+03  0.14035460538E+04  0.46999998093E+01 0. -1.
       -5    1    3    3    0  502  0.10628246024E+04  0.33665344401E+03  0.25341262817E+03  0.11433161098E+04  0.46999998093E+01 0.  1.
</event>
<event>
 5   0  0.2043885E-05  0.2304645E+04  0.7818609E-02  0.8476092E-01
       -1   -1    0    0    0  501  0.00000000000E+00  0.00000000000E+00  0.92543185383E+03  0.92543185385E+03  0.50400001928E-02 0. -1.
        1   -1    0    0  501    0  0.00000000000E+00  0.00000000000E+00 -0.14348408972E+04  0.14348408972E+04  0.50400001928E-02 0.  1.
    10030    2    1    2    0    0  0.00000000000E+00  0.00000000000E+00 -0.50940904339E+03  0.23602727511E+04  0.23046452842E+04 0.  0.
        5    1    3    3  502    0  0.23966887673E+03 -0.10909900811E+04 -0.54460019043E+03  0.12427034984E+04  0.46999998093E+01 0.  1.
       -5    1    3    3    0  502 -0.23966887673E+03  0.10909900811E+04  0.35191147036E+02  0.11175692526E+04  0.46999998093E+01 0. -1.
</event>
<event>
 5   0  0.4436695E-05  0.2257473E+04  0.7818609E-02  0.8494880E-01
        2   -1    0    0  501    0  0.00000000000E+00  0.00000000000E+00  0.10994277862E+04  0.10994277862E+04  0.25500000920E-02 0. -1.
       -2   -1    0    0    0  501  0.00000000000E+00  0.00000000000E+00 -0.11588264628E+04  0.11588264628E+04  0.25500000920E-02 0.  1.
    10030    2    1    2    0    0  0.00000000000E+00  0.00000000000E+00 -0.59398676559E+02  0.22582542490E+04  0.22574729346E+04 0.  0.
        5    1    3    3  502    0  0.95315431505E+03 -0.58887776381E+03  0.10725587444E+03  0.11255248028E+04  0.46999998093E+01 0.  1.
       -5    1    3    3    0  502 -0.95315431505E+03  0.58887776381E+03 -0.16665455100E+03  0.11327294462E+04  0.46999998093E+01 0. -1.
</event>
<event>
 5   0  0.4605516E-05  0.2323613E+04  0.7818609E-02  0.8468669E-01
        2   -1    0    0  501    0  0.00000000000E+00  0.00000000000E+00  0.19485346993E+04  0.19485346993E+04  0.25500000920E-02 0.  1.
       -2   -1    0    0    0  501  0.00000000000E+00  0.00000000000E+00 -0.69272275625E+03  0.69272275625E+03  0.25500000920E-02 0. -1.
    10030    2    1    2    0    0  0.00000000000E+00  0.00000000000E+00  0.12558119430E+04  0.26412574555E+04  0.23236129863E+04 0.  0.
        1    1    3    3  502    0  0.46563934357E+03 -0.36199590001E+03 -0.50989511957E+03  0.77964996177E+03  0.50400001928E-02 0. -1.
       -1    1    3    3    0  502 -0.46563934357E+03  0.36199590001E+03  0.17657070626E+04  0.18616074938E+04  0.50400001928E-02 0.  1.
</event>
<event>
 5   0  0.2042951E-05  0.1979035E+04  0.7818609E-02  0.8616486E-01
        1   -1    0    0  501    0  0.00000000000E+00  0.00000000000E+00  0.84894297149E+03  0.84894297151E+03  0.50400001928E-02 0. -1.
       -1   -1    0    0    0  501  0.00000000000E+00  0.00000000000E+00 -0.11533695729E+04  0.11533695729E+04  0.50400001928E-02 0.  1.
    10030    2    1    2    0    0  0.00000000000E+00  0.00000000000E+00 -0.30442660143E+03  0.20023125444E+04  0.19790351108E+04 0.  0.
        2    1    3    3  502    0 -0.34971989831E+03 -0.83942197060E+03  0.24251879916E+03  0.94114218902E+03  0.25500000920E-02 0. -1.
       -2    1    3    3    0  502  0.34971989831E+03  0.83942197060E+03 -0.54694540059E+03  0.10611703554E+04  0.25500000920E-02 0.  1.
</event>
<event>
 5   0  0.4436695E-05  0.2298002E+04  0.7818609E-02  0.8478709E-01
        2   -1    0    0  501    0  0.00000000000E+00  0.00000000000E+00  0.15242195958E+04  0.15242195958E+04  0.25500000920E-02 0. -1.
       -2   -1    0    0    0  501  0.00000000000E+00  0.00000000000E+00 -0.86615006301E+03  0.86615006301E+03  0.25500000920E-02 0.  1.
    10030    2    1    2    0    0  0.00000000000E+00  0.00000000000E+00  0.65806953274E+03  0.23903696588E+04  0.22980016527E+04 0.  0.
        5    1    3    3  502    0 -0.58597862966E+03 -0.41429712583E+02  0.13561941708E+04  0.14779621425E+04  0.46999998093E+01 0. -1.
       -5    1    3    3    0  502  0.58597862966E+03  0.41429712583E+02 -0.69812463810E+03  0.91240751631E+03  0.46999998093E+01 0.  1.
</event>
<event>
 5   0  0.4605516E-05  0.2270872E+04  0.7818609E-02  0.8489495E-01
        2   -1    0    0  501    0  0.00000000000E+00  0.00000000000E+00  0.82292914047E+03  0.82292914048E+03  0.25500000920E-02 0. -1.
       -2   -1    0    0    0  501  0.00000000000E+00  0.00000000000E+00 -0.15666173852E+04  0.15666173852E+04  0.25500000920E-02 0.  1.
    10030    2    1    2    0    0  0.00000000000E+00  0.00000000000E+00 -0.74368824470E+03  0.23895465257E+04  0.22708721657E+04 0.  0.
        1    1    3    3  502    0 -0.81916445188E+03 -0.78548701794E+03 -0.40821705694E+03  0.12060934542E+04  0.50400001928E-02 0.  1.
       -1    1    3    3    0  502  0.81916445188E+03  0.78548701794E+03 -0.33547118776E+03  0.11834530715E+04  0.50400001928E-02 0. -1.
</event>
<event>
 5   0  0.4605516E-05  0.2309859E+04  0.7818609E-02  0.8474044E-01
        2   -1    0    0  501    0  0.00000000000E+00  0.00000000000E+00  0.83211157660E+03  0.83211157661E+03  0.25500000920E-02 0.  1.
       -2   -1    0    0    0  501  0.00000000000E+00  0.00000000000E+00 -0.16029845410E+04  0.16029845411E+04  0.25500000920E-02 0. -1.
    10030    2    1    2    0    0  0.00000000000E+00  0.00000000000E+00 -0.77087296445E+03  0.24350961177E+04  0.23098588647E+04 0.  0.
        1    1    3    3  502    0 -0.52058374966E+03 -0.47024639040E+03  0.58176116455E+03  0.91136444999E+03  0.50400001928E-02 0.  1.
       -1    1    3    3    0  502  0.52058374966E+03  0.47024639040E+03 -0.13526341290E+04  0.15237316677E+04  0.50400001928E-02 0. -1.
</event>
<event>
 5   0  0.4602447E-05  0.2268973E+04  0.7818609E-02  0.8490256E-01
        2   -1    0    0  501    0  0.00000000000E+00  0.00000000000E+00  0.14180909161E+04  0.14180909161E+04  0.25500000920E-02 0. -1.
       -2   -1    0    0    0  501  0.00000000000E+00  0.00000000000E+00 -0.90759994415E+03  0.90759994416E+03  0.25500000920E-02 0.  1.
    10030    2    1    2    0    0  0.00000000000E+00  0.00000000000E+00  0.51049097194E+03  0.23256908603E+04  0.22689726629E+04 0.  0.
        3    1    3    3  502    0 -0.91769801572E+03  0.39222014833E+03  0.80822458037E+03  0.12842247760E+04  0.10100000352E+00 0. -1.
       -3    1    3    3    0  502  0.91769801572E+03 -0.39222014833E+03 -0.29773360843E+03  0.10414660842E+04  0.10100000352E+00 0.  1.
</event>
<event>
 5   0  0.2031860E-05  0.2239864E+04  0.7818609E-02  0.8502017E-01
        1   -1    0    0  501    0  0.00000000000E+00  0.00000000000E+00  0.26234534392E+04  0.26234534392E+04  0.50400001928E-02 0. -1.
       -1   -1    0    0    0  501  0.00000000000E+00  0.00000000000E+00 -0.47809012075E+03  0.47809012077E+03  0.50400001928E-02 0.  1.
    10030    2    1    2    0    0  0.00000000000E+00  0.00000000000E+00  0.21453633185E+04  0.31015435600E+04  0.22398635419E+04 0.  0.
        4    1    3    3  502    0 -0.72667497216E+03  0.61327227062E+02  0.22496197364E+04  0.23648695768E+04  0.12699999809E+01 0. -1.
       -4    1    3    3    0  502  0.72667497216E+03 -0.61327227062E+02 -0.10425641793E+03  0.73667398320E+03  0.12699999809E+01 0.  1.
</event>
<event>
 5   0  0.2031860E-05  0.2208841E+04  0.7818609E-02  0.8514757E-01
        1   -1    0    0  501    0  0.00000000000E+00  0.00000000000E+00  0.14465436149E+04  0.14465436149E+04  0.50400001928E-02 0. -1.
       -1   -1    0    0    0  501  0.00000000000E+00  0.00000000000E+00 -0.84321307922E+03  0.84321307923E+03  0.50400001928E-02 0.  1.
    10030    2    1    2    0    0  0.00000000000E+00  0.00000000000E+00  0.60333053564E+03  0.22897566941E+04  0.22088408686E+04 0.  0.
        4    1    3    3  502    0  0.17252961509E+03 -0.51259202468E+03 -0.69653497029E+03  0.88186145714E+03  0.12699999809E+01 0.  1.
       -4    1    3    3    0  502 -0.17252961509E+03  0.51259202468E+03  0.12998655059E+04  0.14078952370E+04  0.12699999809E+01 0. -1.
</event>
<event>
 5   0  0.2085063E-05  0.2301089E+04  0.7818609E-02  0.8477492E-01
        1   -1    0    0  501    0  0.00000000000E+00  0.00000000000E+00  0.12426148677E+04  0.12426148677E+04  0.50400001928E-02 0. -1.
       -1   -1    0    0    0  501  0.00000000000E+00  0.00000000000E+00 -0.10652957439E+04  0.10652957440E+04  0.50400001928E-02 0.  1.
    10030    2    1    2    0    0  0.00000000000E+00  0.00000000000E+00  0.17731912371E+03  0.23079106116E+04  0.23010887248E+04 0.  0.
        1    1    3    3  502    0 -0.53783815286E+03  0.44197309732E+03 -0.83010325170E+03  0.10833658228E+04  0.50400001928E-02 0.  1.
       -1    1    3    3    0  502  0.53783815286E+03 -0.44197309732E+03  0.10074223754E+04  0.12245447889E+04  0.50400001928E-02 0. -1.
</event>
<event>
 5   0  0.4436695E-05  0.2195243E+04  0.7818609E-02  0.8520411E-01
       -2   -1    0    0    0  501  0.00000000000E+00  0.00000000000E+00  0.68511789657E+03  0.68511789657E+03  0.25500000920E-02 0. -1.
        2   -1    0    0  501    0  0.00000000000E+00  0.00000000000E+00 -0.17584903954E+04  0.17584903954E+04  0.25500000920E-02 0.  1.
    10030    2    1    2    0    0  0.00000000000E+00  0.00000000000E+00 -0.10733724988E+04  0.24436082920E+04  0.21952432584E+04 0.  0.
        5    1    3    3  502    0 -0.12260924794E+03 -0.43601582998E+03 -0.16496060493E+04  0.17106621641E+04  0.46999998093E+01 0.  1.
       -5    1    3    3    0  502  0.12260924794E+03  0.43601582998E+03  0.57623355050E+03  0.73294612789E+03  0.46999998093E+01 0. -1.
</event>
<event>
 5   0  0.2085063E-05  0.2319514E+04  0.7818609E-02  0.8470266E-01
       -1   -1    0    0    0  501  0.00000000000E+00  0.00000000000E+00  0.10425042098E+04  0.10425042098E+04  0.50400001928E-02 0. -1.
        1   -1    0    0  501    0  0.00000000000E+00  0.00000000000E+00 -0.12901978584E+04  0.12901978584E+04  0.50400001928E-02 0.  1.
    10030    2    1    2    0    0  0.00000000000E+00  0.00000000000E+00 -0.24769364866E+03  0.23327020682E+04  0.23195143447E+04 0.  0.
        1    1    3    3  502    0 -0.65097434435E+02 -0.82036181413E+03 -0.94568670671E+03  0.12536165799E+04  0.50400001928E-02 0.  1.
       -1    1    3    3    0  502  0.65097434435E+02  0.82036181413E+03  0.69799305805E+03  0.10790854883E+04  0.50400001928E-02 0. -1.
</event>
<event>
 5   0  0.4436695E-05  0.2314450E+04  0.7818609E-02  0.8472245E-01
       -2   -1    0    0    0  501  0.00000000000E+00  0.00000000000E+00  0.84048221714E+03  0.84048221715E+03  0.25500000920E-02 0. -1.
        2   -1    0    0  501    0  0.00000000000E+00  0.00000000000E+00 -0.15933351797E+04  0.15933351797E+04  0.25500000920E-02 0.  1.
    10030    2    1    2    0    0  0.00000000000E+00  0.00000000000E+00 -0.75285296257E+03  0.24338173969E+04  0.23144501589E+04 0.  0.
        5    1    3    3  502    0  0.16528761900E+03 -0.11442529966E+04 -0.32371250166E+03  0.12006026782E+04  0.46999998093E+01 0. -1.
       -5    1    3    3    0  502 -0.16528761900E+03  0.11442529966E+04 -0.42914046091E+03  0.12332147187E+04  0.46999998093E+01 0.  1.
</event>
<event>
 5   0  0.4605516E-05  0.2332983E+04  0.7818609E-02  0.8465029E-01
       -2   -1    0    0    0  501  0.00000000000E+00  0.00000000000E+00  0.58468155657E+03  0.58468155657E+03  0.25500000920E-02 0.  1.
        2   -1    0    0  501    0  0.00000000000E+00  0.00000000000E+00 -0.23272537710E+04  0.23272537710E+04  0.25500000920E-02 0. -1.
    10030    2    1    2    0    0  0.00000000000E+00  0.00000000000E+00 -0.17425722145E+04  0.29119353276E+04  0.23329829467E+04 0.  0.
        1    1    3    3  502    0  0.96169824736E+03 -0.65714147036E+03 -0.79230682185E+03  0.14087045577E+04  0.50400001928E-02 0. -1.
       -1    1    3    3    0  502 -0.96169824736E+03  0.65714147036E+03 -0.95026539262E+03  0.15032307699E+04  0.50400001928E-02 0.  1.
</event>
<event>
 5   0  0.4505107E-05  0.2323606E+04  0.7818609E-02  0.8468672E-01
        2   -1    0    0  501    0  0.00000000000E+00  0.00000000000E+00  0.19509817138E+04  0.19509817138E+04  0.25500000920E-02 0. -1.
       -2   -1    0    0    0  501  0.00000000000E+00  0.00000000000E+00 -0.69184952010E+03  0.69184952010E+03  0.25500000920E-02 0.  1.
    10030    2    1    2    0    0  0.00000000000E+00  0.00000000000E+00  0.12591321937E+04  0.26428312339E+04  0.23236056140E+04 0.  0.
        4    1    3    3  502    0 -0.10506612482E+04  0.42689287845E+03  0.34259906073E+03  0.11846950314E+04  0.12699999809E+01 0.  1.
       -4    1    3    3    0  502  0.10506612482E+04 -0.42689287845E+03  0.91653313293E+03  0.14581362024E+04  0.12699999809E+01 0. -1.
</event>
<event>
 5   0  0.4436695E-05  0.2287137E+04  0.7818609E-02  0.8483010E-01
        2   -1    0    0  501    0  0.00000000000E+00  0.00000000000E+00  0.12855877784E+04  0.12855877784E+04  0.25500000920E-02 0.  1.
       -2   -1    0    0    0  501  0.00000000000E+00  0.00000000000E+00 -0.10172382730E+04  0.10172382730E+04  0.25500000920E-02 0. -1.
    10030    2    1    2    0    0  0.00000000000E+00  0.00000000000E+00  0.26834950544E+03  0.23028260514E+04  0.22871371550E+04 0.  0.
        5    1    3    3  502    0  0.56147900687E+02  0.10603084560E+04 -0.29337961474E+03  0.11015898951E+04  0.46999998093E+01 0.  1.
       -5    1    3    3    0  502 -0.56147900687E+02 -0.10603084560E+04  0.56172912018E+03  0.12012361563E+04  0.46999998093E+01 0. -1.
</event>
<event>
 5   0  0.2031860E-05  0.2175924E+04  0.7818609E-02  0.8528517E-01
       -1   -1    0    0    0  501  0.00000000000E+00  0.00000000000E+00  0.81104900903E+03  0.81104900904E+03  0.50400001928E-02 0. -1.
        1   -1    0    0  501    0  0.00000000000E+00  0.00000000000E+00 -0.14594196587E+04  0.14594196587E+04  0.50400001928E-02 0.  1.
    10030    2    1    2    0    0  0.00000000000E+00  0.00000000000E+00 -0.64837064971E+03  0.22704686678E+04  0.21759235906E+04 0.  0.
        4    1    3    3  502    0  0.10195661598E+04  0.27886343682E+03 -0.55348872626E+02  0.10584635475E+04  0.12699999809E+01 0. -1.
       -4    1    3    3    0  502 -0.10195661598E+04 -0.27886343682E+03 -0.59302177708E+03  0.12120051203E+04  0.12699999809E+01 0.  1.
</event>
<event>
 5   0  0.4605516E-05  0.2304970E+04  0.7818609E-02  0.8475964E-01
        2   -1    0    0  501    0  0.00000000000E+00  0.00000000000E+00  0.19697695041E+04  0.19697695041E+04  0.25500000920E-02 0.  1.
       -2   -1    0    0    0  501  0.00000000000E+00  0.00000000000E+00 -0.67430329070E+03  0.67430329070E+03  0.25500000920E-02 0. -1.
    10030    2    1    2    0    0  0.00000000000E+00  0.00000000000E+00  0.12954662134E+04  0.26440727948E+04  0.23049703326E+04 0.  0.
        1    1    3    3  502    0  0.63881012782E+03 -0.63171018430E+03  0.14757948830E+04  0.17277461252E+04  0.50400001928E-02 0.  1.
       -1    1    3    3    0  502 -0.63881012782E+03  0.63171018430E+03 -0.18032866962E+03  0.91632666962E+03  0.50400001928E-02 0. -1.
</event>
<event>
 5   0  0.2031860E-05  0.2348967E+04  0.7818609E-02  0.8458860E-01
        1   -1    0    0  501    0  0.00000000000E+00  0.00000000000E+00  0.18499788602E+04  0.18499788602E+04  0.50400001928E-02 0.  1.
       -1   -1    0    0    0  501  0.00000000000E+00  0.00000000000E+00 -0.74563641131E+03  0.74563641133E+03  0.50400001928E-02 0. -1.
    10030    2    1    2    0    0  0.00000000000E+00  0.00000000000E+00  0.11043424489E+04  0.25956152715E+04  0.23489670907E+04 0.  0.
        4    1    3    3  502    0  0.11018146974E+04 -0.41710908721E+02  0.10512340913E+03  0.11076046097E+04  0.12699999809E+01 0. -1.
       -4    1    3    3    0  502 -0.11018146974E+04  0.41710908721E+02  0.99921903973E+03  0.14880106618E+04  0.12699999809E+01 0.  1.
</event>
<event>
 5   0  0.2042951E-05  0.2305888E+04  0.7818609E-02  0.8475603E-01
       -1   -1    0    0    0  501  0.00000000000E+00  0.00000000000E+00  0.13146314730E+04  0.13146314730E+04  0.50400001928E-02 0. -1.
        1   -1    0    0  501    0  0.00000000000E+00  0.00000000000E+00 -0.10111427237E+04  0.10111427237E+04  0.50400001928E-02 0.  1.
    10030    2    1    2    0    0  0.00000000000E+00  0.00000000000E+00  0.30348874928E+03  0.23257741967E+04  0.23058881571E+04 0.  0.
        2    1    3    3  502    0 -0.83713147602E+03  0.73184892235E+03  0.45914824927E+03  0.12030000283E+04  0.25500000920E-02 0. -1.
       -2    1    3    3    0  502  0.83713147602E+03 -0.73184892235E+03 -0.15565950000E+03  0.11227741684E+04  0.25500000920E-02 0.  1.
</event>
<event>
 5   0  0.2042951E-05  0.2204820E+04  0.7818609E-02  0.8516424E-01
        1   -1    0    0  501    0  0.00000000000E+00  0.00000000000E+00  0.51466495167E+03  0.51466495169E+03  0.50400001928E-02 0. -1.
       -1   -1    0    0    0  501  0.00000000000E+00  0.00000000000E+00 -0.23613580662E+04  0.23613580662E+04  0.50400001928E-02 0.  1.
    10030    2    1    2    0    0  0.00000000000E+00  0.00000000000E+00 -0.18466931146E+04  0.28760230179E+04  0.22048203873E+04 0.  0.
        2    1    3    3  502    0  0.16110132050E+03 -0.13077422479E+03 -0.23356556744E+04  0.23448545717E+04  0.25500000920E-02 0.  1.
       -2    1    3    3    0  502 -0.16110132050E+03  0.13077422479E+03  0.48896255981E+03  0.53116844620E+03  0.25500000920E-02 0. -1.
</event>
<event>
 5   0  0.2085063E-05  0.2307428E+04  0.7818609E-02  0.8474998E-01
        1   -1    0    0  501    0  0.00000000000E+00  0.00000000000E+00  0.12022845519E+04  0.12022845519E+04  0.50400001928E-02 0.  1.
       -1   -1    0    0    0  501  0.00000000000E+00  0.00000000000E+00 -0.11071056368E+04  0.11071056368E+04  0.50400001928E-02 0. -1.
    10030    2    1    2    0    0  0.00000000000E+00  0.00000000000E+00  0.95178915127E+02  0.23093901888E+04  0.23074280093E+04 0.  0.
        1    1    3    3  502    0 -0.60329058040E+03  0.92847992186E+03 -0.27675635499E+03  0.11413275471E+04  0.50400001928E-02 0.  1.
       -1    1    3    3    0  502  0.60329058040E+03 -0.92847992186E+03  0.37193527012E+03  0.11680626417E+04  0.50400001928E-02 0. -1.
</event>
<event>
 5   0  0.2031860E-05  0.2299615E+04  0.7818609E-02  0.8478073E-01
       -1   -1    0    0    0  501  0.00000000000E+00  0.00000000000E+00  0.57066587160E+03  0.57066587163E+03  0.50400001928E-02 0. -1.
        1   -1    0    0  501    0  0.00000000000E+00  0.00000000000E+00 -0.23166923763E+04  0.23166923764E+04  0.50400001928E-02 0.  1.
    10030    2    1    2    0    0  0.00000000000E+00  0.00000000000E+00 -0.17460265047E+04  0.28873582480E+04  0.22996149888E+04 0.  0.
        4    1    3    3  502    0 -0.69457952028E+03  0.38984491292E+03  0.16816433554E+03  0.81406426206E+03  0.12699999809E+01 0. -1.
       -4    1    3    3    0  502  0.69457952028E+03 -0.38984491292E+03 -0.19141908403E+04  0.20732939859E+04  0.12699999809E+01 0.  1.
</event>
<event>
 5   0  0.4505107E-05  0.2273688E+04  0.7818609E-02  0.8488368E-01
       -2   -1    0    0    0  501  0.00000000000E+00  0.00000000000E+00  0.10099757649E+04  0.10099757649E+04  0.25500000920E-02 0.  1.
        2   -1    0    0  501    0  0.00000000000E+00  0.00000000000E+00 -0.12796491048E+04  0.12796491048E+04  0.25500000920E-02 0. -1.
    10030    2    1    2    0    0  0.00000000000E+00  0.00000000000E+00 -0.26967333997E+03  0.22896248697E+04  0.22736882666E+04 0.  0.
        4    1    3    3  502    0 -0.27327404714E+03 -0.12541974932E+03  0.96920736853E+03  0.10147774901E+04  0.12699999809E+01 0.  1.
       -4    1    3    3    0  502  0.27327404714E+03  0.12541974932E+03 -0.12388807085E+04  0.12748473796E+04  0.12699999809E+01 0. -1.
</event>
<event>
 5   0  0.4505107E-05  0.2287965E+04  0.7818609E-02  0.8482682E-01
       -2   -1    0    0    0  501  0.00000000000E+00  0.00000000000E+00  0.10023135051E+04  0.10023135051E+04  0.25500000920E-02 0. -1.
        2   -1    0    0  501    0  0.00000000000E+00  0.00000000000E+00 -0.13056747414E+04  0.13056747414E+04  0.25500000920E-02 0.  1.
    10030    2    1    2    0    0  0.00000000000E+00  0.00000000000E+00 -0.30336123631E+03  0.23079882465E+04  0.22879645335E+04 0.  0.
        4    1    3    3  502    0  0.78348915003E+02 -0.11255250844E+04  0.39046959990E+02  0.11289249514E+04  0.12699999809E+01 0. -1.
       -4    1    3    3    0  502 -0.78348915003E+02  0.11255250844E+04 -0.34240819630E+03  0.11790632951E+04  0.12699999809E+01 0.  1.
</event>
<event>
 5   0  0.2043885E-05  0.2316374E+04  0.7818609E-02  0.8471493E-01
       -1   -1    0    0    0  501  0.00000000000E+00  0.00000000000E+00  0.10037484401E+04  0.10037484401E+04  0.50400001928E-02 0.  1.
        1   -1    0    0  501    0  0.00000000000E+00  0.00000000000E+00 -0.13363880117E+04  0.13363880117E+04  0.50400001928E-02 0. -1.
    10030    2    1    2    0    0  0.00000000000E+00  0.00000000000E+00 -0.33263957160E+03  0.23401364518E+04  0.23163742203E+04 0.  0.
        5    1    3    3  502    0 -0.95888075606E+03  0.50756868922E+01 -0.82251913180E+03  0.12633439275E+04  0.46999998093E+01 0. -1.
       -5    1    3    3    0  502  0.95888075606E+03 -0.50756868922E+01  0.48987956019E+03  0.10767925243E+04  0.46999998093E+01 0.  1.
</event>
<event>
 5   0  0.4798609E-05  0.2316545E+04  0.7818609E-02  0.8471426E-01
       -2   -1    0    0    0  501  0.00000000000E+00  0.00000000000E+00  0.61027356498E+03  0.61027356499E+03  0.25500000920E-02 0. -1.
        2   -1    0    0  501    0  0.00000000000E+00  0.00000000000E+00 -0.21983512091E+04  0.21983512091E+04  0.25500000920E-02 0.  1.
    10030    2    1    2    0    0  0.00000000000E+00  0.00000000000E+00 -0.15880776441E+04  0.28086247740E+04  0.23165453844E+04 0.  0.
        2    1    3    3  502    0 -0.21163489386E+01  0.50491355579E+03 -0.20578972859E+04  0.21189345004E+04  0.25500000920E-02 0.  1.
       -2    1    3    3    0  502  0.21163489386E+01 -0.50491355579E+03  0.46981964179E+03  0.68969027366E+03  0.25500000920E-02 0. -1.
</event>
<event>
 5   0  0.2043885E-05  0.2319389E+04  0.7818609E-02  0.8470315E-01
        1   -1    0    0  501    0  0.00000000000E+00  0.00000000000E+00  0.18935304848E+04  0.18935304848E+04  0.50400001928E-02 0. -1.
       -1   -1    0    0    0  501  0.00000000000E+00  0.00000000000E+00 -0.71025613076E+03  0.71025613077E+03  0.50400001928E-02 0.  1.
    10030    2    1    2    0    0  0.00000000000E+00  0.00000000000E+00  0.11832743540E+04  0.26037866156E+04  0.23193892607E+04 0.  0.
        5    1    3    3  502    0  0.61173885539E+03  0.94283893883E+03  0.91251698432E+03  0.14477151061E+04  0.46999998093E+01 0. -1.
       -5    1    3    3    0  502 -0.61173885539E+03 -0.94283893883E+03  0.27075736973E+03  0.11560715095E+04  0.46999998093E+01 0.  1.
</event>
<event>
 5   0  0.4605516E-05  0.2332404E+04  0.7818609E-02  0.8465253E-01
       -2   -1    0    0    0  501  0.00000000000E+00  0.00000000000E+00  0.93301826452E+03  0.93301826452E+03  0.25500000920E-02 0. -1.
        2   -1    0    0  501    0  0.00000000000E+00  0.00000000000E+00 -0.14576636931E+04  0.14576636931E+04  0.25500000920E-02 0.  1.
    10030    2    1    2    0    0  0.00000000000E+00  0.00000000000E+00 -0.52464542862E+03  0.23906819577E+04  0.23324037809E+04 0.  0.
        1    1    3    3  502    0 -0.82084097948E+03 -0.61627662623E+03  0.30508850590E+03  0.10708201483E+04  0.50400001928E-02 0. -1.
       -1    1    3    3    0  502  0.82084097948E+03  0.61627662623E+03 -0.82973393452E+03  0.13198618093E+04  0.50400001928E-02 0.  1.
</event>
<event>
 5   0  0.4505107E-05  0.2307228E+04  0.7818609E-02  0.8475077E-01
       -2   -1    0    0    0  501  0.00000000000E+00  0.00000000000E+00  0.85617571723E+03  0.85617571724E+03  0.25500000920E-02 0.  1.
        2   -1    0    0  501    0  0.00000000000E+00  0.00000000000E+00 -0.15543837511E+04  0.15543837511E+04  0.25500000920E-02 0. -1.
    10030    2    1    2    0    0  0.00000000000E+00  0.00000000000E+00 -0.69820803387E+03  0.24105594683E+04  0.23072283138E+04 0.  0.
        4    1    3    3  502    0  0.96876605987E+03 -0.61672529948E+03 -0.23481458753E+03  0.11721762995E+04  0.12699999809E+01 0.  1.
       -4    1    3    3    0  502 -0.96876605987E+03  0.61672529948E+03 -0.46339344634E+03  0.12383831688E+04  0.12699999809E+01 0. -1.
</event>
<event>
 5   0  0.2043885E-05  0.2284780E+04  0.7818609E-02  0.8483946E-01
        1   -1    0    0  501    0  0.00000000000E+00  0.00000000000E+00  0.15158114631E+04  0.15158114632E+04  0.50400001928E-02 0. -1.
       -1   -1    0    0    0  501  0.00000000000E+00  0.00000000000E+00 -0.86096132809E+03  0.86096132811E+03  0.50400001928E-02 0.  1.
    10030    2    1    2    0    0  0.00000000000E+00  0.00000000000E+00  0.65485013505E+03  0.23767727913E+04  0.22847801211E+04 0.  0.
        5    1    3    3  502    0 -0.66142047394E+03 -0.72813045445E+02  0.12933889963E+04  0.14545294664E+04  0.46999998093E+01 0. -1.
       -5    1    3    3    0  502  0.66142047394E+03  0.72813045445E+02 -0.63853886124E+03  0.92224332485E+03  0.46999998093E+01 0.  1.
</event>
<event>
 5   0  0.4505107E-05  0.2332233E+04  0.7818609E-02  0.8465319E-01
       -2   -1    0    0    0  501  0.00000000000E+00  0.00000000000E+00  0.10227037505E+04  0.10227037505E+04  0.25500000920E-02 0.  1.
        2   -1    0    0  501    0  0.00000000000E+00  0.00000000000E+00 -0.13296401522E+04  0.13296401522E+04  0.25500000920E-02 0. -1.
    10030    2    1    2    0    0  0.00000000000E+00  0.00000000000E+00 -0.30693640169E+03  0.23523439027E+04  0.23322332391E+04 0.  0.
        4    1    3    3  502    0 -0.29452892895E+03 -0.16127623843E+02 -0.12913893066E+04  0.13246491401E+04  0.12699999809E+01 0. -1.
       -4    1    3    3    0  502  0.29452892895E+03  0.16127623843E+02  0.98445290489E+03  0.10276947626E+04  0.12699999809E+01 0.  1.
</event>
<event>
 5   0  0.4436695E-05  0.2298105E+04  0.7818609E-02  0.8478669E-01
        2   -1    0    0  501    0  0.00000000000E+00  0.00000000000E+00  0.21827924029E+04  0.21827924029E+04  0.25500000920E-02 0. -1.
       -2   -1    0    0    0  501  0.00000000000E+00  0.00000000000E+00 -0.60487744106E+03  0.60487744107E+03  0.25500000920E-02 0.  1.
    10030    2    1    2    0    0  0.00000000000E+00  0.00000000000E+00  0.15779149619E+04  0.27876698440E+04  0.22981052048E+04 0.  0.
        5    1    3    3  502    0  0.21852698639E+03  0.48576834469E+03 -0.44605619715E+03  0.69477561089E+03  0.46999998093E+01 0.  1.
       -5    1    3    3    0  502 -0.21852698639E+03 -0.48576834469E+03  0.20239711590E+04  0.20928942331E+04  0.46999998093E+01 0. -1.
</event>
<event>
 5   0  0.4605516E-05  0.2305095E+04  0.7818609E-02  0.8475915E-01
        2   -1    0    0  501    0  0.00000000000E+00  0.00000000000E+00  0.84735523163E+03  0.84735523164E+03  0.25500000920E-02 0.  1.
       -2   -1    0    0    0  501  0.00000000000E+00  0.00000000000E+00 -0.15676603108E+04  0.15676603108E+04  0.25500000920E-02 0. -1.
    10030    2    1    2    0    0  0.00000000000E+00  0.00000000000E+00 -0.72030507921E+03  0.24150155425E+04  0.23050945020E+04 0.  0.
        1    1    3    3  502    0  0.58053028638E+03  0.47820135636E+03  0.55480395121E+03  0.93461188465E+03  0.50400001928E-02 0.  1.
       -1    1    3    3    0  502 -0.58053028638E+03 -0.47820135636E+03 -0.12751090304E+04  0.14804036578E+04  0.50400001928E-02 0. -1.
</event>
<event>
 5   0  0.2031860E-05  0.2294844E+04  0.7818609E-02  0.8479957E-01
       -1   -1    0    0    0  501  0.00000000000E+00  0.00000000000E+00  0.85253454683E+03  0.85253454684E+03  0.50400001928E-02 0.  1.
        1   -1    0    0  501    0  0.00000000000E+00  0.00000000000E+00 -0.15443091837E+04  0.15443091837E+04  0.50400001928E-02 0. -1.
    10030    2    1    2    0    0  0.00000000000E+00  0.00000000000E+00 -0.69177463685E+03  0.23968437305E+04  0.22948437246E+04 0.  0.
        4    1    3    3  502    0  0.99210122289E+02  0.34466282244E+03  0.79248386804E+03  0.86986631361E+03  0.12699999809E+01 0.  1.
       -4    1    3    3    0  502 -0.99210122289E+02 -0.34466282244E+03 -0.14842585049E+04  0.15269774169E+04  0.12699999809E+01 0. -1.
</event>
<event>
 5   0  0.4605516E-05  0.2295390E+04  0.7818609E-02  0.8479741E-01
        2   -1    0    0  501    0  0.00000000000E+00  0.00000000000E+00  0.17068055438E+04  0.17068055438E+04  0.25500000920E-02 0. -1.
       -2   -1    0    0    0  501  0.00000000000E+00  0.00000000000E+00 -0.77173634162E+03  0.77173634163E+03  0.25500000920E-02 0.  1.
    10030    2    1    2    0    0  0.00000000000E+00  0.00000000000E+00  0.93506920218E+03  0.24785418854E+04  0.22953900464E+04 0.  0.
        1    1    3    3  502    0  0.91772390133E+03 -0.26973141354E+02 -0.27607952437E+03  0.95873073030E+03  0.50400001928E-02 0.  1.
       -1    1    3    3    0  502 -0.91772390133E+03  0.26973141354E+02  0.12111487265E+04  0.15198111551E+04  0.50400001928E-02 0. -1.
</event>
<event>
 5   0  0.2042951E-05  0.2159963E+04  0.7818609E-02  0.8535280E-01
        1   -1    0    0  501    0  0.00000000000E+00  0.00000000000E+00  0.21884842634E+04  0.21884842634E+04  0.50400001928E-02 0.  1.
       -1   -1    0    0    0  501  0.00000000000E+00  0.00000000000E+00 -0.53295332931E+03  0.53295332933E+03  0.50400001928E-02 0. -1.
    10030    2    1    2    0    0  0.00000000000E+00  0.00000000000E+00  0.16555309341E+04  0.27214375928E+04  0.21599629389E+04 0.  0.
        2    1    3    3  502    0 -0.10194904310E+04  0.33860199267E+03  0.96777225374E+03  0.14458890634E+04  0.25500000920E-02 0.  1.
       -2    1    3    3    0  502  0.10194904310E+04 -0.33860199267E+03  0.68775868038E+03  0.12755485294E+04  0.25500000920E-02 0. -1.
</event>
<event>
 5   0  0.4602447E-05  0.2262695E+04  0.7818609E-02  0.8492777E-01
        2   -1    0    0  501    0  0.00000000000E+00  0.00000000000E+00  0.18206736864E+04  0.18206736864E+04  0.25500000920E-02 0. -1.
       -2   -1    0    0    0  501  0.00000000000E+00  0.00000000000E+00 -0.70300759199E+03  0.70300759199E+03  0.25500000920E-02 0.  1.
    10030    2    1    2    0    0  0.00000000000E+00  0.00000000000E+00  0.11176660944E+04  0.25236812784E+04  0.22626952283E+04 0.  0.
        3    1    3    3  502    0  0.71353001653E+03  0.52273993831E+03  0.13455771234E+04  0.16102670377E+04  0.10100000352E+00 0. -1.
       -3    1    3    3    0  502 -0.71353001653E+03 -0.52273993831E+03 -0.22791102902E+03  0.91341424061E+03  0.10100000352E+00 0.  1.
</event>
<event>
 5   0  0.2031860E-05  0.2295455E+04  0.7818609E-02  0.8479715E-01
        1   -1    0    0  501    0  0.00000000000E+00  0.00000000000E+00  0.80427147450E+03  0.80427147452E+03  0.50400001928E-02 0. -1.
       -1   -1    0    0    0  501  0.00000000000E+00  0.00000000000E+00 -0.16378530986E+04  0.16378530986E+04  0.50400001928E-02 0.  1.
    10030    2    1    2    0    0  0.00000000000E+00  0.00000000000E+00 -0.83358162405E+03  0.24421245731E+04  0.22954550979E+04 0.  0.
        4    1    3    3  502    0 -0.42150511263E+03 -0.27080543920E+02  0.71857920861E+03  0.83352121016E+03  0.12699999809E+01 0. -1.
       -4    1    3    3    0  502  0.42150511263E+03  0.27080543920E+02 -0.15521608327E+04  0.16086033629E+04  0.12699999809E+01 0.  1.
</event>
<event>
 5   0  0.2031860E-05  0.2303263E+04  0.7818609E-02  0.8476636E-01
        1   -1    0    0  501    0  0.00000000000E+00  0.00000000000E+00  0.90418417486E+03  0.90418417487E+03  0.50400001928E-02 0.  1.
       -1   -1    0    0    0  501  0.00000000000E+00  0.00000000000E+00 -0.14667972113E+04  0.14667972113E+04  0.50400001928E-02 0. -1.
    10030    2    1    2    0    0  0.00000000000E+00  0.00000000000E+00 -0.56261303644E+03  0.23709813862E+04  0.23032627520E+04 0.  0.
        4    1    3    3  502    0  0.61547137722E+03 -0.15973206613E+03 -0.12697106313E+04  0.14200302987E+04  0.12699999809E+01 0. -1.
       -4    1    3    3    0  502 -0.61547137722E+03  0.15973206613E+03  0.70709759488E+03  0.95095108745E+03  0.12699999809E+01 0.  1.
</event>
<event>
 5   0  0.4605516E-05  0.2297030E+04  0.7818609E-02  0.8479093E-01
       -2   -1    0    0    0  501  0.00000000000E+00  0.00000000000E+00  0.27850672935E+04  0.27850672935E+04  0.25500000920E-02 0.  1.
        2   -1    0    0  501    0  0.00000000000E+00  0.00000000000E+00 -0.47362820513E+03  0.47362820513E+03  0.25500000920E-02 0. -1.
    10030    2    1    2    0    0  0.00000000000E+00  0.00000000000E+00  0.23114390883E+04  0.32586954986E+04  0.22970297546E+04 0.  0.
        1    1    3    3  502    0 -0.44672129100E+03  0.10440197590E+04  0.13995850772E+04  0.18023250421E+04  0.50400001928E-02 0. -1.
       -1    1    3    3    0  502  0.44672129100E+03 -0.10440197590E+04  0.91185401115E+03  0.14563704565E+04  0.50400001928E-02 0.  1.
</event>
<event>
 5   0  0.4505107E-05  0.2298511E+04  0.7818609E-02  0.8478508E-01
        2   -1    0    0  501    0  0.00000000000E+00  0.00000000000E+00  0.10756487825E+04  0.10756487825E+04  0.25500000920E-02 0.  1.
       -2   -1    0    0    0  501  0.00000000000E+00  0.00000000000E+00 -0.12278991864E+04  0.12278991864E+04  0.25500000920E-02 0. -1.
    10030    2    1    2    0    0  0.00000000000E+00  0.00000000000E+00 -0.15225040395E+03  0.23035479689E+04  0.22985110527E+04 0.  0.
        4    1    3    3  502    0 -0.43259825178E+03 -0.37129673582E+03 -0.10762018029E+04  0.12178729190E+04  0.12699999809E+01 0. -1.
       -4    1    3    3    0  502  0.43259825178E+03  0.37129673582E+03  0.92395139892E+03  0.10856750499E+04  0.12699999809E+01 0.  1.
</event>
<event>
 5   0  0.2043885E-05  0.2306745E+04  0.7818609E-02  0.8475266E-01
        1   -1    0    0  501    0  0.00000000000E+00  0.00000000000E+00  0.17419861949E+04  0.17419861949E+04  0.50400001928E-02 0.  1.
       -1   -1    0    0    0  501  0.00000000000E+00  0.00000000000E+00 -0.76365011652E+03  0.76365011654E+03  0.50400001928E-02 0. -1.
    10030    2    1    2    0    0  0.00000000000E+00  0.00000000000E+00  0.97833607834E+03  0.25056363114E+04  0.23067448586E+04 0.  0.
        5    1    3    3  502    0  0.73257526902E+02  0.11397983165E+04  0.31490136858E+03  0.11847750122E+04  0.46999998093E+01 0.  1.
       -5    1    3    3    0  502 -0.73257526902E+02 -0.11397983165E+04  0.66343470976E+03  0.13208612992E+04  0.46999998093E+01 0. -1.
</event>
<event>
 5   0  0.4605516E-05  0.2296245E+04  0.7818609E-02  0.8479403E-01
        2   -1    0    0  501    0  0.00000000000E+00  0.00000000000E+00  0.12323578208E+04  0.12323578208E+04  0.25500000920E-02 0. -1.
       -2   -1    0    0    0  501  0.00000000000E+00  0.00000000000E+00 -0.10696449135E+04  0.10696449135E+04  0.25500000920E-02 0.  1.
    10030    2    1    2    0    0  0.00000000000E+00  0.00000000000E+00  0.16271290737E+03  0.23020027343E+04  0.22962449997E+04 0.  0.
        1    1    3    3  502    0 -0.97269846055E+02  0.59911477060E+01  0.12282039337E+04  0.12320642108E+04  0.50400001928E-02 0. -1.
       -1    1    3    3    0  502  0.97269846055E+02 -0.59911477060E+01 -0.10654910263E+04  0.10699385235E+04  0.50400001928E-02 0.  1.
</event>
<event>
 5   0  0.4602447E-05  0.2306144E+04  0.7818609E-02  0.8475503E-01
        2   -1    0    0  501    0  0.00000000000E+00  0.00000000000E+00  0.14622565557E+04  0.14622565557E+04  0.25500000920E-02 0.  1.
       -2   -1    0    0    0  501  0.00000000000E+00  0.00000000000E+00 -0.90926231819E+03  0.90926231820E+03  0.25500000920E-02 0. -1.
    10030    2    1    2    0    0  0.00000000000E+00  0.00000000000E+00  0.55299423754E+03  0.23715188739E+04  0.23061437819E+04 0.  0.
        3    1    3    3  502    0 -0.39325771783E+03 -0.52282055457E+03 -0.69993661523E+03  0.95807319159E+03  0.10100000352E+00 0. -1.
       -3    1    3    3    0  502  0.39325771783E+03  0.52282055457E+03  0.12529308528E+04  0.14134456823E+04  0.10100000352E+00 0.  1.
</event>
<event>
 5   0  0.2085063E-05  0.2284407E+04  0.7818609E-02  0.8484095E-01
        1   -1    0    0  501    0  0.00000000000E+00  0.00000000000E+00  0.13034212816E+04  0.13034212816E+04  0.50400001928E-02 0. -1.
       -1   -1    0    0    0  501  0.00000000000E+00  0.00000000000E+00 -0.10009267637E+04  0.10009267637E+04  0.50400001928E-02 0.  1.
    10030    2    1    2    0    0  0.00000000000E+00  0.00000000000E+00  0.30249451786E+03  0.23043480453E+04  0.22844073587E+04 0.  0.
        1    1    3    3  502    0 -0.69899839220E+03  0.53799338430E+03  0.88324934271E+03  0.12482648098E+04  0.50400001928E-02 0. -1.
       -1    1    3    3    0  502  0.69899839220E+03 -0.53799338430E+03 -0.58075482484E+03  0.10560832356E+04  0.50400001928E-02 0.  1.
</event>
<event>
 5   0  0.2085063E-05  0.2301692E+04  0.7818609E-02  0.8477254E-01
       -1   -1    0    0    0  501  0.00000000000E+00  0.00000000000E+00  0.10032121906E+04  0.10032121906E+04  0.50400001928E-02 0. -1.
        1   -1    0    0  501    0  0.00000000000E+00  0.00000000000E+00 -0.13202062489E+04  0.13202062489E+04  0.50400001928E-02 0.  1.
    10030    2    1    2    0    0  0.00000000000E+00  0.00000000000E+00 -0.31699405823E+03  0.23234184395E+04  0.23016924234E+04 0.  0.
        1    1    3    3  502    0  0.24401746553E+03  0.69050962030E+02  0.97465605443E+03  0.10071082282E+04  0.50400001928E-02 0. -1.
       -1    1    3    3    0  502 -0.24401746553E+03 -0.69050962030E+02 -0.12916501127E+04  0.13163102113E+04  0.50400001928E-02 0.  1.
</event>
<event>
 5   0  0.1968318E-05  0.2294530E+04  0.7818609E-02  0.8480081E-01
       -1   -1    0    0    0  501  0.00000000000E+00  0.00000000000E+00  0.74664717144E+03  0.74664717146E+03  0.50400001928E-02 0.  1.
        1   -1    0    0  501    0  0.00000000000E+00  0.00000000000E+00 -0.17628361958E+04  0.17628361958E+04  0.50400001928E-02 0. -1.
    10030    2    1    2    0    0  0.00000000000E+00  0.00000000000E+00 -0.10161890244E+04  0.25094833673E+04  0.22945297203E+04 0.  0.
        3    1    3    3  502    0 -0.11395951011E+04  0.11327972254E+03 -0.58313217588E+03  0.12851274002E+04  0.10100000352E+00 0.  1.
       -3    1    3    3    0  502  0.11395951011E+04 -0.11327972254E+03 -0.43305684848E+03  0.12243559671E+04  0.10100000352E+00 0. -1.
</event>
<event>
 5   0  0.2043885E-05  0.2241864E+04  0.7818609E-02  0.8501203E-01
       -1   -1    0    0    0  501  0.00000000000E+00  0.00000000000E+00  0.10760676561E+04  0.10760676561E+04  0.50400001928E-02 0. -1.
        1   -1    0    0  501    0  0.00000000000E+00  0.00000000000E+00 -0.11676664452E+04  0.11676664452E+04  0.50400001928E-02 0.  1.
    10030    2    1    2    0    0  0.00000000000E+00  0.00000000000E+00 -0.91598789090E+02  0.22437341013E+04  0.22418635952E+04 0.  0.
        5    1    3    3  502    0  0.95673931055E+03 -0.25769611509E+03 -0.57036322098E+03  0.11432819818E+04  0.46999998093E+01 0.  1.
       -5    1    3    3    0  502 -0.95673931055E+03  0.25769611509E+03  0.47876443189E+03  0.11004521195E+04  0.46999998093E+01 0. -1.
</event>
<event>
 5   0  0.1968318E-05  0.2282222E+04  0.7818609E-02  0.8484964E-01
        1   -1    0    0  501    0  0.00000000000E+00  0.00000000000E+00  0.83809415767E+03  0.83809415769E+03  0.50400001928E-02 0. -1.
       -1   -1    0    0    0  501  0.00000000000E+00  0.00000000000E+00 -0.15536855538E+04  0.15536855538E+04  0.50400001928E-02 0.  1.
    10030    2    1    2    0    0  0.00000000000E+00  0.00000000000E+00 -0.71559139608E+03  0.23917797114E+04  0.22822224129E+04 0.  0.
        3    1    3    3  502    0  0.16256480355E+02 -0.69588028418E+03 -0.13054267110E+04  0.14794095278E+04  0.10100000352E+00 0.  1.
       -3    1    3    3    0  502 -0.16256480355E+02  0.69588028418E+03  0.58983531490E+03  0.91237018362E+03  0.10100000352E+00 0. -1.
</event>
<event>
 5   0  0.4505107E-05  0.2289629E+04  0.7818609E-02  0.8482022E-01
        2   -1    0    0  501    0  0.00000000000E+00  0.00000000000E+00  0.14403641579E+04  0.14403641579E+04  0.25500000920E-02 0.  1.
       -2   -1    0    0    0  501  0.00000000000E+00  0.00000000000E+00 -0.90990878376E+03  0.90990878376E+03  0.25500000920E-02 0. -1.
    10030    2    1    2    0    0  0.00000000000E+00  0.00000000000E+00  0.53045537410E+03  0.23502729416E+04  0.22896287900E+04 0.  0.
        4    1    3    3  502    0 -0.39478765311E+03  0.20933774689E+03  0.13471457762E+04  0.14193248179E+04  0.12699999809E+01 0.  1.
       -4    1    3    3    0  502  0.39478765311E+03 -0.20933774689E+03 -0.81669040211E+03  0.93094812376E+03  0.12699999809E+01 0. -1.
</event>
<event>
 5   0  0.4605516E-05  0.2296018E+04  0.7818609E-02  0.8479493E-01
        2   -1    0    0  501    0  0.00000000000E+00  0.00000000000E+00  0.12694242539E+04  0.12694242539E+04  0.25500000920E-02 0. -1.
       -2   -1    0    0    0  501  0.00000000000E+00  0.00000000000E+00 -0.10382069284E+04  0.10382069284E+04  0.25500000920E-02 0.  1.
    10030    2    1    2    0    0  0.00000000000E+00  0.00000000000E+00  0.23121732550E+03  0.23076311822E+04  0.22960183409E+04 0.  0.
        1    1    3    3  502    0 -0.74852311948E+02  0.94003633561E+03 -0.54241941121E+03  0.10878832651E+04  0.50400001928E-02 0.  1.
       -1    1    3    3    0  502  0.74852311948E+02 -0.94003633561E+03  0.77363673671E+03  0.12197479171E+04  0.50400001928E-02 0. -1.
</event>
<event>
 5   0  0.2042951E-05  0.2289233E+04  0.7818609E-02  0.8482178E-01
       -1   -1    0    0    0  501  0.00000000000E+00  0.00000000000E+00  0.78814139184E+03  0.78814139186E+03  0.50400001928E-02 0.  1.
        1   -1    0    0  501    0  0.00000000000E+00  0.00000000000E+00 -0.16623252143E+04  0.16623252143E+04  0.50400001928E-02 0. -1.
    10030    2    1    2    0    0  0.00000000000E+00  0.00000000000E+00 -0.87418382247E+03  0.24504666062E+04  0.22892333285E+04 0.  0.
        2    1    3    3  502    0 -0.13154832069E+03 -0.11091818180E+04 -0.16935989871E+03  0.11297221080E+04  0.25500000920E-02 0. -1.
       -2    1    3    3    0  502  0.13154832069E+03  0.11091818180E+04 -0.70482392376E+03  0.13207444982E+04  0.25500000920E-02 0.  1.
</event>
<event>
 5   0  0.4436695E-05  0.2283807E+04  0.7818609E-02  0.8484333E-01
       -2   -1    0    0    0  501  0.00000000000E+00  0.00000000000E+00  0.15223663646E+04  0.15223663646E+04  0.25500000920E-02 0.  1.
        2   -1    0    0  501    0  0.00000000000E+00  0.00000000000E+00 -0.85652435728E+03  0.85652435729E+03  0.25500000920E-02 0. -1.
    10030    2    1    2    0    0  0.00000000000E+00  0.00000000000E+00  0.66584200728E+03  0.23788907219E+04  0.22838072353E+04 0.  0.
        5    1    3    3  502    0  0.14843898110E+03  0.11208292369E+04  0.16616369325E+03  0.11427706561E+04  0.46999998093E+01 0. -1.
       -5    1    3    3    0  502 -0.14843898110E+03 -0.11208292369E+04  0.49967831403E+03  0.12361200658E+04  0.46999998093E+01 0.  1.
</event>
<event>
 5   0  0.2042951E-05  0.2304220E+04  0.7818609E-02  0.8476259E-01
        1   -1    0    0  501    0  0.00000000000E+00  0.00000000000E+00  0.13776207591E+04  0.13776207591E+04  0.50400001928E-02 0.  1.
       -1   -1    0    0    0  501  0.00000000000E+00  0.00000000000E+00 -0.96351473978E+03  0.96351473979E+03  0.50400001928E-02 0. -1.
    10030    2    1    2    0    0  0.00000000000E+00  0.00000000000E+00  0.41410601936E+03  0.23411354989E+04  0.23042203951E+04 0.  0.
        2    1    3    3  502    0 -0.69786338278E+03 -0.73886763959E+03 -0.34424396716E+03  0.10730529338E+04  0.25500000920E-02 0. -1.
       -2    1    3    3    0  502  0.69786338278E+03  0.73886763959E+03  0.75834998652E+03  0.12680825651E+04  0.25500000920E-02 0.  1.
</event>
<event>
 5   0  0.4798609E-05  0.2265565E+04  0.7818609E-02  0.8491623E-01
       -2   -1    0    0    0  501  0.00000000000E+00  0.00000000000E+00  0.91666811178E+03  0.91666811178E+03  0.25500000920E-02 0. -1.
        2   -1    0    0  501    0  0.00000000000E+00  0.00000000000E+00 -0.13998484488E+04  0.13998484488E+04  0.25500000920E-02 0.  1.
    10030    2    1    2    0    0  0.00000000000E+00  0.00000000000E+00 -0.48318033700E+03  0.23165165606E+04  0.22655652137E+04 0.  0.
        2    1    3    3  502    0 -0.13167871191E+03 -0.99218637860E+03  0.30083383405E+03  0.10451191744E+04  0.25500000920E-02 0. -1.
       -2    1    3    3    0  502  0.13167871191E+03  0.99218637860E+03 -0.78401417105E+03  0.12713973861E+04  0.25500000920E-02 0.  1.
</event>
<event>
 5   0  0.4602447E-05  0.2273170E+04  0.7818609E-02  0.8488575E-01
       -2   -1    0    0    0  501  0.00000000000E+00  0.00000000000E+00  0.66772748500E+03  0.66772748500E+03  0.25500000920E-02 0.  1.
        2   -1    0    0  501    0  0.00000000000E+00  0.00000000000E+00 -0.19346605166E+04  0.19346605166E+04  0.25500000920E-02 0. -1.
    10030    2    1    2    0    0  0.00000000000E+00  0.00000000000E+00 -0.12669330316E+04  0.26023880016E+04  0.22731704741E+04 0.  0.
        3    1    3    3  502    0  0.58977458817E+03 -0.32448111962E+03  0.41497541198E+03  0.79077598888E+03  0.10100000352E+00 0.  1.
       -3    1    3    3    0  502 -0.58977458817E+03  0.32448111962E+03 -0.16819084435E+04  0.18116120127E+04  0.10100000352E+00 0. -1.
</event>
<event>
 5   0  0.4605516E-05  0.2317135E+04  0.7818609E-02  0.8471196E-01
        2   -1    0    0  501    0  0.00000000000E+00  0.00000000000E+00  0.19940509797E+04  0.19940509797E+04  0.25500000920E-02 0.  1.
       -2   -1    0    0    0  501  0.00000000000E+00  0.00000000000E+00 -0.67314149635E+03  0.67314149635E+03  0.25500000920E-02 0. -1.
    10030    2    1    2    0    0  0.00000000000E+00  0.00000000000E+00  0.13209094833E+04  0.26671924760E+04  0.23171348345E+04 0.  0.
        1    1    3    3  502    0  0.29839891175E+03 -0.18151025578E+03 -0.61109888234E+03  0.70386769176E+03  0.50400001928E-02 0. -1.
       -1    1    3    3    0  502 -0.29839891175E+03  0.18151025578E+03  0.19320083657E+04  0.19633247843E+04  0.50400001928E-02 0.  1.
</event>
<event>
 5   0  0.4505107E-05  0.2312722E+04  0.7818609E-02  0.8472922E-01
        2   -1    0    0  501    0  0.00000000000E+00  0.00000000000E+00  0.11373898714E+04  0.11373898714E+04  0.25500000920E-02 0.  1.
       -2   -1    0    0    0  501  0.00000000000E+00  0.00000000000E+00 -0.11756482679E+04  0.11756482679E+04  0.25500000920E-02 0. -1.
    10030    2    1    2    0    0  0.00000000000E+00  0.00000000000E+00 -0.38258396555E+02  0.23130381393E+04  0.23127217145E+04 0.  0.
        4    1    3    3  502    0 -0.36259014617E+03 -0.51729681084E+03 -0.98781796810E+03  0.11725414942E+04  0.12699999809E+01 0. -1.
       -4    1    3    3    0  502  0.36259014617E+03  0.51729681084E+03  0.94955957155E+03  0.11404966451E+04  0.12699999809E+01 0.  1.
</event>
<event>
 5   0  0.2043885E-05  0.2286816E+04  0.7818609E-02  0.8483138E-01
        1   -1    0    0  501    0  0.00000000000E+00  0.00000000000E+00  0.15510125944E+04  0.15510125944E+04  0.50400001928E-02 0. -1.
       -1   -1    0    0    0  501  0.00000000000E+00  0.00000000000E+00 -0.84292156278E+03  0.84292156279E+03  0.50400001928E-02 0.  1.
    10030    2    1    2    0    0  0.00000000000E+00  0.00000000000E+00  0.70809103159E+03  0.23939341572E+04  0.22868160923E+04 0.  0.
        5    1    3    3  502    0 -0.38998601589E+03 -0.49408529281E+03 -0.64520877276E+03  0.90140214089E+03  0.46999998093E+01 0.  1.
       -5    1    3    3    0  502  0.38998601589E+03  0.49408529281E+03  0.13532998044E+04  0.14925320163E+04  0.46999998093E+01 0. -1.
</event>
<event>
 5   0  0.2031860E-05  0.2189787E+04  0.7818609E-02  0.8522691E-01
        1   -1    0    0  501    0  0.00000000000E+00  0.00000000000E+00  0.14770352423E+04  0.14770352423E+04  0.50400001928E-02 0. -1.
       -1   -1    0    0    0  501  0.00000000000E+00  0.00000000000E+00 -0.81162059356E+03  0.81162059357E+03  0.50400001928E-02 0.  1.
    10030    2    1    2    0    0  0.00000000000E+00  0.00000000000E+00  0.66541464875E+03  0.22886558359E+04  0.21897874053E+04 0.  0.
        4    1    3    3  502    0  0.92630360919E+03 -0.58216988878E+03  0.28799187122E+03  0.11313271351E+04  0.12699999809E+01 0.  1.
       -4    1    3    3    0  502 -0.92630360919E+03  0.58216988878E+03  0.37742277754E+03  0.11573287008E+04  0.12699999809E+01 0. -1.
</event>
<event>
 5   0  0.2043885E-05  0.2278873E+04  0.7818609E-02  0.8486298E-01
       -1   -1    0    0    0  501  0.00000000000E+00  0.00000000000E+00  0.66197186664E+03  0.66197186666E+03  0.50400001928E-02 0.  1.
        1   -1    0    0  501    0  0.00000000000E+00  0.00000000000E+00 -0.19612843780E+04  0.19612843780E+04  0.50400001928E-02 0. -1.
    10030    2    1    2    0    0  0.00000000000E+00  0.00000000000E+00 -0.12993125113E+04  0.26232562446E+04  0.22788725991E+04 0.  0.
        5    1    3    3  502    0 -0.10302965439E+04 -0.44996411045E+03 -0.43642131083E+03  0.12060117411E+04  0.46999998093E+01 0. -1.
       -5    1    3    3    0  502  0.10302965439E+04  0.44996411045E+03 -0.86289120049E+03  0.14172445036E+04  0.46999998093E+01 0.  1.
</event>
<event>
 5   0  0.4602447E-05  0.2309924E+04  0.7818609E-02  0.8474018E-01
        2   -1    0    0  501    0  0.00000000000E+00  0.00000000000E+00  0.10694069802E+04  0.10694069802E+04  0.25500000920E-02 0.  1.
       -2   -1    0    0    0  501  0.00000000000E+00  0.00000000000E+00 -0.12473616598E+04  0.12473616598E+04  0.25500000920E-02 0. -1.
    10030    2    1    2    0    0  0.00000000000E+00  0.00000000000E+00 -0.17795467962E+03  0.23167686400E+04  0.23099240384E+04 0.  0.
        3    1    3    3  502    0 -0.48041594503E+03 -0.59114031965E+03 -0.95970352019E+03  0.12252661811E+04  0.10100000352E+00 0. -1.
       -3    1    3    3    0  502  0.48041594503E+03  0.59114031965E+03  0.78174884057E+03  0.10915024589E+04  0.10100000352E+00 0.  1.
</event>
<event>
 5   0  0.4798609E-05  0.2285031E+04  0.7818609E-02  0.8483847E-01
       -2   -1    0    0    0  501  0.00000000000E+00  0.00000000000E+00  0.16893819750E+04  0.16893819751E+04  0.25500000920E-02 0. -1.
        2   -1    0    0  501    0  0.00000000000E+00  0.00000000000E+00 -0.77267375350E+03  0.77267375350E+03  0.25500000920E-02 0.  1.
    10030    2    1    2    0    0  0.00000000000E+00  0.00000000000E+00  0.91670822155E+03  0.24620557286E+04  0.22850305134E+04 0.  0.
        2    1    3    3  502    0  0.13162614706E+03 -0.17719334603E+03 -0.74948070965E+03  0.78130932326E+03  0.25500000920E-02 0.  1.
       -2    1    3    3    0  502 -0.13162614706E+03  0.17719334603E+03  0.16661889312E+04  0.16807464053E+04  0.25500000920E-02 0. -1.
</event>
<event>
 5   0  0.4436695E-05  0.2247693E+04  0.7818609E-02  0.8498835E-01
        2   -1    0    0  501    0  0.00000000000E+00  0.00000000000E+00  0.84026109766E+03  0.84026109766E+03  0.25500000920E-02 0.  1.
       -2   -1    0    0    0  501  0.00000000000E+00  0.00000000000E+00 -0.15031413422E+04  0.15031413422E+04  0.25500000920E-02 0. -1.
    10030    2    1    2    0    0  0.00000000000E+00  0.00000000000E+00 -0.66288024458E+03  0.23434024399E+04  0.22476932123E+04 0.  0.
        5    1    3    3  502    0  0.72064708545E+03  0.47003203839E+03  0.42235881483E+03  0.95847347243E+03  0.46999998093E+01 0.  1.
       -5    1    3    3    0  502 -0.72064708545E+03 -0.47003203839E+03 -0.10852390594E+04  0.13849289675E+04  0.46999998093E+01 0. -1.
</event>
<event>
 5   0  0.2031860E-05  0.2302222E+04  0.7818609E-02  0.8477045E-01
        1   -1    0    0  501    0  0.00000000000E+00  0.00000000000E+00  0.22584905508E+04  0.22584905508E+04  0.50400001928E-02 0. -1.
       -1   -1    0    0    0  501  0.00000000000E+00  0.00000000000E+00 -0.58670028113E+03  0.58670028116E+03  0.50400001928E-02 0.  1.
    10030    2    1    2    0    0  0.00000000000E+00  0.00000000000E+00  0.16717902697E+04  0.28451908320E+04  0.23022224403E+04 0.  0.
        4    1    3    3  502    0 -0.14867212718E+03 -0.11140177243E+04  0.11434109431E+04  0.16032869641E+04  0.12699999809E+01 0. -1.
       -4    1    3    3    0  502  0.14867212718E+03  0.11140177243E+04  0.52837932659E+03  0.12419038679E+04  0.12699999809E+01 0.  1.
</event>
<event>
 5   0  0.2085063E-05  0.2282106E+04  0.7818609E-02  0.8485010E-01
        1   -1    0    0  501    0  0.00000000000E+00  0.00000000000E+00  0.13055468527E+04  0.13055468527E+04  0.50400001928E-02 0.  1.
       -1   -1    0    0    0  501  0.00000000000E+00  0.00000000000E+00 -0.99728481231E+03  0.99728481233E+03  0.50400001928E-02 0. -1.
    10030    2    1    2    0    0  0.00000000000E+00  0.00000000000E+00  0.30826204037E+03  0.23028316650E+04  0.22821060869E+04 0.  0.
        1    1    3    3  502    0 -0.26693526110E+03  0.18604283555E+03  0.12577434557E+04  0.12991477863E+04  0.50400001928E-02 0.  1.
       -1    1    3    3    0  502  0.26693526110E+03 -0.18604283555E+03 -0.94948141534E+03  0.10036838787E+04  0.50400001928E-02 0. -1.
</event>
<event>
 5   0  0.4798609E-05  0.2307335E+04  0.7818609E-02  0.8475035E-01
       -2   -1    0    0    0  501  0.00000000000E+00  0.00000000000E+00  0.11274351822E+04  0.11274351822E+04  0.25500000920E-02 0. -1.
        2   -1    0    0  501    0  0.00000000000E+00  0.00000000000E+00 -0.11805098106E+04  0.11805098106E+04  0.25500000920E-02 0.  1.
    10030    2    1    2    0    0  0.00000000000E+00  0.00000000000E+00 -0.53074628397E+02  0.23079449927E+04  0.23073346470E+04 0.  0.
        2    1    3    3  502    0  0.65464101727E+03 -0.40336523547E+03  0.83374246707E+03  0.11341890830E+04  0.25500000920E-02 0. -1.
       -2    1    3    3    0  502 -0.65464101727E+03  0.40336523547E+03 -0.88681709547E+03  0.11737559097E+04  0.25500000920E-02 0.  1.
</event>
<event>
 5   0  0.1604500E-05  0.2267334E+04  0.7818609E-02  0.8490913E-01
       -3   -1    0    0    0  501  0.00000000000E+00  0.00000000000E+00  0.21342499958E+04  0.21342499982E+04  0.10100000352E+00 0. -1.
        3   -1    0    0  501    0  0.00000000000E+00  0.00000000000E+00 -0.60217933281E+03  0.60217934128E+03  0.10100000352E+00 0.  1.
    10030    2    1    2    0    0  0.00000000000E+00  0.00000000000E+00  0.15320706630E+04  0.27364293395E+04  0.22673343409E+04 0.  0.
        5    1    3    3  502    0  0.14221312892E+03 -0.78282608430E+03  0.17406622370E+04  0.19138882845E+04  0.46999998093E+01 0. -1.
       -5    1    3    3    0  502 -0.14221312892E+03  0.78282608430E+03 -0.20859157403E+03  0.82254105493E+03  0.46999998093E+01 0.  1.
</event>
<event>
 5   0  0.2031860E-05  0.2285133E+04  0.7818609E-02  0.8483806E-01
       -1   -1    0    0    0  501  0.00000000000E+00  0.00000000000E+00  0.75562533524E+03  0.75562533525E+03  0.50400001928E-02 0. -1.
        1   -1    0    0  501    0  0.00000000000E+00  0.00000000000E+00 -0.17276526195E+04  0.17276526195E+04  0.50400001928E-02 0.  1.
    10030    2    1    2    0    0  0.00000000000E+00  0.00000000000E+00 -0.97202728422E+03  0.24832779547E+04  0.22851328975E+04 0.  0.
        4    1    3    3  502    0 -0.95582078995E+02 -0.10424961999E+04 -0.98344013275E+03  0.14363461868E+04  0.12699999809E+01 0.  1.
       -4    1    3    3    0  502  0.95582078995E+02  0.10424961999E+04  0.11412848535E+02  0.10469317679E+04  0.12699999809E+01 0. -1.
</event>
<event>
 5   0  0.4505107E-05  0.2306472E+04  0.7818609E-02  0.8475374E-01
       -2   -1    0    0    0  501  0.00000000000E+00  0.00000000000E+00  0.14152322854E+04  0.14152322854E+04  0.25500000920E-02 0.  1.
        2   -1    0    0  501    0  0.00000000000E+00  0.00000000000E+00 -0.93974220258E+03  0.93974220258E+03  0.25500000920E-02 0. -1.
    10030    2    1    2    0    0  0.00000000000E+00  0.00000000000E+00  0.47549008277E+03  0.23549744879E+04  0.23064722023E+04 0.  0.
        4    1    3    3  502    0 -0.87661323323E+03 -0.29340965262E+03 -0.46625552616E+03  0.10353433312E+04  0.12699999809E+01 0. -1.
       -4    1    3    3    0  502  0.87661323323E+03  0.29340965262E+03  0.94174560893E+03  0.13196311567E+04  0.12699999809E+01 0.  1.
</event>
<event>
 5   0  0.2043885E-05  0.2313117E+04  0.7818609E-02  0.8472767E-01
        1   -1    0    0  501    0  0.00000000000E+00  0.00000000000E+00  0.96269856000E+03  0.96269856001E+03  0.50400001928E-02 0. -1.
       -1   -1    0    0    0  501  0.00000000000E+00  0.00000000000E+00 -0.13894559388E+04  0.13894559388E+04  0.50400001928E-02 0.  1.
    10030    2    1    2    0    0  0.00000000000E+00  0.00000000000E+00 -0.42675737882E+03  0.23521544988E+04  0.23131167126E+04 0.  0.
        5    1    3    3  502    0  0.61148165440E+03 -0.40820766663E+03 -0.11212291196E+04  0.13407908642E+04  0.46999998093E+01 0.  1.
       -5    1    3    3    0  502 -0.61148165440E+03  0.40820766663E+03  0.69447174080E+03  0.10113636347E+04  0.46999998093E+01 0. -1.
</event>
<event>
 5   0  0.4436695E-05  0.2315928E+04  0.7818609E-02  0.8471667E-01
        2   -1    0    0  501    0  0.00000000000E+00  0.00000000000E+00  0.17129311447E+04  0.17129311447E+04  0.25500000920E-02 0. -1.
       -2   -1    0    0    0  501  0.00000000000E+00  0.00000000000E+00 -0.78279857432E+03  0.78279857432E+03  0.25500000920E-02 0.  1.
    10030    2    1    2    0    0  0.00000000000E+00  0.00000000000E+00  0.93013257038E+03  0.24957297190E+04  0.23159275101E+04 0.  0.
        5    1    3    3  502    0 -0.93379186237E+03  0.33495184319E+03  0.11086764866E+04  0.14877317034E+04  0.46999998093E+01 0. -1.
       -5    1    3    3    0  502  0.93379186237E+03 -0.33495184319E+03 -0.17854391617E+03  0.10079980156E+04  0.46999998093E+01 0.  1.
</event>
<event>
 5   0  0.4605516E-05  0.2235630E+04  0.7818609E-02  0.8503743E-01
        2   -1    0    0  501    0  0.00000000000E+00  0.00000000000E+00  0.10841857180E+04  0.10841857180E+04  0.25500000920E-02 0.  1.
       -2   -1    0    0    0  501  0.00000000000E+00  0.00000000000E+00 -0.11524875325E+04  0.11524875325E+04  0.25500000920E-02 0. -1.
    10030    2    1    2    0    0  0.00000000000E+00  0.00000000000E+00 -0.68301814520E+02  0.22366732506E+04  0.22356301331E+04 0.  0.
        1    1    3    3  502    0  0.27839651494E+03 -0.10748684122E+04 -0.16329947972E+03  0.11222804655E+04  0.50400001928E-02 0. -1.
       -1    1    3    3    0  502 -0.27839651494E+03  0.10748684122E+04  0.94997665195E+02  0.11143927851E+04  0.50400001928E-02 0.  1.
</event>
<event>
 5   0  0.1968318E-05  0.2293987E+04  0.7818609E-02  0.8480296E-01
        1   -1    0    0  501    0  0.00000000000E+00  0.00000000000E+00  0.12295876806E+04  0.12295876806E+04  0.50400001928E-02 0.  1.
       -1   -1    0    0    0  501  0.00000000000E+00  0.00000000000E+00 -0.10699472856E+04  0.10699472856E+04  0.50400001928E-02 0. -1.
    10030    2    1    2    0    0  0.00000000000E+00  0.00000000000E+00  0.15964039501E+03  0.22995349662E+04  0.22939869235E+04 0.  0.
        3    1    3    3  502    0  0.84888494655E+03 -0.67228265714E+03 -0.29928007600E+03  0.11234492413E+04  0.10100000352E+00 0. -1.
       -3    1    3    3    0  502 -0.84888494655E+03  0.67228265714E+03  0.45892047102E+03  0.11760857250E+04  0.10100000352E+00 0.  1.
</event>
<event>
 5   0  0.2031860E-05  0.2312407E+04  0.7818609E-02  0.8473045E-01
        1   -1    0    0  501    0  0.00000000000E+00  0.00000000000E+00  0.10550227078E+04  0.10550227078E+04  0.50400001928E-02 0. -1.
       -1   -1    0    0    0  501  0.00000000000E+00  0.00000000000E+00 -0.12670877603E+04  0.12670877603E+04  0.50400001928E-02 0.  1.
    10030    2    1    2    0    0  0.00000000000E+00  0.00000000000E+00 -0.21206505253E+03  0.23221104680E+04  0.23124068499E+04 0.  0.
        4    1    3    3  502    0 -0.10140318226E+03  0.62021704490E+03 -0.10805961170E+04  0.12500565464E+04  0.12699999809E+01 0.  1.
       -4    1    3    3    0  502  0.10140318226E+03 -0.62021704490E+03  0.86853106447E+03  0.10720539217E+04  0.12699999809E+01 0. -1.
</event>
<event>
 5   0  0.2031860E-05  0.2303686E+04  0.7818609E-02  0.8476469E-01
        1   -1    0    0  501    0  0.00000000000E+00  0.00000000000E+00  0.13388783112E+04  0.13388783112E+04  0.50400001928E-02 0.  1.
       -1   -1    0    0    0  501  0.00000000000E+00  0.00000000000E+00 -0.99093560794E+03  0.99093560795E+03  0.50400001928E-02 0. -1.
    10030    2    1    2    0    0  0.00000000000E+00  0.00000000000E+00  0.34794270329E+03  0.23298139192E+04  0.23036859103E+04 0.  0.
        4    1    3    3  502    0 -0.11276063673E+04  0.22149108709E+03  0.94427151610E+02  0.11530275456E+04  0.12699999809E+01 0.  1.
       -4    1    3    3    0  502  0.11276063673E+04 -0.22149108709E+03  0.25351555168E+03  0.11767863736E+04  0.12699999809E+01 0. -1.
</event>
<event>
 5   0  0.2031860E-05  0.2303453E+04  0.7818609E-02  0.8476561E-01
        1   -1    0    0  501    0  0.00000000000E+00  0.00000000000E+00  0.96982529187E+03  0.96982529188E+03  0.50400001928E-02 0. -1.
       -1   -1    0    0    0  501  0.00000000000E+00  0.00000000000E+00 -0.13677457810E+04  0.13677457810E+04  0.50400001928E-02 0.  1.
    10030    2    1    2    0    0  0.00000000000E+00  0.00000000000E+00 -0.39792048911E+03  0.23375710729E+04  0.23034534519E+04 0.  0.
        4    1    3    3  502    0 -0.92675332412E+02  0.42301483007E+03 -0.12819797978E+04  0.13531459930E+04  0.12699999809E+01 0.  1.
       -4    1    3    3    0  502  0.92675332412E+02 -0.42301483007E+03  0.88405930865E+03  0.98442507983E+03  0.12699999809E+01 0. -1.
</event>
<event>
 5   0  0.1968318E-05  0.2447971E+04  0.7818609E-02  0.8421759E-01
       -1   -1    0    0    0  501  0.00000000000E+00  0.00000000000E+00  0.60068814568E+03  0.60068814570E+03  0.50400001928E-02 0. -1.
        1   -1    0    0  501    0  0.00000000000E+00  0.00000000000E+00 -0.24940412203E+04  0.24940412204E+04  0.50400001928E-02 0.  1.
    10030    2    1    2    0    0  0.00000000000E+00  0.00000000000E+00 -0.18933530747E+04  0.30947293660E+04  0.24479714017E+04 0.  0.
        3    1    3    3  502    0 -0.63906326541E+03  0.37900987910E+02 -0.22655137055E+04  0.23542282604E+04  0.10100000352E+00 0.  1.
       -3    1    3    3    0  502  0.63906326541E+03 -0.37900987910E+02  0.37216063084E+03  0.74050110563E+03  0.10100000352E+00 0. -1.
</event>
<event>
 5   0  0.4436695E-05  0.2272334E+04  0.7818609E-02  0.8488910E-01
       -2   -1    0    0    0  501  0.00000000000E+00  0.00000000000E+00  0.82396841300E+03  0.82396841301E+03  0.25500000920E-02 0.  1.
        2   -1    0    0  501    0  0.00000000000E+00  0.00000000000E+00 -0.15666557913E+04  0.15666557913E+04  0.25500000920E-02 0. -1.
    10030    2    1    2    0    0  0.00000000000E+00  0.00000000000E+00 -0.74268737830E+03  0.23906242043E+04  0.22723335020E+04 0.  0.
        5    1    3    3  502    0  0.53296410490E+03 -0.67865535656E+03  0.40620322851E+03  0.95375415225E+03  0.46999998093E+01 0.  1.
       -5    1    3    3    0  502 -0.53296410490E+03  0.67865535656E+03 -0.11488906068E+04  0.14368700521E+04  0.46999998093E+01 0. -1.
</event>
<event>
 5   0  0.4798609E-05  0.2362190E+04  0.7818609E-02  0.8453796E-01
        2   -1    0    0  501    0  0.00000000000E+00  0.00000000000E+00  0.23056627263E+04  0.23056627263E+04  0.25500000920E-02 0. -1.
       -2   -1    0    0    0  501  0.00000000000E+00  0.00000000000E+00 -0.60502572209E+03  0.60502572210E+03  0.25500000920E-02 0.  1.
    10030    2    1    2    0    0  0.00000000000E+00  0.00000000000E+00  0.17006370043E+04  0.29106884484E+04  0.23621898788E+04 0.  0.
        2    1    3    3  502    0  0.13234812000E+01  0.11172929434E+04  0.13221719344E+04  0.17310354986E+04  0.25500000920E-02 0. -1.
       -2    1    3    3    0  502 -0.13234812000E+01 -0.11172929434E+04  0.37846506981E+03  0.11796529499E+04  0.25500000920E-02 0.  1.
</event>
<event>
 5   0  0.2042951E-05  0.2290847E+04  0.7818609E-02  0.8481539E-01
       -1   -1    0    0    0  501  0.00000000000E+00  0.00000000000E+00  0.98239704167E+03  0.98239704168E+03  0.50400001928E-02 0. -1.
        1   -1    0    0  501    0  0.00000000000E+00  0.00000000000E+00 -0.13355041916E+04  0.13355041916E+04  0.50400001928E-02 0.  1.
    10030    2    1    2    0    0  0.00000000000E+00  0.00000000000E+00 -0.35310714994E+03  0.23179012333E+04  0.22908473253E+04 0.  0.
        2    1    3    3  502    0  0.98296548183E+03 -0.53677595597E+03  0.66377248108E+02  0.11219427367E+04  0.25500000920E-02 0. -1.
       -2    1    3    3    0  502 -0.98296548183E+03  0.53677595597E+03 -0.41948439805E+03  0.11959584966E+04  0.25500000920E-02 0.  1.
</event>
<event>
 5   0  0.2085063E-05  0.2293332E+04  0.7818609E-02  0.8480555E-01
        1   -1    0    0  501    0  0.00000000000E+00  0.00000000000E+00  0.92050529570E+03  0.92050529572E+03  0.50400001928E-02 0.  1.
       -1   -1    0    0    0  501  0.00000000000E+00  0.00000000000E+00 -0.14283931532E+04  0.14283931532E+04  0.50400001928E-02 0. -1.
    10030    2    1    2    0    0  0.00000000000E+00  0.00000000000E+00 -0.50788785747E+03  0.23488984489E+04  0.22933324764E+04 0.  0.
        1    1    3    3  502    0 -0.93834886614E+03  0.26104987925E+03 -0.87374896641E+03  0.13084658537E+04  0.50400001928E-02 0. -1.
       -1    1    3    3    0  502  0.93834886614E+03 -0.26104987925E+03  0.36586110894E+03  0.10404325952E+04  0.50400001928E-02 0.  1.
</event>
<event>
 5   0  0.1968318E-05  0.2213321E+04  0.7818609E-02  0.8512904E-01
        1   -1    0    0  501    0  0.00000000000E+00  0.00000000000E+00  0.17268746857E+04  0.17268746857E+04  0.50400001928E-02 0.  1.
       -1   -1    0    0    0  501  0.00000000000E+00  0.00000000000E+00 -0.70919870547E+03  0.70919870549E+03  0.50400001928E-02 0. -1.
    10030    2    1    2    0    0  0.00000000000E+00  0.00000000000E+00  0.10176759802E+04  0.24360733912E+04  0.22133208458E+04 0.  0.
        3    1    3    3  502    0  0.77065876516E+02  0.39794503996E+03  0.16422307095E+04  0.16915144450E+04  0.10100000352E+00 0.  1.
       -3    1    3    3    0  502 -0.77065876516E+02 -0.39794503996E+03 -0.62455472933E+03  0.74455894615E+03  0.10100000352E+00 0. -1.
</event>
<event>
 5   0  0.2085063E-05  0.2285023E+04  0.7818609E-02  0.8483850E-01
        1   -1    0    0  501    0  0.00000000000E+00  0.00000000000E+00  0.12608685147E+04  0.12608685147E+04  0.50400001928E-02 0. -1.
       -1   -1    0    0    0  501  0.00000000000E+00  0.00000000000E+00 -0.10352644399E+04  0.10352644399E+04  0.50400001928E-02 0.  1.
    10030    2    1    2    0    0  0.00000000000E+00  0.00000000000E+00  0.22560407476E+03  0.22961329546E+04  0.22850228329E+04 0.  0.
        1    1    3    3  502    0  0.36763779053E+03 -0.43127841691E+03 -0.88407678368E+03  0.10501192206E+04  0.50400001928E-02 0.  1.
       -1    1    3    3    0  502 -0.36763779053E+03  0.43127841691E+03  0.11096808584E+04  0.12460137341E+04  0.50400001928E-02 0. -1.
</event>
<event>
 5   0  0.2031860E-05  0.2296260E+04  0.7818609E-02  0.8479397E-01
        1   -1    0    0  501    0  0.00000000000E+00  0.00000000000E+00  0.16361012148E+04  0.16361012148E+04  0.50400001928E-02 0.  1.
       -1   -1    0    0    0  501  0.00000000000E+00  0.00000000000E+00 -0.80569741525E+03  0.80569741527E+03  0.50400001928E-02 0. -1.
    10030    2    1    2    0    0  0.00000000000E+00  0.00000000000E+00  0.83040379957E+03  0.24417986301E+04  0.22962600200E+04 0.  0.
        4    1    3    3  502    0 -0.48488815450E+03 -0.62555043418E+02 -0.68947167436E+03  0.84522331870E+03  0.12699999809E+01 0. -1.
       -4    1    3    3    0  502  0.48488815450E+03  0.62555043418E+02  0.15198754739E+04  0.15965753114E+04  0.12699999809E+01 0.  1.
</event>
<event>
 5   0  0.2031860E-05  0.2357551E+04  0.7818609E-02  0.8455569E-01
        1   -1    0    0  501    0  0.00000000000E+00  0.00000000000E+00  0.77071849982E+03  0.77071849984E+03  0.50400001928E-02 0. -1.
       -1   -1    0    0    0  501  0.00000000000E+00  0.00000000000E+00 -0.18028788547E+04  0.18028788547E+04  0.50400001928E-02 0.  1.
    10030    2    1    2    0    0  0.00000000000E+00  0.00000000000E+00 -0.10321603549E+04  0.25735973546E+04  0.23575513452E+04 0.  0.
        4    1    3    3  502    0 -0.45489380629E+03 -0.20536590872E+03  0.64968040783E+03  0.81926172661E+03  0.12699999809E+01 0. -1.
       -4    1    3    3    0  502  0.45489380629E+03  0.20536590872E+03 -0.16818407627E+04  0.17543356280E+04  0.12699999809E+01 0.  1.
</event>
<event>
 5   0  0.1968318E-05  0.2289448E+04  0.7818609E-02  0.8482093E-01
        1   -1    0    0  501    0  0.00000000000E+00  0.00000000000E+00  0.19534346389E+04  0.19534346389E+04  0.50400001928E-02 0.  1.
       -1   -1    0    0    0  501  0.00000000000E+00  0.00000000000E+00 -0.67081500317E+03  0.67081500319E+03  0.50400001928E-02 0. -1.
    10030    2    1    2    0    0  0.00000000000E+00  0.00000000000E+00  0.12826196357E+04  0.26242496421E+04  0.22894481986E+04 0.  0.
        3    1    3    3  502    0 -0.59574073019E+03  0.17229995251E+03 -0.46158137800E+03  0.77307934260E+03  0.10100000352E+00 0. -1.
       -3    1    3    3    0  502  0.59574073019E+03 -0.17229995251E+03  0.17442010137E+04  0.18511702995E+04  0.10100000352E+00 0.  1.
</event>
<event>
 5   0  0.4798609E-05  0.2326260E+04  0.7818609E-02  0.8467639E-01
       -2   -1    0    0    0  501  0.00000000000E+00  0.00000000000E+00  0.53957647071E+03  0.53957647071E+03  0.25500000920E-02 0. -1.
        2   -1    0    0  501    0  0.00000000000E+00  0.00000000000E+00 -0.25072831196E+04  0.25072831196E+04  0.25500000920E-02 0.  1.
    10030    2    1    2    0    0  0.00000000000E+00  0.00000000000E+00 -0.19677066489E+04  0.30468595903E+04  0.23262596388E+04 0.  0.
        2    1    3    3  502    0  0.67303924849E+03 -0.90610797687E+03 -0.13516566953E+04  0.17609626111E+04  0.25500000920E-02 0.  1.
       -2    1    3    3    0  502 -0.67303924849E+03  0.90610797687E+03 -0.61604995356E+03  0.12858969792E+04  0.25500000920E-02 0. -1.
</event>
<event>
 5   0  0.2043885E-05  0.2306894E+04  0.7818609E-02  0.8475208E-01
       -1   -1    0    0    0  501  0.00000000000E+00  0.00000000000E+00  0.85622074241E+03  0.85622074242E+03  0.50400001928E-02 0.  1.
        1   -1    0    0  501    0  0.00000000000E+00  0.00000000000E+00 -0.15538516586E+04  0.15538516586E+04  0.50400001928E-02 0. -1.
    10030    2    1    2    0    0  0.00000000000E+00  0.00000000000E+00 -0.69763091623E+03  0.24100724011E+04  0.23068940338E+04 0.  0.
        5    1    3    3  502    0 -0.10405518825E+04 -0.48215182769E+03 -0.22001583192E+03  0.11677532537E+04  0.46999998093E+01 0.  1.
       -5    1    3    3    0  502  0.10405518825E+04  0.48215182769E+03 -0.47761508431E+03  0.12423191474E+04  0.46999998093E+01 0. -1.
</event>
<event>
 5   0  0.4605516E-05  0.2308039E+04  0.7818609E-02  0.8474758E-01
       -2   -1    0    0    0  501  0.00000000000E+00  0.00000000000E+00  0.69023061676E+03  0.69023061676E+03  0.25500000920E-02 0.  1.
        2   -1    0    0  501    0  0.00000000000E+00  0.00000000000E+00 -0.19294434027E+04  0.19294434027E+04  0.25500000920E-02 0. -1.
    10030    2    1    2    0    0  0.00000000000E+00  0.00000000000E+00 -0.12392127860E+04  0.26196740195E+04  0.23080389164E+04 0.  0.
        1    1    3    3  502    0  0.55126860400E+03 -0.68427928566E+03  0.22948208817E+03  0.90818348551E+03  0.50400001928E-02 0.  1.
       -1    1    3    3    0  502 -0.55126860400E+03  0.68427928566E+03 -0.14686948741E+04  0.17114905340E+04  0.50400001928E-02 0. -1.
</event>
<event>
 5   0  0.1968318E-05  0.2320886E+04  0.7818609E-02  0.8469731E-01
       -1   -1    0    0    0  501  0.00000000000E+00  0.00000000000E+00  0.11700167091E+04  0.11700167091E+04  0.50400001928E-02 0. -1.
        1   -1    0    0  501    0  0.00000000000E+00  0.00000000000E+00 -0.11509480500E+04  0.11509480500E+04  0.50400001928E-02 0.  1.
    10030    2    1    2    0    0  0.00000000000E+00  0.00000000000E+00  0.19068659070E+02  0.23209647592E+04  0.23208864254E+04 0.  0.
        3    1    3    3  502    0  0.84376608971E+03 -0.61271756959E+03  0.51873164586E+03  0.11646658597E+04  0.10100000352E+00 0. -1.
       -3    1    3    3    0  502 -0.84376608971E+03  0.61271756959E+03 -0.49966298679E+03  0.11562988994E+04  0.10100000352E+00 0.  1.
</event>
<event>
 5   0  0.4605516E-05  0.2311695E+04  0.7818609E-02  0.8473324E-01
        2   -1    0    0  501    0  0.00000000000E+00  0.00000000000E+00  0.18068036130E+04  0.18068036130E+04  0.25500000920E-02 0.  1.
       -2   -1    0    0    0  501  0.00000000000E+00  0.00000000000E+00 -0.73941810807E+03  0.73941810807E+03  0.25500000920E-02 0. -1.
    10030    2    1    2    0    0  0.00000000000E+00  0.00000000000E+00  0.10673855049E+04  0.25462217211E+04  0.23116948840E+04 0.  0.
        1    1    3    3  502    0 -0.47169520700E+03 -0.34265907924E+03  0.16329795361E+04  0.17339359210E+04  0.50400001928E-02 0.  1.
       -1    1    3    3    0  502  0.47169520700E+03  0.34265907924E+03 -0.56559403115E+03  0.81228580006E+03  0.50400001928E-02 0. -1.
</event>
<event>
 5   0  0.2085063E-05  0.2300510E+04  0.7818609E-02  0.8477720E-01
        1   -1    0    0  501    0  0.00000000000E+00  0.00000000000E+00  0.90432711037E+03  0.90432711039E+03  0.50400001928E-02 0. -1.
       -1   -1    0    0    0  501  0.00000000000E+00  0.00000000000E+00 -0.14630622935E+04  0.14630622935E+04  0.50400001928E-02 0.  1.
    10030    2    1    2    0    0  0.00000000000E+00  0.00000000000E+00 -0.55873518314E+03  0.23673894039E+04  0.23005102879E+04 0.  0.
        1    1    3    3  502    0  0.91733698779E+03 -0.62078797353E+03 -0.59854905237E+03  0.12590257445E+04  0.50400001928E-02 0.  1.
       -1    1    3    3    0  502 -0.91733698779E+03  0.62078797353E+03  0.39813869226E+02  0.11083636594E+04  0.50400001928E-02 0. -1.
</event>
<event>
 5   0  0.4436695E-05  0.2314188E+04  0.7818609E-02  0.8472348E-01
        2   -1    0    0  501    0  0.00000000000E+00  0.00000000000E+00  0.12045214418E+04  0.12045214418E+04  0.25500000920E-02 0.  1.
       -2   -1    0    0    0  501  0.00000000000E+00  0.00000000000E+00 -0.11115343418E+04  0.11115343418E+04  0.25500000920E-02 0. -1.
    10030    2    1    2    0    0  0.00000000000E+00  0.00000000000E+00  0.92987099989E+02  0.23160557836E+04  0.23141883657E+04 0.  0.
        5    1    3    3  502    0  0.12770867718E+03 -0.82199527535E+03  0.85141807879E+03  0.11903447290E+04  0.46999998093E+01 0.  1.
       -5    1    3    3    0  502 -0.12770867718E+03  0.82199527535E+03 -0.75843097880E+03  0.11257110546E+04  0.46999998093E+01 0. -1.
</event>
<event>
 5   0  0.2042951E-05  0.2302759E+04  0.7818609E-02  0.8476834E-01
        1   -1    0    0  501    0  0.00000000000E+00  0.00000000000E+00  0.20444675216E+04  0.20444675216E+04  0.50400001928E-02 0. -1.
       -1   -1    0    0    0  501  0.00000000000E+00  0.00000000000E+00 -0.64842049915E+03  0.64842049917E+03  0.50400001928E-02 0.  1.
    10030    2    1    2    0    0  0.00000000000E+00  0.00000000000E+00  0.13960470225E+04  0.26928880208E+04  0.23027589113E+04 0.  0.
        2    1    3    3  502    0 -0.37237692885E+03 -0.67242867046E+03 -0.30444121534E+03  0.82674624136E+03  0.25500000920E-02 0.  1.
       -2    1    3    3    0  502  0.37237692885E+03  0.67242867046E+03  0.17004882378E+04  0.18661417794E+04  0.25500000920E-02 0. -1.
</event>
<event>
 5   0  0.4602447E-05  0.2317476E+04  0.7818609E-02  0.8471062E-01
       -2   -1    0    0    0  501  0.00000000000E+00  0.00000000000E+00  0.12923201810E+04  0.12923201810E+04  0.25500000920E-02 0.  1.
        2   -1    0    0  501    0  0.00000000000E+00  0.00000000000E+00 -0.10389633284E+04  0.10389633284E+04  0.25500000920E-02 0. -1.
    10030    2    1    2    0    0  0.00000000000E+00  0.00000000000E+00  0.25335685257E+03  0.23312835095E+04  0.23174755892E+04 0.  0.
        3    1    3    3  502    0 -0.79213481129E+03 -0.59807456343E+03 -0.47479920321E+03  0.11002749821E+04  0.10100000352E+00 0. -1.
       -3    1    3    3    0  502  0.79213481129E+03  0.59807456343E+03  0.72815605578E+03  0.12310085274E+04  0.10100000352E+00 0.  1.
</event>
<event>
 5   0  0.4798609E-05  0.2298488E+04  0.7818609E-02  0.8478518E-01
        2   -1    0    0  501    0  0.00000000000E+00  0.00000000000E+00  0.97955799416E+03  0.97955799417E+03  0.25500000920E-02 0.  1.
       -2   -1    0    0    0  501  0.00000000000E+00  0.00000000000E+00 -0.13483239621E+04  0.13483239621E+04  0.25500000920E-02 0. -1.
    10030    2    1    2    0    0  0.00000000000E+00  0.00000000000E+00 -0.36876596791E+03  0.23278819562E+04  0.22984877775E+04 0.  0.
        2    1    3    3  502    0  0.90799066371E+02 -0.11403998433E+04 -0.73413330971E+02  0.11463619804E+04  0.25500000920E-02 0. -1.
       -2    1    3    3    0  502 -0.90799066371E+02  0.11403998433E+04 -0.29535263693E+03  0.11815199758E+04  0.25500000920E-02 0.  1.
</event>
<event>
 5   0  0.2042951E-05  0.2297368E+04  0.7818609E-02  0.8478960E-01
       -1   -1    0    0    0  501  0.00000000000E+00  0.00000000000E+00  0.67490481935E+03  0.67490481937E+03  0.50400001928E-02 0. -1.
        1   -1    0    0  501    0  0.00000000000E+00  0.00000000000E+00 -0.19550527064E+04  0.19550527064E+04  0.50400001928E-02 0.  1.
    10030    2    1    2    0    0  0.00000000000E+00  0.00000000000E+00 -0.12801478870E+04  0.26299575258E+04  0.22973676185E+04 0.  0.
        2    1    3    3  502    0 -0.10050086412E+04  0.51596454758E+03 -0.87804492001E+03  0.14308125890E+04  0.25500000920E-02 0.  1.
       -2    1    3    3    0  502  0.10050086412E+04 -0.51596454758E+03 -0.40210296704E+03  0.11991449368E+04  0.25500000920E-02 0. -1.
</event>
<event>
 5   0  0.4436695E-05  0.2290576E+04  0.7818609E-02  0.8481646E-01
       -2   -1    0    0    0  501  0.00000000000E+00  0.00000000000E+00  0.12484887301E+04  0.12484887301E+04  0.25500000920E-02 0. -1.
        2   -1    0    0  501    0  0.00000000000E+00  0.00000000000E+00 -0.10506180068E+04  0.10506180068E+04  0.25500000920E-02 0.  1.
    10030    2    1    2    0    0  0.00000000000E+00  0.00000000000E+00  0.19787072329E+03  0.22991067369E+04  0.22905761206E+04 0.  0.
        5    1    3    3  502    0 -0.97109765983E+03  0.53688933286E+03 -0.18563741474E+03  0.11250618474E+04  0.46999998093E+01 0.  1.
       -5    1    3    3    0  502  0.97109765983E+03 -0.53688933286E+03  0.38350813804E+03  0.11740448895E+04  0.46999998093E+01 0. -1.
</event>
<event>
 5   0  0.4436695E-05  0.2326216E+04  0.7818609E-02  0.8467656E-01
       -2   -1    0    0    0  501  0.00000000000E+00  0.00000000000E+00  0.80885058046E+03  0.80885058046E+03  0.25500000920E-02 0.  1.
        2   -1    0    0  501    0  0.00000000000E+00  0.00000000000E+00 -0.16725222985E+04  0.16725222985E+04  0.25500000920E-02 0. -1.
    10030    2    1    2    0    0  0.00000000000E+00  0.00000000000E+00 -0.86367171807E+03  0.24813728790E+04  0.23262163545E+04 0.  0.
        5    1    3    3  502    0 -0.80696698223E+03 -0.34299769773E+03  0.38330332423E+03  0.95696742861E+03  0.46999998093E+01 0.  1.
       -5    1    3    3    0  502  0.80696698223E+03  0.34299769773E+03 -0.12469750423E+04  0.15244054504E+04  0.46999998093E+01 0. -1.
</event>
<event>
 5   0  0.4602447E-05  0.2312014E+04  0.7818609E-02  0.8473199E-01
       -2   -1    0    0    0  501  0.00000000000E+00  0.00000000000E+00  0.12689713769E+04  0.12689713769E+04  0.25500000920E-02 0.  1.
        2   -1    0    0  501    0  0.00000000000E+00  0.00000000000E+00 -0.10530988617E+04  0.10530988617E+04  0.25500000920E-02 0. -1.
    10030    2    1    2    0    0  0.00000000000E+00  0.00000000000E+00  0.21587251518E+03  0.23220702386E+04  0.23120141111E+04 0.  0.
        3    1    3    3  502    0 -0.10841291244E+04  0.30535418645E+03 -0.15353271650E+03  0.11367275147E+04  0.10100000352E+00 0. -1.
       -3    1    3    3    0  502  0.10841291244E+04 -0.30535418645E+03  0.36940523168E+03  0.11853427238E+04  0.10100000352E+00 0.  1.
</event>
<event>
 5   0  0.4605516E-05  0.2317498E+04  0.7818609E-02  0.8471054E-01
        2   -1    0    0  501    0  0.00000000000E+00  0.00000000000E+00  0.18164756304E+04  0.18164756304E+04  0.25500000920E-02 0. -1.
       -2   -1    0    0    0  501  0.00000000000E+00  0.00000000000E+00 -0.73917825539E+03  0.73917825539E+03  0.25500000920E-02 0.  1.
    10030    2    1    2    0    0  0.00000000000E+00  0.00000000000E+00  0.10772973750E+04  0.25556538858E+04  0.23174980366E+04 0.  0.
        1    1    3    3  502    0 -0.95686086857E+02  0.10652939067E+04  0.10302049547E+04  0.14850350783E+04  0.50400001928E-02 0. -1.
       -1    1    3    3    0  502  0.95686086857E+02 -0.10652939067E+04  0.47092420310E+02  0.10706188075E+04  0.50400001928E-02 0.  1.
</event>
<event>
 5   0  0.2043885E-05  0.2190997E+04  0.7818609E-02  0.8522185E-01
       -1   -1    0    0    0  501  0.00000000000E+00  0.00000000000E+00  0.16318218253E+04  0.16318218253E+04  0.50400001928E-02 0.  1.
        1   -1    0    0  501    0  0.00000000000E+00  0.00000000000E+00 -0.73544574676E+03  0.73544574678E+03  0.50400001928E-02 0. -1.
    10030    2    1    2    0    0  0.00000000000E+00  0.00000000000E+00  0.89637607857E+03  0.23672675721E+04  0.21909965047E+04 0.  0.
        5    1    3    3  502    0  0.37073762885E+03 -0.78446895066E+03 -0.27438865439E+03  0.91002700380E+03  0.46999998093E+01 0. -1.
       -5    1    3    3    0  502 -0.37073762885E+03  0.78446895066E+03  0.11707647330E+04  0.14572405683E+04  0.46999998093E+01 0.  1.
</event>
<event>
 5   0  0.2085063E-05  0.2310019E+04  0.7818609E-02  0.8473981E-01
       -1   -1    0    0    0  501  0.00000000000E+00  0.00000000000E+00  0.10146599374E+04  0.10146599374E+04  0.50400001928E-02 0.  1.
        1   -1    0    0  501    0  0.00000000000E+00  0.00000000000E+00 -0.13147719767E+04  0.13147719767E+04  0.50400001928E-02 0. -1.
    10030    2    1    2    0    0  0.00000000000E+00  0.00000000000E+00 -0.30011203936E+03  0.23294319141E+04  0.23100185727E+04 0.  0.
        1    1    3    3  502    0 -0.37751181388E+02  0.43116464022E+03 -0.12299047729E+04  0.13038381222E+04  0.50400001928E-02 0. -1.
       -1    1    3    3    0  502  0.37751181388E+02 -0.43116464022E+03  0.92979273350E+03  0.10255937919E+04  0.50400001928E-02 0.  1.
</event>
<event>
 5   0  0.4798609E-05  0.2309512E+04  0.7818609E-02  0.8474180E-01
       -2   -1    0    0    0  501  0.00000000000E+00  0.00000000000E+00  0.67717038696E+03  0.67717038697E+03  0.25500000920E-02 0.  1.
        2   -1    0    0  501    0  0.00000000000E+00  0.00000000000E+00 -0.19691662877E+04  0.19691662877E+04  0.25500000920E-02 0. -1.
    10030    2    1    2    0    0  0.00000000000E+00  0.00000000000E+00 -0.12919959008E+04  0.26463366747E+04  0.23095117207E+04 0.  0.
        2    1    3    3  502    0 -0.10037348051E+04 -0.14635914012E+03 -0.13645959782E+02  0.10144411117E+04  0.25500000920E-02 0.  1.
       -2    1    3    3    0  502  0.10037348051E+04  0.14635914012E+03 -0.12783499410E+04  0.16318955630E+04  0.25500000920E-02 0. -1.
</event>
<event>
 5   0  0.2042951E-05  0.2273341E+04  0.7818609E-02  0.8488507E-01
        1   -1    0    0  501    0  0.00000000000E+00  0.00000000000E+00  0.15423577513E+04  0.15423577513E+04  0.50400001928E-02 0. -1.
       -1   -1    0    0    0  501  0.00000000000E+00  0.00000000000E+00 -0.83769144867E+03  0.83769144869E+03  0.50400001928E-02 0.  1.
    10030    2    1    2    0    0  0.00000000000E+00  0.00000000000E+00  0.70466630266E+03  0.23800492000E+04  0.22733410647E+04 0.  0.
        2    1    3    3  502    0 -0.61933604500E+02  0.98581926284E+03  0.94117882420E+03  0.13643654091E+04  0.25500000920E-02 0. -1.
       -2    1    3    3    0  502  0.61933604500E+02 -0.98581926284E+03 -0.23651252154E+03  0.10156837910E+04  0.25500000920E-02 0.  1.
</event>
<event>
 5   0  0.4605516E-05  0.2360252E+04  0.7818609E-02  0.8454536E-01
        2   -1    0    0  501    0  0.00000000000E+00  0.00000000000E+00  0.95724965043E+03  0.95724965043E+03  0.25500000920E-02 0. -1.
       -2   -1    0    0    0  501  0.00000000000E+00  0.00000000000E+00 -0.14548944989E+04  0.14548944989E+04  0.25500000920E-02 0.  1.
    10030    2    1    2    0    0  0.00000000000E+00  0.00000000000E+00 -0.49764484847E+03  0.24121441493E+04  0.23602518938E+04 0.  0.
        1    1    3    3  502    0  0.30589983390E+03  0.80954087963E+03  0.57116833222E+03  0.10369013492E+04  0.50400001928E-02 0. -1.
       -1    1    3    3    0  502 -0.30589983390E+03 -0.80954087963E+03 -0.10688131807E+04  0.13752428002E+04  0.50400001928E-02 0.  1.
</event>
<event>
 5   0  0.4436695E-05  0.2231026E+04  0.7818609E-02  0.8505624E-01
       -2   -1    0    0    0  501  0.00000000000E+00  0.00000000000E+00  0.78426494569E+03  0.78426494569E+03  0.25500000920E-02 0. -1.
        2   -1    0    0  501    0  0.00000000000E+00  0.00000000000E+00 -0.15866692275E+04  0.15866692275E+04  0.25500000920E-02 0.  1.
    10030    2    1    2    0    0  0.00000000000E+00  0.00000000000E+00 -0.80240428177E+03  0.23709341732E+04  0.22310258228E+04 0.  0.
        5    1    3    3  502    0  0.43846732269E+03 -0.92428154094E+03 -0.87383591800E+03  0.13454223358E+04  0.46999998093E+01 0.  1.
       -5    1    3    3    0  502 -0.43846732269E+03  0.92428154094E+03  0.71431636228E+02  0.10255118374E+04  0.46999998093E+01 0. -1.
</event>
<event>
 5   0  0.1968318E-05  0.2286976E+04  0.7818609E-02  0.8483074E-01
       -1   -1    0    0    0  501  0.00000000000E+00  0.00000000000E+00  0.78763279013E+03  0.78763279014E+03  0.50400001928E-02 0. -1.
        1   -1    0    0  501    0  0.00000000000E+00  0.00000000000E+00 -0.16601205371E+04  0.16601205371E+04  0.50400001928E-02 0.  1.
    10030    2    1    2    0    0  0.00000000000E+00  0.00000000000E+00 -0.87248774700E+03  0.24477533273E+04  0.22869764937E+04 0.  0.
        3    1    3    3  502    0 -0.20891990176E+03  0.10202223780E+04  0.69255733784E+02  0.10436942047E+04  0.10100000352E+00 0. -1.
       -3    1    3    3    0  502  0.20891990176E+03 -0.10202223780E+04 -0.94174348078E+03  0.14040591226E+04  0.10100000352E+00 0.  1.
</event>
<event>
 5   0  0.2043885E-05  0.2313448E+04  0.7818609E-02  0.8472637E-01
        1   -1    0    0  501    0  0.00000000000E+00  0.00000000000E+00  0.10033044766E+04  0.10033044766E+04  0.50400001928E-02 0. -1.
       -1   -1    0    0    0  501  0.00000000000E+00  0.00000000000E+00 -0.13336037974E+04  0.13336037974E+04  0.50400001928E-02 0.  1.
    10030    2    1    2    0    0  0.00000000000E+00  0.00000000000E+00 -0.33029932079E+03  0.23369082739E+04  0.23134482141E+04 0.  0.
        5    1    3    3  502    0  0.10576637069E+03  0.10803207647E+04  0.23853914065E+03  0.11113966400E+04  0.46999998093E+01 0.  1.
       -5    1    3    3    0  502 -0.10576637069E+03 -0.10803207647E+04 -0.56883846144E+03  0.12255116340E+04  0.46999998093E+01 0. -1.
</event>
<event>
 5   0  0.4605516E-05  0.2307692E+04  0.7818609E-02  0.8474895E-01
       -2   -1    0    0    0  501  0.00000000000E+00  0.00000000000E+00  0.10601840123E+04  0.10601840123E+04  0.25500000920E-02 0.  1.
        2   -1    0    0  501    0  0.00000000000E+00  0.00000000000E+00 -0.12557821770E+04  0.12557821770E+04  0.25500000920E-02 0. -1.
    10030    2    1    2    0    0  0.00000000000E+00  0.00000000000E+00 -0.19559816468E+03  0.23159661893E+04  0.23076916493E+04 0.  0.
        1    1    3    3  502    0 -0.11083753075E+04 -0.23091082409E+03  0.12558509443E+03  0.11391168715E+04  0.50400001928E-02 0.  1.
       -1    1    3    3    0  502  0.11083753075E+04  0.23091082409E+03 -0.32118325912E+03  0.11768493178E+04  0.50400001928E-02 0. -1.
</event>
<event>
 5   0  0.4505107E-05  0.2296024E+04  0.7818609E-02  0.8479491E-01
       -2   -1    0    0    0  501  0.00000000000E+00  0.00000000000E+00  0.77293084306E+03  0.77293084306E+03  0.25500000920E-02 0. -1.
        2   -1    0    0  501    0  0.00000000000E+00  0.00000000000E+00 -0.17051087764E+04  0.17051087764E+04  0.25500000920E-02 0.  1.
    10030    2    1    2    0    0  0.00000000000E+00  0.00000000000E+00 -0.93217793338E+03  0.24780396195E+04  0.22960236620E+04 0.  0.
        4    1    3    3  502    0  0.95931458413E+03 -0.61881267594E+03 -0.33516291626E+03  0.11897686298E+04  0.12699999809E+01 0. -1.
       -4    1    3    3    0  502 -0.95931458413E+03  0.61881267594E+03 -0.59701501711E+03  0.12882709897E+04  0.12699999809E+01 0.  1.
</event>
<event>
 5   0  0.1604500E-05  0.2281967E+04  0.7818609E-02  0.8485066E-01
       -4   -1    0    0    0  501  0.00000000000E+00  0.00000000000E+00  0.14574484050E+04  0.14574489583E+04  0.12699999809E+01 0. -1.
        4   -1    0    0  501    0  0.00000000000E+00  0.00000000000E+00 -0.89323304976E+03  0.89323395260E+03  0.12699999809E+01 0.  1.
    10030    2    1    2    0    0  0.00000000000E+00  0.00000000000E+00  0.56421535523E+03  0.23506829109E+04  0.22819665161E+04 0.  0.
        5    1    3    3  502    0  0.10271916261E+04 -0.49658107826E+03  0.29267832301E+03  0.11778786417E+04  0.46999998093E+01 0. -1.
       -5    1    3    3    0  502 -0.10271916261E+04  0.49658107826E+03  0.27153703222E+03  0.11728042692E+04  0.46999998093E+01 0.  1.
</event>
<event>
 5   0  0.2031860E-05  0.2323098E+04  0.7818609E-02  0.8468869E-01
        1   -1    0    0  501    0  0.00000000000E+00  0.00000000000E+00  0.10337018613E+04  0.10337018613E+04  0.50400001928E-02 0.  1.
       -1   -1    0    0    0  501  0.00000000000E+00  0.00000000000E+00 -0.13052076953E+04  0.13052076953E+04  0.50400001928E-02 0. -1.
    10030    2    1    2    0    0  0.00000000000E+00  0.00000000000E+00 -0.27150583394E+03  0.23389095566E+04  0.23230976080E+04 0.  0.
        4    1    3    3  502    0  0.40713756082E+03 -0.13915604028E+03  0.95051076765E+03  0.10433588689E+04  0.12699999809E+01 0.  1.
       -4    1    3    3    0  502 -0.40713756082E+03  0.13915604028E+03 -0.12220166016E+04  0.12955506877E+04  0.12699999809E+01 0. -1.
</event>
<event>
 5   0  0.4602447E-05  0.2283675E+04  0.7818609E-02  0.8484386E-01
        2   -1    0    0  501    0  0.00000000000E+00  0.00000000000E+00  0.23302642044E+04  0.23302642044E+04  0.25500000920E-02 0. -1.
       -2   -1    0    0    0  501  0.00000000000E+00  0.00000000000E+00 -0.55950409869E+03  0.55950409869E+03  0.25500000920E-02 0.  1.
    10030    2    1    2    0    0  0.00000000000E+00  0.00000000000E+00  0.17707601057E+04  0.28897683031E+04  0.22836745595E+04 0.  0.
        3    1    3    3  502    0 -0.13495531325E+03  0.96515043884E+02 -0.54416917512E+03  0.56890086273E+03  0.10100000352E+00 0.  1.
       -3    1    3    3    0  502  0.13495531325E+03 -0.96515043884E+02  0.23149292808E+04  0.23208674403E+04  0.10100000352E+00 0. -1.
</event>
<event>
 5   0  0.2085063E-05  0.2283048E+04  0.7818609E-02  0.8484635E-01
       -1   -1    0    0    0  501  0.00000000000E+00  0.00000000000E+00  0.17285752303E+04  0.17285752303E+04  0.50400001928E-02 0. -1.
        1   -1    0    0  501    0  0.00000000000E+00  0.00000000000E+00 -0.75384462658E+03  0.75384462660E+03  0.50400001928E-02 0.  1.
    10030    2    1    2    0    0  0.00000000000E+00  0.00000000000E+00  0.97473060371E+03  0.24824198569E+04  0.22830480933E+04 0.  0.
        1    1    3    3  502    0  0.80680294838E+03  0.55025574441E+03  0.11300526180E+04  0.14935632900E+04  0.50400001928E-02 0. -1.
       -1    1    3    3    0  502 -0.80680294838E+03 -0.55025574441E+03 -0.15532201428E+03  0.98885656690E+03  0.50400001928E-02 0.  1.
</event>
<event>
 5   0  0.4436695E-05  0.2288643E+04  0.7818609E-02  0.8482412E-01
       -2   -1    0    0    0  501  0.00000000000E+00  0.00000000000E+00  0.10431447338E+04  0.10431447338E+04  0.25500000920E-02 0. -1.
        2   -1    0    0  501    0  0.00000000000E+00  0.00000000000E+00 -0.12553117642E+04  0.12553117642E+04  0.25500000920E-02 0.  1.
    10030    2    1    2    0    0  0.00000000000E+00  0.00000000000E+00 -0.21216703042E+03  0.22984564981E+04  0.22886431405E+04 0.  0.
        5    1    3    3  502    0  0.23585532540E+03 -0.60986449662E+03 -0.10491987478E+04  0.12362857846E+04  0.46999998093E+01 0. -1.
       -5    1    3    3    0  502 -0.23585532540E+03  0.60986449662E+03  0.83703171736E+03  0.10621707135E+04  0.46999998093E+01 0.  1.
</event>
<event>
 5   0  0.2042951E-05  0.2263390E+04  0.7818609E-02  0.8492498E-01
       -1   -1    0    0    0  501  0.00000000000E+00  0.00000000000E+00  0.12703886476E+04  0.12703886477E+04  0.50400001928E-02 0. -1.
        1   -1    0    0  501    0  0.00000000000E+00  0.00000000000E+00 -0.10081427829E+04  0.10081427829E+04  0.50400001928E-02 0.  1.
    10030    2    1    2    0    0  0.00000000000E+00  0.00000000000E+00  0.26224586476E+03  0.22785314306E+04  0.22633896232E+04 0.  0.
        2    1    3    3  502    0 -0.68344113400E+03  0.22505976135E+03 -0.74821331250E+03  0.10380591702E+04  0.25500000920E-02 0.  1.
       -2    1    3    3    0  502  0.68344113400E+03 -0.22505976135E+03  0.10104591773E+04  0.12404722604E+04  0.25500000920E-02 0. -1.
</event>
<event>
 5   0  0.4605516E-05  0.2292647E+04  0.7818609E-02  0.8480826E-01
        2   -1    0    0  501    0  0.00000000000E+00  0.00000000000E+00  0.10878119934E+04  0.10878119934E+04  0.25500000920E-02 0.  1.
       -2   -1    0    0    0  501  0.00000000000E+00  0.00000000000E+00 -0.12079818207E+04  0.12079818207E+04  0.25500000920E-02 0. -1.
    10030    2    1    2    0    0  0.00000000000E+00  0.00000000000E+00 -0.12016982738E+03  0.22957938141E+04  0.22926466037E+04 0.  0.
        1    1    3    3  502    0  0.20369251477E+03  0.54727077419E+03 -0.10478776690E+04  0.11996014130E+04  0.50400001928E-02 0. -1.
       -1    1    3    3    0  502 -0.20369251477E+03 -0.54727077419E+03  0.92770784161E+03  0.10961924011E+04  0.50400001928E-02 0.  1.
</event>
<event>
 5   0  0.4798609E-05  0.2275113E+04  0.7818609E-02  0.8487799E-01
        2   -1    0    0  501    0  0.00000000000E+00  0.00000000000E+00  0.25771125361E+04  0.25771125361E+04  0.25500000920E-02 0. -1.
       -2   -1    0    0    0  501  0.00000000000E+00  0.00000000000E+00 -0.50212594980E+03  0.50212594980E+03  0.25500000920E-02 0.  1.
    10030    2    1    2    0    0  0.00000000000E+00  0.00000000000E+00  0.20749865863E+04  0.30792384859E+04  0.22751132543E+04 0.  0.
        2    1    3    3  502    0 -0.94587071358E+03  0.14204873440E+03  0.18709179703E+04  0.21012337570E+04  0.25500000920E-02 0. -1.
       -2    1    3    3    0  502  0.94587071358E+03 -0.14204873440E+03  0.20406861596E+03  0.97800472892E+03  0.25500000920E-02 0.  1.
</event>
<event>
 5   0  0.1604500E-05  0.2211133E+04  0.7818609E-02  0.8513809E-01
        3   -1    0    0  501    0  0.00000000000E+00  0.00000000000E+00  0.10382464925E+04  0.10382464974E+04  0.10100000352E+00 0.  1.
       -3   -1    0    0    0  501  0.00000000000E+00  0.00000000000E+00 -0.11772513234E+04  0.11772513277E+04  0.10100000352E+00 0. -1.
    10030    2    1    2    0    0  0.00000000000E+00  0.00000000000E+00 -0.13900483091E+03  0.22154978251E+04  0.22111328025E+04 0.  0.
        1    1    3    3  502    0 -0.13622614779E+03 -0.28196369940E+03  0.99288123133E+03  0.10410928060E+04  0.50400001928E-02 0.  1.
       -1    1    3    3    0  502  0.13622614779E+03  0.28196369940E+03 -0.11318860622E+04  0.11744050192E+04  0.50400001928E-02 0. -1.
</event>
<event>
 5   0  0.2031860E-05  0.2268478E+04  0.7818609E-02  0.8490455E-01
        1   -1    0    0  501    0  0.00000000000E+00  0.00000000000E+00  0.98221845275E+03  0.98221845276E+03  0.50400001928E-02 0. -1.
       -1   -1    0    0    0  501  0.00000000000E+00  0.00000000000E+00 -0.13097880605E+04  0.13097880606E+04  0.50400001928E-02 0.  1.
    10030    2    1    2    0    0  0.00000000000E+00  0.00000000000E+00 -0.32756960780E+03  0.22920065133E+04  0.22684779058E+04 0.  0.
        4    1    3    3  502    0 -0.93030060964E+03 -0.16483263996E+03  0.47031306413E+03  0.10553790858E+04  0.12699999809E+01 0. -1.
       -4    1    3    3    0  502  0.93030060964E+03  0.16483263996E+03 -0.79788267193E+03  0.12366274275E+04  0.12699999809E+01 0.  1.
</event>
<event>
 5   0  0.4505107E-05  0.2254776E+04  0.7818609E-02  0.8495969E-01
        2   -1    0    0  501    0  0.00000000000E+00  0.00000000000E+00  0.13088648675E+04  0.13088648675E+04  0.25500000920E-02 0. -1.
       -2   -1    0    0    0  501  0.00000000000E+00  0.00000000000E+00 -0.97107290565E+03  0.97107290566E+03  0.25500000920E-02 0.  1.
    10030    2    1    2    0    0  0.00000000000E+00  0.00000000000E+00  0.33779196187E+03  0.22799377732E+04  0.22547755631E+04 0.  0.
        4    1    3    3  502    0  0.45982434665E+03 -0.27308889432E+03 -0.83464386339E+03  0.99128601603E+03  0.12699999809E+01 0.  1.
       -4    1    3    3    0  502 -0.45982434665E+03  0.27308889432E+03  0.11724358253E+04  0.12886517572E+04  0.12699999809E+01 0. -1.
</event>
<event>
 5   0  0.4436695E-05  0.2303893E+04  0.7818609E-02  0.8476388E-01
       -2   -1    0    0    0  501  0.00000000000E+00  0.00000000000E+00  0.80830697053E+03  0.80830697053E+03  0.25500000920E-02 0. -1.
        2   -1    0    0  501    0  0.00000000000E+00  0.00000000000E+00 -0.16416794131E+04  0.16416794131E+04  0.25500000920E-02 0.  1.
    10030    2    1    2    0    0  0.00000000000E+00  0.00000000000E+00 -0.83337244261E+03  0.24499863837E+04  0.23038931512E+04 0.  0.
        5    1    3    3  502    0  0.71899159229E+03  0.67996259787E+03  0.21033059168E+03  0.10117109726E+04  0.46999998093E+01 0. -1.
       -5    1    3    3    0  502 -0.71899159229E+03 -0.67996259787E+03 -0.10437030343E+04  0.14382754111E+04  0.46999998093E+01 0.  1.
</event>
<event>
 5   0  0.2085063E-05  0.2222911E+04  0.7818609E-02  0.8508952E-01
       -1   -1    0    0    0  501  0.00000000000E+00  0.00000000000E+00  0.10042477702E+04  0.10042477703E+04  0.50400001928E-02 0. -1.
        1   -1    0    0  501    0  0.00000000000E+00  0.00000000000E+00 -0.12301079200E+04  0.12301079200E+04  0.50400001928E-02 0.  1.
    10030    2    1    2    0    0  0.00000000000E+00  0.00000000000E+00 -0.22586014977E+03  0.22343556903E+04  0.22229108267E+04 0.  0.
        1    1    3    3  502    0  0.13582465588E+03 -0.57347771166E+03  0.83426348365E+03  0.10214306551E+04  0.50400001928E-02 0. -1.
       -1    1    3    3    0  502 -0.13582465588E+03  0.57347771166E+03 -0.10601236334E+04  0.12129250352E+04  0.50400001928E-02 0.  1.
</event>
<event>
 5   0  0.4505107E-05  0.2279482E+04  0.7818609E-02  0.8486055E-01
       -2   -1    0    0    0  501  0.00000000000E+00  0.00000000000E+00  0.86300994762E+03  0.86300994762E+03  0.25500000920E-02 0.  1.
        2   -1    0    0  501    0  0.00000000000E+00  0.00000000000E+00 -0.15052080360E+04  0.15052080360E+04  0.25500000920E-02 0. -1.
    10030    2    1    2    0    0  0.00000000000E+00  0.00000000000E+00 -0.64219808841E+03  0.23682179836E+04  0.22794819660E+04 0.  0.
        4    1    3    3  502    0 -0.74427150610E+03 -0.18836400977E+03  0.55406261768E+03  0.94678829322E+03  0.12699999809E+01 0.  1.
       -4    1    3    3    0  502  0.74427150610E+03  0.18836400977E+03 -0.11962607061E+04  0.14214296904E+04  0.12699999809E+01 0. -1.
</event>
<event>
 5   0  0.1968318E-05  0.2294950E+04  0.7818609E-02  0.8479915E-01
       -1   -1    0    0    0  501  0.00000000000E+00  0.00000000000E+00  0.96001842244E+03  0.96001842246E+03  0.50400001928E-02 0. -1.
        1   -1    0    0  501    0  0.00000000000E+00  0.00000000000E+00 -0.13715352245E+04  0.13715352245E+04  0.50400001928E-02 0.  1.
    10030    2    1    2    0    0  0.00000000000E+00  0.00000000000E+00 -0.41151680205E+03  0.23315536470E+04  0.22949501804E+04 0.  0.
        3    1    3    3  502    0  0.26336900161E+03 -0.21086663790E+03 -0.13200059727E+04  0.13624403650E+04  0.10100000352E+00 0.  1.
       -3    1    3    3    0  502 -0.26336900161E+03  0.21086663790E+03  0.90848917063E+03  0.96911328199E+03  0.10100000352E+00 0. -1.
</event>
<event>
 5   0  0.2042951E-05  0.2296053E+04  0.7818609E-02  0.8479479E-01
       -1   -1    0    0    0  501  0.00000000000E+00  0.00000000000E+00  0.13274986560E+04  0.13274986560E+04  0.50400001928E-02 0. -1.
        1   -1    0    0  501    0  0.00000000000E+00  0.00000000000E+00 -0.99281842709E+03  0.99281842710E+03  0.50400001928E-02 0.  1.
    10030    2    1    2    0    0  0.00000000000E+00  0.00000000000E+00  0.33468022892E+03  0.23203170831E+04  0.22960532465E+04 0.  0.
        2    1    3    3  502    0  0.76869696109E+03 -0.79890435443E+03  0.46851968845E+03  0.12036003838E+04  0.25500000920E-02 0.  1.
       -2    1    3    3    0  502 -0.76869696109E+03  0.79890435443E+03 -0.13383945953E+03  0.11167166993E+04  0.25500000920E-02 0. -1.
</event>
<event>
 5   0  0.2042951E-05  0.2274106E+04  0.7818609E-02  0.8488201E-01
       -1   -1    0    0    0  501  0.00000000000E+00  0.00000000000E+00  0.14030665453E+04  0.14030665453E+04  0.50400001928E-02 0. -1.
        1   -1    0    0  501    0  0.00000000000E+00  0.00000000000E+00 -0.92147427211E+03  0.92147427213E+03  0.50400001928E-02 0.  1.
    10030    2    1    2    0    0  0.00000000000E+00  0.00000000000E+00  0.48159227320E+03  0.23245408174E+04  0.22741061748E+04 0.  0.
        2    1    3    3  502    0 -0.12003132920E+03 -0.98524250353E+03  0.80787860683E+03  0.12797570684E+04  0.25500000920E-02 0. -1.
       -2    1    3    3    0  502  0.12003132920E+03  0.98524250353E+03 -0.32628633362E+03  0.10447837490E+04  0.25500000920E-02 0.  1.
</event>
<event>
 5   0  0.2085063E-05  0.2333949E+04  0.7818609E-02  0.8464655E-01
       -1   -1    0    0    0  501  0.00000000000E+00  0.00000000000E+00  0.26606155239E+04  0.26606155239E+04  0.50400001928E-02 0.  1.
        1   -1    0    0  501    0  0.00000000000E+00  0.00000000000E+00 -0.51184748869E+03  0.51184748872E+03  0.50400001928E-02 0. -1.
    10030    2    1    2    0    0  0.00000000000E+00  0.00000000000E+00  0.21487680352E+04  0.31724630126E+04  0.23339489063E+04 0.  0.
        1    1    3    3  502    0 -0.74102429132E+03 -0.34505078074E+03 -0.57693455336E+02  0.81945443829E+03  0.50400001928E-02 0. -1.
       -1    1    3    3    0  502  0.74102429132E+03  0.34505078074E+03  0.22064614905E+04  0.23530085743E+04  0.50400001928E-02 0.  1.
</event>
<event>
 5   0  0.2043885E-05  0.2278156E+04  0.7818609E-02  0.8486584E-01
       -1   -1    0    0    0  501  0.00000000000E+00  0.00000000000E+00  0.17120340128E+04  0.17120340128E+04  0.50400001928E-02 0. -1.
        1   -1    0    0  501    0  0.00000000000E+00  0.00000000000E+00 -0.75786963760E+03  0.75786963762E+03  0.50400001928E-02 0.  1.
    10030    2    1    2    0    0  0.00000000000E+00  0.00000000000E+00  0.95416437517E+03  0.24699036504E+04  0.22781559182E+04 0.  0.
        5    1    3    3  502    0 -0.11053393513E+04  0.15171592066E+03  0.22823386290E+03  0.11388176273E+04  0.46999998093E+01 0.  1.
       -5    1    3    3    0  502  0.11053393513E+04 -0.15171592066E+03  0.72593051227E+03  0.13310860231E+04  0.46999998093E+01 0. -1.
</event>
<event>
 5   0  0.2042951E-05  0.2296388E+04  0.7818609E-02  0.8479347E-01
       -1   -1    0    0    0  501  0.00000000000E+00  0.00000000000E+00  0.94758990743E+03  0.94758990744E+03  0.50400001928E-02 0. -1.
        1   -1    0    0  501    0  0.00000000000E+00  0.00000000000E+00 -0.13912660658E+04  0.13912660658E+04  0.50400001928E-02 0.  1.
    10030    2    1    2    0    0  0.00000000000E+00  0.00000000000E+00 -0.44367615836E+03  0.23388559732E+04  0.22963881924E+04 0.  0.
        2    1    3    3  502    0 -0.97705665003E+03  0.27236660292E+03 -0.76986547943E+03  0.12733876551E+04  0.25500000920E-02 0. -1.
       -2    1    3    3    0  502  0.97705665003E+03 -0.27236660292E+03  0.32618932107E+03  0.10654683181E+04  0.25500000920E-02 0.  1.
</event>
<event>
 5   0  0.4505107E-05  0.2165183E+04  0.7818609E-02  0.8533061E-01
        2   -1    0    0  501    0  0.00000000000E+00  0.00000000000E+00  0.20542958757E+04  0.20542958757E+04  0.25500000920E-02 0.  1.
       -2   -1    0    0    0  501  0.00000000000E+00  0.00000000000E+00 -0.57051372761E+03  0.57051372762E+03  0.25500000920E-02 0. -1.
    10030    2    1    2    0    0  0.00000000000E+00  0.00000000000E+00  0.14837821481E+04  0.26248096034E+04  0.21651826691E+04 0.  0.
        4    1    3    3  502    0  0.31396126601E+02 -0.71001154739E+03 -0.24810554389E+03  0.75276828307E+03  0.12699999809E+01 0. -1.
       -4    1    3    3    0  502 -0.31396126601E+02  0.71001154739E+03  0.17318876920E+04  0.18720413203E+04  0.12699999809E+01 0.  1.
</event>
<event>
 5   0  0.4505107E-05  0.2272400E+04  0.7818609E-02  0.8488884E-01
       -2   -1    0    0    0  501  0.00000000000E+00  0.00000000000E+00  0.67821699037E+03  0.67821699037E+03  0.25500000920E-02 0.  1.
        2   -1    0    0  501    0  0.00000000000E+00  0.00000000000E+00 -0.19034470753E+04  0.19034470753E+04  0.25500000920E-02 0. -1.
    10030    2    1    2    0    0  0.00000000000E+00  0.00000000000E+00 -0.12252300850E+04  0.25816640657E+04  0.22723997419E+04 0.  0.
        4    1    3    3  502    0  0.10928924750E+04  0.90531702883E+02 -0.95028328110E+03  0.14510857584E+04  0.12699999809E+01 0. -1.
       -4    1    3    3    0  502 -0.10928924750E+04 -0.90531702883E+02 -0.27494680385E+03  0.11305783073E+04  0.12699999809E+01 0.  1.
</event>
<event>
 5   0  0.4605516E-05  0.2218257E+04  0.7818609E-02  0.8510867E-01
       -2   -1    0    0    0  501  0.00000000000E+00  0.00000000000E+00  0.75925996485E+03  0.75925996485E+03  0.25500000920E-02 0. -1.
        2   -1    0    0  501    0  0.00000000000E+00  0.00000000000E+00 -0.16202171684E+04  0.16202171684E+04  0.25500000920E-02 0.  1.
    10030    2    1    2    0    0  0.00000000000E+00  0.00000000000E+00 -0.86095720358E+03  0.23794771333E+04  0.22182570008E+04 0.  0.
        1    1    3    3  502    0 -0.94125704596E+03 -0.56824047408E+03 -0.58704548968E+03  0.12463885710E+04  0.50400001928E-02 0.  1.
       -1    1    3    3    0  502  0.94125704596E+03  0.56824047408E+03 -0.27391171390E+03  0.11330885623E+04  0.50400001928E-02 0. -1.
</event>
<event>
 5   0  0.2031860E-05  0.2245074E+04  0.7818609E-02  0.8499898E-01
       -1   -1    0    0    0  501  0.00000000000E+00  0.00000000000E+00  0.96024907360E+03  0.96024907361E+03  0.50400001928E-02 0. -1.
        1   -1    0    0  501    0  0.00000000000E+00  0.00000000000E+00 -0.13122521877E+04  0.13122521877E+04  0.50400001928E-02 0.  1.
    10030    2    1    2    0    0  0.00000000000E+00  0.00000000000E+00 -0.35200311412E+03  0.22725012613E+04  0.22450736715E+04 0.  0.
        4    1    3    3  502    0  0.59035084225E+03 -0.94680802964E+03 -0.30049917225E+03  0.11555349096E+04  0.12699999809E+01 0.  1.
       -4    1    3    3    0  502 -0.59035084225E+03  0.94680802964E+03 -0.51503941867E+02  0.11169663517E+04  0.12699999809E+01 0. -1.
</event>
<event>
 5   0  0.2031860E-05  0.2247642E+04  0.7818609E-02  0.8498856E-01
       -1   -1    0    0    0  501  0.00000000000E+00  0.00000000000E+00  0.97388819616E+03  0.97388819617E+03  0.50400001928E-02 0. -1.
        1   -1    0    0  501    0  0.00000000000E+00  0.00000000000E+00 -0.12968359118E+04  0.12968359118E+04  0.50400001928E-02 0.  1.
    10030    2    1    2    0    0  0.00000000000E+00  0.00000000000E+00 -0.32294771564E+03  0.22707241080E+04  0.22476415968E+04 0.  0.
        4    1    3    3  502    0 -0.40330308877E+03 -0.42403768692E+03 -0.11307591441E+04  0.12732160839E+04  0.12699999809E+01 0.  1.
       -4    1    3    3    0  502  0.40330308877E+03  0.42403768692E+03  0.80781142846E+03  0.99750802412E+03  0.12699999809E+01 0. -1.
</event>
<event>
 5   0  0.4436695E-05  0.2308740E+04  0.7818609E-02  0.8474483E-01
        2   -1    0    0  501    0  0.00000000000E+00  0.00000000000E+00  0.18140579551E+04  0.18140579551E+04  0.25500000920E-02 0. -1.
       -2   -1    0    0    0  501  0.00000000000E+00  0.00000000000E+00 -0.73457950198E+03  0.73457950198E+03  0.25500000920E-02 0.  1.
    10030    2    1    2    0    0  0.00000000000E+00  0.00000000000E+00  0.10794784532E+04  0.25486374571E+04  0.23087397335E+04 0.  0.
        5    1    3    3  502    0 -0.24233608815E+03  0.11751706915E+03  0.17788787053E+04  0.17991577417E+04  0.46999998093E+01 0. -1.
       -5    1    3    3    0  502  0.24233608815E+03 -0.11751706915E+03 -0.69940025216E+03  0.74947971546E+03  0.46999998093E+01 0.  1.
</event>
<event>
 5   0  0.2043885E-05  0.2393712E+04  0.7818609E-02  0.8441861E-01
        1   -1    0    0  501    0  0.00000000000E+00  0.00000000000E+00  0.12688526776E+04  0.12688526777E+04  0.50400001928E-02 0. -1.
       -1   -1    0    0    0  501  0.00000000000E+00  0.00000000000E+00 -0.11289444263E+04  0.11289444263E+04  0.50400001928E-02 0.  1.
    10030    2    1    2    0    0  0.00000000000E+00  0.00000000000E+00  0.13990825134E+03  0.23977971040E+04  0.23937118943E+04 0.  0.
        5    1    3    3  502    0 -0.45343151154E+03  0.80243908001E+03 -0.69484968641E+03  0.11542732733E+04  0.46999998093E+01 0.  1.
       -5    1    3    3    0  502  0.45343151154E+03 -0.80243908001E+03  0.83475793775E+03  0.12435238307E+04  0.46999998093E+01 0. -1.
</event>
<event>
 5   0  0.2043885E-05  0.2289053E+04  0.7818609E-02  0.8482250E-01
        1   -1    0    0  501    0  0.00000000000E+00  0.00000000000E+00  0.19988819419E+04  0.19988819419E+04  0.50400001928E-02 0. -1.
       -1   -1    0    0    0  501  0.00000000000E+00  0.00000000000E+00 -0.65533695240E+03  0.65533695242E+03  0.50400001928E-02 0.  1.
    10030    2    1    2    0    0  0.00000000000E+00  0.00000000000E+00  0.13435449895E+04  0.26542188943E+04  0.22890532541E+04 0.  0.
        5    1    3    3  502    0  0.76837767903E+01 -0.12320917312E+03  0.19911284668E+04  0.19949571930E+04  0.46999998093E+01 0. -1.
       -5    1    3    3    0  502 -0.76837767903E+01  0.12320917312E+03 -0.64758347728E+03  0.65926170131E+03  0.46999998093E+01 0.  1.
</event>
<event>
 5   0  0.4798609E-05  0.2394602E+04  0.7818609E-02  0.8441527E-01
        2   -1    0    0  501    0  0.00000000000E+00  0.00000000000E+00  0.19226414290E+04  0.19226414290E+04  0.25500000920E-02 0.  1.
       -2   -1    0    0    0  501  0.00000000000E+00  0.00000000000E+00 -0.74560439220E+03  0.74560439221E+03  0.25500000920E-02 0. -1.
    10030    2    1    2    0    0  0.00000000000E+00  0.00000000000E+00  0.11770370368E+04  0.26682458212E+04  0.23946021749E+04 0.  0.
        2    1    3    3  502    0 -0.74937330588E+03  0.76091118006E+03 -0.14616033508E+02  0.10680635767E+04  0.25500000920E-02 0. -1.
       -2    1    3    3    0  502  0.74937330588E+03 -0.76091118006E+03  0.11916530703E+04  0.16001822444E+04  0.25500000920E-02 0.  1.
</event>
<event>
 5   0  0.1968318E-05  0.2408503E+04  0.7818609E-02  0.8436327E-01
       -1   -1    0    0    0  501  0.00000000000E+00  0.00000000000E+00  0.11650890509E+04  0.11650890510E+04  0.50400001928E-02 0.  1.
        1   -1    0    0  501    0  0.00000000000E+00  0.00000000000E+00 -0.12447299737E+04  0.12447299737E+04  0.50400001928E-02 0. -1.
    10030    2    1    2    0    0  0.00000000000E+00  0.00000000000E+00 -0.79640922716E+02  0.24098190246E+04  0.24085026583E+04 0.  0.
        3    1    3    3  502    0 -0.22633714388E+03 -0.69821382235E+03  0.91542130424E+03  0.11733401974E+04  0.10100000352E+00 0.  1.
       -3    1    3    3    0  502  0.22633714388E+03  0.69821382235E+03 -0.99506222695E+03  0.12364788272E+04  0.10100000352E+00 0. -1.
</event>
<event>
 5   0  0.4602447E-05  0.2290481E+04  0.7818609E-02  0.8481684E-01
       -2   -1    0    0    0  501  0.00000000000E+00  0.00000000000E+00  0.20767166208E+04  0.20767166208E+04  0.25500000920E-02 0. -1.
        2   -1    0    0  501    0  0.00000000000E+00  0.00000000000E+00 -0.63156198849E+03  0.63156198849E+03  0.25500000920E-02 0.  1.
    10030    2    1    2    0    0  0.00000000000E+00  0.00000000000E+00  0.14451546323E+04  0.27082786093E+04  0.22904805422E+04 0.  0.
        3    1    3    3  502    0 -0.79544462082E+02 -0.10281886096E+04  0.13365335843E+03  0.10398857479E+04  0.10100000352E+00 0. -1.
       -3    1    3    3    0  502  0.79544462082E+02  0.10281886096E+04  0.13115012739E+04  0.16683928614E+04  0.10100000352E+00 0.  1.
</event>
<event>
 5   0  0.4505107E-05  0.2341536E+04  0.7818609E-02  0.8461722E-01
        2   -1    0    0  501    0  0.00000000000E+00  0.00000000000E+00  0.14962561955E+04  0.14962561955E+04  0.25500000920E-02 0.  1.
       -2   -1    0    0    0  501  0.00000000000E+00  0.00000000000E+00 -0.91608451628E+03  0.91608451628E+03  0.25500000920E-02 0. -1.
    10030    2    1    2    0    0  0.00000000000E+00  0.00000000000E+00  0.58017167919E+03  0.24123407117E+04  0.23415355074E+04 0.  0.
        4    1    3    3  502    0  0.10766510049E+04  0.10974659906E+03  0.75021615596E+03  0.13168324099E+04  0.12699999809E+01 0. -1.
       -4    1    3    3    0  502 -0.10766510049E+04 -0.10974659906E+03 -0.17004447677E+03  0.10955083018E+04  0.12699999809E+01 0.  1.
</event>
<event>
 5   0  0.4505107E-05  0.2317794E+04  0.7818609E-02  0.8470938E-01
        2   -1    0    0  501    0  0.00000000000E+00  0.00000000000E+00  0.16951214374E+04  0.16951214374E+04  0.25500000920E-02 0. -1.
       -2   -1    0    0    0  501  0.00000000000E+00  0.00000000000E+00 -0.79229826289E+03  0.79229826289E+03  0.25500000920E-02 0.  1.
    10030    2    1    2    0    0  0.00000000000E+00  0.00000000000E+00  0.90282317450E+03  0.24874197003E+04  0.23177935803E+04 0.  0.
        4    1    3    3  502    0  0.88664521951E+03 -0.28711246044E+03 -0.28781444079E+03  0.97540354492E+03  0.12699999809E+01 0.  1.
       -4    1    3    3    0  502 -0.88664521951E+03  0.28711246044E+03  0.11906376153E+04  0.15120161554E+04  0.12699999809E+01 0. -1.
</event>
<event>
 5   0  0.2042951E-05  0.2286292E+04  0.7818609E-02  0.8483346E-01
        1   -1    0    0  501    0  0.00000000000E+00  0.00000000000E+00  0.10147223781E+04  0.10147223781E+04  0.50400001928E-02 0.  1.
       -1   -1    0    0    0  501  0.00000000000E+00  0.00000000000E+00 -0.12878226234E+04  0.12878226234E+04  0.50400001928E-02 0. -1.
    10030    2    1    2    0    0  0.00000000000E+00  0.00000000000E+00 -0.27310024531E+03  0.23025450015E+04  0.22862917005E+04 0.  0.
        2    1    3    3  502    0  0.46731630100E+03 -0.59293049660E+03  0.72794098568E+03  0.10487369440E+04  0.25500000920E-02 0.  1.
       -2    1    3    3    0  502 -0.46731630100E+03  0.59293049660E+03 -0.10010412310E+04  0.12538080575E+04  0.25500000920E-02 0. -1.
</event>
<event>
 5   0  0.4605516E-05  0.2397657E+04  0.7818609E-02  0.8440381E-01
       -2   -1    0    0    0  501  0.00000000000E+00  0.00000000000E+00  0.78595652016E+03  0.78595652016E+03  0.25500000920E-02 0.  1.
        2   -1    0    0  501    0  0.00000000000E+00  0.00000000000E+00 -0.18285866865E+04  0.18285866865E+04  0.25500000920E-02 0. -1.
    10030    2    1    2    0    0  0.00000000000E+00  0.00000000000E+00 -0.10426301664E+04  0.26145432067E+04  0.23976568803E+04 0.  0.
        1    1    3    3  502    0 -0.71024563998E+03 -0.72481809568E+03  0.17468352192E+03  0.10297205804E+04  0.50400001928E-02 0.  1.
       -1    1    3    3    0  502  0.71024563998E+03  0.72481809568E+03 -0.12173136883E+04  0.15848226262E+04  0.50400001928E-02 0. -1.
</event>
<event>
 5   0  0.2085063E-05  0.2306371E+04  0.7818609E-02  0.8475413E-01
        1   -1    0    0  501    0  0.00000000000E+00  0.00000000000E+00  0.21351108911E+04  0.21351108911E+04  0.50400001928E-02 0. -1.
       -1   -1    0    0    0  501  0.00000000000E+00  0.00000000000E+00 -0.62284191918E+03  0.62284191920E+03  0.50400001928E-02 0.  1.
    10030    2    1    2    0    0  0.00000000000E+00  0.00000000000E+00  0.15122689719E+04  0.27579528103E+04  0.23063707985E+04 0.  0.
        1    1    3    3  502    0 -0.87075315205E+03 -0.14174013092E+03 -0.13192966077E+03  0.89202396377E+03  0.50400001928E-02 0.  1.
       -1    1    3    3    0  502  0.87075315205E+03  0.14174013092E+03  0.16441986327E+04  0.18659288465E+04  0.50400001928E-02 0. -1.
</event>
<event>
 5   0  0.2043885E-05  0.2272001E+04  0.7818609E-02  0.8489043E-01
        1   -1    0    0  501    0  0.00000000000E+00  0.00000000000E+00  0.16156505618E+04  0.16156505618E+04  0.50400001928E-02 0.  1.
       -1   -1    0    0    0  501  0.00000000000E+00  0.00000000000E+00 -0.79874755904E+03  0.79874755905E+03  0.50400001928E-02 0. -1.
    10030    2    1    2    0    0  0.00000000000E+00  0.00000000000E+00  0.81690300275E+03  0.24143981208E+04  0.22720008297E+04 0.  0.
        5    1    3    3  502    0  0.35654873458E+03 -0.18990900763E+03 -0.71982817715E+03  0.82544965076E+03  0.46999998093E+01 0. -1.
       -5    1    3    3    0  502 -0.35654873458E+03  0.18990900763E+03  0.15367311799E+04  0.15889484701E+04  0.46999998093E+01 0.  1.
</event>
<event>
 5   0  0.4605516E-05  0.2296654E+04  0.7818609E-02  0.8479241E-01
       -2   -1    0    0    0  501  0.00000000000E+00  0.00000000000E+00  0.17902763185E+04  0.17902763185E+04  0.25500000920E-02 0. -1.
        2   -1    0    0  501    0  0.00000000000E+00  0.00000000000E+00 -0.73656510726E+03  0.73656510726E+03  0.25500000920E-02 0.  1.
    10030    2    1    2    0    0  0.00000000000E+00  0.00000000000E+00  0.10537112112E+04  0.25268414257E+04  0.22966541477E+04 0.  0.
        1    1    3    3  502    0 -0.90921910301E+03  0.68320215179E+03  0.35216352681E+03  0.11905728483E+04  0.50400001928E-02 0. -1.
       -1    1    3    3    0  502  0.90921910301E+03 -0.68320215179E+03  0.70154768442E+03  0.13362685774E+04  0.50400001928E-02 0.  1.
</event>
<event>
 5   0  0.2043885E-05  0.2245913E+04  0.7818609E-02  0.8499558E-01
       -1   -1    0    0    0  501  0.00000000000E+00  0.00000000000E+00  0.62514497603E+03  0.62514497605E+03  0.50400001928E-02 0.  1.
        1   -1    0    0  501    0  0.00000000000E+00  0.00000000000E+00 -0.20171813141E+04  0.20171813142E+04  0.50400001928E-02 0. -1.
    10030    2    1    2    0    0  0.00000000000E+00  0.00000000000E+00 -0.13920363381E+04  0.26423262902E+04  0.22459125222E+04 0.  0.
        5    1    3    3  502    0 -0.67711155116E+03  0.79533995304E+03 -0.11810506008E+04  0.15766890325E+04  0.46999998093E+01 0. -1.
       -5    1    3    3    0  502  0.67711155116E+03 -0.79533995304E+03 -0.21098573735E+03  0.10656372577E+04  0.46999998093E+01 0.  1.
</event>
<event>
 5   0  0.1968318E-05  0.2290365E+04  0.7818609E-02  0.8481730E-01
        1   -1    0    0  501    0  0.00000000000E+00  0.00000000000E+00  0.15313111954E+04  0.15313111954E+04  0.50400001928E-02 0. -1.
       -1   -1    0    0    0  501  0.00000000000E+00  0.00000000000E+00 -0.85641827917E+03  0.85641827918E+03  0.50400001928E-02 0.  1.
    10030    2    1    2    0    0  0.00000000000E+00  0.00000000000E+00  0.67489291623E+03  0.23877294746E+04  0.22903649481E+04 0.  0.
        3    1    3    3  502    0 -0.76703278538E+03  0.10930011050E+03 -0.54170398860E+03  0.94537242898E+03  0.10100000352E+00 0.  1.
       -3    1    3    3    0  502  0.76703278538E+03 -0.10930011050E+03  0.12165969048E+04  0.14423570456E+04  0.10100000352E+00 0. -1.
</event>
<event>
 5   0  0.2031860E-05  0.2282715E+04  0.7818609E-02  0.8484768E-01
       -1   -1    0    0    0  501  0.00000000000E+00  0.00000000000E+00  0.99412123114E+03  0.99412123116E+03  0.50400001928E-02 0. -1.
        1   -1    0    0  501    0  0.00000000000E+00  0.00000000000E+00 -0.13104006001E+04  0.13104006001E+04  0.50400001928E-02 0.  1.
    10030    2    1    2    0    0  0.00000000000E+00  0.00000000000E+00 -0.31627936894E+03  0.23045218313E+04  0.22827151008E+04 0.  0.
        4    1    3    3  502    0 -0.80778752761E+03  0.77813726135E+03 -0.37152861309E+03  0.11815470412E+04  0.12699999809E+01 0. -1.
       -4    1    3    3    0  502  0.80778752761E+03 -0.77813726135E+03  0.55249244144E+02  0.11229747901E+04  0.12699999809E+01 0.  1.
</event>
<event>
 5   0  0.4436695E-05  0.2252915E+04  0.7818609E-02  0.8496721E-01
       -2   -1    0    0    0  501  0.00000000000E+00  0.00000000000E+00  0.60238382346E+03  0.60238382347E+03  0.25500000920E-02 0. -1.
        2   -1    0    0  501    0  0.00000000000E+00  0.00000000000E+00 -0.21064759310E+04  0.21064759310E+04  0.25500000920E-02 0.  1.
    10030    2    1    2    0    0  0.00000000000E+00  0.00000000000E+00 -0.15040921075E+04  0.27088597544E+04  0.22529154670E+04 0.  0.
        5    1    3    3  502    0 -0.72174494805E+03 -0.86344329620E+03 -0.81137638809E+03  0.13873729956E+04  0.46999998093E+01 0.  1.
       -5    1    3    3    0  502  0.72174494805E+03  0.86344329620E+03 -0.69271571940E+03  0.13214867588E+04  0.46999998093E+01 0. -1.
</event>
<event>
 5   0  0.4605516E-05  0.2305062E+04  0.7818609E-02  0.8475928E-01
       -2   -1    0    0    0  501  0.00000000000E+00  0.00000000000E+00  0.12821406094E+04  0.12821406094E+04  0.25500000920E-02 0. -1.
        2   -1    0    0  501    0  0.00000000000E+00  0.00000000000E+00 -0.10360237120E+04  0.10360237120E+04  0.25500000920E-02 0.  1.
    10030    2    1    2    0    0  0.00000000000E+00  0.00000000000E+00  0.24611689738E+03  0.23181643214E+04  0.23050623188E+04 0.  0.
        1    1    3    3  502    0  0.40627819048E+03  0.25955181257E+03  0.11758606973E+04  0.12708569907E+04  0.50400001928E-02 0. -1.
       -1    1    3    3    0  502 -0.40627819048E+03 -0.25955181257E+03 -0.92974379987E+03  0.10473073307E+04  0.50400001928E-02 0.  1.
</event>
<event>
 5   0  0.2042951E-05  0.2290532E+04  0.7818609E-02  0.8481664E-01
        1   -1    0    0  501    0  0.00000000000E+00  0.00000000000E+00  0.11537169451E+04  0.11537169451E+04  0.50400001928E-02 0.  1.
       -1   -1    0    0    0  501  0.00000000000E+00  0.00000000000E+00 -0.11368770998E+04  0.11368770998E+04  0.50400001928E-02 0. -1.
    10030    2    1    2    0    0  0.00000000000E+00  0.00000000000E+00  0.16839845265E+02  0.22905940449E+04  0.22905321431E+04 0.  0.
        2    1    3    3  502    0 -0.72691902914E+03  0.88185769877E+03  0.82920921024E+02  0.11458447342E+04  0.25500000920E-02 0.  1.
       -2    1    3    3    0  502  0.72691902914E+03 -0.88185769877E+03 -0.66081075758E+02  0.11447493107E+04  0.25500000920E-02 0. -1.
</event>
<event>
 5   0  0.2043885E-05  0.2388363E+04  0.7818609E-02  0.8443873E-01
        1   -1    0    0  501    0  0.00000000000E+00  0.00000000000E+00  0.17783624931E+04  0.17783624931E+04  0.50400001928E-02 0. -1.
       -1   -1    0    0    0  501  0.00000000000E+00  0.00000000000E+00 -0.80190005153E+03  0.80190005155E+03  0.50400001928E-02 0.  1.
    10030    2    1    2    0    0  0.00000000000E+00  0.00000000000E+00  0.97646244157E+03  0.25802625447E+04  0.23883625980E+04 0.  0.
        5    1    3    3  502    0  0.55743272484E+03 -0.54691184165E+03 -0.48779784558E+03  0.92076741548E+03  0.46999998093E+01 0.  1.
       -5    1    3    3    0  502 -0.55743272484E+03  0.54691184165E+03  0.14642602871E+04  0.16594951292E+04  0.46999998093E+01 0. -1.
</event>
<event>
 5   0  0.4602447E-05  0.2297548E+04  0.7818609E-02  0.8478889E-01
        2   -1    0    0  501    0  0.00000000000E+00  0.00000000000E+00  0.15668915414E+04  0.15668915414E+04  0.25500000920E-02 0. -1.
       -2   -1    0    0    0  501  0.00000000000E+00  0.00000000000E+00 -0.84222905609E+03  0.84222905610E+03  0.25500000920E-02 0.  1.
    10030    2    1    2    0    0  0.00000000000E+00  0.00000000000E+00  0.72466248533E+03  0.24091205975E+04  0.22975478963E+04 0.  0.
        3    1    3    3  502    0  0.39428006378E+03  0.75764841562E+03  0.11678789122E+04  0.14468687066E+04  0.10100000352E+00 0. -1.
       -3    1    3    3    0  502 -0.39428006378E+03 -0.75764841562E+03 -0.44321642685E+03  0.96225189094E+03  0.10100000352E+00 0.  1.
</event>
<event>
 5   0  0.4605516E-05  0.2304915E+04  0.7818609E-02  0.8475986E-01
       -2   -1    0    0    0  501  0.00000000000E+00  0.00000000000E+00  0.10260354668E+04  0.10260354668E+04  0.25500000920E-02 0. -1.
        2   -1    0    0  501    0  0.00000000000E+00  0.00000000000E+00 -0.12944562569E+04  0.12944562569E+04  0.25500000920E-02 0.  1.
    10030    2    1    2    0    0  0.00000000000E+00  0.00000000000E+00 -0.26842079015E+03  0.23204917237E+04  0.23049147749E+04 0.  0.
        1    1    3    3  502    0  0.15864486647E+03 -0.59515653606E+03  0.84642502810E+03  0.10468117425E+04  0.50400001928E-02 0. -1.
       -1    1    3    3    0  502 -0.15864486647E+03  0.59515653606E+03 -0.11148458182E+04  0.12736799812E+04  0.50400001928E-02 0.  1.
</event>
<event>
 5   0  0.1604500E-05  0.2298452E+04  0.7818609E-02  0.8478532E-01
        3   -1    0    0  501    0  0.00000000000E+00  0.00000000000E+00  0.12774234094E+04  0.12774234134E+04  0.10100000352E+00 0.  1.
       -3   -1    0    0    0  501  0.00000000000E+00  0.00000000000E+00 -0.10338944030E+04  0.10338944080E+04  0.10100000352E+00 0. -1.
    10030    2    1    2    0    0  0.00000000000E+00  0.00000000000E+00  0.24352900637E+03  0.23113178214E+04  0.22984524564E+04 0.  0.
        2    1    3    3  502    0 -0.21880004735E+03 -0.94489671981E+03  0.74167077193E+03  0.12209745312E+04  0.25500000920E-02 0.  1.
       -2    1    3    3    0  502  0.21880004735E+03  0.94489671981E+03 -0.49814176556E+03  0.10903432902E+04  0.25500000920E-02 0. -1.
</event>
<event>
 5   0  0.2042951E-05  0.2296627E+04  0.7818609E-02  0.8479252E-01
       -1   -1    0    0    0  501  0.00000000000E+00  0.00000000000E+00  0.12276112030E+04  0.12276112030E+04  0.50400001928E-02 0.  1.
        1   -1    0    0  501    0  0.00000000000E+00  0.00000000000E+00 -0.10741382778E+04  0.10741382778E+04  0.50400001928E-02 0. -1.
    10030    2    1    2    0    0  0.00000000000E+00  0.00000000000E+00  0.15347292517E+03  0.23017494808E+04  0.22966272517E+04 0.  0.
        2    1    3    3  502    0 -0.61548002589E+03 -0.51438634791E+03  0.90028395114E+03  0.12057861211E+04  0.25500000920E-02 0.  1.
       -2    1    3    3    0  502  0.61548002589E+03  0.51438634791E+03 -0.74681102597E+03  0.10959633597E+04  0.25500000920E-02 0. -1.
</event>
<event>
 5   0  0.2043885E-05  0.2292273E+04  0.7818609E-02  0.8480974E-01
        1   -1    0    0  501    0  0.00000000000E+00  0.00000000000E+00  0.18939770032E+04  0.18939770032E+04  0.50400001928E-02 0.  1.
       -1   -1    0    0    0  501  0.00000000000E+00  0.00000000000E+00 -0.69358236568E+03  0.69358236569E+03  0.50400001928E-02 0. -1.
    10030    2    1    2    0    0  0.00000000000E+00  0.00000000000E+00  0.12003946375E+04  0.25875593689E+04  0.22922731517E+04 0.  0.
        5    1    3    3  502    0  0.11348721376E+04 -0.15463226159E+03  0.64756809136E+03  0.13157554590E+04  0.46999998093E+01 0.  1.
       -5    1    3    3    0  502 -0.11348721376E+04  0.15463226159E+03  0.55282654616E+03  0.12718039099E+04  0.46999998093E+01 0. -1.
</event>
<event>
 5   0  0.2042951E-05  0.2322677E+04  0.7818609E-02  0.8469033E-01
       -1   -1    0    0    0  501  0.00000000000E+00  0.00000000000E+00  0.71691370161E+03  0.71691370163E+03  0.50400001928E-02 0.  1.
        1   -1    0    0  501    0  0.00000000000E+00  0.00000000000E+00 -0.18812683046E+04  0.18812683046E+04  0.50400001928E-02 0. -1.
    10030    2    1    2    0    0  0.00000000000E+00  0.00000000000E+00 -0.11643546030E+04  0.25981820062E+04  0.23226769246E+04 0.  0.
        2    1    3    3  502    0  0.58806818653E+03  0.21090889229E+03  0.51292383424E+03  0.80833013837E+03  0.25500000920E-02 0.  1.
       -2    1    3    3    0  502 -0.58806818653E+03 -0.21090889229E+03 -0.16772784372E+04  0.17898518678E+04  0.25500000920E-02 0. -1.
</event>
<event>
 5   0  0.2043885E-05  0.2286919E+04  0.7818609E-02  0.8483096E-01
       -1   -1    0    0    0  501  0.00000000000E+00  0.00000000000E+00  0.14499649450E+04  0.14499649450E+04  0.50400001928E-02 0. -1.
        1   -1    0    0  501    0  0.00000000000E+00  0.00000000000E+00 -0.90174604880E+03  0.90174604881E+03  0.50400001928E-02 0.  1.
    10030    2    1    2    0    0  0.00000000000E+00  0.00000000000E+00  0.54821889624E+03  0.23517109939E+04  0.22869194652E+04 0.  0.
        5    1    3    3  502    0 -0.28156619905E+03  0.65149807835E+03 -0.64781057407E+03  0.96094219410E+03  0.46999998093E+01 0.  1.
       -5    1    3    3    0  502  0.28156619905E+03 -0.65149807835E+03  0.11960294703E+04  0.13907687998E+04  0.46999998093E+01 0. -1.
</event>
<event>
 5   0  0.2042951E-05  0.2299248E+04  0.7818609E-02  0.8478218E-01
        1   -1    0    0  501    0  0.00000000000E+00  0.00000000000E+00  0.95123402176E+03  0.95123402177E+03  0.50400001928E-02 0. -1.
       -1   -1    0    0    0  501  0.00000000000E+00  0.00000000000E+00 -0.13893900430E+04  0.13893900430E+04  0.50400001928E-02 0.  1.
    10030    2    1    2    0    0  0.00000000000E+00  0.00000000000E+00 -0.43815602120E+03  0.23406240647E+04  0.22992477712E+04 0.  0.
        2    1    3    3  502    0 -0.33261739575E+03  0.10741342299E+04 -0.46262460261E+03  0.12159030383E+04  0.25500000920E-02 0.  1.
       -2    1    3    3    0  502  0.33261739575E+03 -0.10741342299E+04  0.24468581405E+02  0.11247210264E+04  0.25500000920E-02 0. -1.
</event>
<event>
 5   0  0.4602447E-05  0.2302372E+04  0.7818609E-02  0.8476987E-01
       -2   -1    0    0    0  501  0.00000000000E+00  0.00000000000E+00  0.10132093292E+04  0.10132093292E+04  0.25500000920E-02 0.  1.
        2   -1    0    0  501    0  0.00000000000E+00  0.00000000000E+00 -0.13079518011E+04  0.13079518011E+04  0.25500000920E-02 0. -1.
    10030    2    1    2    0    0  0.00000000000E+00  0.00000000000E+00 -0.29474247195E+03  0.23211611303E+04  0.23023717918E+04 0.  0.
        3    1    3    3  502    0 -0.64319335024E+03 -0.49704767892E+02  0.81385646238E+03  0.10385232791E+04  0.10100000352E+00 0.  1.
       -3    1    3    3    0  502  0.64319335024E+03  0.49704767892E+02 -0.11085989343E+04  0.12826378511E+04  0.10100000352E+00 0. -1.
</event>
<event>
 5   0  0.4798609E-05  0.2303422E+04  0.7818609E-02  0.8476573E-01
       -2   -1    0    0    0  501  0.00000000000E+00  0.00000000000E+00  0.87513364104E+03  0.87513364104E+03  0.25500000920E-02 0. -1.
        2   -1    0    0  501    0  0.00000000000E+00  0.00000000000E+00 -0.15156976947E+04  0.15156976947E+04  0.25500000920E-02 0.  1.
    10030    2    1    2    0    0  0.00000000000E+00  0.00000000000E+00 -0.64056405370E+03  0.23908313358E+04  0.23034218392E+04 0.  0.
        2    1    3    3  502    0 -0.61435063865E+03  0.93952738887E+03 -0.58754019112E+03  0.12670208751E+04  0.25500000920E-02 0. -1.
       -2    1    3    3    0  502  0.61435063865E+03 -0.93952738887E+03 -0.53023862583E+02  0.11238104607E+04  0.25500000920E-02 0.  1.
</event>
<event>
 5   0  0.4605516E-05  0.2300542E+04  0.7818609E-02  0.8477707E-01
        2   -1    0    0  501    0  0.00000000000E+00  0.00000000000E+00  0.25727449485E+04  0.25727449485E+04  0.25500000920E-02 0. -1.
       -2   -1    0    0    0  501  0.00000000000E+00  0.00000000000E+00 -0.51428464392E+03  0.51428464393E+03  0.25500000920E-02 0.  1.
    10030    2    1    2    0    0  0.00000000000E+00  0.00000000000E+00  0.20584603046E+04  0.30870295924E+04  0.23005418664E+04 0.  0.
        1    1    3    3  502    0  0.99435367456E+03  0.11338377521E+03  0.26834322124E+03  0.10361482495E+04  0.50400001928E-02 0.  1.
       -1    1    3    3    0  502 -0.99435367456E+03 -0.11338377521E+03  0.17901170833E+04  0.20508813429E+04  0.50400001928E-02 0. -1.
</event>
<event>
 5   0  0.2042951E-05  0.2304234E+04  0.7818609E-02  0.8476254E-01
       -1   -1    0    0    0  501  0.00000000000E+00  0.00000000000E+00  0.12476566235E+04  0.12476566235E+04  0.50400001928E-02 0.  1.
        1   -1    0    0  501    0  0.00000000000E+00  0.00000000000E+00 -0.10638934046E+04  0.10638934046E+04  0.50400001928E-02 0. -1.
    10030    2    1    2    0    0  0.00000000000E+00  0.00000000000E+00  0.18376321893E+03  0.23115500281E+04  0.23042340618E+04 0.  0.
        2    1    3    3  502    0 -0.96540302611E+03 -0.33481889674E+02  0.72176817103E+03  0.12058496310E+04  0.25500000920E-02 0.  1.
       -2    1    3    3    0  502  0.96540302611E+03  0.33481889674E+02 -0.53800495210E+03  0.11057003971E+04  0.25500000920E-02 0. -1.
</event>
<event>
 5   0  0.4505107E-05  0.2298800E+04  0.7818609E-02  0.8478395E-01
        2   -1    0    0  501    0  0.00000000000E+00  0.00000000000E+00  0.21746130884E+04  0.21746130884E+04  0.25500000920E-02 0.  1.
       -2   -1    0    0    0  501  0.00000000000E+00  0.00000000000E+00 -0.60751947756E+03  0.60751947757E+03  0.25500000920E-02 0. -1.
    10030    2    1    2    0    0  0.00000000000E+00  0.00000000000E+00  0.15670936109E+04  0.27821325660E+04  0.22987995192E+04 0.  0.
        4    1    3    3  502    0  0.33022399675E+03 -0.37888405558E+03 -0.46748248121E+03  0.68639820712E+03  0.12699999809E+01 0. -1.
       -4    1    3    3    0  502 -0.33022399675E+03  0.37888405558E+03  0.20345760921E+04  0.20957343589E+04  0.12699999809E+01 0.  1.
</event>
<event>
 5   0  0.2085063E-05  0.2337075E+04  0.7818609E-02  0.8463445E-01
       -1   -1    0    0    0  501  0.00000000000E+00  0.00000000000E+00  0.79089486577E+03  0.79089486578E+03  0.50400001928E-02 0.  1.
        1   -1    0    0  501    0  0.00000000000E+00  0.00000000000E+00 -0.17264999384E+04  0.17264999384E+04  0.50400001928E-02 0. -1.
    10030    2    1    2    0    0  0.00000000000E+00  0.00000000000E+00 -0.93560507260E+03  0.25173948042E+04  0.23370750412E+04 0.  0.
        1    1    3    3  502    0  0.29992507185E+03  0.55568644336E+03 -0.15268927350E+04  0.16523147086E+04  0.50400001928E-02 0. -1.
       -1    1    3    3    0  502 -0.29992507185E+03 -0.55568644336E+03  0.59128766237E+03  0.86508009557E+03  0.50400001928E-02 0.  1.
</event>
<event>
 5   0  0.2031860E-05  0.2366534E+04  0.7818609E-02  0.8452140E-01
       -1   -1    0    0    0  501  0.00000000000E+00  0.00000000000E+00  0.15285965604E+04  0.15285965604E+04  0.50400001928E-02 0.  1.
        1   -1    0    0  501    0  0.00000000000E+00  0.00000000000E+00 -0.91595205918E+03  0.91595205920E+03  0.50400001928E-02 0. -1.
    10030    2    1    2    0    0  0.00000000000E+00  0.00000000000E+00  0.61264450124E+03  0.24445486196E+04  0.23665343160E+04 0.  0.
        4    1    3    3  502    0 -0.56262018675E+03 -0.30393243895E+03 -0.72208992637E+03  0.96453713078E+03  0.12699999809E+01 0. -1.
       -4    1    3    3    0  502  0.56262018675E+03  0.30393243895E+03  0.13347344276E+04  0.14800114888E+04  0.12699999809E+01 0.  1.
</event>
<event>
 5   0  0.4602447E-05  0.2321839E+04  0.7818609E-02  0.8469360E-01
       -2   -1    0    0    0  501  0.00000000000E+00  0.00000000000E+00  0.67176468217E+03  0.67176468217E+03  0.25500000920E-02 0.  1.
        2   -1    0    0  501    0  0.00000000000E+00  0.00000000000E+00 -0.20062599480E+04  0.20062599480E+04  0.25500000920E-02 0. -1.
    10030    2    1    2    0    0  0.00000000000E+00  0.00000000000E+00 -0.13344952658E+04  0.26780246302E+04  0.23218394228E+04 0.  0.
        3    1    3    3  502    0  0.51444647189E+03  0.16469730107E+03 -0.18524838824E+04  0.19296312907E+04  0.10100000352E+00 0. -1.
       -3    1    3    3    0  502 -0.51444647189E+03 -0.16469730107E+03  0.51798861657E+03  0.74839333944E+03  0.10100000352E+00 0.  1.
</event>
<event>
 5   0  0.2043885E-05  0.2302808E+04  0.7818609E-02  0.8476815E-01
        1   -1    0    0  501    0  0.00000000000E+00  0.00000000000E+00  0.15361087375E+04  0.15361087375E+04  0.50400001928E-02 0. -1.
       -1   -1    0    0    0  501  0.00000000000E+00  0.00000000000E+00 -0.86304507693E+03  0.86304507695E+03  0.50400001928E-02 0.  1.
    10030    2    1    2    0    0  0.00000000000E+00  0.00000000000E+00  0.67306366055E+03  0.23991538144E+04  0.23028079239E+04 0.  0.
        5    1    3    3  502    0  0.28766869936E+03 -0.10083907740E+03  0.14932949510E+04  0.15240976677E+04  0.46999998093E+01 0. -1.
       -5    1    3    3    0  502 -0.28766869936E+03  0.10083907740E+03 -0.82023129042E+03  0.87505614672E+03  0.46999998093E+01 0.  1.
</event>
<event>
 5   0  0.4602447E-05  0.2349362E+04  0.7818609E-02  0.8458709E-01
        2   -1    0    0  501    0  0.00000000000E+00  0.00000000000E+00  0.19035300989E+04  0.19035300989E+04  0.25500000920E-02 0.  1.
       -2   -1    0    0    0  501  0.00000000000E+00  0.00000000000E+00 -0.72490365635E+03  0.72490365635E+03  0.25500000920E-02 0. -1.
    10030    2    1    2    0    0  0.00000000000E+00  0.00000000000E+00  0.11786264425E+04  0.26284337552E+04  0.23493624060E+04 0.  0.
        3    1    3    3  502    0 -0.76822514111E+03  0.80855936093E+03  0.10018067663E+04  0.14991847500E+04  0.10100000352E+00 0.  1.
       -3    1    3    3    0  502  0.76822514111E+03 -0.80855936093E+03  0.17681967624E+03  0.11292490052E+04  0.10100000352E+00 0. -1.
</event>
<event>
 5   0  0.2031860E-05  0.2296087E+04  0.7818609E-02  0.8479466E-01
        1   -1    0    0  501    0  0.00000000000E+00  0.00000000000E+00  0.16120117799E+04  0.16120117799E+04  0.50400001928E-02 0. -1.
       -1   -1    0    0    0  501  0.00000000000E+00  0.00000000000E+00 -0.81761394558E+03  0.81761394560E+03  0.50400001928E-02 0.  1.
    10030    2    1    2    0    0  0.00000000000E+00  0.00000000000E+00  0.79439783435E+03  0.24296257255E+04  0.22960865069E+04 0.  0.
        4    1    3    3  502    0 -0.20876111423E+03 -0.61682492786E+03  0.13976759863E+04  0.15419318954E+04  0.12699999809E+01 0. -1.
       -4    1    3    3    0  502  0.20876111423E+03  0.61682492786E+03 -0.60327815199E+03  0.88769383011E+03  0.12699999809E+01 0.  1.
</event>
<event>
 5   0  0.2043885E-05  0.2294381E+04  0.7818609E-02  0.8480140E-01
        1   -1    0    0  501    0  0.00000000000E+00  0.00000000000E+00  0.18996271829E+04  0.18996271829E+04  0.50400001928E-02 0.  1.
       -1   -1    0    0    0  501  0.00000000000E+00  0.00000000000E+00 -0.69279181681E+03  0.69279181683E+03  0.50400001928E-02 0. -1.
    10030    2    1    2    0    0  0.00000000000E+00  0.00000000000E+00  0.12068353661E+04  0.25924189997E+04  0.22943811081E+04 0.  0.
        5    1    3    3  502    0  0.87603848219E+03 -0.23184377201E+03  0.13982348936E+04  0.16662166319E+04  0.46999998093E+01 0.  1.
       -5    1    3    3    0  502 -0.87603848219E+03  0.23184377201E+03 -0.19139952754E+03  0.92620236776E+03  0.46999998093E+01 0. -1.
</event>
<event>
 5   0  0.4436695E-05  0.2282262E+04  0.7818609E-02  0.8484948E-01
        2   -1    0    0  501    0  0.00000000000E+00  0.00000000000E+00  0.19151788596E+04  0.19151788596E+04  0.25500000920E-02 0.  1.
       -2   -1    0    0    0  501  0.00000000000E+00  0.00000000000E+00 -0.67992612777E+03  0.67992612777E+03  0.25500000920E-02 0. -1.
    10030    2    1    2    0    0  0.00000000000E+00  0.00000000000E+00  0.12352527318E+04  0.25951049874E+04  0.22822621637E+04 0.  0.
        5    1    3    3  502    0  0.38372307241E+03 -0.26493422791E+03 -0.56663927571E+03  0.73384991666E+03  0.46999998093E+01 0. -1.
       -5    1    3    3    0  502 -0.38372307241E+03  0.26493422791E+03  0.18018920075E+04  0.18612550707E+04  0.46999998093E+01 0.  1.
</event>
<event>
 5   0  0.2085063E-05  0.2291720E+04  0.7818609E-02  0.8481193E-01
        1   -1    0    0  501    0  0.00000000000E+00  0.00000000000E+00  0.20800156808E+04  0.20800156808E+04  0.50400001928E-02 0. -1.
       -1   -1    0    0    0  501  0.00000000000E+00  0.00000000000E+00 -0.63124310075E+03  0.63124310077E+03  0.50400001928E-02 0.  1.
    10030    2    1    2    0    0  0.00000000000E+00  0.00000000000E+00  0.14487725800E+04  0.27112587815E+04  0.22917203564E+04 0.  0.
        1    1    3    3  502    0  0.64567346131E+03  0.93391958132E+03  0.90726696615E+03  0.14533524524E+04  0.50400001928E-02 0.  1.
       -1    1    3    3    0  502 -0.64567346131E+03 -0.93391958132E+03  0.54150561387E+03  0.12579063291E+04  0.50400001928E-02 0. -1.
</event>
<event>
 5   0  0.4436695E-05  0.2317702E+04  0.7818609E-02  0.8470974E-01
       -2   -1    0    0    0  501  0.00000000000E+00  0.00000000000E+00  0.11592327935E+04  0.11592327935E+04  0.25500000920E-02 0.  1.
        2   -1    0    0  501    0  0.00000000000E+00  0.00000000000E+00 -0.11584693203E+04  0.11584693203E+04  0.25500000920E-02 0. -1.
    10030    2    1    2    0    0  0.00000000000E+00  0.00000000000E+00  0.76347326805E+00  0.23177021138E+04  0.23177019880E+04 0.  0.
        5    1    3    3  502    0  0.12094340743E+03 -0.11481256562E+04  0.10084918005E+03  0.11588841518E+04  0.46999998093E+01 0. -1.
       -5    1    3    3    0  502 -0.12094340743E+03  0.11481256562E+04 -0.10008570678E+03  0.11588179620E+04  0.46999998093E+01 0.  1.
</event>
<event>
 5   0  0.2042951E-05  0.2310436E+04  0.7818609E-02  0.8473818E-01
        1   -1    0    0  501    0  0.00000000000E+00  0.00000000000E+00  0.79255624301E+03  0.79255624302E+03  0.50400001928E-02 0. -1.
       -1   -1    0    0    0  501  0.00000000000E+00  0.00000000000E+00 -0.16838277422E+04  0.16838277422E+04  0.50400001928E-02 0.  1.
    10030    2    1    2    0    0  0.00000000000E+00  0.00000000000E+00 -0.89127149915E+03  0.24763839852E+04  0.23104356206E+04 0.  0.
        2    1    3    3  502    0  0.96971408602E+03  0.43154731547E+03 -0.93440430619E+03  0.14141039218E+04  0.25500000920E-02 0.  1.
       -2    1    3    3    0  502 -0.96971408602E+03 -0.43154731547E+03  0.43132807041E+02  0.10622800634E+04  0.25500000920E-02 0. -1.
</event>
<event>
 5   0  0.1968318E-05  0.2271661E+04  0.7818609E-02  0.8489179E-01
        1   -1    0    0  501    0  0.00000000000E+00  0.00000000000E+00  0.17426276377E+04  0.17426276377E+04  0.50400001928E-02 0. -1.
       -1   -1    0    0    0  501  0.00000000000E+00  0.00000000000E+00 -0.74032486160E+03  0.74032486162E+03  0.50400001928E-02 0.  1.
    10030    2    1    2    0    0  0.00000000000E+00  0.00000000000E+00  0.10023027761E+04  0.24829524993E+04  0.22716606830E+04 0.  0.
        3    1    3    3  502    0 -0.12717240276E+03  0.96792366249E+03 -0.13341861123E+03  0.98531699085E+03  0.10100000352E+00 0.  1.
       -3    1    3    3    0  502  0.12717240276E+03 -0.96792366249E+03  0.11357213873E+04  0.14976355085E+04  0.10100000352E+00 0. -1.
</event>
<event>
 5   0  0.2043885E-05  0.2294341E+04  0.7818609E-02  0.8480156E-01
        1   -1    0    0  501    0  0.00000000000E+00  0.00000000000E+00  0.98096672160E+03  0.98096672162E+03  0.50400001928E-02 0. -1.
       -1   -1    0    0    0  501  0.00000000000E+00  0.00000000000E+00 -0.13415340468E+04  0.13415340468E+04  0.50400001928E-02 0.  1.
    10030    2    1    2    0    0  0.00000000000E+00  0.00000000000E+00 -0.36056732515E+03  0.23225007684E+04  0.22943410869E+04 0.  0.
        5    1    3    3  502    0  0.96700028520E+03  0.36827041754E+03 -0.68160492833E+03  0.12390803123E+04  0.46999998093E+01 0. -1.
       -5    1    3    3    0  502 -0.96700028520E+03 -0.36827041754E+03  0.32103760318E+03  0.10834204561E+04  0.46999998093E+01 0.  1.
</event>
<event>
 5   0  0.4798609E-05  0.2426281E+04  0.7818609E-02  0.8429729E-01
        2   -1    0    0  501    0  0.00000000000E+00  0.00000000000E+00  0.12699733852E+04  0.12699733852E+04  0.25500000920E-02 0.  1.
       -2   -1    0    0    0  501  0.00000000000E+00  0.00000000000E+00 -0.11588512209E+04  0.11588512209E+04  0.25500000920E-02 0. -1.
    10030    2    1    2    0    0  0.00000000000E+00  0.00000000000E+00  0.11112216439E+03  0.24288246061E+04  0.24262812763E+04 0.  0.
        2    1    3    3  502    0 -0.90631501410E+03 -0.73292358232E+03  0.39225622245E+03  0.12298165824E+04  0.25500000920E-02 0.  1.
       -2    1    3    3    0  502  0.90631501410E+03  0.73292358232E+03 -0.28113405806E+03  0.11990080237E+04  0.25500000920E-02 0. -1.
</event>
<event>
 5   0  0.4605516E-05  0.2300222E+04  0.7818609E-02  0.8477833E-01
       -2   -1    0    0    0  501  0.00000000000E+00  0.00000000000E+00  0.62557369717E+03  0.62557369718E+03  0.25500000920E-02 0.  1.
        2   -1    0    0  501    0  0.00000000000E+00  0.00000000000E+00 -0.21144684822E+04  0.21144684822E+04  0.25500000920E-02 0. -1.
    10030    2    1    2    0    0  0.00000000000E+00  0.00000000000E+00 -0.14888947850E+04  0.27400421794E+04  0.23002224814E+04 0.  0.
        1    1    3    3  502    0 -0.82637862852E+03  0.21011693548E+03  0.17494956928E+03  0.87043558985E+03  0.50400001928E-02 0.  1.
       -1    1    3    3    0  502  0.82637862852E+03 -0.21011693548E+03 -0.16638443543E+04  0.18696065896E+04  0.50400001928E-02 0. -1.
</event>
<event>
 5   0  0.2085063E-05  0.2286103E+04  0.7818609E-02  0.8483421E-01
       -1   -1    0    0    0  501  0.00000000000E+00  0.00000000000E+00  0.23617877430E+04  0.23617877430E+04  0.50400001928E-02 0.  1.
        1   -1    0    0  501    0  0.00000000000E+00  0.00000000000E+00 -0.55321072107E+03  0.55321072109E+03  0.50400001928E-02 0. -1.
    10030    2    1    2    0    0  0.00000000000E+00  0.00000000000E+00  0.18085770219E+04  0.29149984641E+04  0.22861026227E+04 0.  0.
        1    1    3    3  502    0  0.43615557612E+03 -0.29996989577E+03  0.21960755349E+04  0.22589735236E+04  0.50400001928E-02 0.  1.
       -1    1    3    3    0  502 -0.43615557612E+03  0.29996989577E+03 -0.38749851303E+03  0.65602494051E+03  0.50400001928E-02 0. -1.
</event>
<event>
 5   0  0.1968318E-05  0.2254656E+04  0.7818609E-02  0.8496017E-01
       -1   -1    0    0    0  501  0.00000000000E+00  0.00000000000E+00  0.65778192144E+03  0.65778192146E+03  0.50400001928E-02 0. -1.
        1   -1    0    0  501    0  0.00000000000E+00  0.00000000000E+00 -0.19320514595E+04  0.19320514595E+04  0.50400001928E-02 0.  1.
    10030    2    1    2    0    0  0.00000000000E+00  0.00000000000E+00 -0.12742695381E+04  0.25898333810E+04  0.22546560903E+04 0.  0.
        3    1    3    3  502    0  0.55443824194E+03  0.97841893101E+03 -0.72731111255E+03  0.13392859416E+04  0.10100000352E+00 0. -1.
       -3    1    3    3    0  502 -0.55443824194E+03 -0.97841893101E+03 -0.54695842550E+03  0.12505474394E+04  0.10100000352E+00 0.  1.
</event>
<event>
 5   0  0.1968318E-05  0.2306549E+04  0.7818609E-02  0.8475343E-01
       -1   -1    0    0    0  501  0.00000000000E+00  0.00000000000E+00  0.15332419218E+04  0.15332419218E+04  0.50400001928E-02 0.  1.
        1   -1    0    0  501    0  0.00000000000E+00  0.00000000000E+00 -0.86747060341E+03  0.86747060342E+03  0.50400001928E-02 0. -1.
    10030    2    1    2    0    0  0.00000000000E+00  0.00000000000E+00  0.66577131843E+03  0.24007125253E+04  0.23065491932E+04 0.  0.
        3    1    3    3  502    0 -0.43051812799E+03  0.60162177003E+01  0.14464510739E+04  0.15091728771E+04  0.10100000352E+00 0.  1.
       -3    1    3    3    0  502  0.43051812799E+03 -0.60162177003E+01 -0.78067975552E+03  0.89153964818E+03  0.10100000352E+00 0. -1.
</event>
<event>
 5   0  0.2042951E-05  0.2337994E+04  0.7818609E-02  0.8463089E-01
       -1   -1    0    0    0  501  0.00000000000E+00  0.00000000000E+00  0.10141342215E+04  0.10141342215E+04  0.50400001928E-02 0.  1.
        1   -1    0    0  501    0  0.00000000000E+00  0.00000000000E+00 -0.13475081727E+04  0.13475081727E+04  0.50400001928E-02 0. -1.
    10030    2    1    2    0    0  0.00000000000E+00  0.00000000000E+00 -0.33337395123E+03  0.23616423942E+04  0.23379941418E+04 0.  0.
        2    1    3    3  502    0 -0.11008487945E+04  0.18207290369E+02 -0.56354071320E+03  0.12368418287E+04  0.25500000920E-02 0. -1.
       -2    1    3    3    0  502  0.11008487945E+04 -0.18207290369E+02  0.23016676198E+03  0.11248005655E+04  0.25500000920E-02 0.  1.
</event>
<event>
 5   0  0.4605516E-05  0.2323425E+04  0.7818609E-02  0.8468742E-01
       -2   -1    0    0    0  501  0.00000000000E+00  0.00000000000E+00  0.18074344561E+04  0.18074344561E+04  0.25500000920E-02 0. -1.
        2   -1    0    0  501    0  0.00000000000E+00  0.00000000000E+00 -0.74668020682E+03  0.74668020683E+03  0.25500000920E-02 0.  1.
    10030    2    1    2    0    0  0.00000000000E+00  0.00000000000E+00  0.10607542493E+04  0.25541146630E+04  0.23234246564E+04 0.  0.
        1    1    3    3  502    0  0.11419438874E+04 -0.20773765599E+03  0.47669447592E+03  0.12547622879E+04  0.50400001928E-02 0.  1.
       -1    1    3    3    0  502 -0.11419438874E+04  0.20773765599E+03  0.58405977338E+03  0.12993523751E+04  0.50400001928E-02 0. -1.
</event>
<event>
 5   0  0.4602447E-05  0.2293310E+04  0.7818609E-02  0.8480564E-01
       -2   -1    0    0    0  501  0.00000000000E+00  0.00000000000E+00  0.10494463206E+04  0.10494463206E+04  0.25500000920E-02 0. -1.
        2   -1    0    0  501    0  0.00000000000E+00  0.00000000000E+00 -0.12528680911E+04  0.12528680911E+04  0.25500000920E-02 0.  1.
    10030    2    1    2    0    0  0.00000000000E+00  0.00000000000E+00 -0.20342177049E+03  0.23023144116E+04  0.22933101040E+04 0.  0.
        3    1    3    3  502    0 -0.78783108742E+03 -0.29675939118E+03  0.67985324056E+03  0.10821018425E+04  0.10100000352E+00 0. -1.
       -3    1    3    3    0  502  0.78783108742E+03  0.29675939118E+03 -0.88327501106E+03  0.12202125692E+04  0.10100000352E+00 0.  1.
</event>
<event>
 5   0  0.1968318E-05  0.2301388E+04  0.7818609E-02  0.8477374E-01
        1   -1    0    0  501    0  0.00000000000E+00  0.00000000000E+00  0.18868225923E+04  0.18868225923E+04  0.50400001928E-02 0. -1.
       -1   -1    0    0    0  501  0.00000000000E+00  0.00000000000E+00 -0.70175988096E+03  0.70175988098E+03  0.50400001928E-02 0.  1.
    10030    2    1    2    0    0  0.00000000000E+00  0.00000000000E+00  0.11850627114E+04  0.25885824733E+04  0.23013877533E+04 0.  0.
        3    1    3    3  502    0  0.25719949770E+03  0.59077651212E+03 -0.47981956841E+03  0.80336498387E+03  0.10100000352E+00 0.  1.
       -3    1    3    3    0  502 -0.25719949770E+03 -0.59077651212E+03  0.16648822798E+04  0.17852174894E+04  0.10100000352E+00 0. -1.
</event>
<event>
 5   0  0.4505107E-05  0.2279123E+04  0.7818609E-02  0.8486199E-01
        2   -1    0    0  501    0  0.00000000000E+00  0.00000000000E+00  0.15828314202E+04  0.15828314202E+04  0.25500000920E-02 0.  1.
       -2   -1    0    0    0  501  0.00000000000E+00  0.00000000000E+00 -0.82042846786E+03  0.82042846787E+03  0.25500000920E-02 0. -1.
    10030    2    1    2    0    0  0.00000000000E+00  0.00000000000E+00  0.76240295231E+03  0.24032598880E+04  0.22791226004E+04 0.  0.
        4    1    3    3  502    0  0.87902951104E+03 -0.52996267564E+03 -0.14078108645E+03  0.10360377629E+04  0.12699999809E+01 0. -1.
       -4    1    3    3    0  502 -0.87902951104E+03  0.52996267564E+03  0.90318403876E+03  0.13672221252E+04  0.12699999809E+01 0.  1.
</event>
<event>
 5   0  0.1968318E-05  0.2299643E+04  0.7818609E-02  0.8478062E-01
       -1   -1    0    0    0  501  0.00000000000E+00  0.00000000000E+00  0.19862943973E+04  0.19862943973E+04  0.50400001928E-02 0.  1.
        1   -1    0    0  501    0  0.00000000000E+00  0.00000000000E+00 -0.66560588429E+03  0.66560588431E+03  0.50400001928E-02 0. -1.
    10030    2    1    2    0    0  0.00000000000E+00  0.00000000000E+00  0.13206885130E+04  0.26519002816E+04  0.22996427886E+04 0.  0.
        3    1    3    3  502    0 -0.86931776678E+03 -0.44421681581E+02  0.15266901024E+04  0.17574041494E+04  0.10100000352E+00 0. -1.
       -3    1    3    3    0  502  0.86931776678E+03  0.44421681581E+02 -0.20600158941E+03  0.89449613218E+03  0.10100000352E+00 0.  1.
</event>
<event>
 5   0  0.1968318E-05  0.2404123E+04  0.7818609E-02  0.8437961E-01
        1   -1    0    0  501    0  0.00000000000E+00  0.00000000000E+00  0.25199468353E+04  0.25199468353E+04  0.50400001928E-02 0.  1.
       -1   -1    0    0    0  501  0.00000000000E+00  0.00000000000E+00 -0.57340590343E+03  0.57340590345E+03  0.50400001928E-02 0. -1.
    10030    2    1    2    0    0  0.00000000000E+00  0.00000000000E+00  0.19465409319E+04  0.30933527388E+04  0.24041234508E+04 0.  0.
        3    1    3    3  502    0  0.35944496336E+03 -0.95162039512E+03  0.14921812248E+03  0.10281284532E+04  0.10100000352E+00 0. -1.
       -3    1    3    3    0  502 -0.35944496336E+03  0.95162039512E+03  0.17973228094E+04  0.20652242855E+04  0.10100000352E+00 0.  1.
</event>
<event>
 5   0  0.4436695E-05  0.2467757E+04  0.7818609E-02  0.8414563E-01
        2   -1    0    0  501    0  0.00000000000E+00  0.00000000000E+00  0.14573269948E+04  0.14573269948E+04  0.25500000920E-02 0.  1.
       -2   -1    0    0    0  501  0.00000000000E+00  0.00000000000E+00 -0.10446906056E+04  0.10446906056E+04  0.25500000920E-02 0. -1.
    10030    2    1    2    0    0  0.00000000000E+00  0.00000000000E+00  0.41263638927E+03  0.25020176004E+04  0.24677567309E+04 0.  0.
        5    1    3    3  502    0  0.87774728302E+03  0.22351682804E+03  0.10558252394E+04  0.13911107401E+04  0.46999998093E+01 0.  1.
       -5    1    3    3    0  502 -0.87774728302E+03 -0.22351682804E+03 -0.64318885009E+03  0.11109068602E+04  0.46999998093E+01 0. -1.
</event>
<event>
 5   0  0.2031860E-05  0.2315153E+04  0.7818609E-02  0.8471970E-01
        1   -1    0    0  501    0  0.00000000000E+00  0.00000000000E+00  0.11092810778E+04  0.11092810778E+04  0.50400001928E-02 0.  1.
       -1   -1    0    0    0  501  0.00000000000E+00  0.00000000000E+00 -0.12079743733E+04  0.12079743733E+04  0.50400001928E-02 0. -1.
    10030    2    1    2    0    0  0.00000000000E+00  0.00000000000E+00 -0.98693295507E+02  0.23172554511E+04  0.23151527939E+04 0.  0.
        4    1    3    3  502    0  0.93055307980E+03 -0.68742795283E+03 -0.10642714352E+02  0.11569793019E+04  0.12699999809E+01 0. -1.
       -4    1    3    3    0  502 -0.93055307980E+03  0.68742795283E+03 -0.88050581155E+02  0.11602761492E+04  0.12699999809E+01 0.  1.
</event>
<event>
 5   0  0.1968318E-05  0.2339344E+04  0.7818609E-02  0.8462568E-01
        1   -1    0    0  501    0  0.00000000000E+00  0.00000000000E+00  0.17765650021E+04  0.17765650021E+04  0.50400001928E-02 0. -1.
       -1   -1    0    0    0  501  0.00000000000E+00  0.00000000000E+00 -0.77009998939E+03  0.77009998940E+03  0.50400001928E-02 0.  1.
    10030    2    1    2    0    0  0.00000000000E+00  0.00000000000E+00  0.10064650127E+04  0.25466649915E+04  0.23393440870E+04 0.  0.
        3    1    3    3  502    0  0.74760175301E+03 -0.63681199335E+03 -0.18844600135E+03  0.99997490048E+03  0.10100000352E+00 0.  1.
       -3    1    3    3    0  502 -0.74760175301E+03  0.63681199335E+03  0.11949110141E+04  0.15466900910E+04  0.10100000352E+00 0. -1.
</event>
<event>
 5   0  0.4798609E-05  0.2309576E+04  0.7818609E-02  0.8474155E-01
        2   -1    0    0  501    0  0.00000000000E+00  0.00000000000E+00  0.19514362968E+04  0.19514362968E+04  0.25500000920E-02 0.  1.
       -2   -1    0    0    0  501  0.00000000000E+00  0.00000000000E+00 -0.68336080239E+03  0.68336080239E+03  0.25500000920E-02 0. -1.
    10030    2    1    2    0    0  0.00000000000E+00  0.00000000000E+00  0.12680754944E+04  0.26347970991E+04  0.23095757823E+04 0.  0.
        2    1    3    3  502    0  0.23963864429E+03  0.78508741098E+03  0.15606614223E+04  0.17633641138E+04  0.25500000920E-02 0. -1.
       -2    1    3    3    0  502 -0.23963864429E+03 -0.78508741098E+03 -0.29258592794E+03  0.87143298535E+03  0.25500000920E-02 0.  1.
</event>
<event>
 5   0  0.2031860E-05  0.2282500E+04  0.7818609E-02  0.8484853E-01
        1   -1    0    0  501    0  0.00000000000E+00  0.00000000000E+00  0.11513434240E+04  0.11513434240E+04  0.50400001928E-02 0.  1.
       -1   -1    0    0    0  501  0.00000000000E+00  0.00000000000E+00 -0.11312450224E+04  0.11312450224E+04  0.50400001928E-02 0. -1.
    10030    2    1    2    0    0  0.00000000000E+00  0.00000000000E+00  0.20098401531E+02  0.22825884464E+04  0.22824999605E+04 0.  0.
        4    1    3    3  502    0 -0.82805275253E+03  0.73048024948E+03 -0.27836646788E+03  0.11387546967E+04  0.12699999809E+01 0. -1.
       -4    1    3    3    0  502  0.82805275253E+03 -0.73048024948E+03  0.29846486941E+03  0.11438337497E+04  0.12699999809E+01 0.  1.
</event>
<event>
 5   0  0.4605516E-05  0.2300902E+04  0.7818609E-02  0.8477566E-01
        2   -1    0    0  501    0  0.00000000000E+00  0.00000000000E+00  0.23891603606E+04  0.23891603606E+04  0.25500000920E-02 0.  1.
       -2   -1    0    0    0  501  0.00000000000E+00  0.00000000000E+00 -0.55397585478E+03  0.55397585479E+03  0.25500000920E-02 0. -1.
    10030    2    1    2    0    0  0.00000000000E+00  0.00000000000E+00  0.18351845059E+04  0.29431362154E+04  0.23009016954E+04 0.  0.
        1    1    3    3  502    0  0.23539186899E+03  0.61070373778E+03 -0.29262895380E+03  0.71693799729E+03  0.50400001928E-02 0. -1.
       -1    1    3    3    0  502 -0.23539186899E+03 -0.61070373778E+03  0.21278134597E+04  0.22261982181E+04  0.50400001928E-02 0.  1.
</event>
<event>
 5   0  0.2042951E-05  0.2294046E+04  0.7818609E-02  0.8480273E-01
       -1   -1    0    0    0  501  0.00000000000E+00  0.00000000000E+00  0.12029618311E+04  0.12029618311E+04  0.50400001928E-02 0. -1.
        1   -1    0    0  501    0  0.00000000000E+00  0.00000000000E+00 -0.10936850971E+04  0.10936850971E+04  0.50400001928E-02 0.  1.
    10030    2    1    2    0    0  0.00000000000E+00  0.00000000000E+00  0.10927673401E+03  0.22966469282E+04  0.22940457076E+04 0.  0.
        2    1    3    3  502    0  0.36222481274E+03  0.10230143841E+04 -0.31712645197E+03  0.11306345261E+04  0.25500000920E-02 0. -1.
       -2    1    3    3    0  502 -0.36222481274E+03 -0.10230143841E+04  0.42640318598E+03  0.11660124022E+04  0.25500000920E-02 0.  1.
</event>
<event>
 5   0  0.2031860E-05  0.2286561E+04  0.7818609E-02  0.8483239E-01
       -1   -1    0    0    0  501  0.00000000000E+00  0.00000000000E+00  0.56720071831E+03  0.56720071833E+03  0.50400001928E-02 0. -1.
        1   -1    0    0  501    0  0.00000000000E+00  0.00000000000E+00 -0.23044585993E+04  0.23044585993E+04  0.50400001928E-02 0.  1.
    10030    2    1    2    0    0  0.00000000000E+00  0.00000000000E+00 -0.17372578810E+04  0.28716593176E+04  0.22865612372E+04 0.  0.
        4    1    3    3  502    0 -0.41937967685E+03 -0.10622796255E+04 -0.80251108018E+03  0.13958305638E+04  0.12699999809E+01 0.  1.
       -4    1    3    3    0  502  0.41937967685E+03  0.10622796255E+04 -0.93474680079E+03  0.14758287538E+04  0.12699999809E+01 0. -1.
</event>
<event>
 5   0  0.4602447E-05  0.2262639E+04  0.7818609E-02  0.8492799E-01
        2   -1    0    0  501    0  0.00000000000E+00  0.00000000000E+00  0.11997036947E+04  0.11997036947E+04  0.25500000920E-02 0.  1.
       -2   -1    0    0    0  501  0.00000000000E+00  0.00000000000E+00 -0.10668336842E+04  0.10668336842E+04  0.25500000920E-02 0. -1.
    10030    2    1    2    0    0  0.00000000000E+00  0.00000000000E+00  0.13287001050E+03  0.22665373790E+04  0.22626394433E+04 0.  0.
        3    1    3    3  502    0 -0.76387844755E+03  0.25609198712E+03 -0.72915669992E+03  0.10866291418E+04  0.10100000352E+00 0. -1.
       -3    1    3    3    0  502  0.76387844755E+03 -0.25609198712E+03  0.86202671042E+03  0.11799082372E+04  0.10100000352E+00 0.  1.
</event>
<event>
 5   0  0.1968318E-05  0.2263806E+04  0.7818609E-02  0.8492330E-01
        1   -1    0    0  501    0  0.00000000000E+00  0.00000000000E+00  0.10115235402E+04  0.10115235402E+04  0.50400001928E-02 0.  1.
       -1   -1    0    0    0  501  0.00000000000E+00  0.00000000000E+00 -0.12666083593E+04  0.12666083593E+04  0.50400001928E-02 0. -1.
    10030    2    1    2    0    0  0.00000000000E+00  0.00000000000E+00 -0.25508481909E+03  0.22781318994E+04  0.22638057970E+04 0.  0.
        3    1    3    3  502    0  0.86265810273E+02 -0.76449372962E+03  0.70795965111E+03  0.10455139073E+04  0.10100000352E+00 0.  1.
       -3    1    3    3    0  502 -0.86265810273E+02  0.76449372962E+03 -0.96304447020E+03  0.12326179921E+04  0.10100000352E+00 0. -1.
</event>
<event>
 5   0  0.4798609E-05  0.2308663E+04  0.7818609E-02  0.8474513E-01
       -2   -1    0    0    0  501  0.00000000000E+00  0.00000000000E+00  0.81912212936E+03  0.81912212936E+03  0.25500000920E-02 0.  1.
        2   -1    0    0  501    0  0.00000000000E+00  0.00000000000E+00 -0.16267181748E+04  0.16267181748E+04  0.25500000920E-02 0. -1.
    10030    2    1    2    0    0  0.00000000000E+00  0.00000000000E+00 -0.80759604541E+03  0.24458403041E+04  0.23086626910E+04 0.  0.
        2    1    3    3  502    0  0.88264876614E+03  0.36295246617E+03 -0.10917495454E+04  0.14500760004E+04  0.25500000920E-02 0. -1.
       -2    1    3    3    0  502 -0.88264876614E+03 -0.36295246617E+03  0.28415349997E+03  0.99576430374E+03  0.25500000920E-02 0.  1.
</event>
<event>
 5   0  0.4602447E-05  0.2289744E+04  0.7818609E-02  0.8481976E-01
        2   -1    0    0  501    0  0.00000000000E+00  0.00000000000E+00  0.12625909941E+04  0.12625909941E+04  0.25500000920E-02 0.  1.
       -2   -1    0    0    0  501  0.00000000000E+00  0.00000000000E+00 -0.10381285221E+04  0.10381285221E+04  0.25500000920E-02 0. -1.
    10030    2    1    2    0    0  0.00000000000E+00  0.00000000000E+00  0.22446247198E+03  0.23007195162E+04  0.22897438483E+04 0.  0.
        3    1    3    3  502    0 -0.98670558220E+03  0.54858392955E+03 -0.78942370929E+02  0.11317085057E+04  0.10100000352E+00 0. -1.
       -3    1    3    3    0  502  0.98670558220E+03 -0.54858392955E+03  0.30340484291E+03  0.11690110105E+04  0.10100000352E+00 0.  1.
</event>
<event>
 5   0  0.4798609E-05  0.2325491E+04  0.7818609E-02  0.8467938E-01
        2   -1    0    0  501    0  0.00000000000E+00  0.00000000000E+00  0.57925832004E+03  0.57925832005E+03  0.25500000920E-02 0.  1.
       -2   -1    0    0    0  501  0.00000000000E+00  0.00000000000E+00 -0.23339802443E+04  0.23339802443E+04  0.25500000920E-02 0. -1.
    10030    2    1    2    0    0  0.00000000000E+00  0.00000000000E+00 -0.17547219243E+04  0.29132385644E+04  0.23254913247E+04 0.  0.
        2    1    3    3  502    0 -0.75848498639E+03 -0.48851922272E+03 -0.17962505908E+04  0.20100912145E+04  0.25500000920E-02 0. -1.
       -2    1    3    3    0  502  0.75848498639E+03  0.48851922272E+03  0.41528666478E+02  0.90314734993E+03  0.25500000920E-02 0.  1.
</event>
<event>
 5   0  0.4505107E-05  0.2368565E+04  0.7818609E-02  0.8451367E-01
        2   -1    0    0  501    0  0.00000000000E+00  0.00000000000E+00  0.20280945159E+04  0.20280945159E+04  0.25500000920E-02 0. -1.
       -2   -1    0    0    0  501  0.00000000000E+00  0.00000000000E+00 -0.69154815965E+03  0.69154815965E+03  0.25500000920E-02 0.  1.
    10030    2    1    2    0    0  0.00000000000E+00  0.00000000000E+00  0.13365463563E+04  0.27196426756E+04  0.23685649918E+04 0.  0.
        4    1    3    3  502    0  0.82957130260E+03  0.53254709639E+02 -0.30025805297E+03  0.88384451204E+03  0.12699999809E+01 0.  1.
       -4    1    3    3    0  502 -0.82957130260E+03 -0.53254709639E+02  0.16368044092E+04  0.18357981635E+04  0.12699999809E+01 0. -1.
</event>
<event>
 5   0  0.2043885E-05  0.2300251E+04  0.7818609E-02  0.8477822E-01
        1   -1    0    0  501    0  0.00000000000E+00  0.00000000000E+00  0.28489673903E+04  0.28489673903E+04  0.50400001928E-02 0.  1.
       -1   -1    0    0    0  501  0.00000000000E+00  0.00000000000E+00 -0.46430452783E+03  0.46430452785E+03  0.50400001928E-02 0. -1.
    10030    2    1    2    0    0  0.00000000000E+00  0.00000000000E+00  0.23846628624E+04  0.33132719181E+04  0.23002508202E+04 0.  0.
        5    1    3    3  502    0  0.36934221617E+03 -0.38576164809E+02  0.27602237884E+04  0.27850959131E+04  0.46999998093E+01 0.  1.
       -5    1    3    3    0  502 -0.36934221617E+03  0.38576164809E+02 -0.37556092598E+03  0.52817600500E+03  0.46999998093E+01 0. -1.
</event>
<event>
 5   0  0.2031860E-05  0.2252292E+04  0.7818609E-02  0.8496973E-01
       -1   -1    0    0    0  501  0.00000000000E+00  0.00000000000E+00  0.64238135934E+03  0.64238135936E+03  0.50400001928E-02 0.  1.
        1   -1    0    0  501    0  0.00000000000E+00  0.00000000000E+00 -0.19742234915E+04  0.19742234915E+04  0.50400001928E-02 0. -1.
    10030    2    1    2    0    0  0.00000000000E+00  0.00000000000E+00 -0.13318421322E+04  0.26166048509E+04  0.22522916065E+04 0.  0.
        4    1    3    3  502    0  0.77048311472E+03 -0.33725990527E+03  0.20408655495E+03  0.86547178381E+03  0.12699999809E+01 0.  1.
       -4    1    3    3    0  502 -0.77048311472E+03  0.33725990527E+03 -0.15359286871E+04  0.17511330671E+04  0.12699999809E+01 0. -1.
</event>
<event>
 5   0  0.4798609E-05  0.2292093E+04  0.7818609E-02  0.8481045E-01
       -2   -1    0    0    0  501  0.00000000000E+00  0.00000000000E+00  0.10845582413E+04  0.10845582413E+04  0.25500000920E-02 0. -1.
        2   -1    0    0  501    0  0.00000000000E+00  0.00000000000E+00 -0.12110202923E+04  0.12110202923E+04  0.25500000920E-02 0.  1.
    10030    2    1    2    0    0  0.00000000000E+00  0.00000000000E+00 -0.12646205095E+03  0.22955785336E+04  0.22920925273E+04 0.  0.
        2    1    3    3  502    0  0.11398458968E+04  0.66609235706E+02 -0.16205520612E+03  0.11532334319E+04  0.25500000920E-02 0.  1.
       -2    1    3    3    0  502 -0.11398458968E+04 -0.66609235706E+02  0.35593155176E+02  0.11423451017E+04  0.25500000920E-02 0. -1.
</event>
<event>
 5   0  0.4798609E-05  0.2293224E+04  0.7818609E-02  0.8480597E-01
        2   -1    0    0  501    0  0.00000000000E+00  0.00000000000E+00  0.22142472548E+04  0.22142472548E+04  0.25500000920E-02 0.  1.
       -2   -1    0    0    0  501  0.00000000000E+00  0.00000000000E+00 -0.59375454914E+03  0.59375454914E+03  0.25500000920E-02 0. -1.
    10030    2    1    2    0    0  0.00000000000E+00  0.00000000000E+00  0.16204927057E+04  0.28080018040E+04  0.22932242633E+04 0.  0.
        2    1    3    3  502    0 -0.10018418735E+03 -0.10882830647E+04  0.38550529720E+03  0.11588836156E+04  0.25500000920E-02 0. -1.
       -2    1    3    3    0  502  0.10018418735E+03  0.10882830647E+04  0.12349874085E+04  0.16491181884E+04  0.25500000920E-02 0.  1.
</event>
<event>
 5   0  0.1604500E-05  0.2306788E+04  0.7818609E-02  0.8475249E-01
       -3   -1    0    0    0  501  0.00000000000E+00  0.00000000000E+00  0.12494151725E+04  0.12494151766E+04  0.10100000352E+00 0. -1.
        3   -1    0    0  501    0  0.00000000000E+00  0.00000000000E+00 -0.10647523514E+04  0.10647523562E+04  0.10100000352E+00 0.  1.
    10030    2    1    2    0    0  0.00000000000E+00  0.00000000000E+00  0.18466282112E+03  0.23141675328E+04  0.23067880294E+04 0.  0.
        5    1    3    3  502    0 -0.49929093347E+03 -0.10153852987E+04  0.31664663044E+03  0.11749833699E+04  0.46999998093E+01 0. -1.
       -5    1    3    3    0  502  0.49929093347E+03  0.10153852987E+04 -0.13198380932E+03  0.11391841629E+04  0.46999998093E+01 0.  1.
</event>
<event>
 5   0  0.4602447E-05  0.2293402E+04  0.7818609E-02  0.8480527E-01
        2   -1    0    0  501    0  0.00000000000E+00  0.00000000000E+00  0.12019200167E+04  0.12019200167E+04  0.25500000920E-02 0.  1.
       -2   -1    0    0    0  501  0.00000000000E+00  0.00000000000E+00 -0.10940188982E+04  0.10940188982E+04  0.25500000920E-02 0. -1.
    10030    2    1    2    0    0  0.00000000000E+00  0.00000000000E+00  0.10790111849E+03  0.22959389149E+04  0.22934020253E+04 0.  0.
        3    1    3    3  502    0  0.23829366140E+02 -0.70210490601E+02 -0.10916166996E+04  0.10941317932E+04  0.10100000352E+00 0. -1.
       -3    1    3    3    0  502 -0.23829366140E+02  0.70210490601E+02  0.11995178181E+04  0.12018071218E+04  0.10100000352E+00 0.  1.
</event>
<event>
 5   0  0.2042951E-05  0.2315238E+04  0.7818609E-02  0.8471937E-01
        1   -1    0    0  501    0  0.00000000000E+00  0.00000000000E+00  0.85596524671E+03  0.85596524672E+03  0.50400001928E-02 0. -1.
       -1   -1    0    0    0  501  0.00000000000E+00  0.00000000000E+00 -0.15655800268E+04  0.15655800268E+04  0.50400001928E-02 0.  1.
    10030    2    1    2    0    0  0.00000000000E+00  0.00000000000E+00 -0.70961478013E+03  0.24215452736E+04  0.23152382978E+04 0.  0.
        2    1    3    3  502    0  0.25234596943E+03 -0.20302069079E+03 -0.15172274918E+04  0.15514106971E+04  0.25500000920E-02 0.  1.
       -2    1    3    3    0  502 -0.25234596943E+03  0.20302069079E+03  0.80761271165E+03  0.87013457649E+03  0.25500000920E-02 0. -1.
</event>
<event>
 5   0  0.2085063E-05  0.2343938E+04  0.7818609E-02  0.8460796E-01
       -1   -1    0    0    0  501  0.00000000000E+00  0.00000000000E+00  0.11410828784E+04  0.11410828784E+04  0.50400001928E-02 0. -1.
        1   -1    0    0  501    0  0.00000000000E+00  0.00000000000E+00 -0.12036913960E+04  0.12036913960E+04  0.50400001928E-02 0.  1.
    10030    2    1    2    0    0  0.00000000000E+00  0.00000000000E+00 -0.62608517593E+02  0.23447742744E+04  0.23439382610E+04 0.  0.
        1    1    3    3  502    0 -0.20149322256E+03  0.11537512795E+04 -0.73391929152E+02  0.11735109327E+04  0.50400001928E-02 0.  1.
       -1    1    3    3    0  502  0.20149322256E+03 -0.11537512795E+04  0.10783411559E+02  0.11712633418E+04  0.50400001928E-02 0. -1.
</event>
<event>
 5   0  0.4798609E-05  0.2268141E+04  0.7818609E-02  0.8490590E-01
       -2   -1    0    0    0  501  0.00000000000E+00  0.00000000000E+00  0.79968183935E+03  0.79968183936E+03  0.25500000920E-02 0. -1.
        2   -1    0    0  501    0  0.00000000000E+00  0.00000000000E+00 -0.16082841559E+04  0.16082841559E+04  0.25500000920E-02 0.  1.
    10030    2    1    2    0    0  0.00000000000E+00  0.00000000000E+00 -0.80860231657E+03  0.24079659953E+04  0.22681407646E+04 0.  0.
        2    1    3    3  502    0 -0.67142159700E+03 -0.63453773322E+03  0.29402611924E+03  0.96948257054E+03  0.25500000920E-02 0.  1.
       -2    1    3    3    0  502  0.67142159700E+03  0.63453773322E+03 -0.11026284358E+04  0.14384834247E+04  0.25500000920E-02 0. -1.
</event>
<event>
 5   0  0.4436695E-05  0.2294796E+04  0.7818609E-02  0.8479976E-01
       -2   -1    0    0    0  501  0.00000000000E+00  0.00000000000E+00  0.12454089993E+04  0.12454089993E+04  0.25500000920E-02 0. -1.
        2   -1    0    0  501    0  0.00000000000E+00  0.00000000000E+00 -0.10571000295E+04  0.10571000295E+04  0.25500000920E-02 0.  1.
    10030    2    1    2    0    0  0.00000000000E+00  0.00000000000E+00  0.18830896979E+03  0.23025090288E+04  0.22947957555E+04 0.  0.
        5    1    3    3  502    0  0.43397594607E+03 -0.55878199694E+03  0.10004775897E+04  0.12253774681E+04  0.46999998093E+01 0. -1.
       -5    1    3    3    0  502 -0.43397594607E+03  0.55878199694E+03 -0.81216861990E+03  0.10771315607E+04  0.46999998093E+01 0.  1.
</event>
<event>
 5   0  0.1604500E-05  0.2253769E+04  0.7818609E-02  0.8496376E-01
        4   -1    0    0  501    0  0.00000000000E+00  0.00000000000E+00  0.11809271747E+04  0.11809278576E+04  0.12699999809E+01 0. -1.
       -4   -1    0    0    0  501  0.00000000000E+00  0.00000000000E+00 -0.10753136802E+04  0.10753144302E+04  0.12699999809E+01 0.  1.
    10030    2    1    2    0    0  0.00000000000E+00  0.00000000000E+00  0.10561349448E+03  0.22562422878E+04  0.22537690767E+04 0.  0.
        5    1    3    3  502    0  0.76638440743E+02  0.62707221198E+03 -0.88135907523E+03  0.10843933415E+04  0.46999998093E+01 0.  1.
       -5    1    3    3    0  502 -0.76638440743E+02 -0.62707221198E+03  0.98697256971E+03  0.11718489463E+04  0.46999998093E+01 0. -1.
</event>
<event>
 5   0  0.2043885E-05  0.2269963E+04  0.7818609E-02  0.8489859E-01
        1   -1    0    0  501    0  0.00000000000E+00  0.00000000000E+00  0.78653678204E+03  0.78653678206E+03  0.50400001928E-02 0. -1.
       -1   -1    0    0    0  501  0.00000000000E+00  0.00000000000E+00 -0.16377905835E+04  0.16377905835E+04  0.50400001928E-02 0.  1.
    10030    2    1    2    0    0  0.00000000000E+00  0.00000000000E+00 -0.85125380143E+03  0.24243273655E+04  0.22699625858E+04 0.  0.
        5    1    3    3  502    0 -0.38557815416E+03 -0.10309922041E+04 -0.72110887987E+03  0.13159162376E+04  0.46999998093E+01 0.  1.
       -5    1    3    3    0  502  0.38557815416E+03  0.10309922041E+04 -0.13014492157E+03  0.11084111279E+04  0.46999998093E+01 0. -1.
</event>
<event>
 5   0  0.4505107E-05  0.2300303E+04  0.7818609E-02  0.8477802E-01
       -2   -1    0    0    0  501  0.00000000000E+00  0.00000000000E+00  0.10255198733E+04  0.10255198733E+04  0.25500000920E-02 0. -1.
        2   -1    0    0  501    0  0.00000000000E+00  0.00000000000E+00 -0.12899290873E+04  0.12899290873E+04  0.25500000920E-02 0.  1.
    10030    2    1    2    0    0  0.00000000000E+00  0.00000000000E+00 -0.26440921403E+03  0.23154489605E+04  0.23003025141E+04 0.  0.
        4    1    3    3  502    0 -0.66653876849E+03 -0.39509544245E+03 -0.98778486933E+03  0.12554261824E+04  0.12699999809E+01 0.  1.
       -4    1    3    3    0  502  0.66653876849E+03  0.39509544245E+03  0.72337565530E+03  0.10600227781E+04  0.12699999809E+01 0. -1.
</event>
<event>
 5   0  0.1968318E-05  0.2261391E+04  0.7818609E-02  0.8493302E-01
       -1   -1    0    0    0  501  0.00000000000E+00  0.00000000000E+00  0.91035349227E+03  0.91035349228E+03  0.50400001928E-02 0.  1.
        1   -1    0    0  501    0  0.00000000000E+00  0.00000000000E+00 -0.14043685884E+04  0.14043685884E+04  0.50400001928E-02 0. -1.
    10030    2    1    2    0    0  0.00000000000E+00  0.00000000000E+00 -0.49401509611E+03  0.23147220807E+04  0.22613905889E+04 0.  0.
        3    1    3    3  502    0 -0.58796537549E+03 -0.96082383631E+03 -0.14678982947E+03  0.11359722670E+04  0.10100000352E+00 0. -1.
       -3    1    3    3    0  502  0.58796537549E+03  0.96082383631E+03 -0.34722526664E+03  0.11787498137E+04  0.10100000352E+00 0.  1.
</event>
<event>
 5   0  0.2042951E-05  0.2409839E+04  0.7818609E-02  0.8435829E-01
       -1   -1    0    0    0  501  0.00000000000E+00  0.00000000000E+00  0.13202437933E+04  0.13202437933E+04  0.50400001928E-02 0. -1.
        1   -1    0    0  501    0  0.00000000000E+00  0.00000000000E+00 -0.10996689506E+04  0.10996689506E+04  0.50400001928E-02 0.  1.
    10030    2    1    2    0    0  0.00000000000E+00  0.00000000000E+00  0.22057484264E+03  0.24199127439E+04  0.24098390873E+04 0.  0.
        2    1    3    3  502    0  0.37524144896E+03  0.11448060858E+04  0.13144651862E+03  0.12118850219E+04  0.25500000920E-02 0.  1.
       -2    1    3    3    0  502 -0.37524144896E+03 -0.11448060858E+04  0.89128324019E+02  0.12080277220E+04  0.25500000920E-02 0. -1.
</event>
<event>
 5   0  0.4798609E-05  0.2314201E+04  0.7818609E-02  0.8472343E-01
       -2   -1    0    0    0  501  0.00000000000E+00  0.00000000000E+00  0.65946511332E+03  0.65946511332E+03  0.25500000920E-02 0.  1.
        2   -1    0    0  501    0  0.00000000000E+00  0.00000000000E+00 -0.20302544525E+04  0.20302544525E+04  0.25500000920E-02 0. -1.
    10030    2    1    2    0    0  0.00000000000E+00  0.00000000000E+00 -0.13707893392E+04  0.26897195658E+04  0.23142013591E+04 0.  0.
        2    1    3    3  502    0  0.24755366292E+03  0.94837640908E+03 -0.14001475491E+04  0.17091266157E+04  0.25500000920E-02 0. -1.
       -2    1    3    3    0  502 -0.24755366292E+03 -0.94837640908E+03  0.29358209896E+02  0.98059295012E+03  0.25500000920E-02 0.  1.
</event>
<event>
 5   0  0.4436695E-05  0.2291343E+04  0.7818609E-02  0.8481342E-01
       -2   -1    0    0    0  501  0.00000000000E+00  0.00000000000E+00  0.84213508322E+03  0.84213508322E+03  0.25500000920E-02 0.  1.
        2   -1    0    0  501    0  0.00000000000E+00  0.00000000000E+00 -0.15586142413E+04  0.15586142413E+04  0.25500000920E-02 0. -1.
    10030    2    1    2    0    0  0.00000000000E+00  0.00000000000E+00 -0.71647915809E+03  0.24007493245E+04  0.22913434782E+04 0.  0.
        5    1    3    3  502    0 -0.39740134813E+02 -0.24278997223E+03  0.81412166731E+03  0.85049540158E+03  0.46999998093E+01 0.  1.
       -5    1    3    3    0  502  0.39740134813E+02  0.24278997223E+03 -0.15306008254E+04  0.15502539230E+04  0.46999998093E+01 0. -1.
</event>
<event>
 5   0  0.2031860E-05  0.2296992E+04  0.7818609E-02  0.8479108E-01
        1   -1    0    0  501    0  0.00000000000E+00  0.00000000000E+00  0.14732276280E+04  0.14732276280E+04  0.50400001928E-02 0.  1.
       -1   -1    0    0    0  501  0.00000000000E+00  0.00000000000E+00 -0.89534269886E+03  0.89534269887E+03  0.50400001928E-02 0. -1.
    10030    2    1    2    0    0  0.00000000000E+00  0.00000000000E+00  0.57788492914E+03  0.23685703269E+04  0.22969924689E+04 0.  0.
        4    1    3    3  502    0 -0.68373164295E+03  0.91710039575E+03  0.39450385927E+03  0.12100400834E+04  0.12699999809E+01 0.  1.
       -4    1    3    3    0  502  0.68373164295E+03 -0.91710039575E+03  0.18338106987E+03  0.11585302435E+04  0.12699999809E+01 0. -1.
</event>
<event>
 5   0  0.4436695E-05  0.2303388E+04  0.7818609E-02  0.8476586E-01
       -2   -1    0    0    0  501  0.00000000000E+00  0.00000000000E+00  0.84574940139E+03  0.84574940139E+03  0.25500000920E-02 0. -1.
        2   -1    0    0  501    0  0.00000000000E+00  0.00000000000E+00 -0.15683122140E+04  0.15683122140E+04  0.25500000920E-02 0.  1.
    10030    2    1    2    0    0  0.00000000000E+00  0.00000000000E+00 -0.72256281259E+03  0.24140616154E+04  0.23033880404E+04 0.  0.
        5    1    3    3  502    0 -0.51900793682E+03 -0.12404882866E+03  0.70835414863E+03  0.88687374538E+03  0.46999998093E+01 0. -1.
       -5    1    3    3    0  502  0.51900793682E+03  0.12404882866E+03 -0.14309169612E+04  0.15271878700E+04  0.46999998093E+01 0.  1.
</event>
<event>
 5   0  0.1968318E-05  0.2330513E+04  0.7818609E-02  0.8465986E-01
       -1   -1    0    0    0  501  0.00000000000E+00  0.00000000000E+00  0.67799341435E+03  0.67799341436E+03  0.50400001928E-02 0.  1.
        1   -1    0    0  501    0  0.00000000000E+00  0.00000000000E+00 -0.20027086106E+04  0.20027086106E+04  0.50400001928E-02 0. -1.
    10030    2    1    2    0    0  0.00000000000E+00  0.00000000000E+00 -0.13247151962E+04  0.26807020250E+04  0.23305134618E+04 0.  0.
        3    1    3    3  502    0 -0.42975491732E+03  0.19589533564E+02 -0.19080180728E+04  0.19559156462E+04  0.10100000352E+00 0. -1.
       -3    1    3    3    0  502  0.42975491732E+03 -0.19589533564E+02  0.58330287657E+03  0.72478637873E+03  0.10100000352E+00 0.  1.
</event>
<event>
 5   0  0.4798609E-05  0.2332853E+04  0.7818609E-02  0.8465079E-01
        2   -1    0    0  501    0  0.00000000000E+00  0.00000000000E+00  0.11808523220E+04  0.11808523220E+04  0.25500000920E-02 0.  1.
       -2   -1    0    0    0  501  0.00000000000E+00  0.00000000000E+00 -0.11521765761E+04  0.11521765761E+04  0.25500000920E-02 0. -1.
    10030    2    1    2    0    0  0.00000000000E+00  0.00000000000E+00  0.28675745919E+02  0.23330288981E+04  0.23328526616E+04 0.  0.
        2    1    3    3  502    0  0.99235945110E+03  0.41194048471E+03  0.46833047178E+03  0.11720945670E+04  0.25500000920E-02 0. -1.
       -2    1    3    3    0  502 -0.99235945110E+03 -0.41194048471E+03 -0.43965472586E+03  0.11609343311E+04  0.25500000920E-02 0.  1.
</event>
<event>
 5   0  0.4602447E-05  0.2277371E+04  0.7818609E-02  0.8486897E-01
       -2   -1    0    0    0  501  0.00000000000E+00  0.00000000000E+00  0.70546937561E+03  0.70546937562E+03  0.25500000920E-02 0. -1.
        2   -1    0    0  501    0  0.00000000000E+00  0.00000000000E+00 -0.18379314209E+04  0.18379314209E+04  0.25500000920E-02 0.  1.
    10030    2    1    2    0    0  0.00000000000E+00  0.00000000000E+00 -0.11324620453E+04  0.25434007965E+04  0.22773707049E+04 0.  0.
        3    1    3    3  502    0  0.12056094777E+03 -0.33991191139E+03  0.63999555611E+03  0.73462192430E+03  0.10100000352E+00 0. -1.
       -3    1    3    3    0  502 -0.12056094777E+03  0.33991191139E+03 -0.17724576014E+04  0.18087788722E+04  0.10100000352E+00 0.  1.
</event>
<event>
 5   0  0.4605516E-05  0.2292411E+04  0.7818609E-02  0.8480919E-01
       -2   -1    0    0    0  501  0.00000000000E+00  0.00000000000E+00  0.73052096282E+03  0.73052096282E+03  0.25500000920E-02 0. -1.
        2   -1    0    0  501    0  0.00000000000E+00  0.00000000000E+00 -0.17984251133E+04  0.17984251133E+04  0.25500000920E-02 0.  1.
    10030    2    1    2    0    0  0.00000000000E+00  0.00000000000E+00 -0.10679041504E+04  0.25289460761E+04  0.22924111719E+04 0.  0.
        1    1    3    3  502    0 -0.17449264655E+03  0.88607611148E+03 -0.13126207440E+04  0.15932833322E+04  0.50400001928E-02 0.  1.
       -1    1    3    3    0  502  0.17449264655E+03 -0.88607611148E+03  0.24471659359E+03  0.93566274386E+03  0.50400001928E-02 0. -1.
</event>
<event>
 5   0  0.2085063E-05  0.2281615E+04  0.7818609E-02  0.8485206E-01
        1   -1    0    0  501    0  0.00000000000E+00  0.00000000000E+00  0.10868679066E+04  0.10868679066E+04  0.50400001928E-02 0. -1.
       -1   -1    0    0    0  501  0.00000000000E+00  0.00000000000E+00 -0.11974237139E+04  0.11974237139E+04  0.50400001928E-02 0.  1.
    10030    2    1    2    0    0  0.00000000000E+00  0.00000000000E+00 -0.11055580726E+03  0.22842916205E+04  0.22816146960E+04 0.  0.
        1    1    3    3  502    0  0.55038598466E+03 -0.36957868848E+03 -0.98476807702E+03  0.11871315448E+04  0.50400001928E-02 0.  1.
       -1    1    3    3    0  502 -0.55038598466E+03  0.36957868848E+03  0.87421226976E+03  0.10971600757E+04  0.50400001928E-02 0. -1.
</event>
<event>
 5   0  0.4602447E-05  0.2304586E+04  0.7818609E-02  0.8476115E-01
        2   -1    0    0  501    0  0.00000000000E+00  0.00000000000E+00  0.12447602687E+04  0.12447602687E+04  0.25500000920E-02 0. -1.
       -2   -1    0    0    0  501  0.00000000000E+00  0.00000000000E+00 -0.10666946744E+04  0.10666946744E+04  0.25500000920E-02 0.  1.
    10030    2    1    2    0    0  0.00000000000E+00  0.00000000000E+00  0.17806559432E+03  0.23114549430E+04  0.23045859927E+04 0.  0.
        3    1    3    3  502    0  0.70799120011E+03  0.43509892944E+03 -0.71160488795E+03  0.10940494251E+04  0.10100000352E+00 0.  1.
       -3    1    3    3    0  502 -0.70799120011E+03 -0.43509892944E+03  0.88967048228E+03  0.12174055179E+04  0.10100000352E+00 0. -1.
</event>
<event>
 5   0  0.2031860E-05  0.2271947E+04  0.7818609E-02  0.8489065E-01
       -1   -1    0    0    0  501  0.00000000000E+00  0.00000000000E+00  0.17119183503E+04  0.17119183503E+04  0.50400001928E-02 0. -1.
        1   -1    0    0  501    0  0.00000000000E+00  0.00000000000E+00 -0.75379485159E+03  0.75379485161E+03  0.50400001928E-02 0.  1.
    10030    2    1    2    0    0  0.00000000000E+00  0.00000000000E+00  0.95812349870E+03  0.24657132019E+04  0.22719465124E+04 0.  0.
        4    1    3    3  502    0 -0.73270157035E+03  0.59452317818E+02 -0.46085378866E+03  0.86762549335E+03  0.12699999809E+01 0.  1.
       -4    1    3    3    0  502  0.73270157035E+03 -0.59452317818E+02  0.14189772874E+04  0.15980877086E+04  0.12699999809E+01 0. -1.
</event>
<event>
 5   0  0.4436695E-05  0.2315021E+04  0.7818609E-02  0.8472022E-01
        2   -1    0    0  501    0  0.00000000000E+00  0.00000000000E+00  0.22934791153E+04  0.22934791153E+04  0.25500000920E-02 0. -1.
       -2   -1    0    0    0  501  0.00000000000E+00  0.00000000000E+00 -0.58419139888E+03  0.58419139888E+03  0.25500000920E-02 0.  1.
    10030    2    1    2    0    0  0.00000000000E+00  0.00000000000E+00  0.17092877164E+04  0.28776705142E+04  0.23150211858E+04 0.  0.
        5    1    3    3  502    0 -0.40089335543E+03  0.96214423458E+03  0.22894534093E+03  0.10671808983E+04  0.46999998093E+01 0.  1.
       -5    1    3    3    0  502  0.40089335543E+03 -0.96214423458E+03  0.14803423755E+04  0.18104896159E+04  0.46999998093E+01 0. -1.
</event>
<event>
 5   0  0.2031860E-05  0.2277436E+04  0.7818609E-02  0.8486871E-01
       -1   -1    0    0    0  501  0.00000000000E+00  0.00000000000E+00  0.10283257092E+04  0.10283257092E+04  0.50400001928E-02 0. -1.
        1   -1    0    0  501    0  0.00000000000E+00  0.00000000000E+00 -0.12609613260E+04  0.12609613260E+04  0.50400001928E-02 0.  1.
    10030    2    1    2    0    0  0.00000000000E+00  0.00000000000E+00 -0.23263561681E+03  0.22892870352E+04  0.22774362339E+04 0.  0.
        4    1    3    3  502    0  0.54051507714E+03 -0.11644684574E+03 -0.11169680090E+04  0.12463288341E+04  0.12699999809E+01 0.  1.
       -4    1    3    3    0  502 -0.54051507714E+03  0.11644684574E+03  0.88433239223E+03  0.10429582012E+04  0.12699999809E+01 0. -1.
</event>
<event>
 5   0  0.1968318E-05  0.2308491E+04  0.7818609E-02  0.8474581E-01
        1   -1    0    0  501    0  0.00000000000E+00  0.00000000000E+00  0.16054739487E+04  0.16054739487E+04  0.50400001928E-02 0. -1.
       -1   -1    0    0    0  501  0.00000000000E+00  0.00000000000E+00 -0.82983743066E+03  0.82983743068E+03  0.50400001928E-02 0.  1.
    10030    2    1    2    0    0  0.00000000000E+00  0.00000000000E+00  0.77563651800E+03  0.24353113793E+04  0.23084907421E+04 0.  0.
        3    1    3    3  502    0 -0.20537203877E+03 -0.16440244495E+03 -0.79778993789E+03  0.84004442347E+03  0.10100000352E+00 0.  1.
       -3    1    3    3    0  502  0.20537203877E+03  0.16440244495E+03  0.15734264559E+04  0.15952669559E+04  0.10100000352E+00 0. -1.
</event>
<event>
 5   0  0.4605516E-05  0.2398050E+04  0.7818609E-02  0.8440234E-01
        2   -1    0    0  501    0  0.00000000000E+00  0.00000000000E+00  0.13705370135E+04  0.13705370135E+04  0.25500000920E-02 0. -1.
       -2   -1    0    0    0  501  0.00000000000E+00  0.00000000000E+00 -0.10489761665E+04  0.10489761665E+04  0.25500000920E-02 0.  1.
    10030    2    1    2    0    0  0.00000000000E+00  0.00000000000E+00  0.32156084700E+03  0.24195131800E+04  0.23980497597E+04 0.  0.
        1    1    3    3  502    0 -0.58775900342E+03  0.83710770563E+03  0.79204052644E+03  0.12936530263E+04  0.50400001928E-02 0. -1.
       -1    1    3    3    0  502  0.58775900342E+03 -0.83710770563E+03 -0.47047967944E+03  0.11258601537E+04  0.50400001928E-02 0.  1.
</event>
<event>
 5   0  0.4505107E-05  0.1969681E+04  0.7818609E-02  0.8620929E-01
       -2   -1    0    0    0  501  0.00000000000E+00  0.00000000000E+00  0.83901042733E+03  0.83901042733E+03  0.25500000920E-02 0. -1.
        2   -1    0    0  501    0  0.00000000000E+00  0.00000000000E+00 -0.11560171679E+04  0.11560171679E+04  0.25500000920E-02 0.  1.
    10030    2    1    2    0    0  0.00000000000E+00  0.00000000000E+00 -0.31700674060E+03  0.19950275953E+04  0.19696806422E+04 0.  0.
        4    1    3    3  502    0  0.47202360760E+03  0.46924608479E+03  0.57672386681E+03  0.88068734842E+03  0.12699999809E+01 0. -1.
       -4    1    3    3    0  502 -0.47202360760E+03 -0.46924608479E+03 -0.89373060741E+03  0.11143402468E+04  0.12699999809E+01 0.  1.
</event>
<event>
 5   0  0.4602447E-05  0.2322293E+04  0.7818609E-02  0.8469183E-01
       -2   -1    0    0    0  501  0.00000000000E+00  0.00000000000E+00  0.60526132951E+03  0.60526132951E+03  0.25500000920E-02 0. -1.
        2   -1    0    0  501    0  0.00000000000E+00  0.00000000000E+00 -0.22275683165E+04  0.22275683165E+04  0.25500000920E-02 0.  1.
    10030    2    1    2    0    0  0.00000000000E+00  0.00000000000E+00 -0.16223069870E+04  0.28328296460E+04  0.23222927988E+04 0.  0.
        3    1    3    3  502    0 -0.18274233190E+02 -0.10833375512E+04 -0.30186883963E+03  0.11247573089E+04  0.10100000352E+00 0. -1.
       -3    1    3    3    0  502  0.18274233190E+02  0.10833375512E+04 -0.13204381473E+04  0.17080723370E+04  0.10100000352E+00 0.  1.
</event>
<event>
 5   0  0.2031860E-05  0.2296736E+04  0.7818609E-02  0.8479209E-01
       -1   -1    0    0    0  501  0.00000000000E+00  0.00000000000E+00  0.15226354896E+04  0.15226354896E+04  0.50400001928E-02 0.  1.
        1   -1    0    0  501    0  0.00000000000E+00  0.00000000000E+00 -0.86609667987E+03  0.86609667988E+03  0.50400001928E-02 0. -1.
    10030    2    1    2    0    0  0.00000000000E+00  0.00000000000E+00  0.65653880971E+03  0.23887321695E+04  0.22967364169E+04 0.  0.
        4    1    3    3  502    0  0.47162307695E+03  0.41895026222E+03 -0.66975008646E+03  0.92006219362E+03  0.12699999809E+01 0. -1.
       -4    1    3    3    0  502 -0.47162307695E+03 -0.41895026222E+03  0.13262888962E+04  0.14686699758E+04  0.12699999809E+01 0.  1.
</event>
<event>
 5   0  0.2042951E-05  0.2238194E+04  0.7818609E-02  0.8502697E-01
       -1   -1    0    0    0  501  0.00000000000E+00  0.00000000000E+00  0.11790933500E+04  0.11790933500E+04  0.50400001928E-02 0.  1.
        1   -1    0    0  501    0  0.00000000000E+00  0.00000000000E+00 -0.10621537978E+04  0.10621537978E+04  0.50400001928E-02 0. -1.
    10030    2    1    2    0    0  0.00000000000E+00  0.00000000000E+00  0.11693955225E+03  0.22412471478E+04  0.22381943434E+04 0.  0.
        2    1    3    3  502    0 -0.24105947600E+03  0.10416587604E+04  0.38939872689E+03  0.11378901584E+04  0.25500000920E-02 0.  1.
       -2    1    3    3    0  502  0.24105947600E+03 -0.10416587604E+04 -0.27245917463E+03  0.11033569894E+04  0.25500000920E-02 0. -1.
</event>
<event>
 5   0  0.4436695E-05  0.2287439E+04  0.7818609E-02  0.8482890E-01
        2   -1    0    0  501    0  0.00000000000E+00  0.00000000000E+00  0.14070505631E+04  0.14070505631E+04  0.25500000920E-02 0.  1.
       -2   -1    0    0    0  501  0.00000000000E+00  0.00000000000E+00 -0.92967123308E+03  0.92967123308E+03  0.25500000920E-02 0. -1.
    10030    2    1    2    0    0  0.00000000000E+00  0.00000000000E+00  0.47737933003E+03  0.23367217962E+04  0.22874391201E+04 0.  0.
        5    1    3    3  502    0  0.84778337122E+03 -0.76637228672E+03  0.19289965482E+03  0.11590062524E+04  0.46999998093E+01 0. -1.
       -5    1    3    3    0  502 -0.84778337122E+03  0.76637228672E+03  0.28447967520E+03  0.11777155437E+04  0.46999998093E+01 0.  1.
</event>
<event>
 5   0  0.2085063E-05  0.2284888E+04  0.7818609E-02  0.8483903E-01
       -1   -1    0    0    0  501  0.00000000000E+00  0.00000000000E+00  0.77050993955E+03  0.77050993956E+03  0.50400001928E-02 0. -1.
        1   -1    0    0  501    0  0.00000000000E+00  0.00000000000E+00 -0.16939156444E+04  0.16939156444E+04  0.50400001928E-02 0.  1.
    10030    2    1    2    0    0  0.00000000000E+00  0.00000000000E+00 -0.92340570487E+03  0.24644255840E+04  0.22848884794E+04 0.  0.
        1    1    3    3  502    0 -0.59671052745E+03 -0.96384095486E+03 -0.30868945952E+03  0.11748795778E+04  0.50400001928E-02 0. -1.
       -1    1    3    3    0  502  0.59671052745E+03  0.96384095486E+03 -0.61471624535E+03  0.12895460062E+04  0.50400001928E-02 0.  1.
</event>
<event>
 5   0  0.4602447E-05  0.2311127E+04  0.7818609E-02  0.8473547E-01
       -2   -1    0    0    0  501  0.00000000000E+00  0.00000000000E+00  0.95659600543E+03  0.95659600543E+03  0.25500000920E-02 0. -1.
        2   -1    0    0  501    0  0.00000000000E+00  0.00000000000E+00 -0.13959157473E+04  0.13959157473E+04  0.25500000920E-02 0.  1.
    10030    2    1    2    0    0  0.00000000000E+00  0.00000000000E+00 -0.43931974185E+03  0.23525117527E+04  0.23111273680E+04 0.  0.
        3    1    3    3  502    0 -0.16425128233E+03 -0.47505076203E+03  0.83948926805E+03  0.97846509985E+03  0.10100000352E+00 0. -1.
       -3    1    3    3    0  502  0.16425128233E+03  0.47505076203E+03 -0.12788090099E+04  0.13740466529E+04  0.10100000352E+00 0.  1.
</event>
<event>
 5   0  0.2042951E-05  0.2281308E+04  0.7818609E-02  0.8485328E-01
       -1   -1    0    0    0  501  0.00000000000E+00  0.00000000000E+00  0.59730028643E+03  0.59730028645E+03  0.50400001928E-02 0. -1.
        1   -1    0    0  501    0  0.00000000000E+00  0.00000000000E+00 -0.21782864764E+04  0.21782864764E+04  0.50400001928E-02 0.  1.
    10030    2    1    2    0    0  0.00000000000E+00  0.00000000000E+00 -0.15809861900E+04  0.27755867629E+04  0.22813076393E+04 0.  0.
        2    1    3    3  502    0  0.45382628374E+03 -0.71443310272E+03  0.13985238548E+03  0.85786458361E+03  0.25500000920E-02 0. -1.
       -2    1    3    3    0  502 -0.45382628374E+03  0.71443310272E+03 -0.17208385755E+04  0.19177221793E+04  0.25500000920E-02 0.  1.
</event>
<event>
 5   0  0.2031860E-05  0.2278397E+04  0.7818609E-02  0.8486488E-01
       -1   -1    0    0    0  501  0.00000000000E+00  0.00000000000E+00  0.12542770024E+04  0.12542770024E+04  0.50400001928E-02 0.  1.
        1   -1    0    0  501    0  0.00000000000E+00  0.00000000000E+00 -0.10346781048E+04  0.10346781048E+04  0.50400001928E-02 0. -1.
    10030    2    1    2    0    0  0.00000000000E+00  0.00000000000E+00  0.21959889761E+03  0.22889551072E+04  0.22783967624E+04 0.  0.
        4    1    3    3  502    0 -0.33125939826E+03  0.10670527277E+04 -0.11357530615E+03  0.11230473168E+04  0.12699999809E+01 0.  1.
       -4    1    3    3    0  502  0.33125939826E+03 -0.10670527277E+04  0.33317420376E+03  0.11659077904E+04  0.12699999809E+01 0. -1.
</event>
<event>
 5   0  0.1604500E-05  0.2327535E+04  0.7818609E-02  0.8467143E-01
       -3   -1    0    0    0  501  0.00000000000E+00  0.00000000000E+00  0.89352693641E+03  0.89352694212E+03  0.10100000352E+00 0. -1.
        3   -1    0    0  501    0  0.00000000000E+00  0.00000000000E+00 -0.15157402141E+04  0.15157402175E+04  0.10100000352E+00 0.  1.
    10030    2    1    2    0    0  0.00000000000E+00  0.00000000000E+00 -0.62221327770E+03  0.24092671596E+04  0.23275349371E+04 0.  0.
        4    1    3    3  502    0  0.71359253479E+02 -0.80384276381E+03 -0.11790604497E+04  0.14287898687E+04  0.12699999809E+01 0.  1.
       -4    1    3    3    0  502 -0.71359253479E+02  0.80384276381E+03  0.55684717203E+03  0.98047729085E+03  0.12699999809E+01 0. -1.
</event>
<event>
 5   0  0.4505107E-05  0.2286014E+04  0.7818609E-02  0.8483456E-01
       -2   -1    0    0    0  501  0.00000000000E+00  0.00000000000E+00  0.80480017075E+03  0.80480017075E+03  0.25500000920E-02 0. -1.
        2   -1    0    0  501    0  0.00000000000E+00  0.00000000000E+00 -0.16233407291E+04  0.16233407291E+04  0.25500000920E-02 0.  1.
    10030    2    1    2    0    0  0.00000000000E+00  0.00000000000E+00 -0.81854055838E+03  0.24281408999E+04  0.22860139072E+04 0.  0.
        4    1    3    3  502    0  0.10789454651E+04 -0.81205689468E+02 -0.17926980956E+02  0.10821463257E+04  0.12699999809E+01 0. -1.
       -4    1    3    3    0  502 -0.10789454651E+04  0.81205689468E+02 -0.80061357743E+03  0.13459945742E+04  0.12699999809E+01 0.  1.
</event>
<event>
 5   0  0.2043885E-05  0.2314574E+04  0.7818609E-02  0.8472197E-01
        1   -1    0    0  501    0  0.00000000000E+00  0.00000000000E+00  0.18173871273E+04  0.18173871274E+04  0.50400001928E-02 0.  1.
       -1   -1    0    0    0  501  0.00000000000E+00  0.00000000000E+00 -0.73694422539E+03  0.73694422541E+03  0.50400001928E-02 0. -1.
    10030    2    1    2    0    0  0.00000000000E+00  0.00000000000E+00  0.10804429020E+04  0.25543313528E+04  0.23145737826E+04 0.  0.
        5    1    3    3  502    0 -0.81339666933E+03  0.72681407281E+03  0.11363437464E+03  0.10967258998E+04  0.46999998093E+01 0.  1.
       -5    1    3    3    0  502  0.81339666933E+03 -0.72681407281E+03  0.96680852732E+03  0.14576054530E+04  0.46999998093E+01 0. -1.
</event>
<event>
 5   0  0.4798609E-05  0.2294163E+04  0.7818609E-02  0.8480226E-01
        2   -1    0    0  501    0  0.00000000000E+00  0.00000000000E+00  0.17782333368E+04  0.17782333368E+04  0.25500000920E-02 0.  1.
       -2   -1    0    0    0  501  0.00000000000E+00  0.00000000000E+00 -0.73994586313E+03  0.73994586314E+03  0.25500000920E-02 0. -1.
    10030    2    1    2    0    0  0.00000000000E+00  0.00000000000E+00  0.10382874737E+04  0.25181791999E+04  0.22941633780E+04 0.  0.
        2    1    3    3  502    0 -0.18002645792E+03  0.75756871688E+03 -0.40540817624E+03  0.87788135629E+03  0.25500000920E-02 0. -1.
       -2    1    3    3    0  502  0.18002645792E+03 -0.75756871688E+03  0.14436956499E+04  0.16402978437E+04  0.25500000920E-02 0.  1.
</event>
<event>
 5   0  0.2042951E-05  0.2298545E+04  0.7818609E-02  0.8478495E-01
        1   -1    0    0  501    0  0.00000000000E+00  0.00000000000E+00  0.15163385145E+04  0.15163385145E+04  0.50400001928E-02 0. -1.
       -1   -1    0    0    0  501  0.00000000000E+00  0.00000000000E+00 -0.87106372782E+03  0.87106372783E+03  0.50400001928E-02 0.  1.
    10030    2    1    2    0    0  0.00000000000E+00  0.00000000000E+00  0.64527478671E+03  0.23874022424E+04  0.22985451739E+04 0.  0.
        2    1    3    3  502    0  0.23482414469E+03  0.21261467410E+03  0.14700983187E+04  0.15038405651E+04  0.25500000920E-02 0. -1.
       -2    1    3    3    0  502 -0.23482414469E+03 -0.21261467410E+03 -0.82482353200E+03  0.88356167726E+03  0.25500000920E-02 0.  1.
</event>
<event>
 5   0  0.2085063E-05  0.2262776E+04  0.7818609E-02  0.8492744E-01
       -1   -1    0    0    0  501  0.00000000000E+00  0.00000000000E+00  0.88161622054E+03  0.88161622056E+03  0.50400001928E-02 0. -1.
        1   -1    0    0  501    0  0.00000000000E+00  0.00000000000E+00 -0.14519227333E+04  0.14519227333E+04  0.50400001928E-02 0.  1.
    10030    2    1    2    0    0  0.00000000000E+00  0.00000000000E+00 -0.57030651271E+03  0.23335389538E+04  0.22627758463E+04 0.  0.
        1    1    3    3  502    0 -0.44782431652E+03 -0.54511956927E+03 -0.11973118710E+04  0.13896969741E+04  0.50400001928E-02 0.  1.
       -1    1    3    3    0  502  0.44782431652E+03  0.54511956927E+03  0.62700535833E+03  0.94384197972E+03  0.50400001928E-02 0. -1.
</event>
<event>
 5   0  0.4798609E-05  0.2295588E+04  0.7818609E-02  0.8479663E-01
       -2   -1    0    0    0  501  0.00000000000E+00  0.00000000000E+00  0.62069068678E+03  0.62069068679E+03  0.25500000920E-02 0. -1.
        2   -1    0    0  501    0  0.00000000000E+00  0.00000000000E+00 -0.21225245637E+04  0.21225245637E+04  0.25500000920E-02 0.  1.
    10030    2    1    2    0    0  0.00000000000E+00  0.00000000000E+00 -0.15018338769E+04  0.27432152504E+04  0.22955881417E+04 0.  0.
        2    1    3    3  502    0  0.70409813839E+03  0.50296458970E+03  0.15025762804E+03  0.87823967216E+03  0.25500000920E-02 0. -1.
       -2    1    3    3    0  502 -0.70409813839E+03 -0.50296458970E+03 -0.16520915049E+04  0.18649755783E+04  0.25500000920E-02 0.  1.
</event>
<event>
 5   0  0.4605516E-05  0.2240911E+04  0.7818609E-02  0.8501590E-01
        2   -1    0    0  501    0  0.00000000000E+00  0.00000000000E+00  0.19913387220E+04  0.19913387220E+04  0.25500000920E-02 0. -1.
       -2   -1    0    0    0  501  0.00000000000E+00  0.00000000000E+00 -0.63044070904E+03  0.63044070904E+03  0.25500000920E-02 0.  1.
    10030    2    1    2    0    0  0.00000000000E+00  0.00000000000E+00  0.13608980130E+04  0.26217794311E+04  0.22409114180E+04 0.  0.
        1    1    3    3  502    0  0.38486623691E+03  0.15759630969E+03 -0.53679562576E+03  0.67904945402E+03  0.50400001928E-02 0.  1.
       -1    1    3    3    0  502 -0.38486623691E+03 -0.15759630969E+03  0.18976936388E+04  0.19427299771E+04  0.50400001928E-02 0. -1.
</event>
<event>
 5   0  0.2042951E-05  0.2302485E+04  0.7818609E-02  0.8476942E-01
       -1   -1    0    0    0  501  0.00000000000E+00  0.00000000000E+00  0.11968102187E+04  0.11968102187E+04  0.50400001928E-02 0.  1.
        1   -1    0    0  501    0  0.00000000000E+00  0.00000000000E+00 -0.11074095866E+04  0.11074095866E+04  0.50400001928E-02 0. -1.
    10030    2    1    2    0    0  0.00000000000E+00  0.00000000000E+00  0.89400632064E+02  0.23042198054E+04  0.23024848400E+04 0.  0.
        2    1    3    3  502    0  0.53746733814E+03  0.63175915099E+03  0.84365541176E+03  0.11831082868E+04  0.25500000920E-02 0. -1.
       -2    1    3    3    0  502 -0.53746733814E+03 -0.63175915099E+03 -0.75425477969E+03  0.11211115186E+04  0.25500000920E-02 0.  1.
</event>
<event>
 5   0  0.2085063E-05  0.2291969E+04  0.7818609E-02  0.8481094E-01
       -1   -1    0    0    0  501  0.00000000000E+00  0.00000000000E+00  0.70819514446E+03  0.70819514448E+03  0.50400001928E-02 0. -1.
        1   -1    0    0  501    0  0.00000000000E+00  0.00000000000E+00 -0.18544043560E+04  0.18544043560E+04  0.50400001928E-02 0.  1.
    10030    2    1    2    0    0  0.00000000000E+00  0.00000000000E+00 -0.11462092115E+04  0.25625995005E+04  0.22919687265E+04 0.  0.
        1    1    3    3  502    0 -0.27079455728E+03  0.28746040710E+03 -0.17759178813E+04  0.18192986283E+04  0.50400001928E-02 0.  1.
       -1    1    3    3    0  502  0.27079455728E+03 -0.28746040710E+03  0.62970866971E+03  0.74330087221E+03  0.50400001928E-02 0. -1.
</event>
<event>
 5   0  0.2031860E-05  0.2324021E+04  0.7818609E-02  0.8468510E-01
        1   -1    0    0  501    0  0.00000000000E+00  0.00000000000E+00  0.16922178707E+04  0.16922178707E+04  0.50400001928E-02 0.  1.
       -1   -1    0    0    0  501  0.00000000000E+00  0.00000000000E+00 -0.79792814964E+03  0.79792814966E+03  0.50400001928E-02 0. -1.
    10030    2    1    2    0    0  0.00000000000E+00  0.00000000000E+00  0.89428972104E+03  0.24901460203E+04  0.23240208901E+04 0.  0.
        4    1    3    3  502    0 -0.73611422761E+03  0.89062935037E+03  0.57916718007E+03  0.12924863756E+04  0.12699999809E+01 0.  1.
       -4    1    3    3    0  502  0.73611422761E+03 -0.89062935037E+03  0.31512254097E+03  0.11976596447E+04  0.12699999809E+01 0. -1.
</event>
<event>
 5   0  0.4505107E-05  0.2287830E+04  0.7818609E-02  0.8482735E-01
       -2   -1    0    0    0  501  0.00000000000E+00  0.00000000000E+00  0.85990425984E+03  0.85990425984E+03  0.25500000920E-02 0.  1.
        2   -1    0    0  501    0  0.00000000000E+00  0.00000000000E+00 -0.15217291780E+04  0.15217291780E+04  0.25500000920E-02 0. -1.
    10030    2    1    2    0    0  0.00000000000E+00  0.00000000000E+00 -0.66182491814E+03  0.23816334378E+04  0.22878298909E+04 0.  0.
        4    1    3    3  502    0  0.79027926909E+03 -0.76878950734E+03 -0.64830882945E+03  0.12790170370E+04  0.12699999809E+01 0. -1.
       -4    1    3    3    0  502 -0.79027926909E+03  0.76878950734E+03 -0.13516088691E+02  0.11026164008E+04  0.12699999809E+01 0.  1.
</event>
<event>
 5   0  0.1968318E-05  0.2290727E+04  0.7818609E-02  0.8481586E-01
       -1   -1    0    0    0  501  0.00000000000E+00  0.00000000000E+00  0.86071783666E+03  0.86071783668E+03  0.50400001928E-02 0. -1.
        1   -1    0    0  501    0  0.00000000000E+00  0.00000000000E+00 -0.15241432038E+04  0.15241432038E+04  0.50400001928E-02 0.  1.
    10030    2    1    2    0    0  0.00000000000E+00  0.00000000000E+00 -0.66342536716E+03  0.23848610405E+04  0.22907267329E+04 0.  0.
        3    1    3    3  502    0  0.79182213405E+03  0.56059345605E+03 -0.96550695928E+03  0.13687406670E+04  0.10100000352E+00 0.  1.
       -3    1    3    3    0  502 -0.79182213405E+03 -0.56059345605E+03  0.30208159212E+03  0.10161203735E+04  0.10100000352E+00 0. -1.
</event>
<event>
 5   0  0.2085063E-05  0.2317371E+04  0.7818609E-02  0.8471103E-01
       -1   -1    0    0    0  501  0.00000000000E+00  0.00000000000E+00  0.31918538880E+04  0.31918538880E+04  0.50400001928E-02 0.  1.
        1   -1    0    0  501    0  0.00000000000E+00  0.00000000000E+00 -0.42061818278E+03  0.42061818281E+03  0.50400001928E-02 0. -1.
    10030    2    1    2    0    0  0.00000000000E+00  0.00000000000E+00  0.27712357052E+04  0.36124720708E+04  0.23173707361E+04 0.  0.
        1    1    3    3  502    0 -0.59277108989E+03  0.40364671001E+03 -0.33073792565E+02  0.71791511148E+03  0.50400001928E-02 0. -1.
       -1    1    3    3    0  502  0.59277108989E+03 -0.40364671001E+03  0.28043094978E+04  0.28945569594E+04  0.50400001928E-02 0.  1.
</event>
<event>
 5   0  0.2085063E-05  0.2298049E+04  0.7818609E-02  0.8478691E-01
        1   -1    0    0  501    0  0.00000000000E+00  0.00000000000E+00  0.16937237837E+04  0.16937237837E+04  0.50400001928E-02 0. -1.
       -1   -1    0    0    0  501  0.00000000000E+00  0.00000000000E+00 -0.77949972474E+03  0.77949972476E+03  0.50400001928E-02 0.  1.
    10030    2    1    2    0    0  0.00000000000E+00  0.00000000000E+00  0.91422405895E+03  0.24732235085E+04  0.22980489318E+04 0.  0.
        1    1    3    3  502    0 -0.89851964175E+03  0.41294702243E+03 -0.17263690551E+03  0.10038258271E+04  0.50400001928E-02 0.  1.
       -1    1    3    3    0  502  0.89851964175E+03 -0.41294702243E+03  0.10868609645E+04  0.14693976814E+04  0.50400001928E-02 0. -1.
</event>
<event>
 5   0  0.4505107E-05  0.2314022E+04  0.7818609E-02  0.8472413E-01
        2   -1    0    0  501    0  0.00000000000E+00  0.00000000000E+00  0.83732355371E+03  0.83732355372E+03  0.25500000920E-02 0.  1.
       -2   -1    0    0    0  501  0.00000000000E+00  0.00000000000E+00 -0.15987537362E+04  0.15987537362E+04  0.25500000920E-02 0. -1.
    10030    2    1    2    0    0  0.00000000000E+00  0.00000000000E+00 -0.76143018247E+03  0.24360772899E+04  0.23140217457E+04 0.  0.
        4    1    3    3  502    0  0.31714458948E+03  0.34014452003E+03 -0.14960266695E+04  0.15666449482E+04  0.12699999809E+01 0. -1.
       -4    1    3    3    0  502 -0.31714458948E+03 -0.34014452003E+03  0.73459648700E+03  0.86943234168E+03  0.12699999809E+01 0.  1.
</event>
<event>
 5   0  0.4602447E-05  0.2309941E+04  0.7818609E-02  0.8474012E-01
       -2   -1    0    0    0  501  0.00000000000E+00  0.00000000000E+00  0.70688131625E+03  0.70688131626E+03  0.25500000920E-02 0.  1.
        2   -1    0    0  501    0  0.00000000000E+00  0.00000000000E+00 -0.18871019579E+04  0.18871019579E+04  0.25500000920E-02 0. -1.
    10030    2    1    2    0    0  0.00000000000E+00  0.00000000000E+00 -0.11802206416E+04  0.25939832741E+04  0.23099412251E+04 0.  0.
        3    1    3    3  502    0 -0.11383595145E+04  0.39872287041E+02 -0.80466695870E+03  0.13946114542E+04  0.10100000352E+00 0. -1.
       -3    1    3    3    0  502  0.11383595145E+04 -0.39872287041E+02 -0.37555368294E+03  0.11993718200E+04  0.10100000352E+00 0.  1.
</event>
<event>
 5   0  0.4436695E-05  0.2192557E+04  0.7818609E-02  0.8521532E-01
        2   -1    0    0  501    0  0.00000000000E+00  0.00000000000E+00  0.20826835919E+04  0.20826835919E+04  0.25500000920E-02 0.  1.
       -2   -1    0    0    0  501  0.00000000000E+00  0.00000000000E+00 -0.57705673242E+03  0.57705673243E+03  0.25500000920E-02 0. -1.
    10030    2    1    2    0    0  0.00000000000E+00  0.00000000000E+00  0.15056268595E+04  0.26597403244E+04  0.21925570353E+04 0.  0.
        5    1    3    3  502    0  0.44804685354E+03  0.59841905561E+03 -0.21988452352E+03  0.77924491834E+03  0.46999998093E+01 0. -1.
       -5    1    3    3    0  502 -0.44804685354E+03 -0.59841905561E+03  0.17255113830E+04  0.18804954060E+04  0.46999998093E+01 0.  1.
</event>
<event>
 5   0  0.4602447E-05  0.2270347E+04  0.7818609E-02  0.8489705E-01
       -2   -1    0    0    0  501  0.00000000000E+00  0.00000000000E+00  0.71720739937E+03  0.71720739938E+03  0.25500000920E-02 0.  1.
        2   -1    0    0  501    0  0.00000000000E+00  0.00000000000E+00 -0.17967175425E+04  0.17967175425E+04  0.25500000920E-02 0. -1.
    10030    2    1    2    0    0  0.00000000000E+00  0.00000000000E+00 -0.10795101431E+04  0.25139249419E+04  0.22703472123E+04 0.  0.
        3    1    3    3  502    0  0.57119970489E+03  0.47618563289E+03  0.40993101127E+03  0.84915564182E+03  0.10100000352E+00 0.  1.
       -3    1    3    3    0  502 -0.57119970489E+03 -0.47618563289E+03 -0.14894411544E+04  0.16647693001E+04  0.10100000352E+00 0. -1.
</event>
<event>
 5   0  0.2043885E-05  0.2337868E+04  0.7818609E-02  0.8463138E-01
        1   -1    0    0  501    0  0.00000000000E+00  0.00000000000E+00  0.20120347560E+04  0.20120347560E+04  0.50400001928E-02 0.  1.
       -1   -1    0    0    0  501  0.00000000000E+00  0.00000000000E+00 -0.67911693003E+03  0.67911693005E+03  0.50400001928E-02 0. -1.
    10030    2    1    2    0    0  0.00000000000E+00  0.00000000000E+00  0.13329178259E+04  0.26911516860E+04  0.23378681457E+04 0.  0.
        5    1    3    3  502    0 -0.87423670646E+03  0.73612631176E+03  0.94892306303E+03  0.14854793285E+04  0.46999998093E+01 0.  1.
       -5    1    3    3    0  502  0.87423670646E+03 -0.73612631176E+03  0.38399476290E+03  0.12056723575E+04  0.46999998093E+01 0. -1.
</event>
<event>
 5   0  0.4436695E-05  0.2268319E+04  0.7818609E-02  0.8490518E-01
        2   -1    0    0  501    0  0.00000000000E+00  0.00000000000E+00  0.20298958926E+04  0.20298958926E+04  0.25500000920E-02 0. -1.
       -2   -1    0    0    0  501  0.00000000000E+00  0.00000000000E+00 -0.63368635867E+03  0.63368635867E+03  0.25500000920E-02 0.  1.
    10030    2    1    2    0    0  0.00000000000E+00  0.00000000000E+00  0.13962095339E+04  0.26635822512E+04  0.22683186166E+04 0.  0.
        5    1    3    3  502    0 -0.44444743916E+03 -0.97996103326E+03  0.11189369847E+04  0.15523850098E+04  0.46999998093E+01 0. -1.
       -5    1    3    3    0  502  0.44444743916E+03  0.97996103326E+03  0.27727254920E+03  0.11111972415E+04  0.46999998093E+01 0.  1.
</event>
<event>
 5   0  0.4798609E-05  0.2345569E+04  0.7818609E-02  0.8460167E-01
       -2   -1    0    0    0  501  0.00000000000E+00  0.00000000000E+00  0.97776286832E+03  0.97776286833E+03  0.25500000920E-02 0. -1.
        2   -1    0    0  501    0  0.00000000000E+00  0.00000000000E+00 -0.14067050528E+04  0.14067050528E+04  0.25500000920E-02 0.  1.
    10030    2    1    2    0    0  0.00000000000E+00  0.00000000000E+00 -0.42894218447E+03  0.23844679211E+04  0.23455694126E+04 0.  0.
        2    1    3    3  502    0  0.46511405344E+03  0.16490169186E+03  0.86708061018E+03  0.99767351135E+03  0.25500000920E-02 0. -1.
       -2    1    3    3    0  502 -0.46511405344E+03 -0.16490169186E+03 -0.12960227947E+04  0.13867944098E+04  0.25500000920E-02 0.  1.
</event>
<event>
 5   0  0.4436695E-05  0.2316541E+04  0.7818609E-02  0.8471428E-01
        2   -1    0    0  501    0  0.00000000000E+00  0.00000000000E+00  0.13133900654E+04  0.13133900654E+04  0.25500000920E-02 0.  1.
       -2   -1    0    0    0  501  0.00000000000E+00  0.00000000000E+00 -0.10214710829E+04  0.10214710830E+04  0.25500000920E-02 0. -1.
    10030    2    1    2    0    0  0.00000000000E+00  0.00000000000E+00  0.29191898240E+03  0.23348611483E+04  0.23165405003E+04 0.  0.
        5    1    3    3  502    0 -0.26807283322E+03 -0.65637999454E+03  0.10691015316E+04  0.12828475810E+04  0.46999998093E+01 0.  1.
       -5    1    3    3    0  502  0.26807283322E+03  0.65637999454E+03 -0.77718254917E+03  0.10520135673E+04  0.46999998093E+01 0. -1.
</event>
<event>
 5   0  0.2085063E-05  0.2307222E+04  0.7818609E-02  0.8475079E-01
        1   -1    0    0  501    0  0.00000000000E+00  0.00000000000E+00  0.16653149604E+04  0.16653149604E+04  0.50400001928E-02 0. -1.
       -1   -1    0    0    0  501  0.00000000000E+00  0.00000000000E+00 -0.79913934288E+03  0.79913934289E+03  0.50400001928E-02 0.  1.
    10030    2    1    2    0    0  0.00000000000E+00  0.00000000000E+00  0.86617561751E+03  0.24644543033E+04  0.23072223154E+04 0.  0.
        1    1    3    3  502    0 -0.62463779342E+02 -0.69402508548E+03 -0.54893806274E+03  0.88707696382E+03  0.50400001928E-02 0.  1.
       -1    1    3    3    0  502  0.62463779342E+02  0.69402508548E+03  0.14151136803E+04  0.15773773395E+04  0.50400001928E-02 0. -1.
</event>
<event>
 5   0  0.4798609E-05  0.2317672E+04  0.7818609E-02  0.8470986E-01
        2   -1    0    0  501    0  0.00000000000E+00  0.00000000000E+00  0.16331567888E+04  0.16331567889E+04  0.25500000920E-02 0. -1.
       -2   -1    0    0    0  501  0.00000000000E+00  0.00000000000E+00 -0.82227320780E+03  0.82227320781E+03  0.25500000920E-02 0.  1.
    10030    2    1    2    0    0  0.00000000000E+00  0.00000000000E+00  0.81088358105E+03  0.24554299967E+04  0.23176721698E+04 0.  0.
        2    1    3    3  502    0  0.63929179492E+03  0.71981714218E+03  0.10888165556E+04  0.14533933428E+04  0.25500000920E-02 0. -1.
       -2    1    3    3    0  502 -0.63929179492E+03 -0.71981714218E+03 -0.27793297457E+03  0.10020366538E+04  0.25500000920E-02 0.  1.
</event>
<event>
 5   0  0.2043885E-05  0.2313776E+04  0.7818609E-02  0.8472509E-01
        1   -1    0    0  501    0  0.00000000000E+00  0.00000000000E+00  0.95904630011E+03  0.95904630013E+03  0.50400001928E-02 0. -1.
       -1   -1    0    0    0  501  0.00000000000E+00  0.00000000000E+00 -0.13955421157E+04  0.13955421157E+04  0.50400001928E-02 0.  1.
    10030    2    1    2    0    0  0.00000000000E+00  0.00000000000E+00 -0.43649581561E+03  0.23545884159E+04  0.23137757046E+04 0.  0.
        5    1    3    3  502    0  0.85517201592E+03 -0.13643968117E+03  0.56237636931E+03  0.10325813451E+04  0.46999998093E+01 0. -1.
       -5    1    3    3    0  502 -0.85517201592E+03  0.13643968117E+03 -0.99887218492E+03  0.13220070708E+04  0.46999998093E+01 0.  1.
</event>
<event>
 5   0  0.1968318E-05  0.2220725E+04  0.7818609E-02  0.8509851E-01
       -1   -1    0    0    0  501  0.00000000000E+00  0.00000000000E+00  0.28079081122E+04  0.28079081122E+04  0.50400001928E-02 0. -1.
        1   -1    0    0  501    0  0.00000000000E+00  0.00000000000E+00 -0.43908320013E+03  0.43908320016E+03  0.50400001928E-02 0.  1.
    10030    2    1    2    0    0  0.00000000000E+00  0.00000000000E+00  0.23688249120E+04  0.32469913123E+04  0.22207253586E+04 0.  0.
        3    1    3    3  502    0 -0.59141498893E+03 -0.82486581939E+03  0.52608003646E+03  0.11432128079E+04  0.10100000352E+00 0. -1.
       -3    1    3    3    0  502  0.59141498893E+03  0.82486581939E+03  0.18427448756E+04  0.21037785044E+04  0.10100000352E+00 0.  1.
</event>
<event>
 5   0  0.4505107E-05  0.2290511E+04  0.7818609E-02  0.8481672E-01
        2   -1    0    0  501    0  0.00000000000E+00  0.00000000000E+00  0.10850417991E+04  0.10850417991E+04  0.25500000920E-02 0.  1.
       -2   -1    0    0    0  501  0.00000000000E+00  0.00000000000E+00 -0.12088112034E+04  0.12088112034E+04  0.25500000920E-02 0. -1.
    10030    2    1    2    0    0  0.00000000000E+00  0.00000000000E+00 -0.12376940433E+03  0.22938530024E+04  0.22905114563E+04 0.  0.
        4    1    3    3  502    0 -0.85720105714E+03  0.44686488713E+03 -0.67688742403E+03  0.11801101972E+04  0.12699999809E+01 0. -1.
       -4    1    3    3    0  502  0.85720105714E+03 -0.44686488713E+03  0.55311801970E+03  0.11137428053E+04  0.12699999809E+01 0.  1.
</event>
<event>
 5   0  0.2043885E-05  0.2251117E+04  0.7818609E-02  0.8497448E-01
       -1   -1    0    0    0  501  0.00000000000E+00  0.00000000000E+00  0.47729984705E+03  0.47729984708E+03  0.50400001928E-02 0. -1.
        1   -1    0    0  501    0  0.00000000000E+00  0.00000000000E+00 -0.26542681017E+04  0.26542681018E+04  0.50400001928E-02 0.  1.
    10030    2    1    2    0    0  0.00000000000E+00  0.00000000000E+00 -0.21769682547E+04  0.31315679488E+04  0.22511168420E+04 0.  0.
        5    1    3    3  502    0 -0.10957118527E+04 -0.22970972263E+03 -0.12501691341E+04  0.16781823425E+04  0.46999998093E+01 0.  1.
       -5    1    3    3    0  502  0.10957118527E+04  0.22970972263E+03 -0.92679912062E+03  0.14533856064E+04  0.46999998093E+01 0. -1.
</event>
<event>
 5   0  0.2085063E-05  0.2287299E+04  0.7818609E-02  0.8482946E-01
       -1   -1    0    0    0  501  0.00000000000E+00  0.00000000000E+00  0.14971915378E+04  0.14971915378E+04  0.50400001928E-02 0.  1.
        1   -1    0    0  501    0  0.00000000000E+00  0.00000000000E+00 -0.87359178007E+03  0.87359178008E+03  0.50400001928E-02 0. -1.
    10030    2    1    2    0    0  0.00000000000E+00  0.00000000000E+00  0.62359975775E+03  0.23707833179E+04  0.22872990366E+04 0.  0.
        1    1    3    3  502    0 -0.17996416412E+03 -0.81845098831E+03  0.11184632939E+04  0.13975726315E+04  0.50400001928E-02 0.  1.
       -1    1    3    3    0  502  0.17996416412E+03  0.81845098831E+03 -0.49486353615E+03  0.97321068637E+03  0.50400001928E-02 0. -1.
</event>
<event>
 5   0  0.1968318E-05  0.2320929E+04  0.7818609E-02  0.8469714E-01
       -1   -1    0    0    0  501  0.00000000000E+00  0.00000000000E+00  0.94796345848E+03  0.94796345850E+03  0.50400001928E-02 0. -1.
        1   -1    0    0  501    0  0.00000000000E+00  0.00000000000E+00 -0.14206015587E+04  0.14206015587E+04  0.50400001928E-02 0.  1.
    10030    2    1    2    0    0  0.00000000000E+00  0.00000000000E+00 -0.47263810022E+03  0.23685650172E+04  0.23209294403E+04 0.  0.
        3    1    3    3  502    0  0.75828322265E+03 -0.52947064998E+03 -0.95166639804E+03  0.13270273389E+04  0.10100000352E+00 0.  1.
       -3    1    3    3    0  502 -0.75828322265E+03  0.52947064998E+03  0.47902829782E+03  0.10415376783E+04  0.10100000352E+00 0. -1.
</event>
<event>
 5   0  0.4436695E-05  0.2297004E+04  0.7818609E-02  0.8479103E-01
       -2   -1    0    0    0  501  0.00000000000E+00  0.00000000000E+00  0.10076384510E+04  0.10076384510E+04  0.25500000920E-02 0. -1.
        2   -1    0    0  501    0  0.00000000000E+00  0.00000000000E+00 -0.13090575446E+04  0.13090575446E+04  0.25500000920E-02 0.  1.
    10030    2    1    2    0    0  0.00000000000E+00  0.00000000000E+00 -0.30141909359E+03  0.23166959955E+04  0.22970038889E+04 0.  0.
        5    1    3    3  502    0 -0.24038243888E+03  0.10868464676E+04 -0.43600498517E+03  0.11954670210E+04  0.46999998093E+01 0.  1.
       -5    1    3    3    0  502  0.24038243888E+03 -0.10868464676E+04  0.13458589159E+03  0.11212289745E+04  0.46999998093E+01 0. -1.
</event>
<event>
 5   0  0.2031860E-05  0.2329630E+04  0.7818609E-02  0.8466329E-01
       -1   -1    0    0    0  501  0.00000000000E+00  0.00000000000E+00  0.61712523213E+03  0.61712523215E+03  0.50400001928E-02 0. -1.
        1   -1    0    0  501    0  0.00000000000E+00  0.00000000000E+00 -0.21985718691E+04  0.21985718691E+04  0.50400001928E-02 0.  1.
    10030    2    1    2    0    0  0.00000000000E+00  0.00000000000E+00 -0.15814466370E+04  0.28156971013E+04  0.23296301639E+04 0.  0.
        4    1    3    3  502    0 -0.31673031429E+03  0.62157115289E+03  0.33670637764E+03  0.77462351355E+03  0.12699999809E+01 0. -1.
       -4    1    3    3    0  502  0.31673031429E+03 -0.62157115289E+03 -0.19181530146E+04  0.20410735877E+04  0.12699999809E+01 0.  1.
</event>
<event>
 5   0  0.2043885E-05  0.2311945E+04  0.7818609E-02  0.8473226E-01
        1   -1    0    0  501    0  0.00000000000E+00  0.00000000000E+00  0.18278305993E+04  0.18278305993E+04  0.50400001928E-02 0.  1.
       -1   -1    0    0    0  501  0.00000000000E+00  0.00000000000E+00 -0.73107047321E+03  0.73107047323E+03  0.50400001928E-02 0. -1.
    10030    2    1    2    0    0  0.00000000000E+00  0.00000000000E+00  0.10967601261E+04  0.25589010725E+04  0.23119454848E+04 0.  0.
        5    1    3    3  502    0  0.63680611043E+03 -0.90584422603E+03  0.18099825457E+03  0.11219885215E+04  0.46999998093E+01 0. -1.
       -5    1    3    3    0  502 -0.63680611043E+03  0.90584422603E+03  0.91576187153E+03  0.14369125511E+04  0.46999998093E+01 0.  1.
</event>
<event>
 5   0  0.4436695E-05  0.2297781E+04  0.7818609E-02  0.8478796E-01
        2   -1    0    0  501    0  0.00000000000E+00  0.00000000000E+00  0.13993107833E+04  0.13993107833E+04  0.25500000920E-02 0.  1.
       -2   -1    0    0    0  501  0.00000000000E+00  0.00000000000E+00 -0.94328555296E+03  0.94328555297E+03  0.25500000920E-02 0. -1.
    10030    2    1    2    0    0  0.00000000000E+00  0.00000000000E+00  0.45602523032E+03  0.23425963362E+04  0.22977812306E+04 0.  0.
        5    1    3    3  502    0  0.30915154720E+03 -0.68472009941E+03 -0.65814148952E+03  0.99879357421E+03  0.46999998093E+01 0. -1.
       -5    1    3    3    0  502 -0.30915154720E+03  0.68472009941E+03  0.11141667198E+04  0.13438027620E+04  0.46999998093E+01 0.  1.
</event>
<event>
 5   0  0.2043885E-05  0.2034415E+04  0.7818609E-02  0.8590697E-01
       -1   -1    0    0    0  501  0.00000000000E+00  0.00000000000E+00  0.62908075626E+03  0.62908075628E+03  0.50400001928E-02 0.  1.
        1   -1    0    0  501    0  0.00000000000E+00  0.00000000000E+00 -0.16447989798E+04  0.16447989798E+04  0.50400001928E-02 0. -1.
    10030    2    1    2    0    0  0.00000000000E+00  0.00000000000E+00 -0.10157182235E+04  0.22738797360E+04  0.20344152832E+04 0.  0.
        5    1    3    3  502    0  0.30134081436E+03 -0.22937708771E+03  0.54733490895E+03  0.66559576870E+03  0.46999998093E+01 0.  1.
       -5    1    3    3    0  502 -0.30134081436E+03  0.22937708771E+03 -0.15630531325E+04  0.16082839673E+04  0.46999998093E+01 0. -1.
</event>
<event>
 5   0  0.4505107E-05  0.2306218E+04  0.7818609E-02  0.8475473E-01
        2   -1    0    0  501    0  0.00000000000E+00  0.00000000000E+00  0.16473045180E+04  0.16473045180E+04  0.25500000920E-02 0. -1.
       -2   -1    0    0    0  501  0.00000000000E+00  0.00000000000E+00 -0.80717367979E+03  0.80717367979E+03  0.25500000920E-02 0.  1.
    10030    2    1    2    0    0  0.00000000000E+00  0.00000000000E+00  0.84013083817E+03  0.24544781977E+04  0.23062184194E+04 0.  0.
        4    1    3    3  502    0  0.59393083113E+03 -0.85722741241E+03  0.94369738224E+03  0.14064704159E+04  0.12699999809E+01 0. -1.
       -4    1    3    3    0  502 -0.59393083113E+03  0.85722741241E+03 -0.10356654408E+03  0.10480077818E+04  0.12699999809E+01 0.  1.
</event>
<event>
 5   0  0.2031860E-05  0.2262326E+04  0.7818609E-02  0.8492925E-01
       -1   -1    0    0    0  501  0.00000000000E+00  0.00000000000E+00  0.84614474947E+03  0.84614474948E+03  0.50400001928E-02 0. -1.
        1   -1    0    0  501    0  0.00000000000E+00  0.00000000000E+00 -0.15121880285E+04  0.15121880285E+04  0.50400001928E-02 0.  1.
    10030    2    1    2    0    0  0.00000000000E+00  0.00000000000E+00 -0.66604327903E+03  0.23583327780E+04  0.22623262015E+04 0.  0.
        4    1    3    3  502    0 -0.94779387531E+03  0.18502343290E+03 -0.94707058323E+03  0.13525868561E+04  0.12699999809E+01 0.  1.
       -4    1    3    3    0  502  0.94779387531E+03 -0.18502343290E+03  0.28102730420E+03  0.10057459219E+04  0.12699999809E+01 0. -1.
</event>
<event>
 5   0  0.2042951E-05  0.2312688E+04  0.7818609E-02  0.8472935E-01
       -1   -1    0    0    0  501  0.00000000000E+00  0.00000000000E+00  0.83377408429E+03  0.83377408431E+03  0.50400001928E-02 0. -1.
        1   -1    0    0  501    0  0.00000000000E+00  0.00000000000E+00 -0.16037097637E+04  0.16037097637E+04  0.50400001928E-02 0.  1.
    10030    2    1    2    0    0  0.00000000000E+00  0.00000000000E+00 -0.76993567942E+03  0.24374838480E+04  0.23126881673E+04 0.  0.
        2    1    3    3  502    0 -0.78480688050E+03  0.84923595580E+03 -0.38196980072E+03  0.12177949240E+04  0.25500000920E-02 0. -1.
       -2    1    3    3    0  502  0.78480688050E+03 -0.84923595580E+03 -0.38796587870E+03  0.12196889240E+04  0.25500000920E-02 0.  1.
</event>
<event>
 5   0  0.1968318E-05  0.2412200E+04  0.7818609E-02  0.8434950E-01
        1   -1    0    0  501    0  0.00000000000E+00  0.00000000000E+00  0.15515802789E+04  0.15515802789E+04  0.50400001928E-02 0.  1.
       -1   -1    0    0    0  501  0.00000000000E+00  0.00000000000E+00 -0.93754526166E+03  0.93754526167E+03  0.50400001928E-02 0. -1.
    10030    2    1    2    0    0  0.00000000000E+00  0.00000000000E+00  0.61403501727E+03  0.24891255406E+04  0.24121996092E+04 0.  0.
        3    1    3    3  502    0  0.11333287402E+03  0.51594992727E+03  0.14258589140E+04  0.15205664473E+04  0.10100000352E+00 0.  1.
       -3    1    3    3    0  502 -0.11333287402E+03 -0.51594992727E+03 -0.81182389672E+03  0.96855909333E+03  0.10100000352E+00 0. -1.
</event>
<event>
 5   0  0.4602447E-05  0.2309247E+04  0.7818609E-02  0.8474284E-01
        2   -1    0    0  501    0  0.00000000000E+00  0.00000000000E+00  0.17363610974E+04  0.17363610974E+04  0.25500000920E-02 0. -1.
       -2   -1    0    0    0  501  0.00000000000E+00  0.00000000000E+00 -0.76778665159E+03  0.76778665159E+03  0.25500000920E-02 0.  1.
    10030    2    1    2    0    0  0.00000000000E+00  0.00000000000E+00  0.96857444582E+03  0.25041477490E+04  0.23092465203E+04 0.  0.
        3    1    3    3  502    0 -0.94704025318E+02  0.65523356046E+03  0.15100949922E+04  0.16488440699E+04  0.10100000352E+00 0. -1.
       -3    1    3    3    0  502  0.94704025318E+02 -0.65523356046E+03 -0.54152054637E+03  0.85530367911E+03  0.10100000352E+00 0.  1.
</event>
<event>
 5   0  0.2042951E-05  0.2361546E+04  0.7818609E-02  0.8454042E-01
       -1   -1    0    0    0  501  0.00000000000E+00  0.00000000000E+00  0.26138037828E+04  0.26138037828E+04  0.50400001928E-02 0.  1.
        1   -1    0    0  501    0  0.00000000000E+00  0.00000000000E+00 -0.53340828109E+03  0.53340828112E+03  0.50400001928E-02 0. -1.
    10030    2    1    2    0    0  0.00000000000E+00  0.00000000000E+00  0.20803955017E+04  0.31472120639E+04  0.23615457505E+04 0.  0.
        2    1    3    3  502    0 -0.90332486741E+03  0.60157060362E+03  0.16600663517E+04  0.19833565739E+04  0.25500000920E-02 0.  1.
       -2    1    3    3    0  502  0.90332486741E+03 -0.60157060362E+03  0.42032914995E+03  0.11638554900E+04  0.25500000920E-02 0. -1.
</event>
<event>
 5   0  0.2042951E-05  0.2299233E+04  0.7818609E-02  0.8478223E-01
       -1   -1    0    0    0  501  0.00000000000E+00  0.00000000000E+00  0.70692277818E+03  0.70692277819E+03  0.50400001928E-02 0.  1.
        1   -1    0    0  501    0  0.00000000000E+00  0.00000000000E+00 -0.18695375367E+04  0.18695375367E+04  0.50400001928E-02 0. -1.
    10030    2    1    2    0    0  0.00000000000E+00  0.00000000000E+00 -0.11626147586E+04  0.25764603149E+04  0.22992334979E+04 0.  0.
        2    1    3    3  502    0  0.11258778000E+04  0.50816202638E+02 -0.83544685258E+03  0.14029093166E+04  0.25500000920E-02 0.  1.
       -2    1    3    3    0  502 -0.11258778000E+04 -0.50816202638E+02 -0.32716790598E+03  0.11735509984E+04  0.25500000920E-02 0. -1.
</event>
<event>
 5   0  0.4436695E-05  0.2302018E+04  0.7818609E-02  0.8477126E-01
       -2   -1    0    0    0  501  0.00000000000E+00  0.00000000000E+00  0.18318120894E+04  0.18318120894E+04  0.25500000920E-02 0. -1.
        2   -1    0    0  501    0  0.00000000000E+00  0.00000000000E+00 -0.72323032171E+03  0.72323032172E+03  0.25500000920E-02 0.  1.
    10030    2    1    2    0    0  0.00000000000E+00  0.00000000000E+00  0.11085817677E+04  0.25550424112E+04  0.23020182856E+04 0.  0.
        5    1    3    3  502    0  0.87259066358E+03  0.57773058830E+03  0.10861387810E+04  0.15082793642E+04  0.46999998093E+01 0. -1.
       -5    1    3    3    0  502 -0.87259066358E+03 -0.57773058830E+03  0.22442986685E+02  0.10467630470E+04  0.46999998093E+01 0.  1.
</event>
<event>
 5   0  0.4505107E-05  0.2355470E+04  0.7818609E-02  0.8456366E-01
        2   -1    0    0  501    0  0.00000000000E+00  0.00000000000E+00  0.26922442566E+04  0.26922442566E+04  0.25500000920E-02 0.  1.
       -2   -1    0    0    0  501  0.00000000000E+00  0.00000000000E+00 -0.51520577092E+03  0.51520577093E+03  0.25500000920E-02 0. -1.
    10030    2    1    2    0    0  0.00000000000E+00  0.00000000000E+00  0.21770384856E+04  0.32074500275E+04  0.23554700403E+04 0.  0.
        4    1    3    3  502    0 -0.40546807034E+02  0.11064220315E+04  0.54172410146E+03  0.12325909177E+04  0.12699999809E+01 0.  1.
       -4    1    3    3    0  502  0.40546807034E+02 -0.11064220315E+04  0.16353143842E+04  0.19748591098E+04  0.12699999809E+01 0. -1.
</event>
<event>
 5   0  0.2042951E-05  0.2279250E+04  0.7818609E-02  0.8486148E-01
       -1   -1    0    0    0  501  0.00000000000E+00  0.00000000000E+00  0.12575722561E+04  0.12575722562E+04  0.50400001928E-02 0.  1.
        1   -1    0    0  501    0  0.00000000000E+00  0.00000000000E+00 -0.10327398690E+04  0.10327398690E+04  0.50400001928E-02 0. -1.
    10030    2    1    2    0    0  0.00000000000E+00  0.00000000000E+00  0.22483238714E+03  0.22903121252E+04  0.22792498828E+04 0.  0.
        2    1    3    3  502    0  0.70541681887E+03  0.22428614142E+03  0.98312495893E+03  0.12306306702E+04  0.25500000920E-02 0.  1.
       -2    1    3    3    0  502 -0.70541681887E+03 -0.22428614142E+03 -0.75829257179E+03  0.10596814550E+04  0.25500000920E-02 0. -1.
</event>
<event>
 5   0  0.1968318E-05  0.2129485E+04  0.7818609E-02  0.8548365E-01
       -1   -1    0    0    0  501  0.00000000000E+00  0.00000000000E+00  0.16523244136E+04  0.16523244136E+04  0.50400001928E-02 0.  1.
        1   -1    0    0  501    0  0.00000000000E+00  0.00000000000E+00 -0.68610996906E+03  0.68610996907E+03  0.50400001928E-02 0. -1.
    10030    2    1    2    0    0  0.00000000000E+00  0.00000000000E+00  0.96621444452E+03  0.23384343827E+04  0.21294846816E+04 0.  0.
        3    1    3    3  502    0 -0.92028754755E+03 -0.31800025389E+03  0.95622193801E+03  0.13647028016E+04  0.10100000352E+00 0.  1.
       -3    1    3    3    0  502  0.92028754755E+03  0.31800025389E+03  0.99925065124E+01  0.97373158110E+03  0.10100000352E+00 0. -1.
</event>
<event>
 5   0  0.1968318E-05  0.2282911E+04  0.7818609E-02  0.8484690E-01
       -1   -1    0    0    0  501  0.00000000000E+00  0.00000000000E+00  0.12214262509E+04  0.12214262509E+04  0.50400001928E-02 0. -1.
        1   -1    0    0  501    0  0.00000000000E+00  0.00000000000E+00 -0.10667205841E+04  0.10667205841E+04  0.50400001928E-02 0.  1.
    10030    2    1    2    0    0  0.00000000000E+00  0.00000000000E+00  0.15470566680E+03  0.22881468350E+04  0.22829108820E+04 0.  0.
        3    1    3    3  502    0 -0.81323925011E+03 -0.23113250806E+03 -0.69130908330E+03  0.10921028216E+04  0.10100000352E+00 0.  1.
       -3    1    3    3    0  502  0.81323925011E+03  0.23113250806E+03  0.84601475010E+03  0.11960440133E+04  0.10100000352E+00 0. -1.
</event>
<event>
 5   0  0.4798609E-05  0.2308961E+04  0.7818609E-02  0.8474396E-01
       -2   -1    0    0    0  501  0.00000000000E+00  0.00000000000E+00  0.15248072971E+04  0.15248072971E+04  0.25500000920E-02 0. -1.
        2   -1    0    0  501    0  0.00000000000E+00  0.00000000000E+00 -0.87409440641E+03  0.87409440642E+03  0.25500000920E-02 0.  1.
    10030    2    1    2    0    0  0.00000000000E+00  0.00000000000E+00  0.65071289070E+03  0.23989017035E+04  0.23089612637E+04 0.  0.
        2    1    3    3  502    0  0.15627220190E+03  0.69272434443E+02 -0.86087370292E+03  0.87768058178E+03  0.25500000920E-02 0.  1.
       -2    1    3    3    0  502 -0.15627220190E+03 -0.69272434443E+02  0.15115865936E+04  0.15212211218E+04  0.25500000920E-02 0. -1.
</event>
<event>
 5   0  0.2085063E-05  0.2285549E+04  0.7818609E-02  0.8483641E-01
        1   -1    0    0  501    0  0.00000000000E+00  0.00000000000E+00  0.91171544458E+03  0.91171544459E+03  0.50400001928E-02 0. -1.
       -1   -1    0    0    0  501  0.00000000000E+00  0.00000000000E+00 -0.14323912700E+04  0.14323912700E+04  0.50400001928E-02 0.  1.
    10030    2    1    2    0    0  0.00000000000E+00  0.00000000000E+00 -0.52067582540E+03  0.23441067146E+04  0.22855487250E+04 0.  0.
        1    1    3    3  502    0  0.10218123058E+04 -0.14603806970E+03 -0.76331663720E+03  0.12837756014E+04  0.50400001928E-02 0.  1.
       -1    1    3    3    0  502 -0.10218123058E+04  0.14603806970E+03  0.24264081180E+03  0.10603311132E+04  0.50400001928E-02 0. -1.
</event>
<event>
 5   0  0.4436695E-05  0.2337347E+04  0.7818609E-02  0.8463339E-01
        2   -1    0    0  501    0  0.00000000000E+00  0.00000000000E+00  0.30684623827E+04  0.30684623827E+04  0.25500000920E-02 0.  1.
       -2   -1    0    0    0  501  0.00000000000E+00  0.00000000000E+00 -0.44510835839E+03  0.44510835840E+03  0.25500000920E-02 0. -1.
    10030    2    1    2    0    0  0.00000000000E+00  0.00000000000E+00  0.26233540243E+04  0.35135707411E+04  0.23373474316E+04 0.  0.
        5    1    3    3  502    0 -0.13048934995E+03 -0.99769919977E+03  0.41811457301E+03  0.10896205990E+04  0.46999998093E+01 0. -1.
       -5    1    3    3    0  502  0.13048934995E+03  0.99769919977E+03  0.22052394513E+04  0.24239501420E+04  0.46999998093E+01 0.  1.
</event>
<event>
 5   0  0.1968318E-05  0.2293340E+04  0.7818609E-02  0.8480552E-01
        1   -1    0    0  501    0  0.00000000000E+00  0.00000000000E+00  0.12787154201E+04  0.12787154201E+04  0.50400001928E-02 0. -1.
       -1   -1    0    0    0  501  0.00000000000E+00  0.00000000000E+00 -0.10282600238E+04  0.10282600238E+04  0.50400001928E-02 0.  1.
    10030    2    1    2    0    0  0.00000000000E+00  0.00000000000E+00  0.25045539637E+03  0.23069754439E+04  0.22933398774E+04 0.  0.
        3    1    3    3  502    0 -0.76053404036E+02  0.11432466957E+04  0.79628159894E+02  0.11485372356E+04  0.10100000352E+00 0. -1.
       -3    1    3    3    0  502  0.76053404036E+02 -0.11432466957E+04  0.17082723648E+03  0.11584382083E+04  0.10100000352E+00 0.  1.
</event>
<event>
 5   0  0.4798609E-05  0.2296372E+04  0.7818609E-02  0.8479353E-01
       -2   -1    0    0    0  501  0.00000000000E+00  0.00000000000E+00  0.89850131694E+03  0.89850131694E+03  0.25500000920E-02 0. -1.
        2   -1    0    0  501    0  0.00000000000E+00  0.00000000000E+00 -0.14672554804E+04  0.14672554804E+04  0.25500000920E-02 0.  1.
    10030    2    1    2    0    0  0.00000000000E+00  0.00000000000E+00 -0.56875416344E+03  0.23657567973E+04  0.22963719049E+04 0.  0.
        2    1    3    3  502    0  0.68162528036E+03  0.91584016455E+03 -0.41036168513E+03  0.12131664941E+04  0.25500000920E-02 0.  1.
       -2    1    3    3    0  502 -0.68162528036E+03 -0.91584016455E+03 -0.15839247832E+03  0.11525903032E+04  0.25500000920E-02 0. -1.
</event>
<event>
 5   0  0.1604500E-05  0.2287835E+04  0.7818609E-02  0.8482733E-01
        3   -1    0    0  501    0  0.00000000000E+00  0.00000000000E+00  0.16091083000E+04  0.16091083031E+04  0.10100000352E+00 0. -1.
       -3   -1    0    0    0  501  0.00000000000E+00  0.00000000000E+00 -0.81321272515E+03  0.81321273142E+03  0.10100000352E+00 0.  1.
    10030    2    1    2    0    0  0.00000000000E+00  0.00000000000E+00  0.79589557481E+03  0.24223210345E+04  0.22878350964E+04 0.  0.
        5    1    3    3  502    0 -0.11422572161E+04 -0.33347367406E+02  0.45257188758E+03  0.12291082125E+04  0.46999998093E+01 0.  1.
       -5    1    3    3    0  502  0.11422572161E+04  0.33347367406E+02  0.34332368723E+03  0.11932128221E+04  0.46999998093E+01 0. -1.
</event>
<event>
 5   0  0.4436695E-05  0.2304401E+04  0.7818609E-02  0.8476188E-01
       -2   -1    0    0    0  501  0.00000000000E+00  0.00000000000E+00  0.11669824579E+04  0.11669824579E+04  0.25500000920E-02 0. -1.
        2   -1    0    0  501    0  0.00000000000E+00  0.00000000000E+00 -0.11376061514E+04  0.11376061514E+04  0.25500000920E-02 0.  1.
    10030    2    1    2    0    0  0.00000000000E+00  0.00000000000E+00  0.29376306533E+02  0.23045886093E+04  0.23044013737E+04 0.  0.
        5    1    3    3  502    0  0.11198732381E+04  0.23563106576E+03 -0.11913700905E+03  0.11505884518E+04  0.46999998093E+01 0.  1.
       -5    1    3    3    0  502 -0.11198732381E+04 -0.23563106576E+03  0.14851331559E+03  0.11540001575E+04  0.46999998093E+01 0. -1.
</event>
<event>
 5   0  0.2085063E-05  0.2321013E+04  0.7818609E-02  0.8469682E-01
       -1   -1    0    0    0  501  0.00000000000E+00  0.00000000000E+00  0.70614829136E+03  0.70614829138E+03  0.50400001928E-02 0. -1.
        1   -1    0    0  501    0  0.00000000000E+00  0.00000000000E+00 -0.19072125706E+04  0.19072125706E+04  0.50400001928E-02 0.  1.
    10030    2    1    2    0    0  0.00000000000E+00  0.00000000000E+00 -0.12010642792E+04  0.26133608620E+04  0.23210126221E+04 0.  0.
        1    1    3    3  502    0  0.32312626806E+03  0.19897684062E+03  0.63431622482E+03  0.73916130940E+03  0.50400001928E-02 0. -1.
       -1    1    3    3    0  502 -0.32312626806E+03 -0.19897684062E+03 -0.18353805041E+04  0.18741995526E+04  0.50400001928E-02 0.  1.
</event>
<event>
 5   0  0.2031860E-05  0.2296729E+04  0.7818609E-02  0.8479212E-01
        1   -1    0    0  501    0  0.00000000000E+00  0.00000000000E+00  0.15135202518E+04  0.15135202518E+04  0.50400001928E-02 0. -1.
       -1   -1    0    0    0  501  0.00000000000E+00  0.00000000000E+00 -0.87130680838E+03  0.87130680839E+03  0.50400001928E-02 0.  1.
    10030    2    1    2    0    0  0.00000000000E+00  0.00000000000E+00  0.64221344346E+03  0.23848270602E+04  0.22967285430E+04 0.  0.
        4    1    3    3  502    0 -0.90769295134E+03 -0.31510232436E+03 -0.33193966369E+03  0.10165537477E+04  0.12699999809E+01 0.  1.
       -4    1    3    3    0  502  0.90769295134E+03  0.31510232436E+03  0.97415310714E+03  0.13682733125E+04  0.12699999809E+01 0. -1.
</event>
<event>
 5   0  0.4602447E-05  0.2263526E+04  0.7818609E-02  0.8492443E-01
        2   -1    0    0  501    0  0.00000000000E+00  0.00000000000E+00  0.23714653792E+04  0.23714653792E+04  0.25500000920E-02 0.  1.
       -2   -1    0    0    0  501  0.00000000000E+00  0.00000000000E+00 -0.54012480431E+03  0.54012480432E+03  0.25500000920E-02 0. -1.
    10030    2    1    2    0    0  0.00000000000E+00  0.00000000000E+00  0.18313405749E+04  0.29115901835E+04  0.22635258107E+04 0.  0.
        3    1    3    3  502    0 -0.29521092331E+03 -0.10344742677E+04  0.13678961261E+04  0.17402374326E+04  0.10100000352E+00 0. -1.
       -3    1    3    3    0  502  0.29521092331E+03  0.10344742677E+04  0.46344444871E+03  0.11713527509E+04  0.10100000352E+00 0.  1.
</event>
<event>
 5   0  0.2043885E-05  0.2208036E+04  0.7818609E-02  0.8515091E-01
        1   -1    0    0  501    0  0.00000000000E+00  0.00000000000E+00  0.16896553915E+04  0.16896553915E+04  0.50400001928E-02 0.  1.
       -1   -1    0    0    0  501  0.00000000000E+00  0.00000000000E+00 -0.72136378853E+03  0.72136378854E+03  0.50400001928E-02 0. -1.
    10030    2    1    2    0    0  0.00000000000E+00  0.00000000000E+00  0.96829160295E+03  0.24110191800E+04  0.22080364259E+04 0.  0.
        5    1    3    3  502    0  0.60872853483E+03  0.46327203971E+03 -0.38506178399E+03  0.85642634207E+03  0.46999998093E+01 0. -1.
       -5    1    3    3    0  502 -0.60872853483E+03 -0.46327203971E+03  0.13533533869E+04  0.15545928380E+04  0.46999998093E+01 0.  1.
</event>
<event>
 5   0  0.4605516E-05  0.1866500E+04  0.7818609E-02  0.8671713E-01
        2   -1    0    0  501    0  0.00000000000E+00  0.00000000000E+00  0.89859433600E+03  0.89859433601E+03  0.25500000920E-02 0. -1.
       -2   -1    0    0    0  501  0.00000000000E+00  0.00000000000E+00 -0.96924240803E+03  0.96924240803E+03  0.25500000920E-02 0.  1.
    10030    2    1    2    0    0  0.00000000000E+00  0.00000000000E+00 -0.70648072024E+02  0.18678367440E+04  0.18665001881E+04 0.  0.
        1    1    3    3  502    0 -0.24863875301E+03 -0.82879014821E+03  0.31455670041E+03  0.92068466755E+03  0.50400001928E-02 0. -1.
       -1    1    3    3    0  502  0.24863875301E+03  0.82879014821E+03 -0.38520477243E+03  0.94715207649E+03  0.50400001928E-02 0.  1.
</event>
<event>
 5   0  0.2085063E-05  0.2293332E+04  0.7818609E-02  0.8480555E-01
       -1   -1    0    0    0  501  0.00000000000E+00  0.00000000000E+00  0.20589571219E+04  0.20589571219E+04  0.50400001928E-02 0.  1.
        1   -1    0    0  501    0  0.00000000000E+00  0.00000000000E+00 -0.63859662676E+03  0.63859662678E+03  0.50400001928E-02 0. -1.
    10030    2    1    2    0    0  0.00000000000E+00  0.00000000000E+00  0.14203604952E+04  0.26975537487E+04  0.22933321371E+04 0.  0.
        1    1    3    3  502    0 -0.17689777995E+03 -0.95657933285E+03  0.14242252204E+04  0.17247476114E+04  0.50400001928E-02 0.  1.
       -1    1    3    3    0  502  0.17689777995E+03  0.95657933285E+03 -0.38647252876E+01  0.97280613727E+03  0.50400001928E-02 0. -1.
</event>
<event>
 5   0  0.4798609E-05  0.2294842E+04  0.7818609E-02  0.8479957E-01
        2   -1    0    0  501    0  0.00000000000E+00  0.00000000000E+00  0.11048210385E+04  0.11048210385E+04  0.25500000920E-02 0. -1.
       -2   -1    0    0    0  501  0.00000000000E+00  0.00000000000E+00 -0.11916640109E+04  0.11916640109E+04  0.25500000920E-02 0.  1.
    10030    2    1    2    0    0  0.00000000000E+00  0.00000000000E+00 -0.86842972413E+02  0.22964850494E+04  0.22948424521E+04 0.  0.
        2    1    3    3  502    0 -0.25558796312E+03 -0.10973318938E+04  0.17378911907E+03  0.11400285741E+04  0.25500000920E-02 0. -1.
       -2    1    3    3    0  502  0.25558796312E+03  0.10973318938E+04 -0.26063209148E+03  0.11564564752E+04  0.25500000920E-02 0.  1.
</event>
<event>
 5   0  0.1968318E-05  0.2261443E+04  0.7818609E-02  0.8493281E-01
        1   -1    0    0  501    0  0.00000000000E+00  0.00000000000E+00  0.84590122271E+03  0.84590122272E+03  0.50400001928E-02 0. -1.
       -1   -1    0    0    0  501  0.00000000000E+00  0.00000000000E+00 -0.15114426810E+04  0.15114426811E+04  0.50400001928E-02 0.  1.
    10030    2    1    2    0    0  0.00000000000E+00  0.00000000000E+00 -0.66554145834E+03  0.23573439038E+04  0.22614430897E+04 0.  0.
        3    1    3    3  502    0  0.12368514987E+03  0.63760091110E+03 -0.12976016762E+04  0.14510696256E+04  0.10100000352E+00 0.  1.
       -3    1    3    3    0  502 -0.12368514987E+03 -0.63760091110E+03  0.63206021783E+03  0.90627427818E+03  0.10100000352E+00 0. -1.
</event>
<event>
 5   0  0.4505107E-05  0.1953793E+04  0.7818609E-02  0.8628534E-01
       -2   -1    0    0    0  501  0.00000000000E+00  0.00000000000E+00  0.49224947562E+03  0.49224947563E+03  0.25500000920E-02 0.  1.
        2   -1    0    0  501    0  0.00000000000E+00  0.00000000000E+00 -0.19387062126E+04  0.19387062126E+04  0.25500000920E-02 0. -1.
    10030    2    1    2    0    0  0.00000000000E+00  0.00000000000E+00 -0.14464567370E+04  0.24309556883E+04  0.19537933530E+04 0.  0.
        4    1    3    3  502    0 -0.84935052545E+03  0.12106789337E+03 -0.14193257028E+03  0.86959773303E+03  0.12699999809E+01 0.  1.
       -4    1    3    3    0  502  0.84935052545E+03 -0.12106789337E+03 -0.13045241667E+04  0.15613579552E+04  0.12699999809E+01 0. -1.
</event>
<event>
 5   0  0.4605516E-05  0.2354213E+04  0.7818609E-02  0.8456847E-01
        2   -1    0    0  501    0  0.00000000000E+00  0.00000000000E+00  0.15615653120E+04  0.15615653120E+04  0.25500000920E-02 0.  1.
       -2   -1    0    0    0  501  0.00000000000E+00  0.00000000000E+00 -0.88730183693E+03  0.88730183694E+03  0.25500000920E-02 0. -1.
    10030    2    1    2    0    0  0.00000000000E+00  0.00000000000E+00  0.67426347509E+03  0.24488671490E+04  0.23542130489E+04 0.  0.
        1    1    3    3  502    0  0.67818386238E+03 -0.26014204188E+03 -0.62637810613E+03  0.95914376660E+03  0.50400001928E-02 0.  1.
       -1    1    3    3    0  502 -0.67818386238E+03  0.26014204188E+03  0.13006415812E+04  0.14897233824E+04  0.50400001928E-02 0. -1.
</event>
<event>
 5   0  0.1968318E-05  0.2298599E+04  0.7818609E-02  0.8478474E-01
       -1   -1    0    0    0  501  0.00000000000E+00  0.00000000000E+00  0.10635418672E+04  0.10635418672E+04  0.50400001928E-02 0. -1.
        1   -1    0    0  501    0  0.00000000000E+00  0.00000000000E+00 -0.12419721357E+04  0.12419721357E+04  0.50400001928E-02 0.  1.
    10030    2    1    2    0    0  0.00000000000E+00  0.00000000000E+00 -0.17843026848E+03  0.23055140029E+04  0.22985990204E+04 0.  0.
        3    1    3    3  502    0 -0.53585110539E+03  0.99643149150E+03  0.11357427696E+03  0.11370625537E+04  0.10100000352E+00 0. -1.
       -3    1    3    3    0  502  0.53585110539E+03 -0.99643149150E+03 -0.29200454543E+03  0.11684514492E+04  0.10100000352E+00 0.  1.
</event>
<event>
 5   0  0.2043885E-05  0.2297049E+04  0.7818609E-02  0.8479086E-01
       -1   -1    0    0    0  501  0.00000000000E+00  0.00000000000E+00  0.47836917600E+03  0.47836917602E+03  0.50400001928E-02 0.  1.
        1   -1    0    0  501    0  0.00000000000E+00  0.00000000000E+00 -0.27575112653E+04  0.27575112653E+04  0.50400001928E-02 0. -1.
    10030    2    1    2    0    0  0.00000000000E+00  0.00000000000E+00 -0.22791420893E+04  0.32358804414E+04  0.22970488822E+04 0.  0.
        5    1    3    3  502    0 -0.15913586229E+03  0.79050653995E+03  0.12529350414E+02  0.80647621601E+03  0.46999998093E+01 0.  1.
       -5    1    3    3    0  502  0.15913586229E+03 -0.79050653995E+03 -0.22916714397E+04  0.24294042253E+04  0.46999998093E+01 0. -1.
</event>
<event>
 5   0  0.1968318E-05  0.2306471E+04  0.7818609E-02  0.8475374E-01
       -1   -1    0    0    0  501  0.00000000000E+00  0.00000000000E+00  0.12515509536E+04  0.12515509536E+04  0.50400001928E-02 0. -1.
        1   -1    0    0  501    0  0.00000000000E+00  0.00000000000E+00 -0.10626431536E+04  0.10626431536E+04  0.50400001928E-02 0.  1.
    10030    2    1    2    0    0  0.00000000000E+00  0.00000000000E+00  0.18890779993E+03  0.23141941072E+04  0.23064709426E+04 0.  0.
        3    1    3    3  502    0  0.94776633839E+03  0.11298348832E+03  0.74386591452E+03  0.12101085942E+04  0.10100000352E+00 0. -1.
       -3    1    3    3    0  502 -0.94776633839E+03 -0.11298348832E+03 -0.55495811459E+03  0.11040855130E+04  0.10100000352E+00 0.  1.
</event>
<event>
 5   0  0.2043885E-05  0.2296099E+04  0.7818609E-02  0.8479461E-01
        1   -1    0    0  501    0  0.00000000000E+00  0.00000000000E+00  0.19434383639E+04  0.19434383639E+04  0.50400001928E-02 0. -1.
       -1   -1    0    0    0  501  0.00000000000E+00  0.00000000000E+00 -0.67818831218E+03  0.67818831220E+03  0.50400001928E-02 0.  1.
    10030    2    1    2    0    0  0.00000000000E+00  0.00000000000E+00  0.12652500517E+04  0.26216266761E+04  0.22960985901E+04 0.  0.
        5    1    3    3  502    0  0.16407232782E+03 -0.32677686786E+03  0.18751632509E+04  0.19104874136E+04  0.46999998093E+01 0. -1.
       -5    1    3    3    0  502 -0.16407232782E+03  0.32677686786E+03 -0.60991319917E+03  0.71113926249E+03  0.46999998093E+01 0.  1.
</event>
<event>
 5   0  0.4798609E-05  0.2299436E+04  0.7818609E-02  0.8478144E-01
        2   -1    0    0  501    0  0.00000000000E+00  0.00000000000E+00  0.19644662008E+04  0.19644662008E+04  0.25500000920E-02 0. -1.
       -2   -1    0    0    0  501  0.00000000000E+00  0.00000000000E+00 -0.67288052432E+03  0.67288052433E+03  0.25500000920E-02 0.  1.
    10030    2    1    2    0    0  0.00000000000E+00  0.00000000000E+00  0.12915856765E+04  0.26373467252E+04  0.22994356240E+04 0.  0.
        2    1    3    3  502    0 -0.21903996900E+03 -0.88898729741E+03 -0.15179312230E+03  0.92807223585E+03  0.25500000920E-02 0.  1.
       -2    1    3    3    0  502  0.21903996900E+03  0.88898729741E+03  0.14433787988E+04  0.17092744893E+04  0.25500000920E-02 0. -1.
</event>
<event>
 5   0  0.1968318E-05  0.2297741E+04  0.7818609E-02  0.8478812E-01
        1   -1    0    0  501    0  0.00000000000E+00  0.00000000000E+00  0.20252452947E+04  0.20252452947E+04  0.50400001928E-02 0.  1.
       -1   -1    0    0    0  501  0.00000000000E+00  0.00000000000E+00 -0.65172520835E+03  0.65172520837E+03  0.50400001928E-02 0. -1.
    10030    2    1    2    0    0  0.00000000000E+00  0.00000000000E+00  0.13735200864E+04  0.26769705031E+04  0.22977409878E+04 0.  0.
        3    1    3    3  502    0 -0.85340303928E+03 -0.20806594186E+03  0.15494558044E+04  0.17811236576E+04  0.10100000352E+00 0.  1.
       -3    1    3    3    0  502  0.85340303928E+03  0.20806594186E+03 -0.17593571799E+03  0.89584684555E+03  0.10100000352E+00 0. -1.
</event>
<event>
 5   0  0.4605516E-05  0.2294698E+04  0.7818609E-02  0.8480015E-01
        2   -1    0    0  501    0  0.00000000000E+00  0.00000000000E+00  0.15848926433E+04  0.15848926433E+04  0.25500000920E-02 0. -1.
       -2   -1    0    0    0  501  0.00000000000E+00  0.00000000000E+00 -0.83059856602E+03  0.83059856603E+03  0.25500000920E-02 0.  1.
    10030    2    1    2    0    0  0.00000000000E+00  0.00000000000E+00  0.75429407730E+03  0.24154912093E+04  0.22946978510E+04 0.  0.
        1    1    3    3  502    0  0.39394532366E+02  0.11454797307E+04  0.43218526649E+03  0.12249325889E+04  0.50400001928E-02 0. -1.
       -1    1    3    3    0  502 -0.39394532366E+02 -0.11454797307E+04  0.32210881080E+03  0.11905586205E+04  0.50400001928E-02 0.  1.
</event>
<event>
 5   0  0.4505107E-05  0.2325247E+04  0.7818609E-02  0.8468033E-01
       -2   -1    0    0    0  501  0.00000000000E+00  0.00000000000E+00  0.11226791629E+04  0.11226791629E+04  0.25500000920E-02 0.  1.
        2   -1    0    0  501    0  0.00000000000E+00  0.00000000000E+00 -0.12039886927E+04  0.12039886927E+04  0.25500000920E-02 0. -1.
    10030    2    1    2    0    0  0.00000000000E+00  0.00000000000E+00 -0.81309529814E+02  0.23266678556E+04  0.23252466688E+04 0.  0.
        4    1    3    3  502    0  0.39160301745E+02 -0.90523159647E+03  0.68829144237E+03  0.11378596113E+04  0.12699999809E+01 0.  1.
       -4    1    3    3    0  502 -0.39160301745E+02  0.90523159647E+03 -0.76960097219E+03  0.11888082443E+04  0.12699999809E+01 0. -1.
</event>
<event>
 5   0  0.1968318E-05  0.2320311E+04  0.7818609E-02  0.8469955E-01
        1   -1    0    0  501    0  0.00000000000E+00  0.00000000000E+00  0.89916092416E+03  0.89916092418E+03  0.50400001928E-02 0.  1.
       -1   -1    0    0    0  501  0.00000000000E+00  0.00000000000E+00 -0.14969078678E+04  0.14969078678E+04  0.50400001928E-02 0. -1.
    10030    2    1    2    0    0  0.00000000000E+00  0.00000000000E+00 -0.59774694363E+03  0.23960687920E+04  0.23203112393E+04 0.  0.
        3    1    3    3  502    0  0.44034328105E+03 -0.56666451843E+03  0.64245355799E+03  0.96320167461E+03  0.10100000352E+00 0.  1.
       -3    1    3    3    0  502 -0.44034328105E+03  0.56666451843E+03 -0.12402005016E+04  0.14328671174E+04  0.10100000352E+00 0. -1.
</event>
<event>
 5   0  0.4602447E-05  0.2238884E+04  0.7818609E-02  0.8502416E-01
        2   -1    0    0  501    0  0.00000000000E+00  0.00000000000E+00  0.15395433359E+04  0.15395433359E+04  0.25500000920E-02 0. -1.
       -2   -1    0    0    0  501  0.00000000000E+00  0.00000000000E+00 -0.81397551265E+03  0.81397551265E+03  0.25500000920E-02 0.  1.
    10030    2    1    2    0    0  0.00000000000E+00  0.00000000000E+00  0.72556782327E+03  0.23535188486E+04  0.22388841650E+04 0.  0.
        3    1    3    3  502    0 -0.82460961257E+03  0.50199398210E+03  0.95852097478E+03  0.13604195825E+04  0.10100000352E+00 0. -1.
       -3    1    3    3    0  502  0.82460961257E+03 -0.50199398210E+03 -0.23295315151E+03  0.99309926604E+03  0.10100000352E+00 0.  1.
</event>
<event>
 5   0  0.4602447E-05  0.2274641E+04  0.7818609E-02  0.8487988E-01
       -2   -1    0    0    0  501  0.00000000000E+00  0.00000000000E+00  0.88844225291E+03  0.88844225291E+03  0.25500000920E-02 0.  1.
        2   -1    0    0  501    0  0.00000000000E+00  0.00000000000E+00 -0.14559162682E+04  0.14559162682E+04  0.25500000920E-02 0. -1.
    10030    2    1    2    0    0  0.00000000000E+00  0.00000000000E+00 -0.56747401531E+03  0.23443585211E+04  0.22746406568E+04 0.  0.
        3    1    3    3  502    0  0.24377815697E+03 -0.28809769837E+03  0.82202584072E+03  0.90451896975E+03  0.10100000352E+00 0.  1.
       -3    1    3    3    0  502 -0.24377815697E+03  0.28809769837E+03 -0.13894998560E+04  0.14398395514E+04  0.10100000352E+00 0. -1.
</event>
<event>
 5   0  0.2042951E-05  0.2296931E+04  0.7818609E-02  0.8479132E-01
        1   -1    0    0  501    0  0.00000000000E+00  0.00000000000E+00  0.16337023410E+04  0.16337023411E+04  0.50400001928E-02 0. -1.
       -1   -1    0    0    0  501  0.00000000000E+00  0.00000000000E+00 -0.80735225166E+03  0.80735225168E+03  0.50400001928E-02 0.  1.
    10030    2    1    2    0    0  0.00000000000E+00  0.00000000000E+00  0.82635008938E+03  0.24410545927E+04  0.22969312255E+04 0.  0.
        2    1    3    3  502    0  0.71825890995E+03  0.89124415733E+03  0.31370034559E+03  0.11868529465E+04  0.25500000920E-02 0.  1.
       -2    1    3    3    0  502 -0.71825890995E+03 -0.89124415733E+03  0.51264974379E+03  0.12542016463E+04  0.25500000920E-02 0. -1.
</event>
<event>
 5   0  0.2043885E-05  0.2380523E+04  0.7818609E-02  0.8446832E-01
       -1   -1    0    0    0  501  0.00000000000E+00  0.00000000000E+00  0.16092054471E+04  0.16092054471E+04  0.50400001928E-02 0.  1.
        1   -1    0    0  501    0  0.00000000000E+00  0.00000000000E+00 -0.88038639378E+03  0.88038639379E+03  0.50400001928E-02 0. -1.
    10030    2    1    2    0    0  0.00000000000E+00  0.00000000000E+00  0.72881905330E+03  0.24895918409E+04  0.23805231193E+04 0.  0.
        5    1    3    3  502    0  0.11171474066E+04 -0.88041343893E+02  0.78395152936E+03  0.13676153321E+04  0.46999998093E+01 0.  1.
       -5    1    3    3    0  502 -0.11171474066E+04  0.88041343893E+02 -0.55132476056E+02  0.11219765088E+04  0.46999998093E+01 0. -1.
</event>
<event>
 5   0  0.2085063E-05  0.2320985E+04  0.7818609E-02  0.8469693E-01
        1   -1    0    0  501    0  0.00000000000E+00  0.00000000000E+00  0.15724921809E+04  0.15724921809E+04  0.50400001928E-02 0. -1.
       -1   -1    0    0    0  501  0.00000000000E+00  0.00000000000E+00 -0.85643842236E+03  0.85643842237E+03  0.50400001928E-02 0.  1.
    10030    2    1    2    0    0  0.00000000000E+00  0.00000000000E+00  0.71605375852E+03  0.24289306033E+04  0.23209848966E+04 0.  0.
        1    1    3    3  502    0 -0.25683471483E+02  0.10387038397E+04  0.89895886751E+03  0.13739331690E+04  0.50400001928E-02 0. -1.
       -1    1    3    3    0  502  0.25683471483E+02 -0.10387038397E+04 -0.18290510900E+03  0.10549974343E+04  0.50400001928E-02 0.  1.
</event>
<event>
 5   0  0.4436695E-05  0.2297730E+04  0.7818609E-02  0.8478817E-01
        2   -1    0    0  501    0  0.00000000000E+00  0.00000000000E+00  0.15690522982E+04  0.15690522982E+04  0.25500000920E-02 0.  1.
       -2   -1    0    0    0  501  0.00000000000E+00  0.00000000000E+00 -0.84120279199E+03  0.84120279200E+03  0.25500000920E-02 0. -1.
    10030    2    1    2    0    0  0.00000000000E+00  0.00000000000E+00  0.72784950625E+03  0.24102550902E+04  0.22977303358E+04 0.  0.
        5    1    3    3  502    0 -0.75607483919E+03 -0.69805871550E+03  0.89975749325E+03  0.13669384658E+04  0.46999998093E+01 0.  1.
       -5    1    3    3    0  502  0.75607483919E+03  0.69805871550E+03 -0.17190798700E+03  0.10433166244E+04  0.46999998093E+01 0. -1.
</event>
<event>
 5   0  0.4602447E-05  0.2296099E+04  0.7818609E-02  0.8479461E-01
        2   -1    0    0  501    0  0.00000000000E+00  0.00000000000E+00  0.84767256134E+03  0.84767256134E+03  0.25500000920E-02 0. -1.
       -2   -1    0    0    0  501  0.00000000000E+00  0.00000000000E+00 -0.15548667999E+04  0.15548667999E+04  0.25500000920E-02 0.  1.
    10030    2    1    2    0    0  0.00000000000E+00  0.00000000000E+00 -0.70719423854E+03  0.24025393612E+04  0.22960992337E+04 0.  0.
        3    1    3    3  502    0 -0.86974168270E+03  0.57229171696E+03 -0.85981062132E+03  0.13502750530E+04  0.10100000352E+00 0. -1.
       -3    1    3    3    0  502  0.86974168270E+03 -0.57229171696E+03  0.15261638278E+03  0.10522643083E+04  0.10100000352E+00 0.  1.
</event>
<event>
 5   0  0.4505107E-05  0.2308644E+04  0.7818609E-02  0.8474521E-01
       -2   -1    0    0    0  501  0.00000000000E+00  0.00000000000E+00  0.83771563512E+03  0.83771563513E+03  0.25500000920E-02 0. -1.
        2   -1    0    0  501    0  0.00000000000E+00  0.00000000000E+00 -0.15905867912E+04  0.15905867912E+04  0.25500000920E-02 0.  1.
    10030    2    1    2    0    0  0.00000000000E+00  0.00000000000E+00 -0.75287115609E+03  0.24283024263E+04  0.23086441250E+04 0.  0.
        4    1    3    3  502    0 -0.81600415222E+02 -0.11446448968E+04 -0.24511570818E+03  0.11734367860E+04  0.12699999809E+01 0. -1.
       -4    1    3    3    0  502  0.81600415222E+02  0.11446448968E+04 -0.50775544790E+03  0.12548656403E+04  0.12699999809E+01 0.  1.
</event>
<event>
 5   0  0.4602447E-05  0.2310273E+04  0.7818609E-02  0.8473882E-01
        2   -1    0    0  501    0  0.00000000000E+00  0.00000000000E+00  0.14112957583E+04  0.14112957583E+04  0.25500000920E-02 0.  1.
       -2   -1    0    0    0  501  0.00000000000E+00  0.00000000000E+00 -0.94547143290E+03  0.94547143290E+03  0.25500000920E-02 0. -1.
    10030    2    1    2    0    0  0.00000000000E+00  0.00000000000E+00  0.46582432540E+03  0.23567671912E+04  0.23102725578E+04 0.  0.
        3    1    3    3  502    0 -0.49595882485E+03  0.96033621609E+03  0.64869171739E+03  0.12605640635E+04  0.10100000352E+00 0. -1.
       -3    1    3    3    0  502  0.49595882485E+03 -0.96033621609E+03 -0.18286739199E+03  0.10962031277E+04  0.10100000352E+00 0.  1.
</event>
<event>
 5   0  0.2043885E-05  0.2355534E+04  0.7818609E-02  0.8456341E-01
       -1   -1    0    0    0  501  0.00000000000E+00  0.00000000000E+00  0.17047450371E+04  0.17047450371E+04  0.50400001928E-02 0.  1.
        1   -1    0    0  501    0  0.00000000000E+00  0.00000000000E+00 -0.81369059080E+03  0.81369059081E+03  0.50400001928E-02 0. -1.
    10030    2    1    2    0    0  0.00000000000E+00  0.00000000000E+00  0.89105444634E+03  0.25184356280E+04  0.23555339067E+04 0.  0.
        5    1    3    3  502    0 -0.40608308961E+03 -0.12244452818E+01  0.16275178794E+04  0.16774210899E+04  0.46999998093E+01 0.  1.
       -5    1    3    3    0  502  0.40608308961E+03  0.12244452818E+01 -0.73646343310E+03  0.84101453806E+03  0.46999998093E+01 0. -1.
</event>
<event>
 5   0  0.2031860E-05  0.2280197E+04  0.7818609E-02  0.8485770E-01
       -1   -1    0    0    0  501  0.00000000000E+00  0.00000000000E+00  0.99602060174E+03  0.99602060175E+03  0.50400001928E-02 0.  1.
        1   -1    0    0  501    0  0.00000000000E+00  0.00000000000E+00 -0.13050173483E+04  0.13050173483E+04  0.50400001928E-02 0. -1.
    10030    2    1    2    0    0  0.00000000000E+00  0.00000000000E+00 -0.30899674652E+03  0.23010379500E+04  0.22801966271E+04 0.  0.
        4    1    3    3  502    0  0.25206561535E+03  0.78703272963E+03  0.63808787546E+03  0.10440858881E+04  0.12699999809E+01 0.  1.
       -4    1    3    3    0  502 -0.25206561535E+03 -0.78703272963E+03 -0.94708462199E+03  0.12569520620E+04  0.12699999809E+01 0. -1.
</event>
<event>
 5   0  0.2043885E-05  0.2278322E+04  0.7818609E-02  0.8486518E-01
        1   -1    0    0  501    0  0.00000000000E+00  0.00000000000E+00  0.15768351451E+04  0.15768351451E+04  0.50400001928E-02 0.  1.
       -1   -1    0    0    0  501  0.00000000000E+00  0.00000000000E+00 -0.82296991027E+03  0.82296991029E+03  0.50400001928E-02 0. -1.
    10030    2    1    2    0    0  0.00000000000E+00  0.00000000000E+00  0.75386523485E+03  0.23998050554E+04  0.22783220825E+04 0.  0.
        5    1    3    3  502    0  0.82200637419E+03  0.30981854127E+03 -0.38698586982E+03  0.95992820625E+03  0.46999998093E+01 0. -1.
       -5    1    3    3    0  502 -0.82200637419E+03 -0.30981854127E+03  0.11408511047E+04  0.14398768492E+04  0.46999998093E+01 0.  1.
</event>
<event>
 5   0  0.2031860E-05  0.2313402E+04  0.7818609E-02  0.8472655E-01
       -1   -1    0    0    0  501  0.00000000000E+00  0.00000000000E+00  0.12480224906E+04  0.12480224906E+04  0.50400001928E-02 0.  1.
        1   -1    0    0  501    0  0.00000000000E+00  0.00000000000E+00 -0.10720619724E+04  0.10720619725E+04  0.50400001928E-02 0. -1.
    10030    2    1    2    0    0  0.00000000000E+00  0.00000000000E+00  0.17596051813E+03  0.23200844630E+04  0.23134022157E+04 0.  0.
        4    1    3    3  502    0 -0.60205176746E+03 -0.53781927601E+03  0.91876907727E+03  0.12230511578E+04  0.12699999809E+01 0.  1.
       -4    1    3    3    0  502  0.60205176746E+03  0.53781927601E+03 -0.74280855915E+03  0.10970333052E+04  0.12699999809E+01 0. -1.
</event>
<event>
 5   0  0.4602447E-05  0.2294735E+04  0.7818609E-02  0.8480000E-01
        2   -1    0    0  501    0  0.00000000000E+00  0.00000000000E+00  0.26726636935E+04  0.26726636935E+04  0.25500000920E-02 0. -1.
       -2   -1    0    0    0  501  0.00000000000E+00  0.00000000000E+00 -0.49256203365E+03  0.49256203366E+03  0.25500000920E-02 0.  1.
    10030    2    1    2    0    0  0.00000000000E+00  0.00000000000E+00  0.21801016598E+04  0.31652257271E+04  0.22947354219E+04 0.  0.
        3    1    3    3  502    0 -0.62219284748E+03 -0.79245767443E+03  0.33286908608E+03  0.10610913928E+04  0.10100000352E+00 0.  1.
       -3    1    3    3    0  502  0.62219284748E+03  0.79245767443E+03  0.18472325738E+04  0.21041343343E+04  0.10100000352E+00 0. -1.
</event>
<event>
 5   0  0.1968318E-05  0.2291168E+04  0.7818609E-02  0.8481411E-01
       -1   -1    0    0    0  501  0.00000000000E+00  0.00000000000E+00  0.11499277046E+04  0.11499277046E+04  0.50400001928E-02 0. -1.
        1   -1    0    0  501    0  0.00000000000E+00  0.00000000000E+00 -0.11412569338E+04  0.11412569338E+04  0.50400001928E-02 0.  1.
    10030    2    1    2    0    0  0.00000000000E+00  0.00000000000E+00  0.86707707411E+01  0.22911846384E+04  0.22911682315E+04 0.  0.
        3    1    3    3  502    0  0.10872628940E+04 -0.23519299568E+03  0.27802806523E+03  0.11466280832E+04  0.10100000352E+00 0. -1.
       -3    1    3    3    0  502 -0.10872628940E+04  0.23519299568E+03 -0.26935729449E+03  0.11445565552E+04  0.10100000352E+00 0.  1.
</event>
<event>
 5   0  0.4436695E-05  0.2299748E+04  0.7818609E-02  0.8478021E-01
       -2   -1    0    0    0  501  0.00000000000E+00  0.00000000000E+00  0.70286079720E+03  0.70286079720E+03  0.25500000920E-02 0. -1.
        2   -1    0    0  501    0  0.00000000000E+00  0.00000000000E+00 -0.18811828551E+04  0.18811828551E+04  0.25500000920E-02 0.  1.
    10030    2    1    2    0    0  0.00000000000E+00  0.00000000000E+00 -0.11783220579E+04  0.25840436523E+04  0.22997475350E+04 0.  0.
        5    1    3    3  502    0 -0.79620626458E+02  0.10162269215E+04  0.87180937068E+01  0.10193893737E+04  0.46999998093E+01 0. -1.
       -5    1    3    3    0  502  0.79620626458E+02 -0.10162269215E+04 -0.11870401516E+04  0.15646542786E+04  0.46999998093E+01 0.  1.
</event>
<event>
 5   0  0.4602447E-05  0.2315351E+04  0.7818609E-02  0.8471893E-01
        2   -1    0    0  501    0  0.00000000000E+00  0.00000000000E+00  0.19588129625E+04  0.19588129625E+04  0.25500000920E-02 0. -1.
       -2   -1    0    0    0  501  0.00000000000E+00  0.00000000000E+00 -0.68419605422E+03  0.68419605422E+03  0.25500000920E-02 0.  1.
    10030    2    1    2    0    0  0.00000000000E+00  0.00000000000E+00  0.12746169082E+04  0.26430090167E+04  0.23153505997E+04 0.  0.
        3    1    3    3  502    0 -0.93030350691E+03  0.58954269005E+03  0.23020662095E+03  0.11251756738E+04  0.10100000352E+00 0. -1.
       -3    1    3    3    0  502  0.93030350691E+03 -0.58954269005E+03  0.10444102873E+04  0.15178333429E+04  0.10100000352E+00 0.  1.
</event>
<event>
 5   0  0.1968318E-05  0.2301296E+04  0.7818609E-02  0.8477410E-01
       -1   -1    0    0    0  501  0.00000000000E+00  0.00000000000E+00  0.61521765072E+03  0.61521765074E+03  0.50400001928E-02 0.  1.
        1   -1    0    0  501    0  0.00000000000E+00  0.00000000000E+00 -0.21520680837E+04  0.21520680837E+04  0.50400001928E-02 0. -1.
    10030    2    1    2    0    0  0.00000000000E+00  0.00000000000E+00 -0.15368504329E+04  0.27672857344E+04  0.23012955227E+04 0.  0.
        3    1    3    3  502    0 -0.98355406069E+03 -0.38269985540E+03 -0.13196755721E+04  0.16897873817E+04  0.10100000352E+00 0. -1.
       -3    1    3    3    0  502  0.98355406069E+03  0.38269985540E+03 -0.21717486080E+03  0.10774983527E+04  0.10100000352E+00 0.  1.
</event>
<event>
 5   0  0.4505107E-05  0.2332645E+04  0.7818609E-02  0.8465160E-01
       -2   -1    0    0    0  501  0.00000000000E+00  0.00000000000E+00  0.12025448721E+04  0.12025448721E+04  0.25500000920E-02 0.  1.
        2   -1    0    0  501    0  0.00000000000E+00  0.00000000000E+00 -0.11311916034E+04  0.11311916034E+04  0.25500000920E-02 0. -1.
    10030    2    1    2    0    0  0.00000000000E+00  0.00000000000E+00  0.71353268676E+02  0.23337364755E+04  0.23326454184E+04 0.  0.
        4    1    3    3  502    0 -0.24272575377E+03 -0.54075111779E+03  0.10406261726E+04  0.11975942581E+04  0.12699999809E+01 0.  1.
       -4    1    3    3    0  502  0.24272575377E+03  0.54075111779E+03 -0.96927290393E+03  0.11361422174E+04  0.12699999809E+01 0. -1.
</event>
<event>
 5   0  0.4436695E-05  0.2287137E+04  0.7818609E-02  0.8483010E-01
        2   -1    0    0  501    0  0.00000000000E+00  0.00000000000E+00  0.20393825017E+04  0.20393825017E+04  0.25500000920E-02 0.  1.
       -2   -1    0    0    0  501  0.00000000000E+00  0.00000000000E+00 -0.64124757606E+03  0.64124757607E+03  0.25500000920E-02 0. -1.
    10030    2    1    2    0    0  0.00000000000E+00  0.00000000000E+00  0.13981349256E+04  0.26806300777E+04  0.22871371501E+04 0.  0.
        5    1    3    3  502    0 -0.49563093803E+03  0.10281826951E+04  0.78125551304E+03  0.13831818202E+04  0.46999998093E+01 0. -1.
       -5    1    3    3    0  502  0.49563093803E+03 -0.10281826951E+04  0.61687941256E+03  0.12974482575E+04  0.46999998093E+01 0.  1.
</event>
<event>
 5   0  0.2042951E-05  0.2306284E+04  0.7818609E-02  0.8475448E-01
       -1   -1    0    0    0  501  0.00000000000E+00  0.00000000000E+00  0.68557773511E+03  0.68557773513E+03  0.50400001928E-02 0. -1.
        1   -1    0    0  501    0  0.00000000000E+00  0.00000000000E+00 -0.19395846710E+04  0.19395846710E+04  0.50400001928E-02 0.  1.
    10030    2    1    2    0    0  0.00000000000E+00  0.00000000000E+00 -0.12540069359E+04  0.26251624062E+04  0.23062836476E+04 0.  0.
        2    1    3    3  502    0 -0.38646316464E+03  0.80139143327E+03 -0.14620232546E+04  0.17114596121E+04  0.25500000920E-02 0.  1.
       -2    1    3    3    0  502  0.38646316464E+03 -0.80139143327E+03  0.20801631870E+03  0.91370279402E+03  0.25500000920E-02 0. -1.
</event>
<event>
 5   0  0.2031860E-05  0.2299259E+04  0.7818609E-02  0.8478213E-01
       -1   -1    0    0    0  501  0.00000000000E+00  0.00000000000E+00  0.11617283083E+04  0.11617283084E+04  0.50400001928E-02 0. -1.
        1   -1    0    0  501    0  0.00000000000E+00  0.00000000000E+00 -0.11376568326E+04  0.11376568326E+04  0.50400001928E-02 0.  1.
    10030    2    1    2    0    0  0.00000000000E+00  0.00000000000E+00  0.24071475717E+02  0.22993851410E+04  0.22992591395E+04 0.  0.
        4    1    3    3  502    0  0.86174217166E+03 -0.18579145475E+03  0.74999792024E+03  0.11574180439E+04  0.12699999809E+01 0. -1.
       -4    1    3    3    0  502 -0.86174217166E+03  0.18579145475E+03 -0.72592644453E+03  0.11419670971E+04  0.12699999809E+01 0.  1.
</event>
<event>
 5   0  0.1968318E-05  0.2298716E+04  0.7818609E-02  0.8478428E-01
       -1   -1    0    0    0  501  0.00000000000E+00  0.00000000000E+00  0.73127683498E+03  0.73127683500E+03  0.50400001928E-02 0. -1.
        1   -1    0    0  501    0  0.00000000000E+00  0.00000000000E+00 -0.18064618683E+04  0.18064618684E+04  0.50400001928E-02 0.  1.
    10030    2    1    2    0    0  0.00000000000E+00  0.00000000000E+00 -0.10751850334E+04  0.25377387034E+04  0.22987159178E+04 0.  0.
        3    1    3    3  502    0  0.14419155792E+03  0.68300500522E+03 -0.15456285354E+04  0.16959524233E+04  0.10100000352E+00 0.  1.
       -3    1    3    3    0  502 -0.14419155792E+03 -0.68300500522E+03  0.47044350200E+03  0.84178628006E+03  0.10100000352E+00 0. -1.
</event>
<event>
 5   0  0.2043885E-05  0.2290631E+04  0.7818609E-02  0.8481624E-01
       -1   -1    0    0    0  501  0.00000000000E+00  0.00000000000E+00  0.15835268162E+04  0.15835268162E+04  0.50400001928E-02 0. -1.
        1   -1    0    0  501    0  0.00000000000E+00  0.00000000000E+00 -0.82837115806E+03  0.82837115807E+03  0.50400001928E-02 0.  1.
    10030    2    1    2    0    0  0.00000000000E+00  0.00000000000E+00  0.75515565816E+03  0.24118979743E+04  0.22906313039E+04 0.  0.
        5    1    3    3  502    0 -0.19490486006E+03 -0.75563012079E+03 -0.50511091496E+03  0.92958265385E+03  0.46999998093E+01 0.  1.
       -5    1    3    3    0  502  0.19490486006E+03  0.75563012079E+03  0.12602665731E+04  0.14823153205E+04  0.46999998093E+01 0. -1.
</event>
<event>
 5   0  0.4602447E-05  0.2292343E+04  0.7818609E-02  0.8480946E-01
        2   -1    0    0  501    0  0.00000000000E+00  0.00000000000E+00  0.93099112349E+03  0.93099112349E+03  0.25500000920E-02 0.  1.
       -2   -1    0    0    0  501  0.00000000000E+00  0.00000000000E+00 -0.14110869176E+04  0.14110869176E+04  0.25500000920E-02 0. -1.
    10030    2    1    2    0    0  0.00000000000E+00  0.00000000000E+00 -0.48009579412E+03  0.23420780411E+04  0.22923432507E+04 0.  0.
        3    1    3    3  502    0  0.45899389249E+03 -0.73267180421E+03  0.52875785601E+03  0.10134437560E+04  0.10100000352E+00 0.  1.
       -3    1    3    3    0  502 -0.45899389249E+03  0.73267180421E+03 -0.10088536501E+04  0.13286342851E+04  0.10100000352E+00 0. -1.
</event>
<event>
 5   0  0.2085063E-05  0.2148187E+04  0.7818609E-02  0.8540309E-01
       -1   -1    0    0    0  501  0.00000000000E+00  0.00000000000E+00  0.90390960182E+03  0.90390960183E+03  0.50400001928E-02 0.  1.
        1   -1    0    0  501    0  0.00000000000E+00  0.00000000000E+00 -0.12763193372E+04  0.12763193372E+04  0.50400001928E-02 0. -1.
    10030    2    1    2    0    0  0.00000000000E+00  0.00000000000E+00 -0.37240973542E+03  0.21802289391E+04  0.21481874257E+04 0.  0.
        1    1    3    3  502    0  0.63081791419E+02  0.10270074717E+04  0.12653680103E+03  0.10366943722E+04  0.50400001928E-02 0.  1.
       -1    1    3    3    0  502 -0.63081791419E+02 -0.10270074717E+04 -0.49894653645E+03  0.11435345669E+04  0.50400001928E-02 0. -1.
</event>
<event>
 5   0  0.4605516E-05  0.2288253E+04  0.7818609E-02  0.8482567E-01
       -2   -1    0    0    0  501  0.00000000000E+00  0.00000000000E+00  0.62613542760E+03  0.62613542760E+03  0.25500000920E-02 0.  1.
        2   -1    0    0  501    0  0.00000000000E+00  0.00000000000E+00 -0.20906435017E+04  0.20906435017E+04  0.25500000920E-02 0. -1.
    10030    2    1    2    0    0  0.00000000000E+00  0.00000000000E+00 -0.14645080741E+04  0.27167789293E+04  0.22882534500E+04 0.  0.
        1    1    3    3  502    0 -0.95619979117E+03 -0.18319601442E+03 -0.18756848836E+02  0.97377134879E+03  0.50400001928E-02 0.  1.
       -1    1    3    3    0  502  0.95619979117E+03  0.18319601442E+03 -0.14457512253E+04  0.17430075805E+04  0.50400001928E-02 0. -1.
</event>
<event>
 5   0  0.1968318E-05  0.2304381E+04  0.7818609E-02  0.8476196E-01
       -1   -1    0    0    0  501  0.00000000000E+00  0.00000000000E+00  0.16260113497E+04  0.16260113497E+04  0.50400001928E-02 0. -1.
        1   -1    0    0  501    0  0.00000000000E+00  0.00000000000E+00 -0.81644151289E+03  0.81644151291E+03  0.50400001928E-02 0.  1.
    10030    2    1    2    0    0  0.00000000000E+00  0.00000000000E+00  0.80956983684E+03  0.24424528626E+04  0.23043811893E+04 0.  0.
        3    1    3    3  502    0  0.99328713774E+03  0.37653521963E+03  0.87777999888E+03  0.13780042983E+04  0.10100000352E+00 0. -1.
       -3    1    3    3    0  502 -0.99328713774E+03 -0.37653521963E+03 -0.68210162045E+02  0.10644485643E+04  0.10100000352E+00 0.  1.
</event>
<event>
 5   0  0.2042951E-05  0.2300363E+04  0.7818609E-02  0.8477778E-01
        1   -1    0    0  501    0  0.00000000000E+00  0.00000000000E+00  0.19614578506E+04  0.19614578506E+04  0.50400001928E-02 0.  1.
       -1   -1    0    0    0  501  0.00000000000E+00  0.00000000000E+00 -0.67445596520E+03  0.67445596521E+03  0.50400001928E-02 0. -1.
    10030    2    1    2    0    0  0.00000000000E+00  0.00000000000E+00  0.12870018854E+04  0.26359138158E+04  0.23003625347E+04 0.  0.
        2    1    3    3  502    0  0.83905951556E+03  0.71136204786E+03  0.25855019900E+03  0.11300022297E+04  0.25500000920E-02 0. -1.
       -2    1    3    3    0  502 -0.83905951556E+03 -0.71136204786E+03  0.10284516864E+04  0.15059115860E+04  0.25500000920E-02 0.  1.
</event>
<event>
 5   0  0.2043885E-05  0.2292414E+04  0.7818609E-02  0.8480918E-01
       -1   -1    0    0    0  501  0.00000000000E+00  0.00000000000E+00  0.40923050829E+03  0.40923050832E+03  0.50400001928E-02 0.  1.
        1   -1    0    0  501    0  0.00000000000E+00  0.00000000000E+00 -0.32103917853E+04  0.32103917853E+04  0.50400001928E-02 0. -1.
    10030    2    1    2    0    0  0.00000000000E+00  0.00000000000E+00 -0.28011612771E+04  0.36196222937E+04  0.22924138040E+04 0.  0.
        5    1    3    3  502    0 -0.10741916855E+03 -0.11376593627E+04 -0.15414574655E+04  0.19188332162E+04  0.46999998093E+01 0.  1.
       -5    1    3    3    0  502  0.10741916855E+03  0.11376593627E+04 -0.12597038115E+04  0.17007890775E+04  0.46999998093E+01 0. -1.
</event>
<event>
 5   0  0.4436695E-05  0.2283859E+04  0.7818609E-02  0.8484313E-01
       -2   -1    0    0    0  501  0.00000000000E+00  0.00000000000E+00  0.85637809768E+03  0.85637809769E+03  0.25500000920E-02 0. -1.
        2   -1    0    0  501    0  0.00000000000E+00  0.00000000000E+00 -0.15226951337E+04  0.15226951337E+04  0.25500000920E-02 0.  1.
    10030    2    1    2    0    0  0.00000000000E+00  0.00000000000E+00 -0.66631703605E+03  0.23790732314E+04  0.22838588065E+04 0.  0.
        5    1    3    3  502    0 -0.10563652163E+04 -0.13911028812E+03  0.94723279020E+02  0.10696979630E+04  0.46999998093E+01 0. -1.
       -5    1    3    3    0  502  0.10563652163E+04  0.13911028812E+03 -0.76104031507E+03  0.13093752684E+04  0.46999998093E+01 0.  1.
</event>
<event>
 5   0  0.4436695E-05  0.2323724E+04  0.7818609E-02  0.8468626E-01
        2   -1    0    0  501    0  0.00000000000E+00  0.00000000000E+00  0.24317584826E+04  0.24317584826E+04  0.25500000920E-02 0. -1.
       -2   -1    0    0    0  501  0.00000000000E+00  0.00000000000E+00 -0.55512206425E+03  0.55512206426E+03  0.25500000920E-02 0.  1.
    10030    2    1    2    0    0  0.00000000000E+00  0.00000000000E+00  0.18766364184E+04  0.29868805469E+04  0.23237235538E+04 0.  0.
        5    1    3    3  502    0 -0.58761305325E+03 -0.59637517472E+03  0.19737903692E+04  0.21440202800E+04  0.46999998093E+01 0. -1.
       -5    1    3    3    0  502  0.58761305325E+03  0.59637517472E+03 -0.97153950836E+02  0.84286026691E+03  0.46999998093E+01 0.  1.
</event>
<event>
 5   0  0.4436695E-05  0.2316264E+04  0.7818609E-02  0.8471536E-01
        2   -1    0    0  501    0  0.00000000000E+00  0.00000000000E+00  0.85147848513E+03  0.85147848513E+03  0.25500000920E-02 0.  1.
       -2   -1    0    0    0  501  0.00000000000E+00  0.00000000000E+00 -0.15752245202E+04  0.15752245202E+04  0.25500000920E-02 0. -1.
    10030    2    1    2    0    0  0.00000000000E+00  0.00000000000E+00 -0.72374603503E+03  0.24267030053E+04  0.23162640507E+04 0.  0.
        5    1    3    3  502    0  0.11458148264E+04  0.67161026976E+02 -0.52365553101E+03  0.12616019282E+04  0.46999998093E+01 0. -1.
       -5    1    3    3    0  502 -0.11458148264E+04 -0.67161026976E+02 -0.20009050401E+03  0.11651010771E+04  0.46999998093E+01 0.  1.
</event>
<event>
 5   0  0.2031860E-05  0.2282199E+04  0.7818609E-02  0.8484973E-01
        1   -1    0    0  501    0  0.00000000000E+00  0.00000000000E+00  0.93758589388E+03  0.93758589389E+03  0.50400001928E-02 0. -1.
       -1   -1    0    0    0  501  0.00000000000E+00  0.00000000000E+00 -0.13887875982E+04  0.13887875982E+04  0.50400001928E-02 0.  1.
    10030    2    1    2    0    0  0.00000000000E+00  0.00000000000E+00 -0.45120170430E+03  0.23263734921E+04  0.22821986431E+04 0.  0.
        4    1    3    3  502    0  0.10817384537E+04  0.25284879474E+03 -0.49144664812E+03  0.12147477171E+04  0.12699999809E+01 0.  1.
       -4    1    3    3    0  502 -0.10817384537E+04 -0.25284879474E+03  0.40244943824E+02  0.11116257750E+04  0.12699999809E+01 0. -1.
</event>
<event>
 5   0  0.4798609E-05  0.2294975E+04  0.7818609E-02  0.8479905E-01
       -2   -1    0    0    0  501  0.00000000000E+00  0.00000000000E+00  0.87570976197E+03  0.87570976197E+03  0.25500000920E-02 0. -1.
        2   -1    0    0  501    0  0.00000000000E+00  0.00000000000E+00 -0.15036124271E+04  0.15036124271E+04  0.25500000920E-02 0.  1.
    10030    2    1    2    0    0  0.00000000000E+00  0.00000000000E+00 -0.62790266515E+03  0.23793221891E+04  0.22949754514E+04 0.  0.
        2    1    3    3  502    0  0.84022381613E+03 -0.49867702865E+03  0.30988896477E+03  0.10250297608E+04  0.25500000920E-02 0. -1.
       -2    1    3    3    0  502 -0.84022381613E+03  0.49867702865E+03 -0.93779162992E+03  0.13542924283E+04  0.25500000920E-02 0.  1.
</event>
<event>
 5   0  0.4602447E-05  0.2327365E+04  0.7818609E-02  0.8467209E-01
       -2   -1    0    0    0  501  0.00000000000E+00  0.00000000000E+00  0.10985444820E+04  0.10985444820E+04  0.25500000920E-02 0. -1.
        2   -1    0    0  501    0  0.00000000000E+00  0.00000000000E+00 -0.12326826399E+04  0.12326826399E+04  0.25500000920E-02 0.  1.
    10030    2    1    2    0    0  0.00000000000E+00  0.00000000000E+00 -0.13413815793E+03  0.23312271219E+04  0.23273647863E+04 0.  0.
        3    1    3    3  502    0  0.35057865390E+03 -0.43898995281E+03 -0.10878476877E+04  0.12243488772E+04  0.10100000352E+00 0.  1.
       -3    1    3    3    0  502 -0.35057865390E+03  0.43898995281E+03  0.95370952976E+03  0.11068782447E+04  0.10100000352E+00 0. -1.
</event>
<event>
 5   0  0.1968318E-05  0.2066414E+04  0.7818609E-02  0.8576184E-01
        1   -1    0    0  501    0  0.00000000000E+00  0.00000000000E+00  0.71159252299E+03  0.71159252301E+03  0.50400001928E-02 0. -1.
       -1   -1    0    0    0  501  0.00000000000E+00  0.00000000000E+00 -0.15001794117E+04  0.15001794117E+04  0.50400001928E-02 0.  1.
    10030    2    1    2    0    0  0.00000000000E+00  0.00000000000E+00 -0.78858688870E+03  0.22117719347E+04  0.20664137558E+04 0.  0.
        3    1    3    3  502    0 -0.97804017857E+02 -0.90407233058E+03 -0.91931183234E+03  0.12930764324E+04  0.10100000352E+00 0.  1.
       -3    1    3    3    0  502  0.97804017857E+02  0.90407233058E+03  0.13072494364E+03  0.91869550228E+03  0.10100000352E+00 0. -1.
</event>
<event>
 5   0  0.4602447E-05  0.2305860E+04  0.7818609E-02  0.8475614E-01
       -2   -1    0    0    0  501  0.00000000000E+00  0.00000000000E+00  0.30723866013E+04  0.30723866013E+04  0.25500000920E-02 0. -1.
        2   -1    0    0  501    0  0.00000000000E+00  0.00000000000E+00 -0.43264334561E+03  0.43264334561E+03  0.25500000920E-02 0.  1.
    10030    2    1    2    0    0  0.00000000000E+00  0.00000000000E+00  0.26397432556E+04  0.35050299469E+04  0.23058600289E+04 0.  0.
        3    1    3    3  502    0  0.84722106611E+03 -0.68906166605E+03  0.75794906494E+03  0.13293142253E+04  0.10100000352E+00 0.  1.
       -3    1    3    3    0  502 -0.84722106611E+03  0.68906166605E+03  0.18817941907E+04  0.21757157215E+04  0.10100000352E+00 0. -1.
</event>
<event>
 5   0  0.2031860E-05  0.2242752E+04  0.7818609E-02  0.8500842E-01
       -1   -1    0    0    0  501  0.00000000000E+00  0.00000000000E+00  0.68804992713E+03  0.68804992715E+03  0.50400001928E-02 0.  1.
        1   -1    0    0  501    0  0.00000000000E+00  0.00000000000E+00 -0.18276051615E+04  0.18276051615E+04  0.50400001928E-02 0. -1.
    10030    2    1    2    0    0  0.00000000000E+00  0.00000000000E+00 -0.11395552344E+04  0.25156550887E+04  0.22427515228E+04 0.  0.
        4    1    3    3  502    0  0.10960589029E+04  0.22999525343E+03 -0.63361554308E+03  0.12867451980E+04  0.12699999809E+01 0. -1.
       -4    1    3    3    0  502 -0.10960589029E+04 -0.22999525343E+03 -0.50593969130E+03  0.12289098907E+04  0.12699999809E+01 0.  1.
</event>
<event>
 5   0  0.4436695E-05  0.2321813E+04  0.7818609E-02  0.8469370E-01
        2   -1    0    0  501    0  0.00000000000E+00  0.00000000000E+00  0.23826819632E+04  0.23826819632E+04  0.25500000920E-02 0.  1.
       -2   -1    0    0    0  501  0.00000000000E+00  0.00000000000E+00 -0.56562468239E+03  0.56562468240E+03  0.25500000920E-02 0. -1.
    10030    2    1    2    0    0  0.00000000000E+00  0.00000000000E+00  0.18170572808E+04  0.29483066456E+04  0.23218128509E+04 0.  0.
        5    1    3    3  502    0  0.29803787675E+03  0.85501021623E+03  0.18310688718E+04  0.20427198411E+04  0.46999998093E+01 0.  1.
       -5    1    3    3    0  502 -0.29803787675E+03 -0.85501021623E+03 -0.14011591011E+02  0.90558680452E+03  0.46999998093E+01 0. -1.
</event>
<event>
 5   0  0.1968318E-05  0.2285139E+04  0.7818609E-02  0.8483804E-01
        1   -1    0    0  501    0  0.00000000000E+00  0.00000000000E+00  0.17125427749E+04  0.17125427749E+04  0.50400001928E-02 0.  1.
       -1   -1    0    0    0  501  0.00000000000E+00  0.00000000000E+00 -0.76229604180E+03  0.76229604182E+03  0.50400001928E-02 0. -1.
    10030    2    1    2    0    0  0.00000000000E+00  0.00000000000E+00  0.95024673305E+03  0.24748388167E+04  0.22851385767E+04 0.  0.
        3    1    3    3  502    0  0.35146441617E+03 -0.37589073361E+03 -0.62968095114E+03  0.81321534040E+03  0.10100000352E+00 0. -1.
       -3    1    3    3    0  502 -0.35146441617E+03  0.37589073361E+03  0.15799276842E+04  0.16616234763E+04  0.10100000352E+00 0.  1.
</event>
<event>
 5   0  0.4798609E-05  0.2317343E+04  0.7818609E-02  0.8471114E-01
       -2   -1    0    0    0  501  0.00000000000E+00  0.00000000000E+00  0.72936338873E+03  0.72936338874E+03  0.25500000920E-02 0.  1.
        2   -1    0    0  501    0  0.00000000000E+00  0.00000000000E+00 -0.18406732444E+04  0.18406732444E+04  0.25500000920E-02 0. -1.
    10030    2    1    2    0    0  0.00000000000E+00  0.00000000000E+00 -0.11113098557E+04  0.25700366332E+04  0.23173430261E+04 0.  0.
        2    1    3    3  502    0  0.72548254643E+03 -0.76797045431E+03 -0.10833738555E+04  0.15132093228E+04  0.25500000920E-02 0.  1.
       -2    1    3    3    0  502 -0.72548254643E+03  0.76797045431E+03 -0.27936000236E+02  0.10568273104E+04  0.25500000920E-02 0. -1.
</event>
<event>
 5   0  0.2043885E-05  0.2243821E+04  0.7818609E-02  0.8500407E-01
       -1   -1    0    0    0  501  0.00000000000E+00  0.00000000000E+00  0.12408179429E+04  0.12408179430E+04  0.50400001928E-02 0. -1.
        1   -1    0    0  501    0  0.00000000000E+00  0.00000000000E+00 -0.10143980951E+04  0.10143980951E+04  0.50400001928E-02 0.  1.
    10030    2    1    2    0    0  0.00000000000E+00  0.00000000000E+00  0.22641984781E+03  0.22552160381E+04  0.22438211673E+04 0.  0.
        5    1    3    3  502    0 -0.98103544637E+03 -0.42554232370E+03  0.45426256600E+03  0.11618491232E+04  0.46999998093E+01 0. -1.
       -5    1    3    3    0  502  0.98103544637E+03  0.42554232370E+03 -0.22784271819E+03  0.10933669149E+04  0.46999998093E+01 0.  1.
</event>
<event>
 5   0  0.2042951E-05  0.2319147E+04  0.7818609E-02  0.8470410E-01
        1   -1    0    0  501    0  0.00000000000E+00  0.00000000000E+00  0.13425733276E+04  0.13425733276E+04  0.50400001928E-02 0. -1.
       -1   -1    0    0    0  501  0.00000000000E+00  0.00000000000E+00 -0.10015174463E+04  0.10015174463E+04  0.50400001928E-02 0.  1.
    10030    2    1    2    0    0  0.00000000000E+00  0.00000000000E+00  0.34105588131E+03  0.23440907739E+04  0.23191469212E+04 0.  0.
        2    1    3    3  502    0 -0.55297577905E+03 -0.15389777075E+03  0.11889081762E+04  0.13202156594E+04  0.25500000920E-02 0. -1.
       -2    1    3    3    0  502  0.55297577905E+03  0.15389777075E+03 -0.84785229487E+03  0.10238751144E+04  0.25500000920E-02 0.  1.
</event>
<event>
 5   0  0.2043885E-05  0.2328443E+04  0.7818609E-02  0.8466790E-01
       -1   -1    0    0    0  501  0.00000000000E+00  0.00000000000E+00  0.74455530530E+03  0.74455530532E+03  0.50400001928E-02 0.  1.
        1   -1    0    0  501    0  0.00000000000E+00  0.00000000000E+00 -0.18204310787E+04  0.18204310787E+04  0.50400001928E-02 0. -1.
    10030    2    1    2    0    0  0.00000000000E+00  0.00000000000E+00 -0.10758757734E+04  0.25649863840E+04  0.23284429283E+04 0.  0.
        5    1    3    3  502    0  0.48537184175E+03  0.51035767781E+02  0.62641532644E+03  0.79410876179E+03  0.46999998093E+01 0.  1.
       -5    1    3    3    0  502 -0.48537184175E+03 -0.51035767781E+02 -0.17022910998E+04  0.17708776222E+04  0.46999998093E+01 0. -1.
</event>
<event>
 5   0  0.4436695E-05  0.2320672E+04  0.7818609E-02  0.8469815E-01
        2   -1    0    0  501    0  0.00000000000E+00  0.00000000000E+00  0.19464571016E+04  0.19464571016E+04  0.25500000920E-02 0.  1.
       -2   -1    0    0    0  501  0.00000000000E+00  0.00000000000E+00 -0.69170812135E+03  0.69170812136E+03  0.25500000920E-02 0. -1.
    10030    2    1    2    0    0  0.00000000000E+00  0.00000000000E+00  0.12547489803E+04  0.26381652230E+04  0.23206724759E+04 0.  0.
        5    1    3    3  502    0  0.11105903004E+04  0.23229587673E+03  0.35127712326E+03  0.11877667688E+04  0.46999998093E+01 0. -1.
       -5    1    3    3    0  502 -0.11105903004E+04 -0.23229587673E+03  0.90347185701E+03  0.14503984542E+04  0.46999998093E+01 0.  1.
</event>
<event>
 5   0  0.2043885E-05  0.2293907E+04  0.7818609E-02  0.8480328E-01
       -1   -1    0    0    0  501  0.00000000000E+00  0.00000000000E+00  0.10473368436E+04  0.10473368436E+04  0.50400001928E-02 0.  1.
        1   -1    0    0  501    0  0.00000000000E+00  0.00000000000E+00 -0.12560447038E+04  0.12560447038E+04  0.50400001928E-02 0. -1.
    10030    2    1    2    0    0  0.00000000000E+00  0.00000000000E+00 -0.20870786013E+03  0.23033815474E+04  0.22939066202E+04 0.  0.
        5    1    3    3  502    0 -0.99649684072E+03  0.56271371124E+03 -0.18100488064E+03  0.11586360650E+04  0.46999998093E+01 0.  1.
       -5    1    3    3    0  502  0.99649684072E+03 -0.56271371124E+03 -0.27702979489E+02  0.11447454824E+04  0.46999998093E+01 0. -1.
</event>
<event>
 5   0  0.4605516E-05  0.2303813E+04  0.7818609E-02  0.8476419E-01
       -2   -1    0    0    0  501  0.00000000000E+00  0.00000000000E+00  0.59616060520E+03  0.59616060521E+03  0.25500000920E-02 0.  1.
        2   -1    0    0  501    0  0.00000000000E+00  0.00000000000E+00 -0.22257237456E+04  0.22257237456E+04  0.25500000920E-02 0. -1.
    10030    2    1    2    0    0  0.00000000000E+00  0.00000000000E+00 -0.16295631404E+04  0.28218843508E+04  0.23038132000E+04 0.  0.
        1    1    3    3  502    0 -0.33172061285E+03 -0.70890913338E+03 -0.18499992810E+04  0.20087528629E+04  0.50400001928E-02 0. -1.
       -1    1    3    3    0  502  0.33172061285E+03  0.70890913338E+03  0.22043614069E+03  0.81313148785E+03  0.50400001928E-02 0.  1.
</event>
<event>
 5   0  0.4436695E-05  0.2289243E+04  0.7818609E-02  0.8482175E-01
        2   -1    0    0  501    0  0.00000000000E+00  0.00000000000E+00  0.15056643995E+04  0.15056643995E+04  0.25500000920E-02 0. -1.
       -2   -1    0    0    0  501  0.00000000000E+00  0.00000000000E+00 -0.87015264248E+03  0.87015264249E+03  0.25500000920E-02 0.  1.
    10030    2    1    2    0    0  0.00000000000E+00  0.00000000000E+00  0.63551175702E+03  0.23758170420E+04  0.22892425437E+04 0.  0.
        5    1    3    3  502    0  0.78746341534E+03 -0.65248523888E+02  0.11771918328E+04  0.14178006565E+04  0.46999998093E+01 0. -1.
       -5    1    3    3    0  502 -0.78746341534E+03  0.65248523888E+02 -0.54168007578E+03  0.95801638549E+03  0.46999998093E+01 0.  1.
</event>
<event>
 5   0  0.4436695E-05  0.2304653E+04  0.7818609E-02  0.8476089E-01
       -2   -1    0    0    0  501  0.00000000000E+00  0.00000000000E+00  0.13855790193E+04  0.13855790193E+04  0.25500000920E-02 0.  1.
        2   -1    0    0  501    0  0.00000000000E+00  0.00000000000E+00 -0.95834045043E+03  0.95834045043E+03  0.25500000920E-02 0. -1.
    10030    2    1    2    0    0  0.00000000000E+00  0.00000000000E+00  0.42723856885E+03  0.23439194697E+04  0.23046530511E+04 0.  0.
        5    1    3    3  502    0  0.23762239207E+02  0.18814096179E+03 -0.94235184176E+03  0.96125477850E+03  0.46999998093E+01 0. -1.
       -5    1    3    3    0  502 -0.23762239207E+02 -0.18814096179E+03  0.13695904106E+04  0.13826646912E+04  0.46999998093E+01 0.  1.
</event>
<event>
 5   0  0.2043885E-05  0.2307675E+04  0.7818609E-02  0.8474901E-01
       -1   -1    0    0    0  501  0.00000000000E+00  0.00000000000E+00  0.69124597597E+03  0.69124597599E+03  0.50400001928E-02 0.  1.
        1   -1    0    0  501    0  0.00000000000E+00  0.00000000000E+00 -0.19260010134E+04  0.19260010134E+04  0.50400001928E-02 0. -1.
    10030    2    1    2    0    0  0.00000000000E+00  0.00000000000E+00 -0.12347550374E+04  0.26172469894E+04  0.23076745440E+04 0.  0.
        5    1    3    3  502    0 -0.99370687880E+01  0.11437536887E+04 -0.44519921333E+03  0.12273938550E+04  0.46999998093E+01 0.  1.
       -5    1    3    3    0  502  0.99370687880E+01 -0.11437536887E+04 -0.78955582407E+03  0.13898531344E+04  0.46999998093E+01 0. -1.
</event>
<event>
 5   0  0.2043885E-05  0.2425618E+04  0.7818609E-02  0.8429974E-01
       -1   -1    0    0    0  501  0.00000000000E+00  0.00000000000E+00  0.62838325767E+03  0.62838325769E+03  0.50400001928E-02 0. -1.
        1   -1    0    0  501    0  0.00000000000E+00  0.00000000000E+00 -0.23407773952E+04  0.23407773952E+04  0.50400001928E-02 0.  1.
    10030    2    1    2    0    0  0.00000000000E+00  0.00000000000E+00 -0.17123941375E+04  0.29691606529E+04  0.24256177152E+04 0.  0.
        5    1    3    3  502    0 -0.10201207122E+04 -0.11171259909E+03 -0.16473735074E+04  0.19408728797E+04  0.46999998093E+01 0.  1.
       -5    1    3    3    0  502  0.10201207122E+04  0.11171259909E+03 -0.65020630170E+02  0.10282877732E+04  0.46999998093E+01 0. -1.
</event>
<event>
 5   0  0.4436695E-05  0.2304183E+04  0.7818609E-02  0.8476273E-01
        2   -1    0    0  501    0  0.00000000000E+00  0.00000000000E+00  0.10879358974E+04  0.10879358974E+04  0.25500000920E-02 0. -1.
       -2   -1    0    0    0  501  0.00000000000E+00  0.00000000000E+00 -0.12200308462E+04  0.12200308462E+04  0.25500000920E-02 0.  1.
    10030    2    1    2    0    0  0.00000000000E+00  0.00000000000E+00 -0.13209494879E+03  0.23079667437E+04  0.23041834594E+04 0.  0.
        5    1    3    3  502    0  0.87201713579E+03 -0.66938385606E+03  0.27919894105E+03  0.11342234218E+04  0.46999998093E+01 0. -1.
       -5    1    3    3    0  502 -0.87201713579E+03  0.66938385606E+03 -0.41129388984E+03  0.11737433219E+04  0.46999998093E+01 0.  1.
</event>
<event>
 5   0  0.2031860E-05  0.2173120E+04  0.7818609E-02  0.8529700E-01
       -1   -1    0    0    0  501  0.00000000000E+00  0.00000000000E+00  0.10514016971E+04  0.10514016971E+04  0.50400001928E-02 0. -1.
        1   -1    0    0  501    0  0.00000000000E+00  0.00000000000E+00 -0.11228941814E+04  0.11228941814E+04  0.50400001928E-02 0.  1.
    10030    2    1    2    0    0  0.00000000000E+00  0.00000000000E+00 -0.71492484316E+02  0.21742958785E+04  0.21731201973E+04 0.  0.
        4    1    3    3  502    0  0.60970759517E+03 -0.55975602606E+03  0.66858138460E+03  0.10639891170E+04  0.12699999809E+01 0. -1.
       -4    1    3    3    0  502 -0.60970759517E+03  0.55975602606E+03 -0.74007386892E+03  0.11103067615E+04  0.12699999809E+01 0.  1.
</event>
<event>
 5   0  0.4605516E-05  0.2221003E+04  0.7818609E-02  0.8509737E-01
        2   -1    0    0  501    0  0.00000000000E+00  0.00000000000E+00  0.17525927519E+04  0.17525927519E+04  0.25500000920E-02 0. -1.
       -2   -1    0    0    0  501  0.00000000000E+00  0.00000000000E+00 -0.70365118420E+03  0.70365118421E+03  0.25500000920E-02 0.  1.
    10030    2    1    2    0    0  0.00000000000E+00  0.00000000000E+00  0.10489415677E+04  0.24562439361E+04  0.22210033456E+04 0.  0.
        1    1    3    3  502    0 -0.13815956875E+03  0.74791584300E+03  0.14193394543E+04  0.16102765791E+04  0.50400001928E-02 0. -1.
       -1    1    3    3    0  502  0.13815956875E+03 -0.74791584300E+03 -0.37039788663E+03  0.84596735699E+03  0.50400001928E-02 0.  1.
</event>
<event>
 5   0  0.2043885E-05  0.2278611E+04  0.7818609E-02  0.8486403E-01
       -1   -1    0    0    0  501  0.00000000000E+00  0.00000000000E+00  0.11056357533E+04  0.11056357533E+04  0.50400001928E-02 0. -1.
        1   -1    0    0  501    0  0.00000000000E+00  0.00000000000E+00 -0.11740004808E+04  0.11740004808E+04  0.50400001928E-02 0.  1.
    10030    2    1    2    0    0  0.00000000000E+00  0.00000000000E+00 -0.68364727487E+02  0.22796362341E+04  0.22786108978E+04 0.  0.
        5    1    3    3  502    0 -0.78624645999E+03  0.80956642131E+03  0.12213623994E+03  0.11351302293E+04  0.46999998093E+01 0. -1.
       -5    1    3    3    0  502  0.78624645999E+03 -0.80956642131E+03 -0.19050096743E+03  0.11445060048E+04  0.46999998093E+01 0.  1.
</event>
<event>
 5   0  0.2085063E-05  0.2216634E+04  0.7818609E-02  0.8511537E-01
        1   -1    0    0  501    0  0.00000000000E+00  0.00000000000E+00  0.11148026085E+04  0.11148026086E+04  0.50400001928E-02 0.  1.
       -1   -1    0    0    0  501  0.00000000000E+00  0.00000000000E+00 -0.11018688735E+04  0.11018688735E+04  0.50400001928E-02 0. -1.
    10030    2    1    2    0    0  0.00000000000E+00  0.00000000000E+00  0.12933735070E+02  0.22166714820E+04  0.22166337491E+04 0.  0.
        1    1    3    3  502    0  0.73246221489E+03 -0.17354476255E+03 -0.80702569119E+03  0.11035892112E+04  0.50400001928E-02 0. -1.
       -1    1    3    3    0  502 -0.73246221489E+03  0.17354476255E+03  0.81995942626E+03  0.11130822708E+04  0.50400001928E-02 0.  1.
</event>
<event>
 5   0  0.2085063E-05  0.2287413E+04  0.7818609E-02  0.8482901E-01
        1   -1    0    0  501    0  0.00000000000E+00  0.00000000000E+00  0.45760738486E+03  0.45760738489E+03  0.50400001928E-02 0.  1.
       -1   -1    0    0    0  501  0.00000000000E+00  0.00000000000E+00 -0.28584866259E+04  0.28584866259E+04  0.50400001928E-02 0. -1.
    10030    2    1    2    0    0  0.00000000000E+00  0.00000000000E+00 -0.24008792411E+04  0.33160940108E+04  0.22874130275E+04 0.  0.
        1    1    3    3  502    0 -0.59308063320E+03  0.55004564767E+03 -0.23726205483E+04  0.25067156038E+04  0.50400001928E-02 0. -1.
       -1    1    3    3    0  502  0.59308063320E+03 -0.55004564767E+03 -0.28258692728E+02  0.80937840701E+03  0.50400001928E-02 0.  1.
</event>
<event>
 5   0  0.2031860E-05  0.2311315E+04  0.7818609E-02  0.8473473E-01
        1   -1    0    0  501    0  0.00000000000E+00  0.00000000000E+00  0.10466008896E+04  0.10466008896E+04  0.50400001928E-02 0.  1.
       -1   -1    0    0    0  501  0.00000000000E+00  0.00000000000E+00 -0.12760776336E+04  0.12760776336E+04  0.50400001928E-02 0. -1.
    10030    2    1    2    0    0  0.00000000000E+00  0.00000000000E+00 -0.22947674402E+03  0.23226785233E+04  0.23113147658E+04 0.  0.
        4    1    3    3  502    0  0.40348941230E+02  0.65381035299E+03  0.84201734253E+03  0.10668134011E+04  0.12699999809E+01 0.  1.
       -4    1    3    3    0  502 -0.40348941230E+02 -0.65381035299E+03 -0.10714940865E+04  0.12558651222E+04  0.12699999809E+01 0. -1.
</event>
<event>
 5   0  0.4505107E-05  0.2311268E+04  0.7818609E-02  0.8473491E-01
       -2   -1    0    0    0  501  0.00000000000E+00  0.00000000000E+00  0.13723598891E+04  0.13723598891E+04  0.25500000920E-02 0. -1.
        2   -1    0    0  501    0  0.00000000000E+00  0.00000000000E+00 -0.97313396461E+03  0.97313396461E+03  0.25500000920E-02 0.  1.
    10030    2    1    2    0    0  0.00000000000E+00  0.00000000000E+00  0.39922592448E+03  0.23454938537E+04  0.23112680673E+04 0.  0.
        4    1    3    3  502    0 -0.23200486310E+03 -0.40539086053E+02 -0.94851988747E+03  0.97732352055E+03  0.12699999809E+01 0.  1.
       -4    1    3    3    0  502  0.23200486310E+03  0.40539086053E+02  0.13477458120E+04  0.13681703332E+04  0.12699999809E+01 0. -1.
</event>
<event>
 5   0  0.4602447E-05  0.2287039E+04  0.7818609E-02  0.8483049E-01
        2   -1    0    0  501    0  0.00000000000E+00  0.00000000000E+00  0.16661741990E+04  0.16661741990E+04  0.25500000920E-02 0. -1.
       -2   -1    0    0    0  501  0.00000000000E+00  0.00000000000E+00 -0.78481366262E+03  0.78481366263E+03  0.25500000920E-02 0.  1.
    10030    2    1    2    0    0  0.00000000000E+00  0.00000000000E+00  0.88136053636E+03  0.24509878616E+04  0.22870385005E+04 0.  0.
        3    1    3    3  502    0 -0.23526504865E+03  0.10074520452E+04  0.96276531961E+03  0.14132325843E+04  0.10100000352E+00 0. -1.
       -3    1    3    3    0  502  0.23526504865E+03 -0.10074520452E+04 -0.81404783249E+02  0.10377552773E+04  0.10100000352E+00 0.  1.
</event>
<event>
 5   0  0.2031860E-05  0.2300740E+04  0.7818609E-02  0.8477629E-01
       -1   -1    0    0    0  501  0.00000000000E+00  0.00000000000E+00  0.87312508275E+03  0.87312508277E+03  0.50400001928E-02 0. -1.
        1   -1    0    0  501    0  0.00000000000E+00  0.00000000000E+00 -0.15156488833E+04  0.15156488833E+04  0.50400001928E-02 0.  1.
    10030    2    1    2    0    0  0.00000000000E+00  0.00000000000E+00 -0.64252380054E+03  0.23887739661E+04  0.23007399303E+04 0.  0.
        4    1    3    3  502    0 -0.35369765887E+03  0.61813282960E+03  0.61672110893E+03  0.94209169831E+03  0.12699999809E+01 0. -1.
       -4    1    3    3    0  502  0.35369765887E+03 -0.61813282960E+03 -0.12592449095E+04  0.14466822678E+04  0.12699999809E+01 0.  1.
</event>
<event>
 5   0  0.4436695E-05  0.2302325E+04  0.7818609E-02  0.8477005E-01
        2   -1    0    0  501    0  0.00000000000E+00  0.00000000000E+00  0.14987873295E+04  0.14987873295E+04  0.25500000920E-02 0. -1.
       -2   -1    0    0    0  501  0.00000000000E+00  0.00000000000E+00 -0.88416478416E+03  0.88416478417E+03  0.25500000920E-02 0.  1.
    10030    2    1    2    0    0  0.00000000000E+00  0.00000000000E+00  0.61462254529E+03  0.23829521136E+04  0.23023248908E+04 0.  0.
        5    1    3    3  502    0  0.52699150163E+03  0.61483365390E+02  0.13646805661E+04  0.14641978638E+04  0.46999998093E+01 0. -1.
       -5    1    3    3    0  502 -0.52699150163E+03 -0.61483365390E+02 -0.75005802077E+03  0.91875424981E+03  0.46999998093E+01 0.  1.
</event>
<event>
 5   0  0.4602447E-05  0.2310011E+04  0.7818609E-02  0.8473984E-01
       -2   -1    0    0    0  501  0.00000000000E+00  0.00000000000E+00  0.91768920902E+03  0.91768920902E+03  0.25500000920E-02 0. -1.
        2   -1    0    0  501    0  0.00000000000E+00  0.00000000000E+00 -0.14536926603E+04  0.14536926603E+04  0.25500000920E-02 0.  1.
    10030    2    1    2    0    0  0.00000000000E+00  0.00000000000E+00 -0.53600345127E+03  0.23713818693E+04  0.23100113139E+04 0.  0.
        3    1    3    3  502    0  0.96458306342E+03  0.63128579844E+03 -0.19472027123E+03  0.11691271273E+04  0.10100000352E+00 0.  1.
       -3    1    3    3    0  502 -0.96458306342E+03 -0.63128579844E+03 -0.34128318004E+03  0.12022547420E+04  0.10100000352E+00 0. -1.
</event>
<event>
 5   0  0.4505107E-05  0.2197713E+04  0.7818609E-02  0.8519381E-01
        2   -1    0    0  501    0  0.00000000000E+00  0.00000000000E+00  0.98293111436E+03  0.98293111437E+03  0.25500000920E-02 0.  1.
       -2   -1    0    0    0  501  0.00000000000E+00  0.00000000000E+00 -0.12284538158E+04  0.12284538158E+04  0.25500000920E-02 0. -1.
    10030    2    1    2    0    0  0.00000000000E+00  0.00000000000E+00 -0.24552270141E+03  0.22113849301E+04  0.21977128821E+04 0.  0.
        4    1    3    3  502    0 -0.47422637162E+03 -0.53118410389E+03 -0.96488880584E+03  0.11991910708E+04  0.12699999809E+01 0. -1.
       -4    1    3    3    0  502  0.47422637162E+03  0.53118410389E+03  0.71936610443E+03  0.10121938593E+04  0.12699999809E+01 0.  1.
</event>
<event>
 5   0  0.4798609E-05  0.2311959E+04  0.7818609E-02  0.8473221E-01
        2   -1    0    0  501    0  0.00000000000E+00  0.00000000000E+00  0.84289080670E+03  0.84289080671E+03  0.25500000920E-02 0.  1.
       -2   -1    0    0    0  501  0.00000000000E+00  0.00000000000E+00 -0.15853637422E+04  0.15853637422E+04  0.25500000920E-02 0. -1.
    10030    2    1    2    0    0  0.00000000000E+00  0.00000000000E+00 -0.74247293550E+03  0.24282545489E+04  0.23119589301E+04 0.  0.
        2    1    3    3  502    0  0.96862071137E+03  0.62534843499E+03 -0.28335077094E+03  0.11872549882E+04  0.25500000920E-02 0.  1.
       -2    1    3    3    0  502 -0.96862071137E+03 -0.62534843499E+03 -0.45912216455E+03  0.12409995607E+04  0.25500000920E-02 0. -1.
</event>
<event>
 5   0  0.4798609E-05  0.2260234E+04  0.7818609E-02  0.8493767E-01
        2   -1    0    0  501    0  0.00000000000E+00  0.00000000000E+00  0.17964020605E+04  0.17964020605E+04  0.25500000920E-02 0.  1.
       -2   -1    0    0    0  501  0.00000000000E+00  0.00000000000E+00 -0.71095677395E+03  0.71095677395E+03  0.25500000920E-02 0. -1.
    10030    2    1    2    0    0  0.00000000000E+00  0.00000000000E+00  0.10854452865E+04  0.25073588344E+04  0.22602338053E+04 0.  0.
        2    1    3    3  502    0  0.32573109871E+03  0.10677019284E+04  0.73828086518E+03  0.13383373239E+04  0.25500000920E-02 0.  1.
       -2    1    3    3    0  502 -0.32573109871E+03 -0.10677019284E+04  0.34716442137E+03  0.11690215105E+04  0.25500000920E-02 0. -1.
</event>
<event>
 5   0  0.4798609E-05  0.2284802E+04  0.7818609E-02  0.8483938E-01
       -2   -1    0    0    0  501  0.00000000000E+00  0.00000000000E+00  0.76424081060E+03  0.76424081061E+03  0.25500000920E-02 0. -1.
        2   -1    0    0  501    0  0.00000000000E+00  0.00000000000E+00 -0.17076814728E+04  0.17076814728E+04  0.25500000920E-02 0.  1.
    10030    2    1    2    0    0  0.00000000000E+00  0.00000000000E+00 -0.94344066217E+03  0.24719222834E+04  0.22848018496E+04 0.  0.
        2    1    3    3  502    0 -0.76453020881E+01 -0.17347302605E+03 -0.16933208007E+04  0.17022005391E+04  0.25500000920E-02 0.  1.
       -2    1    3    3    0  502  0.76453020881E+01  0.17347302605E+03  0.74988013851E+03  0.76972174424E+03  0.25500000920E-02 0. -1.
</event>
<event>
 5   0  0.4602447E-05  0.2308636E+04  0.7818609E-02  0.8474524E-01
        2   -1    0    0  501    0  0.00000000000E+00  0.00000000000E+00  0.28718662121E+04  0.28718662121E+04  0.25500000920E-02 0. -1.
       -2   -1    0    0    0  501  0.00000000000E+00  0.00000000000E+00 -0.46396650348E+03  0.46396650349E+03  0.25500000920E-02 0.  1.
    10030    2    1    2    0    0  0.00000000000E+00  0.00000000000E+00  0.24078997086E+04  0.33358327155E+04  0.23086357226E+04 0.  0.
        3    1    3    3  502    0 -0.10498296526E+04 -0.46975067412E+03  0.10620682475E+04  0.15655021456E+04  0.10100000352E+00 0.  1.
       -3    1    3    3    0  502  0.10498296526E+04  0.46975067412E+03  0.13458314610E+04  0.17703305700E+04  0.10100000352E+00 0. -1.
</event>
<event>
 5   0  0.4505107E-05  0.2321940E+04  0.7818609E-02  0.8469321E-01
        2   -1    0    0  501    0  0.00000000000E+00  0.00000000000E+00  0.90018309526E+03  0.90018309526E+03  0.25500000920E-02 0. -1.
       -2   -1    0    0    0  501  0.00000000000E+00  0.00000000000E+00 -0.14973076330E+04  0.14973076330E+04  0.25500000920E-02 0.  1.
    10030    2    1    2    0    0  0.00000000000E+00  0.00000000000E+00 -0.59712453775E+03  0.23974907283E+04  0.23219397233E+04 0.  0.
        4    1    3    3  502    0 -0.98205392105E+03  0.55547471796E+03 -0.16040316892E+02  0.11283797990E+04  0.12699999809E+01 0. -1.
       -4    1    3    3    0  502  0.98205392105E+03 -0.55547471796E+03 -0.58108422086E+03  0.12691109293E+04  0.12699999809E+01 0.  1.
</event>
<event>
 5   0  0.4605516E-05  0.2292853E+04  0.7818609E-02  0.8480744E-01
       -2   -1    0    0    0  501  0.00000000000E+00  0.00000000000E+00  0.98322376253E+03  0.98322376253E+03  0.25500000920E-02 0. -1.
        2   -1    0    0  501    0  0.00000000000E+00  0.00000000000E+00 -0.13367192646E+04  0.13367192646E+04  0.25500000920E-02 0.  1.
    10030    2    1    2    0    0  0.00000000000E+00  0.00000000000E+00 -0.35349550209E+03  0.23199430272E+04  0.22928533706E+04 0.  0.
        1    1    3    3  502    0  0.64064014105E+03 -0.94231137266E+03 -0.49067979827E+02  0.11405166286E+04  0.50400001928E-02 0. -1.
       -1    1    3    3    0  502 -0.64064014105E+03  0.94231137266E+03 -0.30442752226E+03  0.11794263986E+04  0.50400001928E-02 0.  1.
</event>
<event>
 5   0  0.2085063E-05  0.2301419E+04  0.7818609E-02  0.8477362E-01
        1   -1    0    0  501    0  0.00000000000E+00  0.00000000000E+00  0.13094361345E+04  0.13094361345E+04  0.50400001928E-02 0. -1.
       -1   -1    0    0    0  501  0.00000000000E+00  0.00000000000E+00 -0.10112230137E+04  0.10112230137E+04  0.50400001928E-02 0.  1.
    10030    2    1    2    0    0  0.00000000000E+00  0.00000000000E+00  0.29821312081E+03  0.23206591483E+04  0.23014186532E+04 0.  0.
        1    1    3    3  502    0 -0.39437424948E+03  0.46696623984E+03  0.11322156514E+04  0.12866626594E+04  0.50400001928E-02 0. -1.
       -1    1    3    3    0  502  0.39437424948E+03 -0.46696623984E+03 -0.83400253064E+03  0.10339964888E+04  0.50400001928E-02 0.  1.
</event>
<event>
 5   0  0.1968318E-05  0.2294718E+04  0.7818609E-02  0.8480006E-01
        1   -1    0    0  501    0  0.00000000000E+00  0.00000000000E+00  0.14162644595E+04  0.14162644595E+04  0.50400001928E-02 0.  1.
       -1   -1    0    0    0  501  0.00000000000E+00  0.00000000000E+00 -0.92951081023E+03  0.92951081025E+03  0.50400001928E-02 0. -1.
    10030    2    1    2    0    0  0.00000000000E+00  0.00000000000E+00  0.48675364928E+03  0.23457752698E+04  0.22947183926E+04 0.  0.
        3    1    3    3  502    0  0.10512479487E+03 -0.10355130455E+03 -0.91977045032E+03  0.93153195686E+03  0.10100000352E+00 0. -1.
       -3    1    3    3    0  502 -0.10512479487E+03  0.10355130455E+03  0.14065240996E+04  0.14142433129E+04  0.10100000352E+00 0.  1.
</event>
<event>
 5   0  0.2085063E-05  0.2311199E+04  0.7818609E-02  0.8473519E-01
       -1   -1    0    0    0  501  0.00000000000E+00  0.00000000000E+00  0.90701934563E+03  0.90701934565E+03  0.50400001928E-02 0. -1.
        1   -1    0    0  501    0  0.00000000000E+00  0.00000000000E+00 -0.14723062749E+04  0.14723062749E+04  0.50400001928E-02 0.  1.
    10030    2    1    2    0    0  0.00000000000E+00  0.00000000000E+00 -0.56528692927E+03  0.23793256206E+04  0.23111990603E+04 0.  0.
        1    1    3    3  502    0  0.21753808530E+02  0.17292417695E+03 -0.14586980724E+04  0.14690731996E+04  0.50400001928E-02 0.  1.
       -1    1    3    3    0  502 -0.21753808530E+02 -0.17292417695E+03  0.89341114316E+03  0.91025242099E+03  0.50400001928E-02 0. -1.
</event>
<event>
 5   0  0.4505107E-05  0.2113555E+04  0.7818609E-02  0.8555296E-01
        2   -1    0    0  501    0  0.00000000000E+00  0.00000000000E+00  0.17303276455E+04  0.17303276455E+04  0.25500000920E-02 0.  1.
       -2   -1    0    0    0  501  0.00000000000E+00  0.00000000000E+00 -0.64541443617E+03  0.64541443618E+03  0.25500000920E-02 0. -1.
    10030    2    1    2    0    0  0.00000000000E+00  0.00000000000E+00  0.10849132093E+04  0.23757420817E+04  0.21135547703E+04 0.  0.
        4    1    3    3  502    0  0.51713489431E+02 -0.19387900380E+03 -0.62380376765E+03  0.65528322620E+03  0.12699999809E+01 0. -1.
       -4    1    3    3    0  502 -0.51713489431E+02  0.19387900380E+03  0.17087169770E+04  0.17204588555E+04  0.12699999809E+01 0.  1.
</event>
<event>
 5   0  0.4798609E-05  0.2314010E+04  0.7818609E-02  0.8472418E-01
        2   -1    0    0  501    0  0.00000000000E+00  0.00000000000E+00  0.81294715661E+03  0.81294715661E+03  0.25500000920E-02 0.  1.
       -2   -1    0    0    0  501  0.00000000000E+00  0.00000000000E+00 -0.16466756705E+04  0.16466756705E+04  0.25500000920E-02 0. -1.
    10030    2    1    2    0    0  0.00000000000E+00  0.00000000000E+00 -0.83372851393E+03  0.24596228272E+04  0.23140097703E+04 0.  0.
        2    1    3    3  502    0  0.39234500491E+03  0.78880715324E+02 -0.15707658456E+04  0.16209448207E+04  0.25500000920E-02 0. -1.
       -2    1    3    3    0  502 -0.39234500491E+03 -0.78880715324E+02  0.73703733169E+03  0.83867800641E+03  0.25500000920E-02 0.  1.
</event>
<event>
 5   0  0.4798609E-05  0.1876000E+04  0.7818609E-02  0.8666896E-01
       -2   -1    0    0    0  501  0.00000000000E+00  0.00000000000E+00  0.14808518376E+04  0.14808518376E+04  0.25500000920E-02 0.  1.
        2   -1    0    0  501    0  0.00000000000E+00  0.00000000000E+00 -0.59414694553E+03  0.59414694553E+03  0.25500000920E-02 0. -1.
    10030    2    1    2    0    0  0.00000000000E+00  0.00000000000E+00  0.88670489208E+03  0.20749987831E+04  0.18759995694E+04 0.  0.
        2    1    3    3  502    0  0.53649491346E+03  0.54296327316E+03  0.10463494185E+04  0.12951768272E+04  0.25500000920E-02 0. -1.
       -2    1    3    3    0  502 -0.53649491346E+03 -0.54296327316E+03 -0.15964452639E+03  0.77982195595E+03  0.25500000920E-02 0.  1.
</event>
<event>
 5   0  0.4605516E-05  0.2309197E+04  0.7818609E-02  0.8474304E-01
        2   -1    0    0  501    0  0.00000000000E+00  0.00000000000E+00  0.10054243061E+04  0.10054243061E+04  0.25500000920E-02 0.  1.
       -2   -1    0    0    0  501  0.00000000000E+00  0.00000000000E+00 -0.13259057568E+04  0.13259057568E+04  0.25500000920E-02 0. -1.
    10030    2    1    2    0    0  0.00000000000E+00  0.00000000000E+00 -0.32048145065E+03  0.23313300629E+04  0.23091971553E+04 0.  0.
        1    1    3    3  502    0  0.11297719861E+04 -0.16868091490E+03  0.94772870494E+01  0.11423343690E+04  0.50400001928E-02 0.  1.
       -1    1    3    3    0  502 -0.11297719861E+04  0.16868091490E+03 -0.32995873770E+03  0.11889956939E+04  0.50400001928E-02 0. -1.
</event>
<event>
 5   0  0.4436695E-05  0.2323752E+04  0.7818609E-02  0.8468615E-01
        2   -1    0    0  501    0  0.00000000000E+00  0.00000000000E+00  0.31929014239E+04  0.31929014239E+04  0.25500000920E-02 0.  1.
       -2   -1    0    0    0  501  0.00000000000E+00  0.00000000000E+00 -0.42279900317E+03  0.42279900318E+03  0.25500000920E-02 0. -1.
    10030    2    1    2    0    0  0.00000000000E+00  0.00000000000E+00  0.27701024207E+04  0.36157004271E+04  0.23237517417E+04 0.  0.
        5    1    3    3  502    0  0.16135041692E+03  0.76566976253E+03  0.48678244178E+02  0.78401262984E+03  0.46999998093E+01 0. -1.
       -5    1    3    3    0  502 -0.16135041692E+03 -0.76566976253E+03  0.27214241765E+04  0.28316877972E+04  0.46999998093E+01 0.  1.
</event>
<event>
 5   0  0.2042951E-05  0.2309118E+04  0.7818609E-02  0.8474335E-01
        1   -1    0    0  501    0  0.00000000000E+00  0.00000000000E+00  0.10248584984E+04  0.10248584984E+04  0.50400001928E-02 0. -1.
       -1   -1    0    0    0  501  0.00000000000E+00  0.00000000000E+00 -0.13006735512E+04  0.13006735512E+04  0.50400001928E-02 0.  1.
    10030    2    1    2    0    0  0.00000000000E+00  0.00000000000E+00 -0.27581505274E+03  0.23255320496E+04  0.23091178771E+04 0.  0.
        2    1    3    3  502    0  0.91567902586E+03  0.45738841240E+03  0.40005629190E+03  0.10989619078E+04  0.25500000920E-02 0. -1.
       -2    1    3    3    0  502 -0.91567902586E+03 -0.45738841240E+03 -0.67587134465E+03  0.12265701418E+04  0.25500000920E-02 0.  1.
</event>
<event>
 5   0  0.1968318E-05  0.2206804E+04  0.7818609E-02  0.8515601E-01
        1   -1    0    0  501    0  0.00000000000E+00  0.00000000000E+00  0.17672816646E+04  0.17672816646E+04  0.50400001928E-02 0. -1.
       -1   -1    0    0    0  501  0.00000000000E+00  0.00000000000E+00 -0.68890890275E+03  0.68890890276E+03  0.50400001928E-02 0.  1.
    10030    2    1    2    0    0  0.00000000000E+00  0.00000000000E+00  0.10783727618E+04  0.24561905673E+04  0.22068040895E+04 0.  0.
        3    1    3    3  502    0 -0.11597342818E+03  0.37267922571E+03  0.16878820243E+04  0.17324218249E+04  0.10100000352E+00 0. -1.
       -3    1    3    3    0  502  0.11597342818E+03 -0.37267922571E+03 -0.60950926245E+03  0.72376874244E+03  0.10100000352E+00 0.  1.
</event>
<event>
 5   0  0.2085063E-05  0.2299811E+04  0.7818609E-02  0.8477996E-01
       -1   -1    0    0    0  501  0.00000000000E+00  0.00000000000E+00  0.62976760130E+03  0.62976760132E+03  0.50400001928E-02 0. -1.
        1   -1    0    0  501    0  0.00000000000E+00  0.00000000000E+00 -0.20996354840E+04  0.20996354840E+04  0.50400001928E-02 0.  1.
    10030    2    1    2    0    0  0.00000000000E+00  0.00000000000E+00 -0.14698678827E+04  0.27294030853E+04  0.22998107769E+04 0.  0.
        1    1    3    3  502    0 -0.92805890884E+03 -0.66754271543E+03 -0.88209545728E+03  0.14439525654E+04  0.50400001928E-02 0. -1.
       -1    1    3    3    0  502  0.92805890884E+03  0.66754271543E+03 -0.58777242543E+03  0.12854505200E+04  0.50400001928E-02 0.  1.
</event>
<event>
 5   0  0.2042951E-05  0.2331156E+04  0.7818609E-02  0.8465737E-01
       -1   -1    0    0    0  501  0.00000000000E+00  0.00000000000E+00  0.13785121499E+04  0.13785121499E+04  0.50400001928E-02 0.  1.
        1   -1    0    0  501    0  0.00000000000E+00  0.00000000000E+00 -0.98553491430E+03  0.98553491431E+03  0.50400001928E-02 0. -1.
    10030    2    1    2    0    0  0.00000000000E+00  0.00000000000E+00  0.39297723556E+03  0.23640470642E+04  0.23311558107E+04 0.  0.
        2    1    3    3  502    0  0.75447930369E+03 -0.86644343991E+03  0.39575169776E+03  0.12151471765E+04  0.25500000920E-02 0.  1.
       -2    1    3    3    0  502 -0.75447930369E+03  0.86644343991E+03 -0.27744622017E+01  0.11488998877E+04  0.25500000920E-02 0. -1.
</event>
<event>
 5   0  0.4602447E-05  0.2312689E+04  0.7818609E-02  0.8472935E-01
        2   -1    0    0  501    0  0.00000000000E+00  0.00000000000E+00  0.10126501806E+04  0.10126501806E+04  0.25500000920E-02 0. -1.
       -2   -1    0    0    0  501  0.00000000000E+00  0.00000000000E+00 -0.13204291144E+04  0.13204291144E+04  0.25500000920E-02 0.  1.
    10030    2    1    2    0    0  0.00000000000E+00  0.00000000000E+00 -0.30777893375E+03  0.23330792950E+04  0.23126891544E+04 0.  0.
        3    1    3    3  502    0 -0.61520145161E+03  0.40808328151E+03  0.74397319773E+03  0.10480939461E+04  0.10100000352E+00 0. -1.
       -3    1    3    3    0  502  0.61520145161E+03 -0.40808328151E+03 -0.10517521315E+04  0.12849853489E+04  0.10100000352E+00 0.  1.
</event>
<event>
 5   0  0.2042951E-05  0.2284302E+04  0.7818609E-02  0.8484136E-01
       -1   -1    0    0    0  501  0.00000000000E+00  0.00000000000E+00  0.22591537779E+04  0.22591537780E+04  0.50400001928E-02 0.  1.
        1   -1    0    0  501    0  0.00000000000E+00  0.00000000000E+00 -0.57743273486E+03  0.57743273488E+03  0.50400001928E-02 0. -1.
    10030    2    1    2    0    0  0.00000000000E+00  0.00000000000E+00  0.16817210431E+04  0.28365865128E+04  0.22843023832E+04 0.  0.
        2    1    3    3  502    0 -0.59101606342E+02 -0.11158113085E+04  0.54705186732E+03  0.12441035413E+04  0.25500000920E-02 0. -1.
       -2    1    3    3    0  502  0.59101606342E+02  0.11158113085E+04  0.11346691758E+04  0.15924829715E+04  0.25500000920E-02 0.  1.
</event>
<event>
 5   0  0.4436695E-05  0.2301682E+04  0.7818609E-02  0.8477258E-01
       -2   -1    0    0    0  501  0.00000000000E+00  0.00000000000E+00  0.62195944673E+03  0.62195944674E+03  0.25500000920E-02 0. -1.
        2   -1    0    0  501    0  0.00000000000E+00  0.00000000000E+00 -0.21294559846E+04  0.21294559846E+04  0.25500000920E-02 0.  1.
    10030    2    1    2    0    0  0.00000000000E+00  0.00000000000E+00 -0.15074965378E+04  0.27514154313E+04  0.23016822248E+04 0.  0.
        5    1    3    3  502    0  0.25984378437E+03 -0.11211127462E+04 -0.75282697563E+03  0.13752029404E+04  0.46999998093E+01 0.  1.
       -5    1    3    3    0  502 -0.25984378437E+03  0.11211127462E+04 -0.75466956221E+03  0.13762124909E+04  0.46999998093E+01 0. -1.
</event>
<event>
 5   0  0.4605516E-05  0.2303467E+04  0.7818609E-02  0.8476555E-01
       -2   -1    0    0    0  501  0.00000000000E+00  0.00000000000E+00  0.11345381100E+04  0.11345381100E+04  0.25500000920E-02 0. -1.
        2   -1    0    0  501    0  0.00000000000E+00  0.00000000000E+00 -0.11691897043E+04  0.11691897043E+04  0.25500000920E-02 0.  1.
    10030    2    1    2    0    0  0.00000000000E+00  0.00000000000E+00 -0.34651594280E+02  0.23037278143E+04  0.23034671930E+04 0.  0.
        1    1    3    3  502    0  0.18150310764E+03 -0.79470527646E+03 -0.83104579228E+03  0.11641035020E+04  0.50400001928E-02 0.  1.
       -1    1    3    3    0  502 -0.18150310764E+03  0.79470527646E+03  0.79639419800E+03  0.11396243123E+04  0.50400001928E-02 0. -1.
</event>
<event>
 5   0  0.2043885E-05  0.2323899E+04  0.7818609E-02  0.8468557E-01
       -1   -1    0    0    0  501  0.00000000000E+00  0.00000000000E+00  0.68967355572E+03  0.68967355573E+03  0.50400001928E-02 0. -1.
        1   -1    0    0  501    0  0.00000000000E+00  0.00000000000E+00 -0.19576320775E+04  0.19576320775E+04  0.50400001928E-02 0.  1.
    10030    2    1    2    0    0  0.00000000000E+00  0.00000000000E+00 -0.12679585218E+04  0.26473056333E+04  0.23238993745E+04 0.  0.
        5    1    3    3  502    0 -0.11272855739E+04 -0.27993724147E+03 -0.59854844538E+03  0.13066828061E+04  0.46999998093E+01 0.  1.
       -5    1    3    3    0  502  0.11272855739E+04  0.27993724147E+03 -0.66941007643E+03  0.13406228272E+04  0.46999998093E+01 0. -1.
</event>
<event>
 5   0  0.1968318E-05  0.2302675E+04  0.7818609E-02  0.8476867E-01
       -1   -1    0    0    0  501  0.00000000000E+00  0.00000000000E+00  0.10109472777E+04  0.10109472778E+04  0.50400001928E-02 0. -1.
        1   -1    0    0  501    0  0.00000000000E+00  0.00000000000E+00 -0.13112233033E+04  0.13112233033E+04  0.50400001928E-02 0.  1.
    10030    2    1    2    0    0  0.00000000000E+00  0.00000000000E+00 -0.30027602552E+03  0.23221705810E+04  0.23026746439E+04 0.  0.
        3    1    3    3  502    0  0.46696132530E+03 -0.35760777483E+03  0.84801037445E+03  0.10320163784E+04  0.10100000352E+00 0. -1.
       -3    1    3    3    0  502 -0.46696132530E+03  0.35760777483E+03 -0.11482864000E+04  0.12901542026E+04  0.10100000352E+00 0.  1.
</event>
<event>
 5   0  0.2085063E-05  0.2275352E+04  0.7818609E-02  0.8487704E-01
       -1   -1    0    0    0  501  0.00000000000E+00  0.00000000000E+00  0.11191874083E+04  0.11191874083E+04  0.50400001928E-02 0. -1.
        1   -1    0    0  501    0  0.00000000000E+00  0.00000000000E+00 -0.11564695340E+04  0.11564695340E+04  0.50400001928E-02 0.  1.
    10030    2    1    2    0    0  0.00000000000E+00  0.00000000000E+00 -0.37282125721E+02  0.22756569423E+04  0.22753515249E+04 0.  0.
        1    1    3    3  502    0  0.89702942222E+03  0.88342312667E+02  0.67559906426E+03  0.11264547235E+04  0.50400001928E-02 0. -1.
       -1    1    3    3    0  502 -0.89702942222E+03 -0.88342312667E+02 -0.71288118998E+03  0.11492022188E+04  0.50400001928E-02 0.  1.
</event>
<event>
 5   0  0.2043885E-05  0.2299000E+04  0.7818609E-02  0.8478315E-01
       -1   -1    0    0    0  501  0.00000000000E+00  0.00000000000E+00  0.78534790833E+03  0.78534790835E+03  0.50400001928E-02 0.  1.
        1   -1    0    0  501    0  0.00000000000E+00  0.00000000000E+00 -0.16825035077E+04  0.16825035077E+04  0.50400001928E-02 0. -1.
    10030    2    1    2    0    0  0.00000000000E+00  0.00000000000E+00 -0.89715559937E+03  0.24678514161E+04  0.22990003137E+04 0.  0.
        5    1    3    3  502    0  0.31004267575E+03 -0.53321506267E+03  0.59265529470E+03  0.85539882638E+03  0.46999998093E+01 0.  1.
       -5    1    3    3    0  502 -0.31004267575E+03  0.53321506267E+03 -0.14898108941E+04  0.16124525897E+04  0.46999998093E+01 0. -1.
</event>
<event>
 5   0  0.4798609E-05  0.2365593E+04  0.7818609E-02  0.8452499E-01
       -2   -1    0    0    0  501  0.00000000000E+00  0.00000000000E+00  0.93053904930E+03  0.93053904930E+03  0.25500000920E-02 0. -1.
        2   -1    0    0  501    0  0.00000000000E+00  0.00000000000E+00 -0.15034372241E+04  0.15034372241E+04  0.25500000920E-02 0.  1.
    10030    2    1    2    0    0  0.00000000000E+00  0.00000000000E+00 -0.57289817478E+03  0.24339762734E+04  0.23655925644E+04 0.  0.
        2    1    3    3  502    0  0.98126414498E+03 -0.64314882526E+03 -0.13215646446E+03  0.11806714466E+04  0.25500000920E-02 0. -1.
       -2    1    3    3    0  502 -0.98126414498E+03  0.64314882526E+03 -0.44074171033E+03  0.12533048268E+04  0.25500000920E-02 0.  1.
</event>
<event>
 5   0  0.2042951E-05  0.2281316E+04  0.7818609E-02  0.8485325E-01
        1   -1    0    0  501    0  0.00000000000E+00  0.00000000000E+00  0.16011947799E+04  0.16011947799E+04  0.50400001928E-02 0. -1.
       -1   -1    0    0    0  501  0.00000000000E+00  0.00000000000E+00 -0.81258091134E+03  0.81258091136E+03  0.50400001928E-02 0.  1.
    10030    2    1    2    0    0  0.00000000000E+00  0.00000000000E+00  0.78861386851E+03  0.24137756912E+04  0.22813156848E+04 0.  0.
        2    1    3    3  502    0 -0.10059333644E+04  0.31175114409E+03 -0.69324633855E+02  0.10554130065E+04  0.25500000920E-02 0.  1.
       -2    1    3    3    0  502  0.10059333644E+04 -0.31175114409E+03  0.85793850236E+03  0.13583626847E+04  0.25500000920E-02 0. -1.
</event>
<event>
 5   0  0.4436695E-05  0.2244103E+04  0.7818609E-02  0.8500292E-01
       -2   -1    0    0    0  501  0.00000000000E+00  0.00000000000E+00  0.63848785142E+03  0.63848785143E+03  0.25500000920E-02 0.  1.
        2   -1    0    0  501    0  0.00000000000E+00  0.00000000000E+00 -0.19718462034E+04  0.19718462034E+04  0.25500000920E-02 0. -1.
    10030    2    1    2    0    0  0.00000000000E+00  0.00000000000E+00 -0.13333583520E+04  0.26103340549E+04  0.22441032470E+04 0.  0.
        5    1    3    3  502    0  0.92850926354E+03  0.61876483994E+03 -0.52915418772E+03  0.12349192783E+04  0.46999998093E+01 0. -1.
       -5    1    3    3    0  502 -0.92850926354E+03 -0.61876483994E+03 -0.80420416429E+03  0.13754147765E+04  0.46999998093E+01 0.  1.
</event>
<event>
 5   0  0.2085063E-05  0.2341190E+04  0.7818609E-02  0.8461855E-01
       -1   -1    0    0    0  501  0.00000000000E+00  0.00000000000E+00  0.12558028461E+04  0.12558028461E+04  0.50400001928E-02 0. -1.
        1   -1    0    0  501    0  0.00000000000E+00  0.00000000000E+00 -0.10911683038E+04  0.10911683039E+04  0.50400001928E-02 0.  1.
    10030    2    1    2    0    0  0.00000000000E+00  0.00000000000E+00  0.16463454226E+03  0.23469711500E+04  0.23411896647E+04 0.  0.
        1    1    3    3  502    0 -0.14547420986E+03 -0.11191729961E+04  0.39386007387E+03  0.11953395746E+04  0.50400001928E-02 0. -1.
       -1    1    3    3    0  502  0.14547420986E+03  0.11191729961E+04 -0.22922553161E+03  0.11516315753E+04  0.50400001928E-02 0.  1.
</event>
<event>
 5   0  0.4602447E-05  0.2207286E+04  0.7818609E-02  0.8515402E-01
        2   -1    0    0  501    0  0.00000000000E+00  0.00000000000E+00  0.75753427694E+03  0.75753427694E+03  0.25500000920E-02 0.  1.
       -2   -1    0    0    0  501  0.00000000000E+00  0.00000000000E+00 -0.16078841406E+04  0.16078841406E+04  0.25500000920E-02 0. -1.
    10030    2    1    2    0    0  0.00000000000E+00  0.00000000000E+00 -0.85034986363E+03  0.23654184175E+04  0.22072855274E+04 0.  0.
        3    1    3    3  502    0 -0.75895261852E+03  0.44790666965E+03  0.28679979661E+03  0.92675972906E+03  0.10100000352E+00 0.  1.
       -3    1    3    3    0  502  0.75895261852E+03 -0.44790666965E+03 -0.11371496602E+04  0.14386586885E+04  0.10100000352E+00 0. -1.
</event>
<event>
 5   0  0.4436695E-05  0.2299650E+04  0.7818609E-02  0.8478059E-01
        2   -1    0    0  501    0  0.00000000000E+00  0.00000000000E+00  0.19800591021E+04  0.19800591021E+04  0.25500000920E-02 0.  1.
       -2   -1    0    0    0  501  0.00000000000E+00  0.00000000000E+00 -0.66770614746E+03  0.66770614747E+03  0.25500000920E-02 0. -1.
    10030    2    1    2    0    0  0.00000000000E+00  0.00000000000E+00  0.13123529547E+04  0.26477652496E+04  0.22996500906E+04 0.  0.
        5    1    3    3  502    0  0.10983967977E+04  0.20762729334E+03  0.34617801180E+03  0.11702332776E+04  0.46999998093E+01 0.  1.
       -5    1    3    3    0  502 -0.10983967977E+04 -0.20762729334E+03  0.96617494288E+03  0.14775319720E+04  0.46999998093E+01 0. -1.
</event>
<event>
 5   0  0.4436695E-05  0.2321877E+04  0.7818609E-02  0.8469345E-01
       -2   -1    0    0    0  501  0.00000000000E+00  0.00000000000E+00  0.80073350385E+03  0.80073350385E+03  0.25500000920E-02 0.  1.
        2   -1    0    0  501    0  0.00000000000E+00  0.00000000000E+00 -0.16831801900E+04  0.16831801900E+04  0.25500000920E-02 0. -1.
    10030    2    1    2    0    0  0.00000000000E+00  0.00000000000E+00 -0.88244668612E+03  0.24839136938E+04  0.23218774913E+04 0.  0.
        5    1    3    3  502    0 -0.65006090042E+03 -0.63759690321E+03 -0.12116537709E+04  0.15156635299E+04  0.46999998093E+01 0. -1.
       -5    1    3    3    0  502  0.65006090042E+03  0.63759690321E+03  0.32920708482E+03  0.96825016392E+03  0.46999998093E+01 0.  1.
</event>
<event>
 5   0  0.4602447E-05  0.2176303E+04  0.7818609E-02  0.8528356E-01
        2   -1    0    0  501    0  0.00000000000E+00  0.00000000000E+00  0.14087728281E+04  0.14087728281E+04  0.25500000920E-02 0. -1.
       -2   -1    0    0    0  501  0.00000000000E+00  0.00000000000E+00 -0.84050037528E+03  0.84050037528E+03  0.25500000920E-02 0.  1.
    10030    2    1    2    0    0  0.00000000000E+00  0.00000000000E+00  0.56827245286E+03  0.22492732034E+04  0.21763033711E+04 0.  0.
        3    1    3    3  502    0 -0.34721848240E+03  0.84450974792E+03 -0.32758449209E+03  0.97008710872E+03  0.10100000352E+00 0.  1.
       -3    1    3    3    0  502  0.34721848240E+03 -0.84450974792E+03  0.89585694495E+03  0.12791860947E+04  0.10100000352E+00 0. -1.
</event>
<event>
 5   0  0.2085063E-05  0.2294192E+04  0.7818609E-02  0.8480214E-01
       -1   -1    0    0    0  501  0.00000000000E+00  0.00000000000E+00  0.12543649184E+04  0.12543649184E+04  0.50400001928E-02 0.  1.
        1   -1    0    0  501    0  0.00000000000E+00  0.00000000000E+00 -0.10490007810E+04  0.10490007810E+04  0.50400001928E-02 0. -1.
    10030    2    1    2    0    0  0.00000000000E+00  0.00000000000E+00  0.20536413747E+03  0.23033656994E+04  0.22941924759E+04 0.  0.
        1    1    3    3  502    0 -0.45006504218E+02  0.31444624868E+03 -0.10039627885E+04  0.10530162912E+04  0.50400001928E-02 0. -1.
       -1    1    3    3    0  502  0.45006504218E+02 -0.31444624868E+03  0.12093269260E+04  0.12503494082E+04  0.50400001928E-02 0.  1.
</event>
<event>
 5   0  0.2031860E-05  0.2699813E+04  0.7818609E-02  0.8335066E-01
        1   -1    0    0  501    0  0.00000000000E+00  0.00000000000E+00  0.21286132188E+04  0.21286132188E+04  0.50400001928E-02 0. -1.
       -1   -1    0    0    0  501  0.00000000000E+00  0.00000000000E+00 -0.85607245504E+03  0.85607245505E+03  0.50400001928E-02 0.  1.
    10030    2    1    2    0    0  0.00000000000E+00  0.00000000000E+00  0.12725407638E+04  0.29846856739E+04  0.26998126928E+04 0.  0.
        4    1    3    3  502    0  0.97776684991E+03 -0.92517236468E+03  0.74832418195E+03  0.15401177265E+04  0.12699999809E+01 0. -1.
       -4    1    3    3    0  502 -0.97776684991E+03  0.92517236468E+03  0.52421658184E+03  0.14445679474E+04  0.12699999809E+01 0.  1.
</event>
<event>
 5   0  0.2043885E-05  0.2303732E+04  0.7818609E-02  0.8476451E-01
       -1   -1    0    0    0  501  0.00000000000E+00  0.00000000000E+00  0.13195644876E+04  0.13195644876E+04  0.50400001928E-02 0.  1.
        1   -1    0    0  501    0  0.00000000000E+00  0.00000000000E+00 -0.10054798929E+04  0.10054798929E+04  0.50400001928E-02 0. -1.
    10030    2    1    2    0    0  0.00000000000E+00  0.00000000000E+00  0.31408459466E+03  0.23250443805E+04  0.23037322411E+04 0.  0.
        5    1    3    3  502    0  0.71722847807E+03 -0.77993219712E+03 -0.29886957222E+03  0.11009341638E+04  0.46999998093E+01 0.  1.
       -5    1    3    3    0  502 -0.71722847807E+03  0.77993219712E+03  0.61295416688E+03  0.12241102167E+04  0.46999998093E+01 0. -1.
</event>
<event>
 5   0  0.4798609E-05  0.2314261E+04  0.7818609E-02  0.8472319E-01
       -2   -1    0    0    0  501  0.00000000000E+00  0.00000000000E+00  0.12668982298E+04  0.12668982298E+04  0.25500000920E-02 0. -1.
        2   -1    0    0  501    0  0.00000000000E+00  0.00000000000E+00 -0.10568735313E+04  0.10568735313E+04  0.25500000920E-02 0.  1.
    10030    2    1    2    0    0  0.00000000000E+00  0.00000000000E+00  0.21002469843E+03  0.23237717611E+04  0.23142611831E+04 0.  0.
        2    1    3    3  502    0  0.42207355856E+03  0.10006264857E+04 -0.29606846614E+03  0.11256358156E+04  0.25500000920E-02 0.  1.
       -2    1    3    3    0  502 -0.42207355856E+03 -0.10006264857E+04  0.50609316457E+03  0.11981359455E+04  0.25500000920E-02 0. -1.
</event>
<event>
 5   0  0.1968318E-05  0.2306228E+04  0.7818609E-02  0.8475469E-01
       -1   -1    0    0    0  501  0.00000000000E+00  0.00000000000E+00  0.48937035450E+03  0.48937035452E+03  0.50400001928E-02 0. -1.
        1   -1    0    0  501    0  0.00000000000E+00  0.00000000000E+00 -0.27171086648E+04  0.27171086648E+04  0.50400001928E-02 0.  1.
    10030    2    1    2    0    0  0.00000000000E+00  0.00000000000E+00 -0.22277383103E+04  0.32064790193E+04  0.23062284627E+04 0.  0.
        3    1    3    3  502    0 -0.53499560493E+03 -0.30083485366E+03  0.24338521634E+03  0.66027136861E+03  0.10100000352E+00 0. -1.
       -3    1    3    3    0  502  0.53499560493E+03  0.30083485366E+03 -0.24711235266E+04  0.25462076507E+04  0.10100000352E+00 0.  1.
</event>
<event>
 5   0  0.2031860E-05  0.2293702E+04  0.7818609E-02  0.8480408E-01
       -1   -1    0    0    0  501  0.00000000000E+00  0.00000000000E+00  0.74808604376E+03  0.74808604378E+03  0.50400001928E-02 0. -1.
        1   -1    0    0  501    0  0.00000000000E+00  0.00000000000E+00 -0.17581771422E+04  0.17581771422E+04  0.50400001928E-02 0.  1.
    10030    2    1    2    0    0  0.00000000000E+00  0.00000000000E+00 -0.10100910984E+04  0.25062631860E+04  0.22937024939E+04 0.  0.
        4    1    3    3  502    0  0.55352431499E+03  0.74975737274E+03 -0.12353726858E+04  0.15474729630E+04  0.12699999809E+01 0.  1.
       -4    1    3    3    0  502 -0.55352431499E+03 -0.74975737274E+03  0.22528158740E+03  0.95879022303E+03  0.12699999809E+01 0. -1.
</event>
<event>
 5   0  0.4505107E-05  0.2296774E+04  0.7818609E-02  0.8479194E-01
       -2   -1    0    0    0  501  0.00000000000E+00  0.00000000000E+00  0.14145204060E+04  0.14145204060E+04  0.25500000920E-02 0. -1.
        2   -1    0    0  501    0  0.00000000000E+00  0.00000000000E+00 -0.93232504425E+03  0.93232504425E+03  0.25500000920E-02 0.  1.
    10030    2    1    2    0    0  0.00000000000E+00  0.00000000000E+00  0.48219536174E+03  0.23468454502E+04  0.22967740856E+04 0.  0.
        4    1    3    3  502    0 -0.54653940084E+03  0.40095912928E+03  0.11883007059E+04  0.13680401019E+04  0.12699999809E+01 0. -1.
       -4    1    3    3    0  502  0.54653940084E+03 -0.40095912928E+03 -0.70610534412E+03  0.97880534833E+03  0.12699999809E+01 0.  1.
</event>
<event>
 5   0  0.2031860E-05  0.2271904E+04  0.7818609E-02  0.8489082E-01
       -1   -1    0    0    0  501  0.00000000000E+00  0.00000000000E+00  0.15353559863E+04  0.15353559863E+04  0.50400001928E-02 0.  1.
        1   -1    0    0  501    0  0.00000000000E+00  0.00000000000E+00 -0.84044809070E+03  0.84044809071E+03  0.50400001928E-02 0. -1.
    10030    2    1    2    0    0  0.00000000000E+00  0.00000000000E+00  0.69490789557E+03  0.23758040770E+04  0.22719040536E+04 0.  0.
        4    1    3    3  502    0  0.79226774518E+03  0.80410656663E+03  0.48018309419E+03  0.12267244872E+04  0.12699999809E+01 0. -1.
       -4    1    3    3    0  502 -0.79226774518E+03 -0.80410656663E+03  0.21472480138E+03  0.11490795898E+04  0.12699999809E+01 0.  1.
</event>
<event>
 5   0  0.2031860E-05  0.2317720E+04  0.7818609E-02  0.8470967E-01
       -1   -1    0    0    0  501  0.00000000000E+00  0.00000000000E+00  0.70401005352E+03  0.70401005354E+03  0.50400001928E-02 0.  1.
        1   -1    0    0  501    0  0.00000000000E+00  0.00000000000E+00 -0.19075807142E+04  0.19075807142E+04  0.50400001928E-02 0. -1.
    10030    2    1    2    0    0  0.00000000000E+00  0.00000000000E+00 -0.12035706607E+04  0.26115907678E+04  0.23177195695E+04 0.  0.
        4    1    3    3  502    0 -0.35012067663E+03  0.42376971671E+03  0.54775869925E+03  0.77601963023E+03  0.12699999809E+01 0.  1.
       -4    1    3    3    0  502  0.35012067663E+03 -0.42376971671E+03 -0.17513293599E+04  0.18355711375E+04  0.12699999809E+01 0. -1.
</event>
<event>
 5   0  0.2085063E-05  0.2213058E+04  0.7818609E-02  0.8513013E-01
        1   -1    0    0  501    0  0.00000000000E+00  0.00000000000E+00  0.13970103754E+04  0.13970103754E+04  0.50400001928E-02 0.  1.
       -1   -1    0    0    0  501  0.00000000000E+00  0.00000000000E+00 -0.87644760037E+03  0.87644760039E+03  0.50400001928E-02 0. -1.
    10030    2    1    2    0    0  0.00000000000E+00  0.00000000000E+00  0.52056277501E+03  0.22734579758E+04  0.22130579669E+04 0.  0.
        1    1    3    3  502    0 -0.10005484761E+04 -0.38464988708E+03  0.54227946727E+03  0.12012992173E+04  0.50400001928E-02 0.  1.
       -1    1    3    3    0  502  0.10005484761E+04  0.38464988708E+03 -0.21716692261E+02  0.10721587585E+04  0.50400001928E-02 0. -1.
</event>
<event>
 5   0  0.4605516E-05  0.2236570E+04  0.7818609E-02  0.8503359E-01
       -2   -1    0    0    0  501  0.00000000000E+00  0.00000000000E+00  0.85226892794E+03  0.85226892794E+03  0.25500000920E-02 0. -1.
        2   -1    0    0  501    0  0.00000000000E+00  0.00000000000E+00 -0.14673324442E+04  0.14673324442E+04  0.25500000920E-02 0.  1.
    10030    2    1    2    0    0  0.00000000000E+00  0.00000000000E+00 -0.61506351623E+03  0.23196013721E+04  0.22365704542E+04 0.  0.
        1    1    3    3  502    0  0.11015627657E+03 -0.85956618836E+03  0.42551289729E+03  0.96542719209E+03  0.50400001928E-02 0. -1.
       -1    1    3    3    0  502 -0.11015627657E+03  0.85956618836E+03 -0.10405764135E+04  0.13541741800E+04  0.50400001928E-02 0.  1.
</event>
<event>
 5   0  0.1968318E-05  0.2299427E+04  0.7818609E-02  0.8478147E-01
        1   -1    0    0  501    0  0.00000000000E+00  0.00000000000E+00  0.11533436658E+04  0.11533436658E+04  0.50400001928E-02 0.  1.
       -1   -1    0    0    0  501  0.00000000000E+00  0.00000000000E+00 -0.11460946524E+04  0.11460946524E+04  0.50400001928E-02 0. -1.
    10030    2    1    2    0    0  0.00000000000E+00  0.00000000000E+00  0.72490133802E+01  0.22994383183E+04  0.22994268919E+04 0.  0.
        3    1    3    3  502    0 -0.96023952019E+03  0.10768656930E+03  0.62667227551E+03  0.11516833265E+04  0.10100000352E+00 0. -1.
       -3    1    3    3    0  502  0.96023952019E+03 -0.10768656930E+03 -0.61942326213E+03  0.11477549918E+04  0.10100000352E+00 0.  1.
</event>
<event>
 5   0  0.4798609E-05  0.2293847E+04  0.7818609E-02  0.8480351E-01
        2   -1    0    0  501    0  0.00000000000E+00  0.00000000000E+00  0.10918865572E+04  0.10918865572E+04  0.25500000920E-02 0. -1.
       -2   -1    0    0    0  501  0.00000000000E+00  0.00000000000E+00 -0.12047345684E+04  0.12047345684E+04  0.25500000920E-02 0.  1.
    10030    2    1    2    0    0  0.00000000000E+00  0.00000000000E+00 -0.11284801124E+03  0.22966211256E+04  0.22938469698E+04 0.  0.
        2    1    3    3  502    0  0.38672971997E+03 -0.10298337215E+04 -0.38134091870E+03  0.11642758550E+04  0.25500000920E-02 0. -1.
       -2    1    3    3    0  502 -0.38672971997E+03  0.10298337215E+04  0.26849290746E+03  0.11323452705E+04  0.25500000920E-02 0.  1.
</event>
<event>
 5   0  0.4602447E-05  0.2295388E+04  0.7818609E-02  0.8479742E-01
        2   -1    0    0  501    0  0.00000000000E+00  0.00000000000E+00  0.15568820208E+04  0.15568820208E+04  0.25500000920E-02 0.  1.
       -2   -1    0    0    0  501  0.00000000000E+00  0.00000000000E+00 -0.84605088429E+03  0.84605088429E+03  0.25500000920E-02 0. -1.
    10030    2    1    2    0    0  0.00000000000E+00  0.00000000000E+00  0.71083113648E+03  0.24029329051E+04  0.22953879066E+04 0.  0.
        3    1    3    3  502    0 -0.20959767722E+03 -0.10129213001E+04  0.87596630075E+03  0.13554548007E+04  0.10100000352E+00 0.  1.
       -3    1    3    3    0  502  0.20959767722E+03  0.10129213001E+04 -0.16513516426E+03  0.10474781044E+04  0.10100000352E+00 0. -1.
</event>
<event>
 5   0  0.2043885E-05  0.2311162E+04  0.7818609E-02  0.8473533E-01
        1   -1    0    0  501    0  0.00000000000E+00  0.00000000000E+00  0.11335206561E+04  0.11335206562E+04  0.50400001928E-02 0.  1.
       -1   -1    0    0    0  501  0.00000000000E+00  0.00000000000E+00 -0.11780709861E+04  0.11780709861E+04  0.50400001928E-02 0. -1.
    10030    2    1    2    0    0  0.00000000000E+00  0.00000000000E+00 -0.44550329927E+02  0.23115916422E+04  0.23111623025E+04 0.  0.
        5    1    3    3  502    0 -0.20475832972E+03  0.71063791007E+03 -0.91036662723E+03  0.11729116330E+04  0.46999998093E+01 0. -1.
       -5    1    3    3    0  502  0.20475832972E+03 -0.71063791007E+03  0.86581629730E+03  0.11386800093E+04  0.46999998093E+01 0.  1.
</event>
<event>
 5   0  0.4505107E-05  0.2252385E+04  0.7818609E-02  0.8496935E-01
        2   -1    0    0  501    0  0.00000000000E+00  0.00000000000E+00  0.15035691198E+04  0.15035691198E+04  0.25500000920E-02 0.  1.
       -2   -1    0    0    0  501  0.00000000000E+00  0.00000000000E+00 -0.84353221273E+03  0.84353221273E+03  0.25500000920E-02 0. -1.
    10030    2    1    2    0    0  0.00000000000E+00  0.00000000000E+00  0.66003690704E+03  0.23471013325E+04  0.22523845023E+04 0.  0.
        4    1    3    3  502    0 -0.21749744331E+03  0.89960590753E+02 -0.81761573485E+03  0.85082027979E+03  0.12699999809E+01 0. -1.
       -4    1    3    3    0  502  0.21749744331E+03 -0.89960590753E+02  0.14776526419E+04  0.14962810527E+04  0.12699999809E+01 0.  1.
</event>
<event>
 5   0  0.4505107E-05  0.2309148E+04  0.7818609E-02  0.8474323E-01
        2   -1    0    0  501    0  0.00000000000E+00  0.00000000000E+00  0.14386319262E+04  0.14386319262E+04  0.25500000920E-02 0.  1.
       -2   -1    0    0    0  501  0.00000000000E+00  0.00000000000E+00 -0.92660298850E+03  0.92660298851E+03  0.25500000920E-02 0. -1.
    10030    2    1    2    0    0  0.00000000000E+00  0.00000000000E+00  0.51202893767E+03  0.23652349147E+04  0.23091475848E+04 0.  0.
        4    1    3    3  502    0  0.10947318107E+04  0.36647982974E+03  0.23845675847E+03  0.11788165428E+04  0.12699999809E+01 0. -1.
       -4    1    3    3    0  502 -0.10947318107E+04 -0.36647982974E+03  0.27357217919E+03  0.11864183719E+04  0.12699999809E+01 0.  1.
</event>
<event>
 5   0  0.4798609E-05  0.2332106E+04  0.7818609E-02  0.8465369E-01
       -2   -1    0    0    0  501  0.00000000000E+00  0.00000000000E+00  0.76633667725E+03  0.76633667725E+03  0.25500000920E-02 0.  1.
        2   -1    0    0  501    0  0.00000000000E+00  0.00000000000E+00 -0.17742590379E+04  0.17742590379E+04  0.25500000920E-02 0. -1.
    10030    2    1    2    0    0  0.00000000000E+00  0.00000000000E+00 -0.10079223606E+04  0.25405957151E+04  0.23321061517E+04 0.  0.
        2    1    3    3  502    0 -0.54211033846E+02  0.11182493280E+03  0.75910186224E+03  0.76920692212E+03  0.25500000920E-02 0.  1.
       -2    1    3    3    0  502  0.54211033846E+02 -0.11182493280E+03 -0.17670242229E+04  0.17713887930E+04  0.25500000920E-02 0. -1.
</event>
<event>
 5   0  0.2043885E-05  0.2259521E+04  0.7818609E-02  0.8494055E-01
        1   -1    0    0  501    0  0.00000000000E+00  0.00000000000E+00  0.12528498528E+04  0.12528498528E+04  0.50400001928E-02 0.  1.
       -1   -1    0    0    0  501  0.00000000000E+00  0.00000000000E+00 -0.10187645023E+04  0.10187645023E+04  0.50400001928E-02 0. -1.
    10030    2    1    2    0    0  0.00000000000E+00  0.00000000000E+00  0.23408535050E+03  0.22716143551E+04  0.22595211499E+04 0.  0.
        5    1    3    3  502    0  0.13143491794E+03  0.49383485550E+03  0.11300010896E+04  0.12401905316E+04  0.46999998093E+01 0.  1.
       -5    1    3    3    0  502 -0.13143491794E+03 -0.49383485550E+03 -0.89591573908E+03  0.10314238235E+04  0.46999998093E+01 0. -1.
</event>
<event>
 5   0  0.4602447E-05  0.2311981E+04  0.7818609E-02  0.8473212E-01
        2   -1    0    0  501    0  0.00000000000E+00  0.00000000000E+00  0.10807018159E+04  0.10807018159E+04  0.25500000920E-02 0. -1.
       -2   -1    0    0    0  501  0.00000000000E+00  0.00000000000E+00 -0.12365241779E+04  0.12365241779E+04  0.25500000920E-02 0.  1.
    10030    2    1    2    0    0  0.00000000000E+00  0.00000000000E+00 -0.15582236202E+03  0.23172259938E+04  0.23119809034E+04 0.  0.
        3    1    3    3  502    0 -0.61250607761E+03  0.17862203500E+03  0.88824897287E+03  0.10936433489E+04  0.10100000352E+00 0. -1.
       -3    1    3    3    0  502  0.61250607761E+03 -0.17862203500E+03 -0.10440713349E+04  0.12235826450E+04  0.10100000352E+00 0.  1.
</event>
<event>
 5   0  0.1604500E-05  0.2373334E+04  0.7818609E-02  0.8449555E-01
        3   -1    0    0  501    0  0.00000000000E+00  0.00000000000E+00  0.24318837655E+04  0.24318837676E+04  0.10100000352E+00 0.  1.
       -3   -1    0    0    0  501  0.00000000000E+00  0.00000000000E+00 -0.57904856067E+03  0.57904856948E+03  0.10100000352E+00 0. -1.
    10030    2    1    2    0    0  0.00000000000E+00  0.00000000000E+00  0.18528352049E+04  0.30109323371E+04  0.23733342037E+04 0.  0.
        4    1    3    3  502    0 -0.27907789271E+03 -0.13191684914E+03 -0.52722077159E+03  0.61094179771E+03  0.12699999809E+01 0. -1.
       -4    1    3    3    0  502  0.27907789271E+03  0.13191684914E+03  0.23800559765E+04  0.23999905394E+04  0.12699999809E+01 0.  1.
</event>
<event>
 5   0  0.1968318E-05  0.2298413E+04  0.7818609E-02  0.8478547E-01
        1   -1    0    0  501    0  0.00000000000E+00  0.00000000000E+00  0.19907817317E+04  0.19907817317E+04  0.50400001928E-02 0. -1.
       -1   -1    0    0    0  501  0.00000000000E+00  0.00000000000E+00 -0.66339544898E+03  0.66339544900E+03  0.50400001928E-02 0.  1.
    10030    2    1    2    0    0  0.00000000000E+00  0.00000000000E+00  0.13273862827E+04  0.26541771807E+04  0.22984129662E+04 0.  0.
        3    1    3    3  502    0 -0.63170144855E+03 -0.21649063323E+03 -0.41636331882E+03  0.78693922119E+03  0.10100000352E+00 0.  1.
       -3    1    3    3    0  502  0.63170144855E+03  0.21649063323E+03  0.17437496015E+04  0.18672379595E+04  0.10100000352E+00 0. -1.
</event>
<event>
 5   0  0.1604500E-05  0.2316624E+04  0.7818609E-02  0.8471395E-01
       -3   -1    0    0    0  501  0.00000000000E+00  0.00000000000E+00  0.77894961448E+03  0.77894962103E+03  0.10100000352E+00 0. -1.
        3   -1    0    0  501    0  0.00000000000E+00  0.00000000000E+00 -0.17224311369E+04  0.17224311398E+04  0.10100000352E+00 0.  1.
    10030    2    1    2    0    0  0.00000000000E+00  0.00000000000E+00 -0.94348152240E+03  0.25013807609E+04  0.23166243389E+04 0.  0.
        1    1    3    3  502    0 -0.68522841208E+03  0.20504805237E+03  0.51202238435E+03  0.87963037840E+03  0.50400001928E-02 0. -1.
       -1    1    3    3    0  502  0.68522841208E+03 -0.20504805237E+03 -0.14555039067E+04  0.16217503825E+04  0.50400001928E-02 0.  1.
</event>
<event>
 5   0  0.4505107E-05  0.2344592E+04  0.7818609E-02  0.8460544E-01
       -2   -1    0    0    0  501  0.00000000000E+00  0.00000000000E+00  0.11439452926E+04  0.11439452926E+04  0.25500000920E-02 0.  1.
        2   -1    0    0  501    0  0.00000000000E+00  0.00000000000E+00 -0.12013494369E+04  0.12013494369E+04  0.25500000920E-02 0. -1.
    10030    2    1    2    0    0  0.00000000000E+00  0.00000000000E+00 -0.57404144321E+02  0.23452947294E+04  0.23445921036E+04 0.  0.
        4    1    3    3  502    0 -0.35856663924E+03 -0.41145712436E+03  0.10091103734E+04  0.11472455529E+04  0.12699999809E+01 0.  1.
       -4    1    3    3    0  502  0.35856663924E+03  0.41145712436E+03 -0.10665145177E+04  0.11980491765E+04  0.12699999809E+01 0. -1.
</event>
<event>
 5   0  0.2031860E-05  0.2288580E+04  0.7818609E-02  0.8482438E-01
       -1   -1    0    0    0  501  0.00000000000E+00  0.00000000000E+00  0.73637658791E+03  0.73637658793E+03  0.50400001928E-02 0. -1.
        1   -1    0    0  501    0  0.00000000000E+00  0.00000000000E+00 -0.17781656175E+04  0.17781656175E+04  0.50400001928E-02 0.  1.
    10030    2    1    2    0    0  0.00000000000E+00  0.00000000000E+00 -0.10417890296E+04  0.25145422054E+04  0.22885799354E+04 0.  0.
        4    1    3    3  502    0  0.75807301265E+03  0.77959444336E+03 -0.12940602792E+03  0.10950752128E+04  0.12699999809E+01 0. -1.
       -4    1    3    3    0  502 -0.75807301265E+03 -0.77959444336E+03 -0.91238300164E+03  0.14194669926E+04  0.12699999809E+01 0.  1.
</event>
<event>
 5   0  0.1968318E-05  0.2255686E+04  0.7818609E-02  0.8495601E-01
       -1   -1    0    0    0  501  0.00000000000E+00  0.00000000000E+00  0.17339564845E+04  0.17339564845E+04  0.50400001928E-02 0. -1.
        1   -1    0    0  501    0  0.00000000000E+00  0.00000000000E+00 -0.73359952071E+03  0.73359952073E+03  0.50400001928E-02 0.  1.
    10030    2    1    2    0    0  0.00000000000E+00  0.00000000000E+00  0.10003569638E+04  0.24675560052E+04  0.22556858345E+04 0.  0.
        3    1    3    3  502    0  0.59827897023E+03  0.12158876648E+03 -0.53721294428E+03  0.81321541553E+03  0.10100000352E+00 0.  1.
       -3    1    3    3    0  502 -0.59827897023E+03 -0.12158876648E+03  0.15375699080E+04  0.16543405897E+04  0.10100000352E+00 0. -1.
</event>
<event>
 5   0  0.4798609E-05  0.2281906E+04  0.7818609E-02  0.8485090E-01
        2   -1    0    0  501    0  0.00000000000E+00  0.00000000000E+00  0.17581517832E+04  0.17581517832E+04  0.25500000920E-02 0.  1.
       -2   -1    0    0    0  501  0.00000000000E+00  0.00000000000E+00 -0.74042139965E+03  0.74042139965E+03  0.25500000920E-02 0. -1.
    10030    2    1    2    0    0  0.00000000000E+00  0.00000000000E+00  0.10177303836E+04  0.24985731829E+04  0.22819055231E+04 0.  0.
        2    1    3    3  502    0 -0.25140513929E+03  0.10361622032E+04  0.64179796543E+02  0.10681552798E+04  0.25500000920E-02 0. -1.
       -2    1    3    3    0  502  0.25140513929E+03 -0.10361622032E+04  0.95355058701E+03  0.14304179031E+04  0.25500000920E-02 0.  1.
</event>
<event>
 5   0  0.1968318E-05  0.2295456E+04  0.7818609E-02  0.8479715E-01
        1   -1    0    0  501    0  0.00000000000E+00  0.00000000000E+00  0.96376530861E+03  0.96376530862E+03  0.50400001928E-02 0.  1.
       -1   -1    0    0    0  501  0.00000000000E+00  0.00000000000E+00 -0.13668052640E+04  0.13668052640E+04  0.50400001928E-02 0. -1.
    10030    2    1    2    0    0  0.00000000000E+00  0.00000000000E+00 -0.40303995535E+03  0.23305705726E+04  0.22954559434E+04 0.  0.
        3    1    3    3  502    0 -0.47740400713E+03 -0.77097978083E+03 -0.91581264026E+03  0.12888123256E+04  0.10100000352E+00 0. -1.
       -3    1    3    3    0  502  0.47740400713E+03  0.77097978083E+03  0.51277268491E+03  0.10417582469E+04  0.10100000352E+00 0.  1.
</event>
<event>
 5   0  0.4505107E-05  0.2299280E+04  0.7818609E-02  0.8478205E-01
        2   -1    0    0  501    0  0.00000000000E+00  0.00000000000E+00  0.78832214943E+03  0.78832214943E+03  0.25500000920E-02 0.  1.
       -2   -1    0    0    0  501  0.00000000000E+00  0.00000000000E+00 -0.16765631126E+04  0.16765631126E+04  0.25500000920E-02 0. -1.
    10030    2    1    2    0    0  0.00000000000E+00  0.00000000000E+00 -0.88824096313E+03  0.24648852620E+04  0.22992797451E+04 0.  0.
        4    1    3    3  502    0  0.35697898927E+03 -0.28495960995E+03 -0.15751115050E+04  0.16400042207E+04  0.12699999809E+01 0. -1.
       -4    1    3    3    0  502 -0.35697898927E+03  0.28495960995E+03  0.68687054183E+03  0.82488104125E+03  0.12699999809E+01 0.  1.
</event>
<event>
 5   0  0.4605516E-05  0.2302361E+04  0.7818609E-02  0.8476991E-01
        2   -1    0    0  501    0  0.00000000000E+00  0.00000000000E+00  0.10887544675E+04  0.10887544675E+04  0.25500000920E-02 0.  1.
       -2   -1    0    0    0  501  0.00000000000E+00  0.00000000000E+00 -0.12171860070E+04  0.12171860070E+04  0.25500000920E-02 0. -1.
    10030    2    1    2    0    0  0.00000000000E+00  0.00000000000E+00 -0.12843153949E+03  0.23059404745E+04  0.23023611384E+04 0.  0.
        1    1    3    3  502    0  0.71270127000E+03  0.32197923467E+03 -0.91027929400E+03  0.12000925468E+04  0.50400001928E-02 0. -1.
       -1    1    3    3    0  502 -0.71270127000E+03 -0.32197923467E+03  0.78184775451E+03  0.11058479276E+04  0.50400001928E-02 0.  1.
</event>
<event>
 5   0  0.4602447E-05  0.2332996E+04  0.7818609E-02  0.8465024E-01
       -2   -1    0    0    0  501  0.00000000000E+00  0.00000000000E+00  0.95123358314E+03  0.95123358314E+03  0.25500000920E-02 0. -1.
        2   -1    0    0  501    0  0.00000000000E+00  0.00000000000E+00 -0.14304767828E+04  0.14304767828E+04  0.25500000920E-02 0.  1.
    10030    2    1    2    0    0  0.00000000000E+00  0.00000000000E+00 -0.47924319962E+03  0.23817103659E+04  0.23329959757E+04 0.  0.
        3    1    3    3  502    0 -0.66999575012E+03 -0.82089326443E+03  0.25837301411E+03  0.10906496602E+04  0.10100000352E+00 0.  1.
       -3    1    3    3    0  502  0.66999575012E+03  0.82089326443E+03 -0.73761621373E+03  0.12910607057E+04  0.10100000352E+00 0. -1.
</event>
<event>
 5   0  0.4602447E-05  0.2266619E+04  0.7818609E-02  0.8491200E-01
       -2   -1    0    0    0  501  0.00000000000E+00  0.00000000000E+00  0.90177886883E+03  0.90177886883E+03  0.25500000920E-02 0. -1.
        2   -1    0    0  501    0  0.00000000000E+00  0.00000000000E+00 -0.14242852897E+04  0.14242852897E+04  0.25500000920E-02 0.  1.
    10030    2    1    2    0    0  0.00000000000E+00  0.00000000000E+00 -0.52250642083E+03  0.23260641585E+04  0.22666189600E+04 0.  0.
        3    1    3    3  502    0 -0.60519245976E+03  0.52230662728E+03  0.56313829435E+03  0.97784808381E+03  0.10100000352E+00 0. -1.
       -3    1    3    3    0  502  0.60519245976E+03 -0.52230662728E+03 -0.10856447152E+04  0.13482160747E+04  0.10100000352E+00 0.  1.
</event>
<event>
 5   0  0.4436695E-05  0.2297832E+04  0.7818609E-02  0.8478776E-01
        2   -1    0    0  501    0  0.00000000000E+00  0.00000000000E+00  0.18577988369E+04  0.18577988369E+04  0.25500000920E-02 0.  1.
       -2   -1    0    0    0  501  0.00000000000E+00  0.00000000000E+00 -0.71052258431E+03  0.71052258432E+03  0.25500000920E-02 0. -1.
    10030    2    1    2    0    0  0.00000000000E+00  0.00000000000E+00  0.11472762526E+04  0.25683214213E+04  0.22978320485E+04 0.  0.
        5    1    3    3  502    0 -0.59446909517E+03  0.30458066224E+03 -0.47118515538E+03  0.81743527301E+03  0.46999998093E+01 0. -1.
       -5    1    3    3    0  502  0.59446909517E+03 -0.30458066224E+03  0.16184614080E+04  0.17508861483E+04  0.46999998093E+01 0.  1.
</event>
<event>
 5   0  0.1968318E-05  0.2281573E+04  0.7818609E-02  0.8485222E-01
       -1   -1    0    0    0  501  0.00000000000E+00  0.00000000000E+00  0.13925417944E+04  0.13925417944E+04  0.50400001928E-02 0. -1.
        1   -1    0    0  501    0  0.00000000000E+00  0.00000000000E+00 -0.93454583190E+03  0.93454583192E+03  0.50400001928E-02 0.  1.
    10030    2    1    2    0    0  0.00000000000E+00  0.00000000000E+00  0.45799596245E+03  0.23270876263E+04  0.22815732552E+04 0.  0.
        3    1    3    3  502    0 -0.10565709640E+04  0.33018844315E+03  0.51022931184E+03  0.12188931745E+04  0.10100000352E+00 0. -1.
       -3    1    3    3    0  502  0.10565709640E+04 -0.33018844315E+03 -0.52233349384E+02  0.11081944518E+04  0.10100000352E+00 0.  1.
</event>
<event>
 5   0  0.2031860E-05  0.2308129E+04  0.7818609E-02  0.8474723E-01
        1   -1    0    0  501    0  0.00000000000E+00  0.00000000000E+00  0.13457453277E+04  0.13457453277E+04  0.50400001928E-02 0. -1.
       -1   -1    0    0    0  501  0.00000000000E+00  0.00000000000E+00 -0.98968576342E+03  0.98968576343E+03  0.50400001928E-02 0.  1.
    10030    2    1    2    0    0  0.00000000000E+00  0.00000000000E+00  0.35605956428E+03  0.23354310911E+04  0.23081291056E+04 0.  0.
        4    1    3    3  502    0 -0.23934695817E+03 -0.31613017747E+03 -0.91859739888E+03  0.10005238876E+04  0.12699999809E+01 0.  1.
       -4    1    3    3    0  502  0.23934695817E+03  0.31613017747E+03  0.12746569632E+04  0.13349072036E+04  0.12699999809E+01 0. -1.
</event>
<event>
 5   0  0.4505107E-05  0.2327951E+04  0.7818609E-02  0.8466981E-01
        2   -1    0    0  501    0  0.00000000000E+00  0.00000000000E+00  0.16422267283E+04  0.16422267283E+04  0.25500000920E-02 0. -1.
       -2   -1    0    0    0  501  0.00000000000E+00  0.00000000000E+00 -0.82500112396E+03  0.82500112396E+03  0.25500000920E-02 0.  1.
    10030    2    1    2    0    0  0.00000000000E+00  0.00000000000E+00  0.81722560433E+03  0.24672278522E+04  0.23279509416E+04 0.  0.
        4    1    3    3  502    0  0.15950138558E+02  0.32221843649E+03  0.15938959425E+04  0.16262180100E+04  0.12699999809E+01 0. -1.
       -4    1    3    3    0  502 -0.15950138558E+02 -0.32221843649E+03 -0.77667033813E+03  0.84100984226E+03  0.12699999809E+01 0.  1.
</event>
<event>
 5   0  0.1968318E-05  0.2253290E+04  0.7818609E-02  0.8496569E-01
        1   -1    0    0  501    0  0.00000000000E+00  0.00000000000E+00  0.18969749066E+04  0.18969749066E+04  0.50400001928E-02 0. -1.
       -1   -1    0    0    0  501  0.00000000000E+00  0.00000000000E+00 -0.66913296626E+03  0.66913296628E+03  0.50400001928E-02 0.  1.
    10030    2    1    2    0    0  0.00000000000E+00  0.00000000000E+00  0.12278419403E+04  0.25661078728E+04  0.22532895475E+04 0.  0.
        3    1    3    3  502    0 -0.43155821334E+03 -0.16207347175E+03  0.17846544425E+04  0.18432313450E+04  0.10100000352E+00 0. -1.
       -3    1    3    3    0  502  0.43155821334E+03  0.16207347175E+03 -0.55681250220E+03  0.72287652787E+03  0.10100000352E+00 0.  1.
</event>
<event>
 5   0  0.2042951E-05  0.2178155E+04  0.7818609E-02  0.8527576E-01
        1   -1    0    0  501    0  0.00000000000E+00  0.00000000000E+00  0.17263695648E+04  0.17263695648E+04  0.50400001928E-02 0. -1.
       -1   -1    0    0    0  501  0.00000000000E+00  0.00000000000E+00 -0.68704279766E+03  0.68704279768E+03  0.50400001928E-02 0.  1.
    10030    2    1    2    0    0  0.00000000000E+00  0.00000000000E+00  0.10393267671E+04  0.24134123625E+04  0.21781549767E+04 0.  0.
        2    1    3    3  502    0  0.20794111666E+02  0.65145209803E+03  0.14864072239E+04  0.16230307041E+04  0.25500000920E-02 0. -1.
       -2    1    3    3    0  502 -0.20794111666E+02 -0.65145209803E+03 -0.44708045677E+03  0.79038165840E+03  0.25500000920E-02 0.  1.
</event>
<event>
 5   0  0.1968318E-05  0.2269037E+04  0.7818609E-02  0.8490230E-01
       -1   -1    0    0    0  501  0.00000000000E+00  0.00000000000E+00  0.11919705611E+04  0.11919705611E+04  0.50400001928E-02 0. -1.
        1   -1    0    0  501    0  0.00000000000E+00  0.00000000000E+00 -0.10798360001E+04  0.10798360001E+04  0.50400001928E-02 0.  1.
    10030    2    1    2    0    0  0.00000000000E+00  0.00000000000E+00  0.11213456101E+03  0.22718065611E+04  0.22690374372E+04 0.  0.
        3    1    3    3  502    0  0.24800765643E+03  0.23684331660E+03 -0.10267006909E+04  0.10824587166E+04  0.10100000352E+00 0.  1.
       -3    1    3    3    0  502 -0.24800765643E+03 -0.23684331660E+03  0.11388352519E+04  0.11893478446E+04  0.10100000352E+00 0. -1.
</event>
<event>
 5   0  0.1968318E-05  0.2296701E+04  0.7818609E-02  0.8479223E-01
        1   -1    0    0  501    0  0.00000000000E+00  0.00000000000E+00  0.13761300733E+04  0.13761300733E+04  0.50400001928E-02 0.  1.
       -1   -1    0    0    0  501  0.00000000000E+00  0.00000000000E+00 -0.95827337108E+03  0.95827337109E+03  0.50400001928E-02 0. -1.
    10030    2    1    2    0    0  0.00000000000E+00  0.00000000000E+00  0.41785670222E+03  0.23344034444E+04  0.22967009421E+04 0.  0.
        3    1    3    3  502    0 -0.25911165867E+03  0.41392729524E+03 -0.84747656969E+03  0.97810592667E+03  0.10100000352E+00 0. -1.
       -3    1    3    3    0  502  0.25911165867E+03 -0.41392729524E+03  0.12653332719E+04  0.13562975177E+04  0.10100000352E+00 0.  1.
</event>
<event>
 5   0  0.2043885E-05  0.2299879E+04  0.7818609E-02  0.8477969E-01
        1   -1    0    0  501    0  0.00000000000E+00  0.00000000000E+00  0.24112750448E+04  0.24112750448E+04  0.50400001928E-02 0.  1.
       -1   -1    0    0    0  501  0.00000000000E+00  0.00000000000E+00 -0.54840722824E+03  0.54840722827E+03  0.50400001928E-02 0. -1.
    10030    2    1    2    0    0  0.00000000000E+00  0.00000000000E+00  0.18628678166E+04  0.29596822731E+04  0.22998788350E+04 0.  0.
        5    1    3    3  502    0 -0.32794728311E+03 -0.44876566942E+03  0.22269125855E+04  0.22952345849E+04  0.46999998093E+01 0.  1.
       -5    1    3    3    0  502  0.32794728311E+03  0.44876566942E+03 -0.36404476889E+03  0.66444768816E+03  0.46999998093E+01 0. -1.
</event>
<event>
 5   0  0.2042951E-05  0.2268613E+04  0.7818609E-02  0.8490400E-01
        1   -1    0    0  501    0  0.00000000000E+00  0.00000000000E+00  0.20473445407E+04  0.20473445407E+04  0.50400001928E-02 0.  1.
       -1   -1    0    0    0  501  0.00000000000E+00  0.00000000000E+00 -0.62844892208E+03  0.62844892210E+03  0.50400001928E-02 0. -1.
    10030    2    1    2    0    0  0.00000000000E+00  0.00000000000E+00  0.14188956186E+04  0.26757934628E+04  0.22686132061E+04 0.  0.
        2    1    3    3  502    0 -0.17637372098E+03 -0.99604066792E+03  0.10405317127E+03  0.10168735241E+04  0.25500000920E-02 0. -1.
       -2    1    3    3    0  502  0.17637372098E+03  0.99604066792E+03  0.13148424473E+04  0.16589199387E+04  0.25500000920E-02 0.  1.
</event>
<event>
 5   0  0.2042951E-05  0.2299516E+04  0.7818609E-02  0.8478112E-01
       -1   -1    0    0    0  501  0.00000000000E+00  0.00000000000E+00  0.71847680506E+03  0.71847680507E+03  0.50400001928E-02 0. -1.
        1   -1    0    0  501    0  0.00000000000E+00  0.00000000000E+00 -0.18399246925E+04  0.18399246925E+04  0.50400001928E-02 0.  1.
    10030    2    1    2    0    0  0.00000000000E+00  0.00000000000E+00 -0.11214478874E+04  0.25584014976E+04  0.22995157878E+04 0.  0.
        2    1    3    3  502    0 -0.11119725111E+04  0.27350554365E+03 -0.44587939292E+03  0.12288598703E+04  0.25500000920E-02 0.  1.
       -2    1    3    3    0  502  0.11119725111E+04 -0.27350554365E+03 -0.67556849451E+03  0.13295416273E+04  0.25500000920E-02 0. -1.
</event>
<event>
 5   0  0.4436695E-05  0.2316809E+04  0.7818609E-02  0.8471323E-01
        2   -1    0    0  501    0  0.00000000000E+00  0.00000000000E+00  0.21056585383E+04  0.21056585383E+04  0.25500000920E-02 0. -1.
       -2   -1    0    0    0  501  0.00000000000E+00  0.00000000000E+00 -0.63728318271E+03  0.63728318272E+03  0.25500000920E-02 0.  1.
    10030    2    1    2    0    0  0.00000000000E+00  0.00000000000E+00  0.14683753555E+04  0.27429417210E+04  0.23168088182E+04 0.  0.
        5    1    3    3  502    0  0.15108839451E+03 -0.46033453094E+03  0.19799301227E+04  0.20383525122E+04  0.46999998093E+01 0. -1.
       -5    1    3    3    0  502 -0.15108839451E+03  0.46033453094E+03 -0.51155476714E+03  0.70458920877E+03  0.46999998093E+01 0.  1.
</event>
<event>
 5   0  0.1968318E-05  0.2319345E+04  0.7818609E-02  0.8470332E-01
       -1   -1    0    0    0  501  0.00000000000E+00  0.00000000000E+00  0.12490215515E+04  0.12490215516E+04  0.50400001928E-02 0. -1.
        1   -1    0    0  501    0  0.00000000000E+00  0.00000000000E+00 -0.10767153899E+04  0.10767153899E+04  0.50400001928E-02 0.  1.
    10030    2    1    2    0    0  0.00000000000E+00  0.00000000000E+00  0.17230616165E+03  0.23257369415E+04  0.23193453618E+04 0.  0.
        3    1    3    3  502    0 -0.83495186314E+03  0.72812058210E+02 -0.71755082429E+03  0.11033247053E+04  0.10100000352E+00 0.  1.
       -3    1    3    3    0  502  0.83495186314E+03 -0.72812058210E+02  0.88985698594E+03  0.12224122362E+04  0.10100000352E+00 0. -1.
</event>
<event>
 5   0  0.4436695E-05  0.2317116E+04  0.7818609E-02  0.8471203E-01
        2   -1    0    0  501    0  0.00000000000E+00  0.00000000000E+00  0.19343630485E+04  0.19343630485E+04  0.25500000920E-02 0.  1.
       -2   -1    0    0    0  501  0.00000000000E+00  0.00000000000E+00 -0.69390095974E+03  0.69390095974E+03  0.25500000920E-02 0. -1.
    10030    2    1    2    0    0  0.00000000000E+00  0.00000000000E+00  0.12404620887E+04  0.26282640082E+04  0.23171157725E+04 0.  0.
        5    1    3    3  502    0 -0.14541418486E+03  0.10355183525E+04  0.11859990214E+04  0.15811575862E+04  0.46999998093E+01 0.  1.
       -5    1    3    3    0  502  0.14541418486E+03 -0.10355183525E+04  0.54463067323E+02  0.10471064221E+04  0.46999998093E+01 0. -1.
</event>
<event>
 5   0  0.1968318E-05  0.2287940E+04  0.7818609E-02  0.8482692E-01
        1   -1    0    0  501    0  0.00000000000E+00  0.00000000000E+00  0.14464620731E+04  0.14464620731E+04  0.50400001928E-02 0.  1.
       -1   -1    0    0    0  501  0.00000000000E+00  0.00000000000E+00 -0.90473638736E+03  0.90473638738E+03  0.50400001928E-02 0. -1.
    10030    2    1    2    0    0  0.00000000000E+00  0.00000000000E+00  0.54172568576E+03  0.23511984605E+04  0.22879395713E+04 0.  0.
        3    1    3    3  502    0  0.84668414856E+03 -0.24369176301E+02 -0.51929083918E+03  0.99354460898E+03  0.10100000352E+00 0. -1.
       -3    1    3    3    0  502 -0.84668414856E+03  0.24369176301E+02  0.10610165249E+04  0.13576538515E+04  0.10100000352E+00 0.  1.
</event>
<event>
 5   0  0.4505107E-05  0.2291979E+04  0.7818609E-02  0.8481090E-01
       -2   -1    0    0    0  501  0.00000000000E+00  0.00000000000E+00  0.59023834905E+03  0.59023834906E+03  0.25500000920E-02 0. -1.
        2   -1    0    0  501    0  0.00000000000E+00  0.00000000000E+00 -0.22250200603E+04  0.22250200603E+04  0.25500000920E-02 0.  1.
    10030    2    1    2    0    0  0.00000000000E+00  0.00000000000E+00 -0.16347817113E+04  0.28152584094E+04  0.22919792032E+04 0.  0.
        4    1    3    3  502    0  0.61664483335E+03 -0.74507589134E+02  0.36554669215E+03  0.72071369376E+03  0.12699999809E+01 0. -1.
       -4    1    3    3    0  502 -0.61664483335E+03  0.74507589134E+02 -0.20003284034E+04  0.20945447156E+04  0.12699999809E+01 0.  1.
</event>
<event>
 5   0  0.2031860E-05  0.2316003E+04  0.7818609E-02  0.8471638E-01
        1   -1    0    0  501    0  0.00000000000E+00  0.00000000000E+00  0.78751869709E+03  0.78751869711E+03  0.50400001928E-02 0. -1.
       -1   -1    0    0    0  501  0.00000000000E+00  0.00000000000E+00 -0.17027754520E+04  0.17027754520E+04  0.50400001928E-02 0.  1.
    10030    2    1    2    0    0  0.00000000000E+00  0.00000000000E+00 -0.91525675493E+03  0.24902941491E+04  0.23160030272E+04 0.  0.
        4    1    3    3  502    0 -0.94856321700E+03  0.88377475241E+02  0.25023188099E+03  0.98498749330E+03  0.12699999809E+01 0. -1.
       -4    1    3    3    0  502  0.94856321700E+03 -0.88377475241E+02 -0.11654886359E+04  0.15053066559E+04  0.12699999809E+01 0.  1.
</event>
<event>
 5   0  0.4505107E-05  0.2294894E+04  0.7818609E-02  0.8479937E-01
       -2   -1    0    0    0  501  0.00000000000E+00  0.00000000000E+00  0.13358889644E+04  0.13358889644E+04  0.25500000920E-02 0.  1.
        2   -1    0    0  501    0  0.00000000000E+00  0.00000000000E+00 -0.98558708210E+03  0.98558708210E+03  0.25500000920E-02 0. -1.
    10030    2    1    2    0    0  0.00000000000E+00  0.00000000000E+00  0.35030188235E+03  0.23214760466E+04  0.22948942516E+04 0.  0.
        4    1    3    3  502    0 -0.60487438348E+03 -0.91098720232E+03  0.52683078584E+03  0.12138051707E+04  0.12699999809E+01 0.  1.
       -4    1    3    3    0  502  0.60487438348E+03  0.91098720232E+03 -0.17652890349E+03  0.11076708759E+04  0.12699999809E+01 0. -1.
</event>
<event>
 5   0  0.4798609E-05  0.2424433E+04  0.7818609E-02  0.8430412E-01
       -2   -1    0    0    0  501  0.00000000000E+00  0.00000000000E+00  0.64666288474E+03  0.64666288474E+03  0.25500000920E-02 0. -1.
        2   -1    0    0  501    0  0.00000000000E+00  0.00000000000E+00 -0.22723880609E+04  0.22723880610E+04  0.25500000920E-02 0.  1.
    10030    2    1    2    0    0  0.00000000000E+00  0.00000000000E+00 -0.16257251762E+04  0.29190509457E+04  0.24244331451E+04 0.  0.
        2    1    3    3  502    0  0.10305256086E+04  0.42412775180E+03 -0.23845634095E+03  0.11396178334E+04  0.25500000920E-02 0. -1.
       -2    1    3    3    0  502 -0.10305256086E+04 -0.42412775180E+03 -0.13872688353E+04  0.17794331123E+04  0.25500000920E-02 0.  1.
</event>
<event>
 5   0  0.2085063E-05  0.2300496E+04  0.7818609E-02  0.8477726E-01
        1   -1    0    0  501    0  0.00000000000E+00  0.00000000000E+00  0.16939508546E+04  0.16939508546E+04  0.50400001928E-02 0.  1.
       -1   -1    0    0    0  501  0.00000000000E+00  0.00000000000E+00 -0.78105601377E+03  0.78105601379E+03  0.50400001928E-02 0. -1.
    10030    2    1    2    0    0  0.00000000000E+00  0.00000000000E+00  0.91289484083E+03  0.24750068684E+04  0.23004960352E+04 0.  0.
        1    1    3    3  502    0 -0.79815577350E+03  0.81377956687E+03  0.29053952585E+03  0.11763090743E+04  0.50400001928E-02 0. -1.
       -1    1    3    3    0  502  0.79815577350E+03 -0.81377956687E+03  0.62235531498E+03  0.12986977941E+04  0.50400001928E-02 0.  1.
</event>
<event>
 5   0  0.1604500E-05  0.2217881E+04  0.7818609E-02  0.8511022E-01
       -3   -1    0    0    0  501  0.00000000000E+00  0.00000000000E+00  0.14463080828E+04  0.14463080863E+04  0.10100000352E+00 0. -1.
        3   -1    0    0  501    0  0.00000000000E+00  0.00000000000E+00 -0.85026737068E+03  0.85026737668E+03  0.10100000352E+00 0.  1.
    10030    2    1    2    0    0  0.00000000000E+00  0.00000000000E+00  0.59604071211E+03  0.22965754630E+04  0.22178805934E+04 0.  0.
        3    1    3    3  502    0  0.88536414554E+03 -0.33018788400E+03  0.89900582300E+03  0.13042642328E+04  0.10100000352E+00 0. -1.
       -3    1    3    3    0  502 -0.88536414554E+03  0.33018788400E+03 -0.30296511090E+03  0.99231123020E+03  0.10100000352E+00 0.  1.
</event>
<event>
 5   0  0.2085063E-05  0.2279780E+04  0.7818609E-02  0.8485936E-01
       -1   -1    0    0    0  501  0.00000000000E+00  0.00000000000E+00  0.62067910569E+03  0.62067910571E+03  0.50400001928E-02 0.  1.
        1   -1    0    0  501    0  0.00000000000E+00  0.00000000000E+00 -0.20934315153E+04  0.20934315153E+04  0.50400001928E-02 0. -1.
    10030    2    1    2    0    0  0.00000000000E+00  0.00000000000E+00 -0.14727524096E+04  0.27141106210E+04  0.22797799900E+04 0.  0.
        1    1    3    3  502    0  0.34433800737E+03  0.10009142066E+04 -0.12399951068E+04  0.16303330265E+04  0.50400001928E-02 0. -1.
       -1    1    3    3    0  502 -0.34433800737E+03 -0.10009142066E+04 -0.23275730278E+03  0.10837775945E+04  0.50400001928E-02 0.  1.
</event>
<event>
 5   0  0.4436695E-05  0.2304533E+04  0.7818609E-02  0.8476136E-01
        2   -1    0    0  501    0  0.00000000000E+00  0.00000000000E+00  0.20965181732E+04  0.20965181732E+04  0.25500000920E-02 0.  1.
       -2   -1    0    0    0  501  0.00000000000E+00  0.00000000000E+00 -0.63329691691E+03  0.63329691691E+03  0.25500000920E-02 0. -1.
    10030    2    1    2    0    0  0.00000000000E+00  0.00000000000E+00  0.14632212563E+04  0.27298150901E+04  0.23045333544E+04 0.  0.
        5    1    3    3  502    0 -0.28748983142E+03 -0.46548961912E+03  0.19328345255E+04  0.20087813175E+04  0.46999998093E+01 0.  1.
       -5    1    3    3    0  502  0.28748983142E+03  0.46548961912E+03 -0.46961326918E+03  0.72103377262E+03  0.46999998093E+01 0. -1.
</event>
<event>
 5   0  0.4602447E-05  0.2274373E+04  0.7818609E-02  0.8488095E-01
       -2   -1    0    0    0  501  0.00000000000E+00  0.00000000000E+00  0.97290333744E+03  0.97290333745E+03  0.25500000920E-02 0.  1.
        2   -1    0    0  501    0  0.00000000000E+00  0.00000000000E+00 -0.13292101874E+04  0.13292101874E+04  0.25500000920E-02 0. -1.
    10030    2    1    2    0    0  0.00000000000E+00  0.00000000000E+00 -0.35630684991E+03  0.23021135248E+04  0.22743729047E+04 0.  0.
        3    1    3    3  502    0 -0.10173072069E+04  0.47964022028E+03 -0.81033488906E+01  0.11247374666E+04  0.10100000352E+00 0. -1.
       -3    1    3    3    0  502  0.10173072069E+04 -0.47964022028E+03 -0.34820350102E+03  0.11773760582E+04  0.10100000352E+00 0.  1.
</event>
<event>
 5   0  0.4436695E-05  0.2220894E+04  0.7818609E-02  0.8509781E-01
       -2   -1    0    0    0  501  0.00000000000E+00  0.00000000000E+00  0.49944303859E+03  0.49944303860E+03  0.25500000920E-02 0.  1.
        2   -1    0    0  501    0  0.00000000000E+00  0.00000000000E+00 -0.24689362346E+04  0.24689362346E+04  0.25500000920E-02 0. -1.
    10030    2    1    2    0    0  0.00000000000E+00  0.00000000000E+00 -0.19694931960E+04  0.29683792732E+04  0.22208944280E+04 0.  0.
        5    1    3    3  502    0 -0.23221709937E+03  0.70125599343E+03 -0.20928795583E+04  0.22194259810E+04  0.46999998093E+01 0. -1.
       -5    1    3    3    0  502  0.23221709937E+03 -0.70125599343E+03  0.12338636226E+03  0.74895329224E+03  0.46999998093E+01 0.  1.
</event>
<event>
 5   0  0.2042951E-05  0.2277971E+04  0.7818609E-02  0.8486658E-01
        1   -1    0    0  501    0  0.00000000000E+00  0.00000000000E+00  0.17479083855E+04  0.17479083855E+04  0.50400001928E-02 0.  1.
       -1   -1    0    0    0  501  0.00000000000E+00  0.00000000000E+00 -0.74219469378E+03  0.74219469380E+03  0.50400001928E-02 0. -1.
    10030    2    1    2    0    0  0.00000000000E+00  0.00000000000E+00  0.10057136917E+04  0.24901030793E+04  0.22779713158E+04 0.  0.
        2    1    3    3  502    0 -0.25548766062E+03  0.14927696684E+03 -0.69944479016E+03  0.75946071132E+03  0.25500000920E-02 0. -1.
       -2    1    3    3    0  502  0.25548766062E+03 -0.14927696684E+03  0.17051584818E+04  0.17306423680E+04  0.25500000920E-02 0.  1.
</event>
<event>
 5   0  0.4505107E-05  0.2293175E+04  0.7818609E-02  0.8480617E-01
        2   -1    0    0  501    0  0.00000000000E+00  0.00000000000E+00  0.11564303190E+04  0.11564303190E+04  0.25500000920E-02 0. -1.
       -2   -1    0    0    0  501  0.00000000000E+00  0.00000000000E+00 -0.11368289013E+04  0.11368289013E+04  0.25500000920E-02 0.  1.
    10030    2    1    2    0    0  0.00000000000E+00  0.00000000000E+00  0.19601417735E+02  0.22932592202E+04  0.22931754481E+04 0.  0.
        4    1    3    3  502    0  0.63909978607E+03  0.89587278114E+03  0.33172118150E+03  0.11493811951E+04  0.12699999809E+01 0. -1.
       -4    1    3    3    0  502 -0.63909978607E+03 -0.89587278114E+03 -0.31211976376E+03  0.11438780251E+04  0.12699999809E+01 0.  1.
</event>
<event>
 5   0  0.2085063E-05  0.2292427E+04  0.7818609E-02  0.8480913E-01
       -1   -1    0    0    0  501  0.00000000000E+00  0.00000000000E+00  0.90697737768E+03  0.90697737770E+03  0.50400001928E-02 0. -1.
        1   -1    0    0  501    0  0.00000000000E+00  0.00000000000E+00 -0.14485535477E+04  0.14485535477E+04  0.50400001928E-02 0.  1.
    10030    2    1    2    0    0  0.00000000000E+00  0.00000000000E+00 -0.54157617006E+03  0.23555309254E+04  0.22924269220E+04 0.  0.
        1    1    3    3  502    0  0.90651176565E+02  0.83127700345E+03 -0.10763105335E+04  0.13629686192E+04  0.50400001928E-02 0.  1.
       -1    1    3    3    0  502 -0.90651176565E+02 -0.83127700345E+03  0.53473436348E+03  0.99256230625E+03  0.50400001928E-02 0. -1.
</event>
<event>
 5   0  0.4602447E-05  0.2220469E+04  0.7818609E-02  0.8509957E-01
       -2   -1    0    0    0  501  0.00000000000E+00  0.00000000000E+00  0.66030162621E+03  0.66030162622E+03  0.25500000920E-02 0.  1.
        2   -1    0    0  501    0  0.00000000000E+00  0.00000000000E+00 -0.18667533520E+04  0.18667533520E+04  0.25500000920E-02 0. -1.
    10030    2    1    2    0    0  0.00000000000E+00  0.00000000000E+00 -0.12064517258E+04  0.25270549782E+04  0.22204686659E+04 0.  0.
        3    1    3    3  502    0  0.86617978804E+02 -0.78185152727E+02 -0.18597554708E+04  0.18634124647E+04  0.10100000352E+00 0. -1.
       -3    1    3    3    0  502 -0.86617978804E+02  0.78185152727E+02  0.65330374497E+03  0.66364251352E+03  0.10100000352E+00 0.  1.
</event>
<event>
 5   0  0.2085063E-05  0.2306562E+04  0.7818609E-02  0.8475338E-01
       -1   -1    0    0    0  501  0.00000000000E+00  0.00000000000E+00  0.12090332318E+04  0.12090332318E+04  0.50400001928E-02 0.  1.
        1   -1    0    0  501    0  0.00000000000E+00  0.00000000000E+00 -0.11001000088E+04  0.11001000088E+04  0.50400001928E-02 0. -1.
    10030    2    1    2    0    0  0.00000000000E+00  0.00000000000E+00  0.10893322297E+03  0.23091332406E+04  0.23065623503E+04 0.  0.
        1    1    3    3  502    0 -0.38481460405E+03  0.93435384968E+03 -0.50199289745E+03  0.11283156761E+04  0.50400001928E-02 0. -1.
       -1    1    3    3    0  502  0.38481460405E+03 -0.93435384968E+03  0.61092612042E+03  0.11808175645E+04  0.50400001928E-02 0.  1.
</event>
<event>
 5   0  0.4436695E-05  0.2294063E+04  0.7818609E-02  0.8480266E-01
       -2   -1    0    0    0  501  0.00000000000E+00  0.00000000000E+00  0.75044547062E+03  0.75044547063E+03  0.25500000920E-02 0.  1.
        2   -1    0    0  501    0  0.00000000000E+00  0.00000000000E+00 -0.17532004226E+04  0.17532004226E+04  0.25500000920E-02 0. -1.
    10030    2    1    2    0    0  0.00000000000E+00  0.00000000000E+00 -0.10027549520E+04  0.25036458932E+04  0.22940630473E+04 0.  0.
        5    1    3    3  502    0  0.17416667729E+03  0.67820389734E+03  0.49011743953E+03  0.85471150242E+03  0.46999998093E+01 0.  1.
       -5    1    3    3    0  502 -0.17416667729E+03 -0.67820389734E+03 -0.14928723915E+04  0.16489343908E+04  0.46999998093E+01 0. -1.
</event>
<event>
 5   0  0.1604500E-05  0.2311239E+04  0.7818609E-02  0.8473503E-01
       -3   -1    0    0    0  501  0.00000000000E+00  0.00000000000E+00  0.63870923459E+03  0.63870924258E+03  0.10100000352E+00 0.  1.
        3   -1    0    0  501    0  0.00000000000E+00  0.00000000000E+00 -0.20908673417E+04  0.20908673442E+04  0.10100000352E+00 0. -1.
    10030    2    1    2    0    0  0.00000000000E+00  0.00000000000E+00 -0.14521581071E+04  0.27295765867E+04  0.23112388831E+04 0.  0.
        5    1    3    3  502    0 -0.41398621417E+02 -0.24986642040E+03  0.60551630961E+03  0.65636816277E+03  0.46999998093E+01 0.  1.
       -5    1    3    3    0  502  0.41398621417E+02  0.24986642040E+03 -0.20576744167E+04  0.20732084240E+04  0.46999998093E+01 0. -1.
</event>
<event>
 5   0  0.2031860E-05  0.2305568E+04  0.7818609E-02  0.8475729E-01
       -1   -1    0    0    0  501  0.00000000000E+00  0.00000000000E+00  0.78084724433E+03  0.78084724434E+03  0.50400001928E-02 0.  1.
        1   -1    0    0  501    0  0.00000000000E+00  0.00000000000E+00 -0.17018834833E+04  0.17018834833E+04  0.50400001928E-02 0. -1.
    10030    2    1    2    0    0  0.00000000000E+00  0.00000000000E+00 -0.92103623901E+03  0.24827307277E+04  0.23055680672E+04 0.  0.
        4    1    3    3  502    0 -0.25417782687E+03  0.58134715635E+03 -0.14969399103E+04  0.16258541115E+04  0.12699999809E+01 0. -1.
       -4    1    3    3    0  502  0.25417782687E+03 -0.58134715635E+03  0.57590367130E+03  0.85687661620E+03  0.12699999809E+01 0.  1.
</event>
<event>
 5   0  0.4798609E-05  0.2297818E+04  0.7818609E-02  0.8478782E-01
        2   -1    0    0  501    0  0.00000000000E+00  0.00000000000E+00  0.21614710208E+04  0.21614710208E+04  0.25500000920E-02 0. -1.
       -2   -1    0    0    0  501  0.00000000000E+00  0.00000000000E+00 -0.61069164478E+03  0.61069164479E+03  0.25500000920E-02 0.  1.
    10030    2    1    2    0    0  0.00000000000E+00  0.00000000000E+00  0.15507793760E+04  0.27721626656E+04  0.22978183504E+04 0.  0.
        2    1    3    3  502    0 -0.10657748258E+04 -0.13183822923E+02  0.25796867751E+03  0.10966301250E+04  0.25500000920E-02 0.  1.
       -2    1    3    3    0  502  0.10657748258E+04  0.13183822923E+02  0.12928106985E+04  0.16755325406E+04  0.25500000920E-02 0. -1.
</event>
<event>
 5   0  0.4602447E-05  0.2338239E+04  0.7818609E-02  0.8462995E-01
       -2   -1    0    0    0  501  0.00000000000E+00  0.00000000000E+00  0.82631613502E+03  0.82631613503E+03  0.25500000920E-02 0.  1.
        2   -1    0    0  501    0  0.00000000000E+00  0.00000000000E+00 -0.16541372406E+04  0.16541372406E+04  0.25500000920E-02 0. -1.
    10030    2    1    2    0    0  0.00000000000E+00  0.00000000000E+00 -0.82782110561E+03  0.24804533757E+04  0.23382389027E+04 0.  0.
        3    1    3    3  502    0  0.16843595776E+03  0.80995110695E+03 -0.12902598201E+04  0.15326975831E+04  0.10100000352E+00 0. -1.
       -3    1    3    3    0  502 -0.16843595776E+03 -0.80995110695E+03  0.46243871451E+03  0.94775579259E+03  0.10100000352E+00 0.  1.
</event>
<event>
 5   0  0.2043885E-05  0.2293382E+04  0.7818609E-02  0.8480535E-01
       -1   -1    0    0    0  501  0.00000000000E+00  0.00000000000E+00  0.73421700277E+03  0.73421700278E+03  0.50400001928E-02 0.  1.
        1   -1    0    0  501    0  0.00000000000E+00  0.00000000000E+00 -0.17908874773E+04  0.17908874773E+04  0.50400001928E-02 0. -1.
    10030    2    1    2    0    0  0.00000000000E+00  0.00000000000E+00 -0.10566704746E+04  0.25251044801E+04  0.22933818138E+04 0.  0.
        5    1    3    3  502    0 -0.39193436203E+03  0.94144678059E+03 -0.11056658773E+04  0.15041455072E+04  0.46999998093E+01 0. -1.
       -5    1    3    3    0  502  0.39193436203E+03 -0.94144678059E+03  0.48995402703E+02  0.10209589729E+04  0.46999998093E+01 0.  1.
</event>
<event>
 5   0  0.1604500E-05  0.2307000E+04  0.7818609E-02  0.8475166E-01
        4   -1    0    0  501    0  0.00000000000E+00  0.00000000000E+00  0.13210020240E+04  0.13210026345E+04  0.12699999809E+01 0. -1.
       -4   -1    0    0    0  501  0.00000000000E+00  0.00000000000E+00 -0.10072355258E+04  0.10072363264E+04  0.12699999809E+01 0.  1.
    10030    2    1    2    0    0  0.00000000000E+00  0.00000000000E+00  0.31376649820E+03  0.23282389609E+04  0.23069996193E+04 0.  0.
        4    1    3    3  502    0 -0.84505726837E+03 -0.67851765670E+03 -0.24178805654E+03  0.11103923066E+04  0.12699999809E+01 0.  1.
       -4    1    3    3    0  502  0.84505726837E+03  0.67851765670E+03  0.55555455474E+03  0.12178466543E+04  0.12699999809E+01 0. -1.
</event>
<event>
 5   0  0.4505107E-05  0.2311200E+04  0.7818609E-02  0.8473518E-01
       -2   -1    0    0    0  501  0.00000000000E+00  0.00000000000E+00  0.31080410171E+04  0.31080410171E+04  0.25500000920E-02 0.  1.
        2   -1    0    0  501    0  0.00000000000E+00  0.00000000000E+00 -0.42966353448E+03  0.42966353448E+03  0.25500000920E-02 0. -1.
    10030    2    1    2    0    0  0.00000000000E+00  0.00000000000E+00  0.26783774826E+04  0.35377045516E+04  0.23112004575E+04 0.  0.
        4    1    3    3  502    0  0.38791505637E+03 -0.96434259696E+03  0.56627112448E+03  0.11836804191E+04  0.12699999809E+01 0. -1.
       -4    1    3    3    0  502 -0.38791505637E+03  0.96434259696E+03  0.21121063582E+04  0.23540241325E+04  0.12699999809E+01 0.  1.
</event>
<event>
 5   0  0.4798609E-05  0.2234473E+04  0.7818609E-02  0.8504215E-01
       -2   -1    0    0    0  501  0.00000000000E+00  0.00000000000E+00  0.65567113614E+03  0.65567113614E+03  0.25500000920E-02 0.  1.
        2   -1    0    0  501    0  0.00000000000E+00  0.00000000000E+00 -0.19037252598E+04  0.19037252599E+04  0.25500000920E-02 0. -1.
    10030    2    1    2    0    0  0.00000000000E+00  0.00000000000E+00 -0.12480541237E+04  0.25593963960E+04  0.22344732749E+04 0.  0.
        2    1    3    3  502    0  0.82706828215E+03 -0.37510955849E+03 -0.13693989094E+04  0.16431684324E+04  0.25500000920E-02 0. -1.
       -2    1    3    3    0  502 -0.82706828215E+03  0.37510955849E+03  0.12134478571E+03  0.91622796357E+03  0.25500000920E-02 0.  1.
</event>
<event>
 5   0  0.2042951E-05  0.2464845E+04  0.7818609E-02  0.8415618E-01
       -1   -1    0    0    0  501  0.00000000000E+00  0.00000000000E+00  0.11947204556E+04  0.11947204556E+04  0.50400001928E-02 0.  1.
        1   -1    0    0  501    0  0.00000000000E+00  0.00000000000E+00 -0.12713142190E+04  0.12713142190E+04  0.50400001928E-02 0. -1.
    10030    2    1    2    0    0  0.00000000000E+00  0.00000000000E+00 -0.76593763329E+02  0.24660346746E+04  0.24648449062E+04 0.  0.
        2    1    3    3  502    0 -0.43939694977E+03 -0.90007996037E+03 -0.75673227428E+03  0.12553315695E+04  0.25500000920E-02 0. -1.
       -2    1    3    3    0  502  0.43939694977E+03  0.90007996037E+03  0.68013851095E+03  0.12107031051E+04  0.25500000920E-02 0.  1.
</event>
<event>
 5   0  0.4505107E-05  0.2305654E+04  0.7818609E-02  0.8475695E-01
        2   -1    0    0  501    0  0.00000000000E+00  0.00000000000E+00  0.12082469361E+04  0.12082469361E+04  0.25500000920E-02 0. -1.
       -2   -1    0    0    0  501  0.00000000000E+00  0.00000000000E+00 -0.10999495113E+04  0.10999495113E+04  0.25500000920E-02 0.  1.
    10030    2    1    2    0    0  0.00000000000E+00  0.00000000000E+00  0.10829742478E+03  0.23081964474E+04  0.23056544641E+04 0.  0.
        4    1    3    3  502    0  0.11501856013E+04  0.73108710154E+02  0.81330315736E+02  0.11553735474E+04  0.12699999809E+01 0. -1.
       -4    1    3    3    0  502 -0.11501856013E+04 -0.73108710154E+02  0.26967109042E+02  0.11528229000E+04  0.12699999809E+01 0.  1.
</event>
<event>
 5   0  0.4436695E-05  0.2298080E+04  0.7818609E-02  0.8478678E-01
       -2   -1    0    0    0  501  0.00000000000E+00  0.00000000000E+00  0.13012190463E+04  0.13012190463E+04  0.25500000920E-02 0. -1.
        2   -1    0    0  501    0  0.00000000000E+00  0.00000000000E+00 -0.10146587174E+04  0.10146587174E+04  0.25500000920E-02 0.  1.
    10030    2    1    2    0    0  0.00000000000E+00  0.00000000000E+00  0.28656032898E+03  0.23158777637E+04  0.22980802846E+04 0.  0.
        5    1    3    3  502    0  0.56512041004E+03  0.99517413955E+03  0.24673245192E+03  0.11707397827E+04  0.46999998093E+01 0. -1.
       -5    1    3    3    0  502 -0.56512041004E+03 -0.99517413955E+03  0.39827877060E+02  0.11451379811E+04  0.46999998093E+01 0.  1.
</event>
<event>
 5   0  0.4505107E-05  0.2297096E+04  0.7818609E-02  0.8479067E-01
        2   -1    0    0  501    0  0.00000000000E+00  0.00000000000E+00  0.18267567429E+04  0.18267567429E+04  0.25500000920E-02 0. -1.
       -2   -1    0    0    0  501  0.00000000000E+00  0.00000000000E+00 -0.72213386478E+03  0.72213386479E+03  0.25500000920E-02 0.  1.
    10030    2    1    2    0    0  0.00000000000E+00  0.00000000000E+00  0.11046228781E+04  0.25488906077E+04  0.22970963469E+04 0.  0.
        4    1    3    3  502    0 -0.99514390370E+03  0.43330145489E+03  0.13550433344E+03  0.10938119478E+04  0.12699999809E+01 0.  1.
       -4    1    3    3    0  502  0.99514390370E+03 -0.43330145489E+03  0.96911854466E+03  0.14550786599E+04  0.12699999809E+01 0. -1.
</event>
<event>
 5   0  0.4798609E-05  0.2176631E+04  0.7818609E-02  0.8528218E-01
       -2   -1    0    0    0  501  0.00000000000E+00  0.00000000000E+00  0.20476229976E+04  0.20476229976E+04  0.25500000920E-02 0. -1.
        2   -1    0    0  501    0  0.00000000000E+00  0.00000000000E+00 -0.57844201234E+03  0.57844201235E+03  0.25500000920E-02 0.  1.
    10030    2    1    2    0    0  0.00000000000E+00  0.00000000000E+00  0.14691809852E+04  0.26260650099E+04  0.21766314959E+04 0.  0.
        2    1    3    3  502    0 -0.24795547076E+03 -0.16022255436E+03  0.19983920812E+04  0.20200802193E+04  0.25500000920E-02 0. -1.
       -2    1    3    3    0  502  0.24795547076E+03  0.16022255436E+03 -0.52921109593E+03  0.60598479062E+03  0.25500000920E-02 0.  1.
</event>
<event>
 5   0  0.4436695E-05  0.2283660E+04  0.7818609E-02  0.8484392E-01
        2   -1    0    0  501    0  0.00000000000E+00  0.00000000000E+00  0.17602141532E+04  0.17602141532E+04  0.25500000920E-02 0. -1.
       -2   -1    0    0    0  501  0.00000000000E+00  0.00000000000E+00 -0.74069146207E+03  0.74069146207E+03  0.25500000920E-02 0.  1.
    10030    2    1    2    0    0  0.00000000000E+00  0.00000000000E+00  0.10195226911E+04  0.25009056153E+04  0.22836598649E+04 0.  0.
        5    1    3    3  502    0  0.58434082136E+03 -0.96213592541E+03  0.30026837226E+03  0.11650506083E+04  0.46999998093E+01 0.  1.
       -5    1    3    3    0  502 -0.58434082136E+03  0.96213592541E+03  0.71925431884E+03  0.13358550070E+04  0.46999998093E+01 0. -1.
</event>
<event>
 5   0  0.2085063E-05  0.2222107E+04  0.7818609E-02  0.8509283E-01
        1   -1    0    0  501    0  0.00000000000E+00  0.00000000000E+00  0.25998687704E+04  0.25998687705E+04  0.50400001928E-02 0. -1.
       -1   -1    0    0    0  501  0.00000000000E+00  0.00000000000E+00 -0.47480835282E+03  0.47480835284E+03  0.50400001928E-02 0.  1.
    10030    2    1    2    0    0  0.00000000000E+00  0.00000000000E+00  0.21250604176E+04  0.30746771233E+04  0.22221065757E+04 0.  0.
        1    1    3    3  502    0 -0.88231390487E+02 -0.65922080918E+02 -0.46723620138E+03  0.48004183872E+03  0.50400001928E-02 0.  1.
       -1    1    3    3    0  502  0.88231390487E+02  0.65922080918E+02  0.25922966190E+04  0.25946352846E+04  0.50400001928E-02 0. -1.
</event>
<event>
 5   0  0.4602447E-05  0.2324942E+04  0.7818609E-02  0.8468151E-01
        2   -1    0    0  501    0  0.00000000000E+00  0.00000000000E+00  0.15782793350E+04  0.15782793350E+04  0.25500000920E-02 0.  1.
       -2   -1    0    0    0  501  0.00000000000E+00  0.00000000000E+00 -0.85621036692E+03  0.85621036692E+03  0.25500000920E-02 0. -1.
    10030    2    1    2    0    0  0.00000000000E+00  0.00000000000E+00  0.72206896812E+03  0.24344897020E+04  0.23249422604E+04 0.  0.
        3    1    3    3  502    0 -0.44811521672E+03  0.23560457260E+03  0.14567738462E+04  0.15422408409E+04  0.10100000352E+00 0.  1.
       -3    1    3    3    0  502  0.44811521672E+03 -0.23560457260E+03 -0.73470487806E+03  0.89224886110E+03  0.10100000352E+00 0. -1.
</event>
<event>
 5   0  0.2085063E-05  0.2293007E+04  0.7818609E-02  0.8480683E-01
        1   -1    0    0  501    0  0.00000000000E+00  0.00000000000E+00  0.19148800226E+04  0.19148800226E+04  0.50400001928E-02 0.  1.
       -1   -1    0    0    0  501  0.00000000000E+00  0.00000000000E+00 -0.68645068563E+03  0.68645068565E+03  0.50400001928E-02 0. -1.
    10030    2    1    2    0    0  0.00000000000E+00  0.00000000000E+00  0.12284293369E+04  0.26013307082E+04  0.22930073741E+04 0.  0.
        1    1    3    3  502    0  0.26299759622E+03 -0.10929531118E+04  0.35862941287E+03  0.11799700403E+04  0.50400001928E-02 0. -1.
       -1    1    3    3    0  502 -0.26299759622E+03  0.10929531118E+04  0.86979992406E+03  0.14213606679E+04  0.50400001928E-02 0.  1.
</event>
<event>
 5   0  0.4798609E-05  0.2323512E+04  0.7818609E-02  0.8468708E-01
        2   -1    0    0  501    0  0.00000000000E+00  0.00000000000E+00  0.20328782979E+04  0.20328782979E+04  0.25500000920E-02 0. -1.
       -2   -1    0    0    0  501  0.00000000000E+00  0.00000000000E+00 -0.66392398255E+03  0.66392398256E+03  0.25500000920E-02 0.  1.
    10030    2    1    2    0    0  0.00000000000E+00  0.00000000000E+00  0.13689543153E+04  0.26968022804E+04  0.23235117005E+04 0.  0.
        2    1    3    3  502    0  0.63964145496E+03  0.79815853366E+03  0.45083756273E+02  0.10238314221E+04  0.25500000920E-02 0.  1.
       -2    1    3    3    0  502 -0.63964145496E+03 -0.79815853366E+03  0.13238705590E+04  0.16729708583E+04  0.25500000920E-02 0. -1.
</event>
<event>
 5   0  0.4436695E-05  0.2256121E+04  0.7818609E-02  0.8495426E-01
        2   -1    0    0  501    0  0.00000000000E+00  0.00000000000E+00  0.90600194430E+03  0.90600194430E+03  0.25500000920E-02 0.  1.
       -2   -1    0    0    0  501  0.00000000000E+00  0.00000000000E+00 -0.14045455624E+04  0.14045455624E+04  0.25500000920E-02 0. -1.
    10030    2    1    2    0    0  0.00000000000E+00  0.00000000000E+00 -0.49854361807E+03  0.23105475067E+04  0.22561214598E+04 0.  0.
        5    1    3    3  502    0 -0.20890435548E+03 -0.28232303177E+03 -0.13471169607E+04  0.13921542729E+04  0.46999998093E+01 0. -1.
       -5    1    3    3    0  502  0.20890435548E+03  0.28232303177E+03  0.84857334258E+03  0.91839323372E+03  0.46999998093E+01 0.  1.
</event>
<event>
 5   0  0.1968318E-05  0.2179539E+04  0.7818609E-02  0.8526993E-01
        1   -1    0    0  501    0  0.00000000000E+00  0.00000000000E+00  0.28953843208E+04  0.28953843208E+04  0.50400001928E-02 0.  1.
       -1   -1    0    0    0  501  0.00000000000E+00  0.00000000000E+00 -0.41016926126E+03  0.41016926130E+03  0.50400001928E-02 0. -1.
    10030    2    1    2    0    0  0.00000000000E+00  0.00000000000E+00  0.24852150595E+04  0.33055535821E+04  0.21795390779E+04 0.  0.
        3    1    3    3  502    0  0.64559352774E+02 -0.93302653954E+03  0.39425527455E+03  0.10149599328E+04  0.10100000352E+00 0. -1.
       -3    1    3    3    0  502 -0.64559352774E+02  0.93302653954E+03  0.20909597850E+04  0.22905936493E+04  0.10100000352E+00 0.  1.
</event>
<event>
 5   0  0.2031860E-05  0.2270477E+04  0.7818609E-02  0.8489653E-01
       -1   -1    0    0    0  501  0.00000000000E+00  0.00000000000E+00  0.96197219832E+03  0.96197219833E+03  0.50400001928E-02 0.  1.
        1   -1    0    0  501    0  0.00000000000E+00  0.00000000000E+00 -0.13397127208E+04  0.13397127208E+04  0.50400001928E-02 0. -1.
    10030    2    1    2    0    0  0.00000000000E+00  0.00000000000E+00 -0.37774052248E+03  0.23016849191E+04  0.22704769465E+04 0.  0.
        4    1    3    3  502    0 -0.50982727874E+03 -0.84594980938E+03 -0.75621427558E+03  0.12439519997E+04  0.12699999809E+01 0. -1.
       -4    1    3    3    0  502  0.50982727874E+03  0.84594980938E+03  0.37847375310E+03  0.10577329194E+04  0.12699999809E+01 0.  1.
</event>
<event>
 5   0  0.2043885E-05  0.2299236E+04  0.7818609E-02  0.8478223E-01
        1   -1    0    0  501    0  0.00000000000E+00  0.00000000000E+00  0.12406814466E+04  0.12406814466E+04  0.50400001928E-02 0. -1.
       -1   -1    0    0    0  501  0.00000000000E+00  0.00000000000E+00 -0.10652380442E+04  0.10652380442E+04  0.50400001928E-02 0.  1.
    10030    2    1    2    0    0  0.00000000000E+00  0.00000000000E+00  0.17544340237E+03  0.23059194908E+04  0.22992355926E+04 0.  0.
        5    1    3    3  502    0  0.70690234670E+03 -0.75711194424E+03  0.58783912180E+03  0.11910106410E+04  0.46999998093E+01 0. -1.
       -5    1    3    3    0  502 -0.70690234670E+03  0.75711194424E+03 -0.41239571943E+03  0.11149088498E+04  0.46999998093E+01 0.  1.
</event>
<event>
 5   0  0.1604500E-05  0.2306461E+04  0.7818609E-02  0.8475378E-01
       -3   -1    0    0    0  501  0.00000000000E+00  0.00000000000E+00  0.89206134357E+03  0.89206134929E+03  0.10100000352E+00 0. -1.
        3   -1    0    0  501    0  0.00000000000E+00  0.00000000000E+00 -0.14908620140E+04  0.14908620174E+04  0.10100000352E+00 0.  1.
    10030    2    1    2    0    0  0.00000000000E+00  0.00000000000E+00 -0.59880067039E+03  0.23829233667E+04  0.23064608231E+04 0.  0.
        5    1    3    3  502    0 -0.12208188792E+03  0.92458665731E+03 -0.10002348931E+04  0.13675731811E+04  0.46999998093E+01 0.  1.
       -5    1    3    3    0  502  0.12208188792E+03 -0.92458665731E+03  0.40143422271E+03  0.10153501856E+04  0.46999998093E+01 0. -1.
</event>
<event>
 5   0  0.1604500E-05  0.2305655E+04  0.7818609E-02  0.8475695E-01
        3   -1    0    0  501    0  0.00000000000E+00  0.00000000000E+00  0.17602487248E+04  0.17602487277E+04  0.10100000352E+00 0.  1.
       -3   -1    0    0    0  501  0.00000000000E+00  0.00000000000E+00 -0.75501361518E+03  0.75501362194E+03  0.10100000352E+00 0. -1.
    10030    2    1    2    0    0  0.00000000000E+00  0.00000000000E+00  0.10052351096E+04  0.25152623496E+04  0.23056554517E+04 0.  0.
        4    1    3    3  502    0 -0.10187659655E+04  0.49369382867E+03  0.74010656873E+03  0.13525446517E+04  0.12699999809E+01 0. -1.
       -4    1    3    3    0  502  0.10187659655E+04 -0.49369382867E+03  0.26512854089E+03  0.11627176979E+04  0.12699999809E+01 0.  1.
</event>
<event>
 5   0  0.1968318E-05  0.2299502E+04  0.7818609E-02  0.8478118E-01
       -1   -1    0    0    0  501  0.00000000000E+00  0.00000000000E+00  0.11375294380E+04  0.11375294380E+04  0.50400001928E-02 0. -1.
        1   -1    0    0  501    0  0.00000000000E+00  0.00000000000E+00 -0.11621037838E+04  0.11621037839E+04  0.50400001928E-02 0.  1.
    10030    2    1    2    0    0  0.00000000000E+00  0.00000000000E+00 -0.24574345881E+02  0.22996332218E+04  0.22995019149E+04 0.  0.
        3    1    3    3  502    0  0.11764982187E+03  0.60095926132E+03  0.96087359843E+03  0.11394172180E+04  0.10100000352E+00 0. -1.
       -3    1    3    3    0  502 -0.11764982187E+03 -0.60095926132E+03 -0.98544794431E+03  0.11602160038E+04  0.10100000352E+00 0.  1.
</event>
<event>
 5   0  0.4436695E-05  0.2334594E+04  0.7818609E-02  0.8464405E-01
        2   -1    0    0  501    0  0.00000000000E+00  0.00000000000E+00  0.10250842374E+04  0.10250842374E+04  0.25500000920E-02 0. -1.
       -2   -1    0    0    0  501  0.00000000000E+00  0.00000000000E+00 -0.13292395340E+04  0.13292395340E+04  0.25500000920E-02 0.  1.
    10030    2    1    2    0    0  0.00000000000E+00  0.00000000000E+00 -0.30415529653E+03  0.23543237714E+04  0.23345941780E+04 0.  0.
        5    1    3    3  502    0 -0.64238856960E+03  0.25853899861E+03  0.79557383302E+03  0.10547347069E+04  0.46999998093E+01 0. -1.
       -5    1    3    3    0  502  0.64238856960E+03 -0.25853899861E+03 -0.10997291296E+04  0.12995890645E+04  0.46999998093E+01 0.  1.
</event>
<event>
 5   0  0.1604500E-05  0.2305667E+04  0.7818609E-02  0.8475690E-01
        3   -1    0    0  501    0  0.00000000000E+00  0.00000000000E+00  0.13291264618E+04  0.13291264656E+04  0.10100000352E+00 0. -1.
       -3   -1    0    0    0  501  0.00000000000E+00  0.00000000000E+00 -0.99992397133E+03  0.99992397643E+03  0.10100000352E+00 0.  1.
    10030    2    1    2    0    0  0.00000000000E+00  0.00000000000E+00  0.32920249044E+03  0.23290504420E+04  0.23056672964E+04 0.  0.
        4    1    3    3  502    0  0.87468050673E+03 -0.74687492785E+03  0.24372610046E+03  0.11757092207E+04  0.12699999809E+01 0. -1.
       -4    1    3    3    0  502 -0.87468050673E+03  0.74687492785E+03  0.85476389987E+02  0.11533412213E+04  0.12699999809E+01 0.  1.
</event>
<event>
 5   0  0.4436695E-05  0.2329247E+04  0.7818609E-02  0.8466478E-01
        2   -1    0    0  501    0  0.00000000000E+00  0.00000000000E+00  0.10811072362E+04  0.10811072362E+04  0.25500000920E-02 0.  1.
       -2   -1    0    0    0  501  0.00000000000E+00  0.00000000000E+00 -0.12545910729E+04  0.12545910729E+04  0.25500000920E-02 0. -1.
    10030    2    1    2    0    0  0.00000000000E+00  0.00000000000E+00 -0.17348383667E+03  0.23356983092E+04  0.23292466486E+04 0.  0.
        5    1    3    3  502    0  0.94563631864E+03 -0.67764733336E+03 -0.14066298843E+03  0.11718541385E+04  0.46999998093E+01 0.  1.
       -5    1    3    3    0  502 -0.94563631864E+03  0.67764733336E+03 -0.32820848240E+02  0.11638441707E+04  0.46999998093E+01 0. -1.
</event>
<event>
 5   0  0.2085063E-05  0.2252657E+04  0.7818609E-02  0.8496825E-01
       -1   -1    0    0    0  501  0.00000000000E+00  0.00000000000E+00  0.16355924271E+04  0.16355924271E+04  0.50400001928E-02 0.  1.
        1   -1    0    0  501    0  0.00000000000E+00  0.00000000000E+00 -0.77563097016E+03  0.77563097017E+03  0.50400001928E-02 0. -1.
    10030    2    1    2    0    0  0.00000000000E+00  0.00000000000E+00  0.85996145698E+03  0.24112233973E+04  0.22526572230E+04 0.  0.
        1    1    3    3  502    0  0.61468636193E+03 -0.73102171094E+03  0.10689816467E+04  0.14335110137E+04  0.50400001928E-02 0.  1.
       -1    1    3    3    0  502 -0.61468636193E+03  0.73102171094E+03 -0.20902018968E+03  0.97771238364E+03  0.50400001928E-02 0. -1.
</event>
<event>
 5   0  0.2043885E-05  0.2301999E+04  0.7818609E-02  0.8477133E-01
       -1   -1    0    0    0  501  0.00000000000E+00  0.00000000000E+00  0.20283444792E+04  0.20283444792E+04  0.50400001928E-02 0.  1.
        1   -1    0    0  501    0  0.00000000000E+00  0.00000000000E+00 -0.65314343760E+03  0.65314343762E+03  0.50400001928E-02 0. -1.
    10030    2    1    2    0    0  0.00000000000E+00  0.00000000000E+00  0.13752010416E+04  0.26814879168E+04  0.23019990320E+04 0.  0.
        5    1    3    3  502    0  0.11834887172E+03 -0.54271767595E+03 -0.48666543701E+03  0.73852167796E+03  0.46999998093E+01 0. -1.
       -5    1    3    3    0  502 -0.11834887172E+03  0.54271767595E+03  0.18618664786E+04  0.19429662388E+04  0.46999998093E+01 0.  1.
</event>
<event>
 5   0  0.4602447E-05  0.2293411E+04  0.7818609E-02  0.8480524E-01
        2   -1    0    0  501    0  0.00000000000E+00  0.00000000000E+00  0.85155389120E+03  0.85155389121E+03  0.25500000920E-02 0.  1.
       -2   -1    0    0    0  501  0.00000000000E+00  0.00000000000E+00 -0.15441573508E+04  0.15441573508E+04  0.25500000920E-02 0. -1.
    10030    2    1    2    0    0  0.00000000000E+00  0.00000000000E+00 -0.69260345964E+03  0.23957112421E+04  0.22934107358E+04 0.  0.
        3    1    3    3  502    0  0.45598449642E+02 -0.16729053145E+03 -0.15303839525E+04  0.15401754422E+04  0.10100000352E+00 0. -1.
       -3    1    3    3    0  502 -0.45598449642E+02  0.16729053145E+03  0.83778049282E+03  0.85553579988E+03  0.10100000352E+00 0.  1.
</event>
<event>
 5   0  0.4436695E-05  0.2311161E+04  0.7818609E-02  0.8473534E-01
       -2   -1    0    0    0  501  0.00000000000E+00  0.00000000000E+00  0.74026048804E+03  0.74026048805E+03  0.25500000920E-02 0.  1.
        2   -1    0    0  501    0  0.00000000000E+00  0.00000000000E+00 -0.18039132782E+04  0.18039132782E+04  0.25500000920E-02 0. -1.
    10030    2    1    2    0    0  0.00000000000E+00  0.00000000000E+00 -0.10636527902E+04  0.25441737663E+04  0.23111605083E+04 0.  0.
        5    1    3    3  502    0 -0.51658504295E+03  0.73284984892E+03  0.27065212018E+03  0.93659151598E+03  0.46999998093E+01 0.  1.
       -5    1    3    3    0  502  0.51658504295E+03 -0.73284984892E+03 -0.13343049104E+04  0.16075822503E+04  0.46999998093E+01 0. -1.
</event>
<event>
 5   0  0.1604500E-05  0.2282858E+04  0.7818609E-02  0.8484711E-01
       -3   -1    0    0    0  501  0.00000000000E+00  0.00000000000E+00  0.59917041739E+03  0.59917042590E+03  0.10100000352E+00 0. -1.
        3   -1    0    0  501    0  0.00000000000E+00  0.00000000000E+00 -0.21744391189E+04  0.21744391213E+04  0.10100000352E+00 0.  1.
    10030    2    1    2    0    0  0.00000000000E+00  0.00000000000E+00 -0.15752687015E+04  0.27736095472E+04  0.22828575160E+04 0.  0.
        3    1    3    3  502    0 -0.85485828068E+03  0.30231047315E+03  0.54724099301E+02  0.90838815463E+03  0.10100000352E+00 0. -1.
       -3    1    3    3    0  502  0.85485828068E+03 -0.30231047315E+03 -0.16299928008E+04  0.18652213926E+04  0.10100000352E+00 0.  1.
</event>
<event>
 5   0  0.4505107E-05  0.2346923E+04  0.7818609E-02  0.8459647E-01
       -2   -1    0    0    0  501  0.00000000000E+00  0.00000000000E+00  0.68351719636E+03  0.68351719636E+03  0.25500000920E-02 0. -1.
        2   -1    0    0  501    0  0.00000000000E+00  0.00000000000E+00 -0.20145964618E+04  0.20145964618E+04  0.25500000920E-02 0.  1.
    10030    2    1    2    0    0  0.00000000000E+00  0.00000000000E+00 -0.13310792655E+04  0.26981136582E+04  0.23469225172E+04 0.  0.
        4    1    3    3  502    0 -0.28885305085E+03 -0.12740834075E+03  0.63377662019E+03  0.70805606239E+03  0.12699999809E+01 0. -1.
       -4    1    3    3    0  502  0.28885305085E+03  0.12740834075E+03 -0.19648558857E+04  0.19900575958E+04  0.12699999809E+01 0.  1.
</event>
<event>
 5   0  0.1968318E-05  0.2282598E+04  0.7818609E-02  0.8484814E-01
       -1   -1    0    0    0  501  0.00000000000E+00  0.00000000000E+00  0.19536181377E+04  0.19536181378E+04  0.50400001928E-02 0.  1.
        1   -1    0    0  501    0  0.00000000000E+00  0.00000000000E+00 -0.66674408872E+03  0.66674408873E+03  0.50400001928E-02 0. -1.
    10030    2    1    2    0    0  0.00000000000E+00  0.00000000000E+00  0.12868740490E+04  0.26203622265E+04  0.22825979453E+04 0.  0.
        3    1    3    3  502    0 -0.83994915720E+02  0.13992229258E+03  0.19401543773E+04  0.19470060122E+04  0.10100000352E+00 0.  1.
       -3    1    3    3    0  502  0.83994915720E+02 -0.13992229258E+03 -0.65328032823E+03  0.67335621426E+03  0.10100000352E+00 0. -1.
</event>
<event>
 5   0  0.2031860E-05  0.2309641E+04  0.7818609E-02  0.8474129E-01
        1   -1    0    0  501    0  0.00000000000E+00  0.00000000000E+00  0.22253610941E+04  0.22253610941E+04  0.50400001928E-02 0. -1.
       -1   -1    0    0    0  501  0.00000000000E+00  0.00000000000E+00 -0.59927832670E+03  0.59927832672E+03  0.50400001928E-02 0.  1.
    10030    2    1    2    0    0  0.00000000000E+00  0.00000000000E+00  0.16260827674E+04  0.28246394208E+04  0.23096412473E+04 0.  0.
        4    1    3    3  502    0 -0.95810252926E+02 -0.11228402245E+04  0.50447446106E+03  0.12346845221E+04  0.12699999809E+01 0.  1.
       -4    1    3    3    0  502  0.95810252926E+02  0.11228402245E+04  0.11216083063E+04  0.15899548987E+04  0.12699999809E+01 0. -1.
</event>
<event>
 5   0  0.2031860E-05  0.2323396E+04  0.7818609E-02  0.8468753E-01
       -1   -1    0    0    0  501  0.00000000000E+00  0.00000000000E+00  0.12603823477E+04  0.12603823478E+04  0.50400001928E-02 0. -1.
        1   -1    0    0  501    0  0.00000000000E+00  0.00000000000E+00 -0.10707399584E+04  0.10707399584E+04  0.50400001928E-02 0.  1.
    10030    2    1    2    0    0  0.00000000000E+00  0.00000000000E+00  0.18964238933E+03  0.23311223062E+04  0.23233955691E+04 0.  0.
        4    1    3    3  502    0  0.44758512303E+03  0.10680253146E+04  0.18748424913E+03  0.11730995148E+04  0.12699999809E+01 0.  1.
       -4    1    3    3    0  502 -0.44758512303E+03 -0.10680253146E+04  0.21581402041E+01  0.11580227914E+04  0.12699999809E+01 0. -1.
</event>
<event>
 5   0  0.2031860E-05  0.2253778E+04  0.7818609E-02  0.8496372E-01
        1   -1    0    0  501    0  0.00000000000E+00  0.00000000000E+00  0.16079156377E+04  0.16079156377E+04  0.50400001928E-02 0.  1.
       -1   -1    0    0    0  501  0.00000000000E+00  0.00000000000E+00 -0.78976693464E+03  0.78976693466E+03  0.50400001928E-02 0. -1.
    10030    2    1    2    0    0  0.00000000000E+00  0.00000000000E+00  0.81814870306E+03  0.23976825724E+04  0.22537778102E+04 0.  0.
        4    1    3    3  502    0 -0.41434910578E+03 -0.67974327367E+03  0.12575848979E+04  0.14883741089E+04  0.12699999809E+01 0.  1.
       -4    1    3    3    0  502  0.41434910578E+03  0.67974327367E+03 -0.43943619485E+03  0.90930846351E+03  0.12699999809E+01 0. -1.
</event>
<event>
 5   0  0.2085063E-05  0.2298952E+04  0.7818609E-02  0.8478334E-01
        1   -1    0    0  501    0  0.00000000000E+00  0.00000000000E+00  0.18894634895E+04  0.18894634895E+04  0.50400001928E-02 0. -1.
       -1   -1    0    0    0  501  0.00000000000E+00  0.00000000000E+00 -0.69929666531E+03  0.69929666533E+03  0.50400001928E-02 0.  1.
    10030    2    1    2    0    0  0.00000000000E+00  0.00000000000E+00  0.11901668242E+04  0.25887601548E+04  0.22989523853E+04 0.  0.
        1    1    3    3  502    0 -0.92581280739E+02 -0.21713688329E+03  0.18618771840E+04  0.18767808524E+04  0.50400001928E-02 0. -1.
       -1    1    3    3    0  502  0.92581280739E+02  0.21713688329E+03 -0.67171035980E+03  0.71197930245E+03  0.50400001928E-02 0.  1.
</event>
<event>
 5   0  0.2043885E-05  0.2298420E+04  0.7818609E-02  0.8478544E-01
        1   -1    0    0  501    0  0.00000000000E+00  0.00000000000E+00  0.22310103996E+04  0.22310103996E+04  0.50400001928E-02 0. -1.
       -1   -1    0    0    0  501  0.00000000000E+00  0.00000000000E+00 -0.59196683110E+03  0.59196683112E+03  0.50400001928E-02 0.  1.
    10030    2    1    2    0    0  0.00000000000E+00  0.00000000000E+00  0.16390435685E+04  0.28229772307E+04  0.22984204632E+04 0.  0.
        5    1    3    3  502    0  0.64303036886E+03  0.54268733662E+03 -0.14184528524E+03  0.85331106611E+03  0.46999998093E+01 0.  1.
       -5    1    3    3    0  502 -0.64303036886E+03 -0.54268733662E+03  0.17808888537E+04  0.19696661646E+04  0.46999998093E+01 0. -1.
</event>
<event>
 5   0  0.4505107E-05  0.2384381E+04  0.7818609E-02  0.8445374E-01
        2   -1    0    0  501    0  0.00000000000E+00  0.00000000000E+00  0.15478125486E+04  0.15478125486E+04  0.25500000920E-02 0. -1.
       -2   -1    0    0    0  501  0.00000000000E+00  0.00000000000E+00 -0.91827535217E+03  0.91827535217E+03  0.25500000920E-02 0.  1.
    10030    2    1    2    0    0  0.00000000000E+00  0.00000000000E+00  0.62953719643E+03  0.24660879008E+04  0.23843809370E+04 0.  0.
        4    1    3    3  502    0  0.38729426682E+02  0.55783259747E+02  0.15458097981E+04  0.15473012911E+04  0.12699999809E+01 0. -1.
       -4    1    3    3    0  502 -0.38729426682E+02 -0.55783259747E+02 -0.91627260170E+03  0.91878660966E+03  0.12699999809E+01 0.  1.
</event>
<event>
 5   0  0.2043885E-05  0.2255307E+04  0.7818609E-02  0.8495754E-01
        1   -1    0    0  501    0  0.00000000000E+00  0.00000000000E+00  0.23178925613E+04  0.23178925613E+04  0.50400001928E-02 0.  1.
       -1   -1    0    0    0  501  0.00000000000E+00  0.00000000000E+00 -0.54860290258E+03  0.54860290260E+03  0.50400001928E-02 0. -1.
    10030    2    1    2    0    0  0.00000000000E+00  0.00000000000E+00  0.17692896587E+04  0.28664954639E+04  0.22553071516E+04 0.  0.
        5    1    3    3  502    0 -0.75001051208E+03 -0.58706601965E+02  0.19522986742E+04  0.20922367067E+04  0.46999998093E+01 0.  1.
       -5    1    3    3    0  502  0.75001051208E+03  0.58706601965E+02 -0.18300901553E+03  0.77425875721E+03  0.46999998093E+01 0. -1.
</event>
<event>
 5   0  0.4505107E-05  0.2305526E+04  0.7818609E-02  0.8475746E-01
        2   -1    0    0  501    0  0.00000000000E+00  0.00000000000E+00  0.18233029830E+04  0.18233029830E+04  0.25500000920E-02 0. -1.
       -2   -1    0    0    0  501  0.00000000000E+00  0.00000000000E+00 -0.72882148959E+03  0.72882148959E+03  0.25500000920E-02 0.  1.
    10030    2    1    2    0    0  0.00000000000E+00  0.00000000000E+00  0.10944814934E+04  0.25521244726E+04  0.23055258802E+04 0.  0.
        4    1    3    3  502    0 -0.77783096714E+03  0.85009642045E+03  0.58519906916E+03  0.12923407062E+04  0.12699999809E+01 0. -1.
       -4    1    3    3    0  502  0.77783096714E+03 -0.85009642045E+03  0.50928242426E+03  0.12597837664E+04  0.12699999809E+01 0.  1.
</event>
<event>
 5   0  0.2085063E-05  0.2005873E+04  0.7818609E-02  0.8603880E-01
       -1   -1    0    0    0  501  0.00000000000E+00  0.00000000000E+00  0.59167425475E+03  0.59167425477E+03  0.50400001928E-02 0.  1.
        1   -1    0    0  501    0  0.00000000000E+00  0.00000000000E+00 -0.17000601272E+04  0.17000601273E+04  0.50400001928E-02 0. -1.
    10030    2    1    2    0    0  0.00000000000E+00  0.00000000000E+00 -0.11083858725E+04  0.22917343820E+04  0.20058731853E+04 0.  0.
        1    1    3    3  502    0 -0.68528971095E+03  0.15117609386E+03  0.26444357895E+03  0.74993773459E+03  0.50400001928E-02 0.  1.
       -1    1    3    3    0  502  0.68528971095E+03 -0.15117609386E+03 -0.13728294514E+04  0.15417966474E+04  0.50400001928E-02 0. -1.
</event>
<event>
 5   0  0.4605516E-05  0.2323210E+04  0.7818609E-02  0.8468825E-01
        2   -1    0    0  501    0  0.00000000000E+00  0.00000000000E+00  0.10130332220E+04  0.10130332220E+04  0.25500000920E-02 0. -1.
       -2   -1    0    0    0  501  0.00000000000E+00  0.00000000000E+00 -0.13319667233E+04  0.13319667233E+04  0.25500000920E-02 0.  1.
    10030    2    1    2    0    0  0.00000000000E+00  0.00000000000E+00 -0.31893350139E+03  0.23449999453E+04  0.23232103145E+04 0.  0.
        1    1    3    3  502    0 -0.57887708511E+03 -0.94953116499E+03  0.17926744445E+03  0.11264301708E+04  0.50400001928E-02 0. -1.
       -1    1    3    3    0  502  0.57887708511E+03  0.94953116499E+03 -0.49820094585E+03  0.12185697745E+04  0.50400001928E-02 0.  1.
</event>
<event>
 5   0  0.1968318E-05  0.2298678E+04  0.7818609E-02  0.8478443E-01
       -1   -1    0    0    0  501  0.00000000000E+00  0.00000000000E+00  0.87673172116E+03  0.87673172117E+03  0.50400001928E-02 0. -1.
        1   -1    0    0  501    0  0.00000000000E+00  0.00000000000E+00 -0.15067096697E+04  0.15067096697E+04  0.50400001928E-02 0.  1.
    10030    2    1    2    0    0  0.00000000000E+00  0.00000000000E+00 -0.62997794850E+03  0.23834413908E+04  0.22986780218E+04 0.  0.
        3    1    3    3  502    0 -0.43436306275E+03  0.10639682187E+04 -0.33235503781E+03  0.11963107966E+04  0.10100000352E+00 0.  1.
       -3    1    3    3    0  502  0.43436306275E+03 -0.10639682187E+04 -0.29762291069E+03  0.11871305943E+04  0.10100000352E+00 0. -1.
</event>
<event>
 5   0  0.4798609E-05  0.2304368E+04  0.7818609E-02  0.8476201E-01
        2   -1    0    0  501    0  0.00000000000E+00  0.00000000000E+00  0.10433464884E+04  0.10433464884E+04  0.25500000920E-02 0.  1.
       -2   -1    0    0    0  501  0.00000000000E+00  0.00000000000E+00 -0.12723752182E+04  0.12723752182E+04  0.25500000920E-02 0. -1.
    10030    2    1    2    0    0  0.00000000000E+00  0.00000000000E+00 -0.22902872982E+03  0.23157217067E+04  0.23043682136E+04 0.  0.
        2    1    3    3  502    0 -0.23013714686E+03 -0.10542569137E+04  0.29134111617E+03  0.11177210710E+04  0.25500000920E-02 0.  1.
       -2    1    3    3    0  502  0.23013714686E+03  0.10542569137E+04 -0.52036984598E+03  0.11980006357E+04  0.25500000920E-02 0. -1.
</event>
<event>
 5   0  0.2085063E-05  0.2228228E+04  0.7818609E-02  0.8506770E-01
        1   -1    0    0  501    0  0.00000000000E+00  0.00000000000E+00  0.11413971936E+04  0.11413971936E+04  0.50400001928E-02 0.  1.
       -1   -1    0    0    0  501  0.00000000000E+00  0.00000000000E+00 -0.10874831808E+04  0.10874831808E+04  0.50400001928E-02 0. -1.
    10030    2    1    2    0    0  0.00000000000E+00  0.00000000000E+00  0.53914012863E+02  0.22288803744E+04  0.22282282205E+04 0.  0.
        1    1    3    3  502    0 -0.94329180769E+03 -0.56721583279E+03  0.19939369867E+03  0.11186112294E+04  0.50400001928E-02 0.  1.
       -1    1    3    3    0  502  0.94329180769E+03  0.56721583279E+03 -0.14547968581E+03  0.11102691450E+04  0.50400001928E-02 0. -1.
</event>
<event>
 5   0  0.1968318E-05  0.2299860E+04  0.7818609E-02  0.8477976E-01
       -1   -1    0    0    0  501  0.00000000000E+00  0.00000000000E+00  0.10111247120E+04  0.10111247120E+04  0.50400001928E-02 0. -1.
        1   -1    0    0  501    0  0.00000000000E+00  0.00000000000E+00 -0.13077897243E+04  0.13077897243E+04  0.50400001928E-02 0.  1.
    10030    2    1    2    0    0  0.00000000000E+00  0.00000000000E+00 -0.29666501235E+03  0.23189144363E+04  0.22998595682E+04 0.  0.
        3    1    3    3  502    0  0.21328225376E+03 -0.82108846652E+03 -0.93107811064E+03  0.12595959860E+04  0.10100000352E+00 0.  1.
       -3    1    3    3    0  502 -0.21328225376E+03  0.82108846652E+03  0.63441309829E+03  0.10593184503E+04  0.10100000352E+00 0. -1.
</event>
<event>
 5   0  0.2085063E-05  0.2282035E+04  0.7818609E-02  0.8485038E-01
        1   -1    0    0  501    0  0.00000000000E+00  0.00000000000E+00  0.83103337561E+03  0.83103337562E+03  0.50400001928E-02 0. -1.
       -1   -1    0    0    0  501  0.00000000000E+00  0.00000000000E+00 -0.15666290349E+04  0.15666290349E+04  0.50400001928E-02 0.  1.
    10030    2    1    2    0    0  0.00000000000E+00  0.00000000000E+00 -0.73559565927E+03  0.23976624105E+04  0.22820350700E+04 0.  0.
        1    1    3    3  502    0 -0.54912522147E+03 -0.93272542851E+03  0.11616861629E+02  0.10824279123E+04  0.50400001928E-02 0.  1.
       -1    1    3    3    0  502  0.54912522147E+03  0.93272542851E+03 -0.74721252089E+03  0.13152344982E+04  0.50400001928E-02 0. -1.
</event>
<event>
 5   0  0.4436695E-05  0.2300191E+04  0.7818609E-02  0.8477846E-01
        2   -1    0    0  501    0  0.00000000000E+00  0.00000000000E+00  0.13815080212E+04  0.13815080212E+04  0.25500000920E-02 0. -1.
       -2   -1    0    0    0  501  0.00000000000E+00  0.00000000000E+00 -0.95744623653E+03  0.95744623653E+03  0.25500000920E-02 0.  1.
    10030    2    1    2    0    0  0.00000000000E+00  0.00000000000E+00  0.42406178464E+03  0.23389542577E+04  0.23001909969E+04 0.  0.
        5    1    3    3  502    0  0.27723957860E+03 -0.88777459841E+03  0.89996130708E+03  0.12942016712E+04  0.46999998093E+01 0. -1.
       -5    1    3    3    0  502 -0.27723957860E+03  0.88777459841E+03 -0.47589952243E+03  0.10447525865E+04  0.46999998093E+01 0.  1.
</event>
<event>
 5   0  0.4602447E-05  0.2307214E+04  0.7818609E-02  0.8475082E-01
        2   -1    0    0  501    0  0.00000000000E+00  0.00000000000E+00  0.97844660554E+03  0.97844660554E+03  0.25500000920E-02 0. -1.
       -2   -1    0    0    0  501  0.00000000000E+00  0.00000000000E+00 -0.13601247128E+04  0.13601247128E+04  0.25500000920E-02 0.  1.
    10030    2    1    2    0    0  0.00000000000E+00  0.00000000000E+00 -0.38167810730E+03  0.23385713184E+04  0.23072142583E+04 0.  0.
        3    1    3    3  502    0 -0.40176581906E+03 -0.43088757612E+03  0.81447220045E+03  0.10052088600E+04  0.10100000352E+00 0. -1.
       -3    1    3    3    0  502  0.40176581906E+03  0.43088757612E+03 -0.11961503077E+04  0.13333624584E+04  0.10100000352E+00 0.  1.
</event>
<event>
 5   0  0.4605516E-05  0.2333992E+04  0.7818609E-02  0.8464638E-01
       -2   -1    0    0    0  501  0.00000000000E+00  0.00000000000E+00  0.86103416996E+03  0.86103416997E+03  0.25500000920E-02 0. -1.
        2   -1    0    0  501    0  0.00000000000E+00  0.00000000000E+00 -0.15816793988E+04  0.15816793988E+04  0.25500000920E-02 0.  1.
    10030    2    1    2    0    0  0.00000000000E+00  0.00000000000E+00 -0.72064522885E+03  0.24427135688E+04  0.23339922950E+04 0.  0.
        1    1    3    3  502    0  0.43927071075E+02  0.10768139025E+04 -0.82886197752E+03  0.13595844755E+04  0.50400001928E-02 0.  1.
       -1    1    3    3    0  502 -0.43927071075E+02 -0.10768139025E+04  0.10821674867E+03  0.10831290933E+04  0.50400001928E-02 0. -1.
</event>
<event>
 5   0  0.2042951E-05  0.2285671E+04  0.7818609E-02  0.8483592E-01
       -1   -1    0    0    0  501  0.00000000000E+00  0.00000000000E+00  0.14778204200E+04  0.14778204200E+04  0.50400001928E-02 0. -1.
        1   -1    0    0  501    0  0.00000000000E+00  0.00000000000E+00 -0.88378351396E+03  0.88378351398E+03  0.50400001928E-02 0.  1.
    10030    2    1    2    0    0  0.00000000000E+00  0.00000000000E+00  0.59403690600E+03  0.23616039340E+04  0.22856713008E+04 0.  0.
        2    1    3    3  502    0  0.77973807827E+03 -0.46912287098E+03 -0.41732944937E+03  0.10011151822E+04  0.25500000920E-02 0.  1.
       -2    1    3    3    0  502 -0.77973807827E+03  0.46912287098E+03  0.10113663554E+04  0.13604887517E+04  0.25500000920E-02 0. -1.
</event>
<event>
 5   0  0.2085063E-05  0.2289607E+04  0.7818609E-02  0.8482030E-01
       -1   -1    0    0    0  501  0.00000000000E+00  0.00000000000E+00  0.13395138017E+04  0.13395138017E+04  0.50400001928E-02 0.  1.
        1   -1    0    0  501    0  0.00000000000E+00  0.00000000000E+00 -0.97839585849E+03  0.97839585850E+03  0.50400001928E-02 0. -1.
    10030    2    1    2    0    0  0.00000000000E+00  0.00000000000E+00  0.36111794320E+03  0.23179096602E+04  0.22896067400E+04 0.  0.
        1    1    3    3  502    0 -0.94603802482E+03 -0.53353301388E+03  0.54687345570E+03  0.12160246699E+04  0.50400001928E-02 0.  1.
       -1    1    3    3    0  502  0.94603802482E+03  0.53353301388E+03 -0.18575551250E+03  0.11018849903E+04  0.50400001928E-02 0. -1.
</event>
<event>
 5   0  0.4436695E-05  0.2287834E+04  0.7818609E-02  0.8482734E-01
        2   -1    0    0  501    0  0.00000000000E+00  0.00000000000E+00  0.88365586315E+03  0.88365586315E+03  0.25500000920E-02 0. -1.
       -2   -1    0    0    0  501  0.00000000000E+00  0.00000000000E+00 -0.14808317163E+04  0.14808317163E+04  0.25500000920E-02 0.  1.
    10030    2    1    2    0    0  0.00000000000E+00  0.00000000000E+00 -0.59717585312E+03  0.23644875794E+04  0.22878335852E+04 0.  0.
        5    1    3    3  502    0  0.60215566654E+03  0.91256802460E+03  0.49062792862E+02  0.10944409961E+04  0.46999998093E+01 0. -1.
       -5    1    3    3    0  502 -0.60215566654E+03 -0.91256802460E+03 -0.64623864598E+03  0.12700465833E+04  0.46999998093E+01 0.  1.
</event>
<event>
 5   0  0.2043885E-05  0.2289867E+04  0.7818609E-02  0.8481927E-01
       -1   -1    0    0    0  501  0.00000000000E+00  0.00000000000E+00  0.17960929226E+04  0.17960929226E+04  0.50400001928E-02 0. -1.
        1   -1    0    0  501    0  0.00000000000E+00  0.00000000000E+00 -0.72984659121E+03  0.72984659123E+03  0.50400001928E-02 0.  1.
    10030    2    1    2    0    0  0.00000000000E+00  0.00000000000E+00  0.10662463314E+04  0.25259395138E+04  0.22898666311E+04 0.  0.
        5    1    3    3  502    0  0.62116598369E+03  0.85263829066E+03  0.42263454739E+02  0.10557686885E+04  0.46999998093E+01 0.  1.
       -5    1    3    3    0  502 -0.62116598369E+03 -0.85263829066E+03  0.10239828766E+04  0.14701708253E+04  0.46999998093E+01 0. -1.
</event>
<event>
 5   0  0.2031860E-05  0.2299496E+04  0.7818609E-02  0.8478120E-01
        1   -1    0    0  501    0  0.00000000000E+00  0.00000000000E+00  0.92797472036E+03  0.92797472037E+03  0.50400001928E-02 0.  1.
       -1   -1    0    0    0  501  0.00000000000E+00  0.00000000000E+00 -0.14245218952E+04  0.14245218952E+04  0.50400001928E-02 0. -1.
    10030    2    1    2    0    0  0.00000000000E+00  0.00000000000E+00 -0.49654717487E+03  0.23524966156E+04  0.22994958642E+04 0.  0.
        4    1    3    3  502    0 -0.56206677957E+02 -0.11195832076E+04  0.13140810523E+02  0.11210709358E+04  0.12699999809E+01 0. -1.
       -4    1    3    3    0  502  0.56206677957E+02  0.11195832076E+04 -0.50968798539E+03  0.12314256798E+04  0.12699999809E+01 0.  1.
</event>
<event>
 5   0  0.4436695E-05  0.2279095E+04  0.7818609E-02  0.8486210E-01
        2   -1    0    0  501    0  0.00000000000E+00  0.00000000000E+00  0.17079100462E+04  0.17079100462E+04  0.25500000920E-02 0. -1.
       -2   -1    0    0    0  501  0.00000000000E+00  0.00000000000E+00 -0.76032586444E+03  0.76032586445E+03  0.25500000920E-02 0.  1.
    10030    2    1    2    0    0  0.00000000000E+00  0.00000000000E+00  0.94758418180E+03  0.24682359107E+04  0.22790947170E+04 0.  0.
        5    1    3    3  502    0  0.50843963346E+03 -0.88773482441E+03 -0.69823511576E+02  0.10254176672E+04  0.46999998093E+01 0.  1.
       -5    1    3    3    0  502 -0.50843963346E+03  0.88773482441E+03  0.10174076934E+04  0.14428182435E+04  0.46999998093E+01 0. -1.
</event>
<event>
 5   0  0.1604500E-05  0.2308656E+04  0.7818609E-02  0.8474516E-01
        3   -1    0    0  501    0  0.00000000000E+00  0.00000000000E+00  0.15767200825E+04  0.15767200857E+04  0.10100000352E+00 0. -1.
       -3   -1    0    0    0  501  0.00000000000E+00  0.00000000000E+00 -0.84509200274E+03  0.84509200878E+03  0.10100000352E+00 0.  1.
    10030    2    1    2    0    0  0.00000000000E+00  0.00000000000E+00  0.73162807972E+03  0.24218120945E+04  0.23086563568E+04 0.  0.
        2    1    3    3  502    0  0.21148949322E+03  0.35699231957E+03 -0.76415543755E+03  0.86954289987E+03  0.25500000920E-02 0.  1.
       -2    1    3    3    0  502 -0.21148949322E+03 -0.35699231957E+03  0.14957835173E+04  0.15522691946E+04  0.25500000920E-02 0. -1.
</event>
<event>
 5   0  0.4436695E-05  0.2287171E+04  0.7818609E-02  0.8482997E-01
        2   -1    0    0  501    0  0.00000000000E+00  0.00000000000E+00  0.10329097153E+04  0.10329097153E+04  0.25500000920E-02 0.  1.
       -2   -1    0    0    0  501  0.00000000000E+00  0.00000000000E+00 -0.12661202175E+04  0.12661202175E+04  0.25500000920E-02 0. -1.
    10030    2    1    2    0    0  0.00000000000E+00  0.00000000000E+00 -0.23321050217E+03  0.22990299328E+04  0.22871710679E+04 0.  0.
        5    1    3    3  502    0  0.11371034503E+04 -0.89613313056E+02 -0.19907319306E+03  0.11578804034E+04  0.46999998093E+01 0.  1.
       -5    1    3    3    0  502 -0.11371034503E+04  0.89613313056E+02 -0.34137309112E+02  0.11411495294E+04  0.46999998093E+01 0. -1.
</event>
<event>
 5   0  0.4505107E-05  0.2254130E+04  0.7818609E-02  0.8496230E-01
       -2   -1    0    0    0  501  0.00000000000E+00  0.00000000000E+00  0.40591698929E+03  0.40591698930E+03  0.25500000920E-02 0.  1.
        2   -1    0    0  501    0  0.00000000000E+00  0.00000000000E+00 -0.31293981897E+04  0.31293981897E+04  0.25500000920E-02 0. -1.
    10030    2    1    2    0    0  0.00000000000E+00  0.00000000000E+00 -0.27234812004E+04  0.35353151790E+04  0.22541303347E+04 0.  0.
        4    1    3    3  502    0 -0.35960836633E+03  0.10480868245E+04 -0.10385261220E+04  0.15186646397E+04  0.12699999809E+01 0. -1.
       -4    1    3    3    0  502  0.35960836633E+03 -0.10480868245E+04 -0.16849550784E+04  0.20166505394E+04  0.12699999809E+01 0.  1.
</event>
<event>
 5   0  0.4605516E-05  0.2301938E+04  0.7818609E-02  0.8477157E-01
        2   -1    0    0  501    0  0.00000000000E+00  0.00000000000E+00  0.11469811123E+04  0.11469811123E+04  0.25500000920E-02 0. -1.
       -2   -1    0    0    0  501  0.00000000000E+00  0.00000000000E+00 -0.11549704845E+04  0.11549704845E+04  0.25500000920E-02 0.  1.
    10030    2    1    2    0    0  0.00000000000E+00  0.00000000000E+00 -0.79893721193E+01  0.23019515968E+04  0.23019377324E+04 0.  0.
        1    1    3    3  502    0  0.89669597228E+03  0.71221626883E+03  0.11182332740E+03  0.11505738294E+04  0.50400001928E-02 0.  1.
       -1    1    3    3    0  502 -0.89669597228E+03 -0.71221626883E+03 -0.11981269952E+03  0.11513777674E+04  0.50400001928E-02 0. -1.
</event>
<event>
 5   0  0.4605516E-05  0.2336126E+04  0.7818609E-02  0.8463812E-01
        2   -1    0    0  501    0  0.00000000000E+00  0.00000000000E+00  0.11857594029E+04  0.11857594029E+04  0.25500000920E-02 0. -1.
       -2   -1    0    0    0  501  0.00000000000E+00  0.00000000000E+00 -0.11506308952E+04  0.11506308952E+04  0.25500000920E-02 0.  1.
    10030    2    1    2    0    0  0.00000000000E+00  0.00000000000E+00  0.35128507682E+02  0.23363902982E+04  0.23361261981E+04 0.  0.
        1    1    3    3  502    0  0.36716556843E+03  0.46939586118E+03 -0.98715290759E+03  0.11530888483E+04  0.50400001928E-02 0.  1.
       -1    1    3    3    0  502 -0.36716556843E+03 -0.46939586118E+03  0.10222814153E+04  0.11833014498E+04  0.50400001928E-02 0. -1.
</event>
<event>
 5   0  0.2042951E-05  0.2283232E+04  0.7818609E-02  0.8484562E-01
        1   -1    0    0  501    0  0.00000000000E+00  0.00000000000E+00  0.14111105690E+04  0.14111105690E+04  0.50400001928E-02 0. -1.
       -1   -1    0    0    0  501  0.00000000000E+00  0.00000000000E+00 -0.92358942684E+03  0.92358942685E+03  0.50400001928E-02 0.  1.
    10030    2    1    2    0    0  0.00000000000E+00  0.00000000000E+00  0.48752114219E+03  0.23346999959E+04  0.22832317462E+04 0.  0.
        2    1    3    3  502    0 -0.87590630805E+03 -0.73180663844E+03  0.22013155334E+03  0.11624158969E+04  0.25500000920E-02 0.  1.
       -2    1    3    3    0  502  0.87590630805E+03  0.73180663844E+03  0.26738958885E+03  0.11722840990E+04  0.25500000920E-02 0. -1.
</event>
<event>
 5   0  0.4605516E-05  0.2178225E+04  0.7818609E-02  0.8527546E-01
       -2   -1    0    0    0  501  0.00000000000E+00  0.00000000000E+00  0.10753451291E+04  0.10753451291E+04  0.25500000920E-02 0. -1.
        2   -1    0    0  501    0  0.00000000000E+00  0.00000000000E+00 -0.11030565156E+04  0.11030565156E+04  0.25500000920E-02 0.  1.
    10030    2    1    2    0    0  0.00000000000E+00  0.00000000000E+00 -0.27711386502E+02  0.21784016447E+04  0.21782253797E+04 0.  0.
        1    1    3    3  502    0 -0.16653592360E+02 -0.96608051146E+03  0.48875592011E+03  0.10828071140E+04  0.50400001928E-02 0. -1.
       -1    1    3    3    0  502  0.16653592360E+02  0.96608051146E+03 -0.51646730661E+03  0.10955945306E+04  0.50400001928E-02 0.  1.
</event>
<event>
 5   0  0.2043885E-05  0.2314868E+04  0.7818609E-02  0.8472082E-01
       -1   -1    0    0    0  501  0.00000000000E+00  0.00000000000E+00  0.10885753214E+04  0.10885753215E+04  0.50400001928E-02 0.  1.
        1   -1    0    0  501    0  0.00000000000E+00  0.00000000000E+00 -0.12306479630E+04  0.12306479630E+04  0.50400001928E-02 0. -1.
    10030    2    1    2    0    0  0.00000000000E+00  0.00000000000E+00 -0.14207264159E+03  0.23192232845E+04  0.23148676005E+04 0.  0.
        5    1    3    3  502    0 -0.43880951459E+03  0.67424111821E+03  0.76268091623E+03  0.11085391944E+04  0.46999998093E+01 0.  1.
       -5    1    3    3    0  502  0.43880951459E+03 -0.67424111821E+03 -0.90475355782E+03  0.12106840901E+04  0.46999998093E+01 0. -1.
</event>
<event>
 5   0  0.1968318E-05  0.2273975E+04  0.7818609E-02  0.8488254E-01
       -1   -1    0    0    0  501  0.00000000000E+00  0.00000000000E+00  0.18229871202E+04  0.18229871202E+04  0.50400001928E-02 0. -1.
        1   -1    0    0  501    0  0.00000000000E+00  0.00000000000E+00 -0.70913289868E+03  0.70913289870E+03  0.50400001928E-02 0.  1.
    10030    2    1    2    0    0  0.00000000000E+00  0.00000000000E+00  0.11138542215E+04  0.25321200189E+04  0.22739746180E+04 0.  0.
        3    1    3    3  502    0 -0.54349484234E+03 -0.80752563638E+03 -0.97361237948E+02  0.97824512159E+03  0.10100000352E+00 0.  1.
       -3    1    3    3    0  502  0.54349484234E+03  0.80752563638E+03  0.12112154595E+04  0.15538748973E+04  0.10100000352E+00 0. -1.
</event>
<event>
 5   0  0.4505107E-05  0.2302222E+04  0.7818609E-02  0.8477046E-01
       -2   -1    0    0    0  501  0.00000000000E+00  0.00000000000E+00  0.10420763724E+04  0.10420763724E+04  0.25500000920E-02 0.  1.
        2   -1    0    0  501    0  0.00000000000E+00  0.00000000000E+00 -0.12715539567E+04  0.12715539567E+04  0.25500000920E-02 0. -1.
    10030    2    1    2    0    0  0.00000000000E+00  0.00000000000E+00 -0.22947758433E+03  0.23136303290E+04  0.23022218263E+04 0.  0.
        4    1    3    3  502    0  0.83769824736E+03  0.42439599433E+03  0.55429620661E+03  0.10904568819E+04  0.12699999809E+01 0.  1.
       -4    1    3    3    0  502 -0.83769824736E+03 -0.42439599433E+03 -0.78377379093E+03  0.12231734472E+04  0.12699999809E+01 0. -1.
</event>
<event>
 5   0  0.2031860E-05  0.2303701E+04  0.7818609E-02  0.8476463E-01
       -1   -1    0    0    0  501  0.00000000000E+00  0.00000000000E+00  0.95394864620E+03  0.95394864622E+03  0.50400001928E-02 0.  1.
        1   -1    0    0  501    0  0.00000000000E+00  0.00000000000E+00 -0.13908077233E+04  0.13908077233E+04  0.50400001928E-02 0. -1.
    10030    2    1    2    0    0  0.00000000000E+00  0.00000000000E+00 -0.43685907705E+03  0.23447563695E+04  0.23037006270E+04 0.  0.
        4    1    3    3  502    0  0.91900220744E+03  0.39136154722E+03  0.36540329850E+03  0.10636024170E+04  0.12699999809E+01 0.  1.
       -4    1    3    3    0  502 -0.91900220744E+03 -0.39136154722E+03 -0.80226237555E+03  0.12811539525E+04  0.12699999809E+01 0. -1.
</event>
<event>
 5   0  0.4602447E-05  0.2323798E+04  0.7818609E-02  0.8468596E-01
        2   -1    0    0  501    0  0.00000000000E+00  0.00000000000E+00  0.18055604707E+04  0.18055604707E+04  0.25500000920E-02 0. -1.
       -2   -1    0    0    0  501  0.00000000000E+00  0.00000000000E+00 -0.74769567602E+03  0.74769567602E+03  0.25500000920E-02 0.  1.
    10030    2    1    2    0    0  0.00000000000E+00  0.00000000000E+00  0.10578647947E+04  0.25532561468E+04  0.23237984050E+04 0.  0.
        3    1    3    3  502    0  0.54493359863E+03  0.56719619751E+03 -0.41069843995E+03  0.88732033233E+03  0.10100000352E+00 0.  1.
       -3    1    3    3    0  502 -0.54493359863E+03 -0.56719619751E+03  0.14685632347E+04  0.16659358144E+04  0.10100000352E+00 0. -1.
</event>
<event>
 5   0  0.4602447E-05  0.2271813E+04  0.7818609E-02  0.8489118E-01
       -2   -1    0    0    0  501  0.00000000000E+00  0.00000000000E+00  0.58424612845E+03  0.58424612846E+03  0.25500000920E-02 0.  1.
        2   -1    0    0  501    0  0.00000000000E+00  0.00000000000E+00 -0.22084590836E+04  0.22084590836E+04  0.25500000920E-02 0. -1.
    10030    2    1    2    0    0  0.00000000000E+00  0.00000000000E+00 -0.16242129552E+04  0.27927052121E+04  0.22718130816E+04 0.  0.
        3    1    3    3  502    0  0.18868344828E+03  0.50649711803E+02 -0.21876518645E+04  0.21963577868E+04  0.10100000352E+00 0. -1.
       -3    1    3    3    0  502 -0.18868344828E+03 -0.50649711803E+02  0.56343890933E+03  0.59634742534E+03  0.10100000352E+00 0.  1.
</event>
<event>
 5   0  0.4602447E-05  0.2298168E+04  0.7818609E-02  0.8478644E-01
       -2   -1    0    0    0  501  0.00000000000E+00  0.00000000000E+00  0.18079059440E+04  0.18079059440E+04  0.25500000920E-02 0. -1.
        2   -1    0    0  501    0  0.00000000000E+00  0.00000000000E+00 -0.73034414270E+03  0.73034414270E+03  0.25500000920E-02 0.  1.
    10030    2    1    2    0    0  0.00000000000E+00  0.00000000000E+00  0.10775618013E+04  0.25382500867E+04  0.22981675455E+04 0.  0.
        3    1    3    3  502    0  0.16676421692E+02 -0.61288819937E+03 -0.53459020572E+03  0.81344744527E+03  0.10100000352E+00 0.  1.
       -3    1    3    3    0  502 -0.16676421692E+02  0.61288819937E+03  0.16121520071E+04  0.17248026415E+04  0.10100000352E+00 0. -1.
</event>
<event>
 5   0  0.2042951E-05  0.2310995E+04  0.7818609E-02  0.8473599E-01
        1   -1    0    0  501    0  0.00000000000E+00  0.00000000000E+00  0.80589077629E+03  0.80589077630E+03  0.50400001928E-02 0. -1.
       -1   -1    0    0    0  501  0.00000000000E+00  0.00000000000E+00 -0.16567685573E+04  0.16567685573E+04  0.50400001928E-02 0.  1.
    10030    2    1    2    0    0  0.00000000000E+00  0.00000000000E+00 -0.85087778101E+03  0.24626593336E+04  0.23109950228E+04 0.  0.
        2    1    3    3  502    0  0.14002544365E+03  0.34230229672E+03  0.74111712310E+03  0.82827083575E+03  0.25500000920E-02 0. -1.
       -2    1    3    3    0  502 -0.14002544365E+03 -0.34230229672E+03 -0.15919949041E+04  0.16343884979E+04  0.25500000920E-02 0.  1.
</event>
<event>
 5   0  0.4436695E-05  0.2275673E+04  0.7818609E-02  0.8487575E-01
       -2   -1    0    0    0  501  0.00000000000E+00  0.00000000000E+00  0.82266259390E+03  0.82266259391E+03  0.25500000920E-02 0. -1.
        2   -1    0    0  501    0  0.00000000000E+00  0.00000000000E+00 -0.15737575895E+04  0.15737575895E+04  0.25500000920E-02 0.  1.
    10030    2    1    2    0    0  0.00000000000E+00  0.00000000000E+00 -0.75109499564E+03  0.23964201835E+04  0.22756726485E+04 0.  0.
        5    1    3    3  502    0 -0.91682824711E+03 -0.25098876092E+03  0.28299831419E+03  0.99180619511E+03  0.46999998093E+01 0. -1.
       -5    1    3    3    0  502  0.91682824711E+03  0.25098876092E+03 -0.10340933098E+04  0.14046139883E+04  0.46999998093E+01 0.  1.
</event>
<event>
 5   0  0.4436695E-05  0.2266395E+04  0.7818609E-02  0.8491290E-01
        2   -1    0    0  501    0  0.00000000000E+00  0.00000000000E+00  0.10639739847E+04  0.10639739847E+04  0.25500000920E-02 0. -1.
       -2   -1    0    0    0  501  0.00000000000E+00  0.00000000000E+00 -0.12069243945E+04  0.12069243945E+04  0.25500000920E-02 0.  1.
    10030    2    1    2    0    0  0.00000000000E+00  0.00000000000E+00 -0.14295040977E+03  0.22708983793E+04  0.22663946323E+04 0.  0.
        5    1    3    3  502    0 -0.51628399888E+03  0.86022754171E+03 -0.59937458214E+03  0.11686798410E+04  0.46999998093E+01 0.  1.
       -5    1    3    3    0  502  0.51628399888E+03 -0.86022754171E+03  0.45642417236E+03  0.11022185383E+04  0.46999998093E+01 0. -1.
</event>
<event>
 5   0  0.4505107E-05  0.2306993E+04  0.7818609E-02  0.8475169E-01
       -2   -1    0    0    0  501  0.00000000000E+00  0.00000000000E+00  0.74683155699E+03  0.74683155699E+03  0.25500000920E-02 0.  1.
        2   -1    0    0  501    0  0.00000000000E+00  0.00000000000E+00 -0.17815986039E+04  0.17815986039E+04  0.25500000920E-02 0. -1.
    10030    2    1    2    0    0  0.00000000000E+00  0.00000000000E+00 -0.10347670469E+04  0.25284301609E+04  0.23069928992E+04 0.  0.
        4    1    3    3  502    0 -0.87837349938E+03 -0.60457436976E+03 -0.99949530022E+03  0.14615206605E+04  0.12699999809E+01 0. -1.
       -4    1    3    3    0  502  0.87837349938E+03  0.60457436976E+03 -0.35271746667E+02  0.10669095004E+04  0.12699999809E+01 0.  1.
</event>
<event>
 5   0  0.4505107E-05  0.2281514E+04  0.7818609E-02  0.8485246E-01
       -2   -1    0    0    0  501  0.00000000000E+00  0.00000000000E+00  0.43128805756E+03  0.43128805757E+03  0.25500000920E-02 0. -1.
        2   -1    0    0  501    0  0.00000000000E+00  0.00000000000E+00 -0.30173028456E+04  0.30173028457E+04  0.25500000920E-02 0.  1.
    10030    2    1    2    0    0  0.00000000000E+00  0.00000000000E+00 -0.25860147881E+04  0.34485909032E+04  0.22815141318E+04 0.  0.
        4    1    3    3  502    0  0.52732714120E+03 -0.69413678257E+01 -0.28219789707E+04  0.28708342029E+04  0.12699999809E+01 0.  1.
       -4    1    3    3    0  502 -0.52732714120E+03  0.69413678257E+01  0.23596418260E+03  0.57775670035E+03  0.12699999809E+01 0. -1.
</event>
<event>
 5   0  0.2042951E-05  0.2251006E+04  0.7818609E-02  0.8497493E-01
        1   -1    0    0  501    0  0.00000000000E+00  0.00000000000E+00  0.79161100311E+03  0.79161100312E+03  0.50400001928E-02 0. -1.
       -1   -1    0    0    0  501  0.00000000000E+00  0.00000000000E+00 -0.16002263623E+04  0.16002263623E+04  0.50400001928E-02 0.  1.
    10030    2    1    2    0    0  0.00000000000E+00  0.00000000000E+00 -0.80861535919E+03  0.23918373654E+04  0.22510058160E+04 0.  0.
        2    1    3    3  502    0  0.11145116241E+04 -0.11569982751E+02 -0.23803504035E+03  0.11397064118E+04  0.25500000920E-02 0. -1.
       -2    1    3    3    0  502 -0.11145116241E+04  0.11569982751E+02 -0.57058031883E+03  0.12521309536E+04  0.25500000920E-02 0.  1.
</event>
<event>
 5   0  0.4602447E-05  0.2298430E+04  0.7818609E-02  0.8478540E-01
        2   -1    0    0  501    0  0.00000000000E+00  0.00000000000E+00  0.12338475075E+04  0.12338475075E+04  0.25500000920E-02 0. -1.
       -2   -1    0    0    0  501  0.00000000000E+00  0.00000000000E+00 -0.10703875805E+04  0.10703875805E+04  0.25500000920E-02 0.  1.
    10030    2    1    2    0    0  0.00000000000E+00  0.00000000000E+00  0.16345992693E+03  0.23042350880E+04  0.22984299409E+04 0.  0.
        3    1    3    3  502    0 -0.78635369451E+03 -0.62199745142E+03  0.64480865588E+03  0.11920617330E+04  0.10100000352E+00 0. -1.
       -3    1    3    3    0  502  0.78635369451E+03  0.62199745142E+03 -0.48134872895E+03  0.11121733550E+04  0.10100000352E+00 0.  1.
</event>
<event>
 5   0  0.2031860E-05  0.2290405E+04  0.7818609E-02  0.8481714E-01
        1   -1    0    0  501    0  0.00000000000E+00  0.00000000000E+00  0.13743284193E+04  0.13743284193E+04  0.50400001928E-02 0. -1.
       -1   -1    0    0    0  501  0.00000000000E+00  0.00000000000E+00 -0.95427587630E+03  0.95427587632E+03  0.50400001928E-02 0.  1.
    10030    2    1    2    0    0  0.00000000000E+00  0.00000000000E+00  0.42005254302E+03  0.23286042957E+04  0.22904047299E+04 0.  0.
        4    1    3    3  502    0  0.29858018422E+03  0.84426290682E+03  0.93576414766E+03  0.12952166364E+04  0.12699999809E+01 0.  1.
       -4    1    3    3    0  502 -0.29858018422E+03 -0.84426290682E+03 -0.51571160464E+03  0.10333876593E+04  0.12699999809E+01 0. -1.
</event>
<event>
 5   0  0.4605516E-05  0.2311677E+04  0.7818609E-02  0.8473331E-01
        2   -1    0    0  501    0  0.00000000000E+00  0.00000000000E+00  0.81657248642E+03  0.81657248642E+03  0.25500000920E-02 0.  1.
       -2   -1    0    0    0  501  0.00000000000E+00  0.00000000000E+00 -0.16360612720E+04  0.16360612720E+04  0.25500000920E-02 0. -1.
    10030    2    1    2    0    0  0.00000000000E+00  0.00000000000E+00 -0.81948878560E+03  0.24526337584E+04  0.23116769851E+04 0.  0.
        1    1    3    3  502    0 -0.39173523584E+02 -0.11033274082E+04 -0.77280393413E+03  0.13476245231E+04  0.50400001928E-02 0. -1.
       -1    1    3    3    0  502  0.39173523584E+02  0.11033274082E+04 -0.46684851476E+02  0.11050092353E+04  0.50400001928E-02 0.  1.
</event>
<event>
 5   0  0.4798609E-05  0.2331423E+04  0.7818609E-02  0.8465634E-01
        2   -1    0    0  501    0  0.00000000000E+00  0.00000000000E+00  0.10916989999E+04  0.10916989999E+04  0.25500000920E-02 0. -1.
       -2   -1    0    0    0  501  0.00000000000E+00  0.00000000000E+00 -0.12447415388E+04  0.12447415388E+04  0.25500000920E-02 0.  1.
    10030    2    1    2    0    0  0.00000000000E+00  0.00000000000E+00 -0.15304253896E+03  0.23364405387E+04  0.23314228214E+04 0.  0.
        2    1    3    3  502    0  0.91986172407E+03  0.66529339773E+03  0.18885460939E+03  0.11508375037E+04  0.25500000920E-02 0. -1.
       -2    1    3    3    0  502 -0.91986172407E+03 -0.66529339773E+03 -0.34189714836E+03  0.11856030350E+04  0.25500000920E-02 0.  1.
</event>
<event>
 5   0  0.2031860E-05  0.2237487E+04  0.7818609E-02  0.8502985E-01
       -1   -1    0    0    0  501  0.00000000000E+00  0.00000000000E+00  0.72863697647E+03  0.72863697649E+03  0.50400001928E-02 0. -1.
        1   -1    0    0  501    0  0.00000000000E+00  0.00000000000E+00 -0.17177106792E+04  0.17177106792E+04  0.50400001928E-02 0.  1.
    10030    2    1    2    0    0  0.00000000000E+00  0.00000000000E+00 -0.98907370271E+03  0.24463476557E+04  0.22374874442E+04 0.  0.
        4    1    3    3  502    0  0.98954425710E+03  0.27966667467E+03 -0.12751271126E+02  0.10283848956E+04  0.12699999809E+01 0. -1.
       -4    1    3    3    0  502 -0.98954425710E+03 -0.27966667467E+03 -0.97632243159E+03  0.14179627601E+04  0.12699999809E+01 0.  1.
</event>
<event>
 5   0  0.2042951E-05  0.2299372E+04  0.7818609E-02  0.8478169E-01
       -1   -1    0    0    0  501  0.00000000000E+00  0.00000000000E+00  0.89672935962E+03  0.89672935964E+03  0.50400001928E-02 0.  1.
        1   -1    0    0  501    0  0.00000000000E+00  0.00000000000E+00 -0.14739982791E+04  0.14739982791E+04  0.50400001928E-02 0. -1.
    10030    2    1    2    0    0  0.00000000000E+00  0.00000000000E+00 -0.57726891948E+03  0.23707276387E+04  0.22993716819E+04 0.  0.
        2    1    3    3  502    0  0.73047082728E+02 -0.65557442197E+03 -0.12594841169E+04  0.14217643757E+04  0.25500000920E-02 0. -1.
       -2    1    3    3    0  502 -0.73047082728E+02  0.65557442197E+03  0.68221519747E+03  0.94896326309E+03  0.25500000920E-02 0.  1.
</event>
<event>
 5   0  0.4505107E-05  0.2324500E+04  0.7818609E-02  0.8468323E-01
        2   -1    0    0  501    0  0.00000000000E+00  0.00000000000E+00  0.15904326289E+04  0.15904326289E+04  0.25500000920E-02 0. -1.
       -2   -1    0    0    0  501  0.00000000000E+00  0.00000000000E+00 -0.84934448016E+03  0.84934448016E+03  0.25500000920E-02 0.  1.
    10030    2    1    2    0    0  0.00000000000E+00  0.00000000000E+00  0.74108814870E+03  0.24397771090E+04  0.23245000963E+04 0.  0.
        4    1    3    3  502    0  0.69988722236E+03 -0.45724894324E+03  0.12179913482E+04  0.14773026965E+04  0.12699999809E+01 0. -1.
       -4    1    3    3    0  502 -0.69988722236E+03  0.45724894324E+03 -0.47690319946E+03  0.96247441248E+03  0.12699999809E+01 0.  1.
</event>
<event>
 5   0  0.4505107E-05  0.2242718E+04  0.7818609E-02  0.8500855E-01
       -2   -1    0    0    0  501  0.00000000000E+00  0.00000000000E+00  0.58301032718E+03  0.58301032719E+03  0.25500000920E-02 0. -1.
        2   -1    0    0  501    0  0.00000000000E+00  0.00000000000E+00 -0.21568158496E+04  0.21568158496E+04  0.25500000920E-02 0.  1.
    10030    2    1    2    0    0  0.00000000000E+00  0.00000000000E+00 -0.15738055224E+04  0.27398261768E+04  0.22427179173E+04 0.  0.
        4    1    3    3  502    0  0.53559022483E+03 -0.94668155419E+03 -0.11200841010E+04  0.15612984533E+04  0.12699999809E+01 0. -1.
       -4    1    3    3    0  502 -0.53559022483E+03  0.94668155419E+03 -0.45372142147E+03  0.11785277236E+04  0.12699999809E+01 0.  1.
</event>
<event>
 5   0  0.2031860E-05  0.2308193E+04  0.7818609E-02  0.8474698E-01
        1   -1    0    0  501    0  0.00000000000E+00  0.00000000000E+00  0.94942270367E+03  0.94942270369E+03  0.50400001928E-02 0.  1.
       -1   -1    0    0    0  501  0.00000000000E+00  0.00000000000E+00 -0.14028937748E+04  0.14028937748E+04  0.50400001928E-02 0. -1.
    10030    2    1    2    0    0  0.00000000000E+00  0.00000000000E+00 -0.45347107109E+03  0.23523164785E+04  0.23081934066E+04 0.  0.
        4    1    3    3  502    0 -0.81660242005E+03  0.52036169355E+03  0.41321873172E+03  0.10527901679E+04  0.12699999809E+01 0.  1.
       -4    1    3    3    0  502  0.81660242005E+03 -0.52036169355E+03 -0.86668980281E+03  0.12995263105E+04  0.12699999809E+01 0. -1.
</event>
<event>
 5   0  0.2042951E-05  0.2311589E+04  0.7818609E-02  0.8473366E-01
       -1   -1    0    0    0  501  0.00000000000E+00  0.00000000000E+00  0.10256310873E+04  0.10256310873E+04  0.50400001928E-02 0.  1.
        1   -1    0    0  501    0  0.00000000000E+00  0.00000000000E+00 -0.13024770036E+04  0.13024770036E+04  0.50400001928E-02 0. -1.
    10030    2    1    2    0    0  0.00000000000E+00  0.00000000000E+00 -0.27684591628E+03  0.23281080909E+04  0.23115889820E+04 0.  0.
        2    1    3    3  502    0 -0.57733899283E+03 -0.97453146217E+03 -0.36991113242E+03  0.11915813566E+04  0.25500000920E-02 0.  1.
       -2    1    3    3    0  502  0.57733899283E+03  0.97453146217E+03  0.93065216134E+02  0.11365267343E+04  0.25500000920E-02 0. -1.
</event>
<event>
 5   0  0.4436695E-05  0.2308090E+04  0.7818609E-02  0.8474738E-01
        2   -1    0    0  501    0  0.00000000000E+00  0.00000000000E+00  0.10558808950E+04  0.10558808950E+04  0.25500000920E-02 0.  1.
       -2   -1    0    0    0  501  0.00000000000E+00  0.00000000000E+00 -0.12613355962E+04  0.12613355962E+04  0.25500000920E-02 0. -1.
    10030    2    1    2    0    0  0.00000000000E+00  0.00000000000E+00 -0.20545470117E+03  0.23172164911E+04  0.23080902566E+04 0.  0.
        5    1    3    3  502    0 -0.23640289524E+03 -0.97948469755E+03 -0.66755429700E+03  0.12086883101E+04  0.46999998093E+01 0. -1.
       -5    1    3    3    0  502  0.23640289524E+03  0.97948469755E+03  0.46209959584E+03  0.11085281810E+04  0.46999998093E+01 0.  1.
</event>
<event>
 5   0  0.4436695E-05  0.2286233E+04  0.7818609E-02  0.8483369E-01
        2   -1    0    0  501    0  0.00000000000E+00  0.00000000000E+00  0.11306146650E+04  0.11306146650E+04  0.25500000920E-02 0. -1.
       -2   -1    0    0    0  501  0.00000000000E+00  0.00000000000E+00 -0.11557569248E+04  0.11557569248E+04  0.25500000920E-02 0.  1.
    10030    2    1    2    0    0  0.00000000000E+00  0.00000000000E+00 -0.25142259795E+02  0.22863715899E+04  0.22862333463E+04 0.  0.
        5    1    3    3  502    0 -0.10462447117E+04  0.17586329774E+03  0.41305740402E+03  0.11385053383E+04  0.46999998093E+01 0. -1.
       -5    1    3    3    0  502  0.10462447117E+04 -0.17586329774E+03 -0.43819966382E+03  0.11478662516E+04  0.46999998093E+01 0.  1.
</event>
<event>
 5   0  0.2043885E-05  0.2331205E+04  0.7818609E-02  0.8465718E-01
        1   -1    0    0  501    0  0.00000000000E+00  0.00000000000E+00  0.15587050015E+04  0.15587050015E+04  0.50400001928E-02 0. -1.
       -1   -1    0    0    0  501  0.00000000000E+00  0.00000000000E+00 -0.87163955852E+03  0.87163955853E+03  0.50400001928E-02 0.  1.
    10030    2    1    2    0    0  0.00000000000E+00  0.00000000000E+00  0.68706544299E+03  0.24303445600E+04  0.23312047867E+04 0.  0.
        5    1    3    3  502    0 -0.29463678498E+03 -0.64547177115E+03  0.13076096132E+04  0.14877196083E+04  0.46999998093E+01 0. -1.
       -5    1    3    3    0  502  0.29463678498E+03  0.64547177115E+03 -0.62054417023E+03  0.94262495173E+03  0.46999998093E+01 0.  1.
</event>
<event>
 5   0  0.4798609E-05  0.2283554E+04  0.7818609E-02  0.8484434E-01
       -2   -1    0    0    0  501  0.00000000000E+00  0.00000000000E+00  0.96752266055E+03  0.96752266055E+03  0.25500000920E-02 0.  1.
        2   -1    0    0  501    0  0.00000000000E+00  0.00000000000E+00 -0.13474155653E+04  0.13474155653E+04  0.25500000920E-02 0. -1.
    10030    2    1    2    0    0  0.00000000000E+00  0.00000000000E+00 -0.37989290480E+03  0.23149382259E+04  0.22835543284E+04 0.  0.
        2    1    3    3  502    0 -0.10975459448E+04 -0.12836434870E+03  0.10135371920E+03  0.11096653024E+04  0.25500000920E-02 0.  1.
       -2    1    3    3    0  502  0.10975459448E+04  0.12836434870E+03 -0.48124662400E+03  0.12052729235E+04  0.25500000920E-02 0. -1.
</event>
<event>
 5   0  0.2031860E-05  0.2281593E+04  0.7818609E-02  0.8485214E-01
       -1   -1    0    0    0  501  0.00000000000E+00  0.00000000000E+00  0.84284962959E+03  0.84284962960E+03  0.50400001928E-02 0. -1.
        1   -1    0    0  501    0  0.00000000000E+00  0.00000000000E+00 -0.15440677042E+04  0.15440677042E+04  0.50400001928E-02 0.  1.
    10030    2    1    2    0    0  0.00000000000E+00  0.00000000000E+00 -0.70121807458E+03  0.23869173338E+04  0.22815932087E+04 0.  0.
        4    1    3    3  502    0 -0.47337864102E+03 -0.38129572717E+02 -0.14357343257E+04  0.15122420008E+04  0.12699999809E+01 0.  1.
       -4    1    3    3    0  502  0.47337864102E+03  0.38129572717E+02  0.73451625111E+03  0.87467533298E+03  0.12699999809E+01 0. -1.
</event>
<event>
 5   0  0.4602447E-05  0.2295745E+04  0.7818609E-02  0.8479600E-01
       -2   -1    0    0    0  501  0.00000000000E+00  0.00000000000E+00  0.20940291807E+04  0.20940291807E+04  0.25500000920E-02 0.  1.
        2   -1    0    0  501    0  0.00000000000E+00  0.00000000000E+00 -0.62922323246E+03  0.62922323246E+03  0.25500000920E-02 0. -1.
    10030    2    1    2    0    0  0.00000000000E+00  0.00000000000E+00  0.14648059482E+04  0.27232524131E+04  0.22957454649E+04 0.  0.
        3    1    3    3  502    0 -0.42789397310E+03  0.84716838960E+03 -0.33441635142E+02  0.94968725679E+03  0.10100000352E+00 0. -1.
       -3    1    3    3    0  502  0.42789397310E+03 -0.84716838960E+03  0.14982475833E+04  0.17735651563E+04  0.10100000352E+00 0.  1.
</event>
<event>
 5   0  0.4436695E-05  0.2296275E+04  0.7818609E-02  0.8479391E-01
       -2   -1    0    0    0  501  0.00000000000E+00  0.00000000000E+00  0.10557557621E+04  0.10557557621E+04  0.25500000920E-02 0. -1.
        2   -1    0    0  501    0  0.00000000000E+00  0.00000000000E+00 -0.12486029203E+04  0.12486029203E+04  0.25500000920E-02 0.  1.
    10030    2    1    2    0    0  0.00000000000E+00  0.00000000000E+00 -0.19284715821E+03  0.23043586824E+04  0.22962750076E+04 0.  0.
        5    1    3    3  502    0  0.65885509077E+03 -0.18260171824E+03  0.82919228397E+03  0.10747164054E+04  0.46999998093E+01 0. -1.
       -5    1    3    3    0  502 -0.65885509077E+03  0.18260171824E+03 -0.10220394422E+04  0.12296422770E+04  0.46999998093E+01 0.  1.
</event>
<event>
 5   0  0.4798609E-05  0.2286846E+04  0.7818609E-02  0.8483126E-01
       -2   -1    0    0    0  501  0.00000000000E+00  0.00000000000E+00  0.66882199549E+03  0.66882199549E+03  0.25500000920E-02 0. -1.
        2   -1    0    0  501    0  0.00000000000E+00  0.00000000000E+00 -0.19548039573E+04  0.19548039573E+04  0.25500000920E-02 0.  1.
    10030    2    1    2    0    0  0.00000000000E+00  0.00000000000E+00 -0.12859819618E+04  0.26236259528E+04  0.22868457609E+04 0.  0.
        2    1    3    3  502    0  0.12422965787E+03  0.37892493659E+03 -0.18724424866E+04  0.19144341151E+04  0.25500000920E-02 0.  1.
       -2    1    3    3    0  502 -0.12422965787E+03 -0.37892493659E+03  0.58646052480E+03  0.70919183767E+03  0.25500000920E-02 0. -1.
</event>
<event>
 5   0  0.1968318E-05  0.2291798E+04  0.7818609E-02  0.8481162E-01
        1   -1    0    0  501    0  0.00000000000E+00  0.00000000000E+00  0.15933222136E+04  0.15933222136E+04  0.50400001928E-02 0.  1.
       -1   -1    0    0    0  501  0.00000000000E+00  0.00000000000E+00 -0.82411738398E+03  0.82411738399E+03  0.50400001928E-02 0. -1.
    10030    2    1    2    0    0  0.00000000000E+00  0.00000000000E+00  0.76920482962E+03  0.24174395976E+04  0.22917980142E+04 0.  0.
        3    1    3    3  502    0  0.27396086480E+03  0.37518316723E+03 -0.72032961380E+03  0.85714160273E+03  0.10100000352E+00 0. -1.
       -3    1    3    3    0  502 -0.27396086480E+03 -0.37518316723E+03  0.14895344434E+04  0.15602979949E+04  0.10100000352E+00 0.  1.
</event>
<event>
 5   0  0.4798609E-05  0.2278565E+04  0.7818609E-02  0.8486421E-01
        2   -1    0    0  501    0  0.00000000000E+00  0.00000000000E+00  0.17769333584E+04  0.17769333584E+04  0.25500000920E-02 0.  1.
       -2   -1    0    0    0  501  0.00000000000E+00  0.00000000000E+00 -0.73045176919E+03  0.73045176920E+03  0.25500000920E-02 0. -1.
    10030    2    1    2    0    0  0.00000000000E+00  0.00000000000E+00  0.10464815892E+04  0.25073851276E+04  0.22785645617E+04 0.  0.
        2    1    3    3  502    0  0.32885534988E+03 -0.33943737842E+03 -0.61749018020E+03  0.77759738790E+03  0.25500000920E-02 0. -1.
       -2    1    3    3    0  502 -0.32885534988E+03  0.33943737842E+03  0.16639717694E+04  0.17297877397E+04  0.25500000920E-02 0.  1.
</event>
<event>
 5   0  0.2043885E-05  0.2288578E+04  0.7818609E-02  0.8482438E-01
       -1   -1    0    0    0  501  0.00000000000E+00  0.00000000000E+00  0.90619610207E+03  0.90619610209E+03  0.50400001928E-02 0.  1.
        1   -1    0    0  501    0  0.00000000000E+00  0.00000000000E+00 -0.14449384564E+04  0.14449384564E+04  0.50400001928E-02 0. -1.
    10030    2    1    2    0    0  0.00000000000E+00  0.00000000000E+00 -0.53874235429E+03  0.23511345585E+04  0.22885782459E+04 0.  0.
        5    1    3    3  502    0  0.13548181074E+02 -0.10028377186E+04  0.29660365973E+03  0.10458789911E+04  0.46999998093E+01 0.  1.
       -5    1    3    3    0  502 -0.13548181074E+02  0.10028377186E+04 -0.83534601402E+03  0.13052555674E+04  0.46999998093E+01 0. -1.
</event>
<event>
 5   0  0.2031860E-05  0.2284096E+04  0.7818609E-02  0.8484218E-01
       -1   -1    0    0    0  501  0.00000000000E+00  0.00000000000E+00  0.77036671316E+03  0.77036671318E+03  0.50400001928E-02 0.  1.
        1   -1    0    0  501    0  0.00000000000E+00  0.00000000000E+00 -0.16930551029E+04  0.16930551029E+04  0.50400001928E-02 0. -1.
    10030    2    1    2    0    0  0.00000000000E+00  0.00000000000E+00 -0.92268838975E+03  0.24634218161E+04  0.22840957028E+04 0.  0.
        4    1    3    3  502    0  0.58180042392E+03  0.20208560765E+03  0.57590136754E+03  0.84320479370E+03  0.12699999809E+01 0.  1.
       -4    1    3    3    0  502 -0.58180042392E+03 -0.20208560765E+03 -0.14985897573E+04  0.16202170224E+04  0.12699999809E+01 0. -1.
</event>
<event>
 5   0  0.4602447E-05  0.2322263E+04  0.7818609E-02  0.8469195E-01
       -2   -1    0    0    0  501  0.00000000000E+00  0.00000000000E+00  0.10889700428E+04  0.10889700428E+04  0.25500000920E-02 0.  1.
        2   -1    0    0  501    0  0.00000000000E+00  0.00000000000E+00 -0.12380745485E+04  0.12380745485E+04  0.25500000920E-02 0. -1.
    10030    2    1    2    0    0  0.00000000000E+00  0.00000000000E+00 -0.14910450578E+03  0.23270445913E+04  0.23222627707E+04 0.  0.
        3    1    3    3  502    0  0.61880445565E+03  0.72079241698E+03 -0.74358370303E+03  0.12063902338E+04  0.10100000352E+00 0. -1.
       -3    1    3    3    0  502 -0.61880445565E+03 -0.72079241698E+03  0.59447919725E+03  0.11206543575E+04  0.10100000352E+00 0.  1.
</event>
<event>
 5   0  0.1968318E-05  0.1997965E+04  0.7818609E-02  0.8607573E-01
       -1   -1    0    0    0  501  0.00000000000E+00  0.00000000000E+00  0.79788103447E+03  0.79788103448E+03  0.50400001928E-02 0.  1.
        1   -1    0    0  501    0  0.00000000000E+00  0.00000000000E+00 -0.12507705416E+04  0.12507705416E+04  0.50400001928E-02 0. -1.
    10030    2    1    2    0    0  0.00000000000E+00  0.00000000000E+00 -0.45288950710E+03  0.20486515761E+04  0.19979650584E+04 0.  0.
        3    1    3    3  502    0 -0.92205962841E+03 -0.37048647557E+03 -0.33157332216E+03  0.10475662581E+04  0.10100000352E+00 0.  1.
       -3    1    3    3    0  502  0.92205962841E+03  0.37048647557E+03 -0.12131618493E+03  0.10010853180E+04  0.10100000352E+00 0. -1.
</event>
<event>
 5   0  0.2042951E-05  0.2373948E+04  0.7818609E-02  0.8449322E-01
        1   -1    0    0  501    0  0.00000000000E+00  0.00000000000E+00  0.26774014607E+04  0.26774014607E+04  0.50400001928E-02 0.  1.
       -1   -1    0    0    0  501  0.00000000000E+00  0.00000000000E+00 -0.52622208047E+03  0.52622208049E+03  0.50400001928E-02 0. -1.
    10030    2    1    2    0    0  0.00000000000E+00  0.00000000000E+00  0.21511793802E+04  0.32036235412E+04  0.23739484130E+04 0.  0.
        2    1    3    3  502    0 -0.72845851248E+03  0.60236932318E+03  0.20444148823E+04  0.22523616088E+04  0.25500000920E-02 0.  1.
       -2    1    3    3    0  502  0.72845851248E+03 -0.60236932318E+03  0.10676449790E+03  0.95126193235E+03  0.25500000920E-02 0. -1.
</event>
<event>
 5   0  0.2042951E-05  0.2289600E+04  0.7818609E-02  0.8482033E-01
       -1   -1    0    0    0  501  0.00000000000E+00  0.00000000000E+00  0.83597018514E+03  0.83597018515E+03  0.50400001928E-02 0. -1.
        1   -1    0    0  501    0  0.00000000000E+00  0.00000000000E+00 -0.15677192895E+04  0.15677192895E+04  0.50400001928E-02 0.  1.
    10030    2    1    2    0    0  0.00000000000E+00  0.00000000000E+00 -0.73174910433E+03  0.24036894746E+04  0.22895996023E+04 0.  0.
        2    1    3    3  502    0 -0.88538392781E+03  0.42323891563E+03  0.25301822135E+03  0.10134367764E+04  0.25500000920E-02 0. -1.
       -2    1    3    3    0  502  0.88538392781E+03 -0.42323891563E+03 -0.98476732568E+03  0.13902526983E+04  0.25500000920E-02 0.  1.
</event>
<event>
 5   0  0.4505107E-05  0.2292293E+04  0.7818609E-02  0.8480966E-01
       -2   -1    0    0    0  501  0.00000000000E+00  0.00000000000E+00  0.15753320020E+04  0.15753320020E+04  0.25500000920E-02 0.  1.
        2   -1    0    0  501    0  0.00000000000E+00  0.00000000000E+00 -0.83388889553E+03  0.83388889553E+03  0.25500000920E-02 0. -1.
    10030    2    1    2    0    0  0.00000000000E+00  0.00000000000E+00  0.74144310645E+03  0.24092208975E+04  0.22922930556E+04 0.  0.
        4    1    3    3  502    0  0.85910281080E+03 -0.22566054284E+02  0.11677464590E+04  0.14498966418E+04  0.12699999809E+01 0.  1.
       -4    1    3    3    0  502 -0.85910281080E+03  0.22566054284E+02 -0.42630335259E+03  0.95932425574E+03  0.12699999809E+01 0. -1.
</event>
<event>
 5   0  0.2085063E-05  0.2370982E+04  0.7818609E-02  0.8450448E-01
       -1   -1    0    0    0  501  0.00000000000E+00  0.00000000000E+00  0.12628498850E+04  0.12628498850E+04  0.50400001928E-02 0. -1.
        1   -1    0    0  501    0  0.00000000000E+00  0.00000000000E+00 -0.11128705415E+04  0.11128705415E+04  0.50400001928E-02 0.  1.
    10030    2    1    2    0    0  0.00000000000E+00  0.00000000000E+00  0.14997934351E+03  0.23757204266E+04  0.23709815988E+04 0.  0.
        1    1    3    3  502    0 -0.70115899578E+03 -0.48866535474E+03  0.89819770315E+03  0.12398293755E+04  0.50400001928E-02 0. -1.
       -1    1    3    3    0  502  0.70115899578E+03  0.48866535474E+03 -0.74821835964E+03  0.11358910511E+04  0.50400001928E-02 0.  1.
</event>
<event>
 5   0  0.2085063E-05  0.2289709E+04  0.7818609E-02  0.8481990E-01
       -1   -1    0    0    0  501  0.00000000000E+00  0.00000000000E+00  0.66103198315E+03  0.66103198317E+03  0.50400001928E-02 0. -1.
        1   -1    0    0  501    0  0.00000000000E+00  0.00000000000E+00 -0.19827971494E+04  0.19827971494E+04  0.50400001928E-02 0.  1.
    10030    2    1    2    0    0  0.00000000000E+00  0.00000000000E+00 -0.13217651662E+04  0.26438291325E+04  0.22897094417E+04 0.  0.
        1    1    3    3  502    0  0.74228711389E+03 -0.86644954049E+03 -0.77022419225E+03  0.13765791921E+04  0.50400001928E-02 0.  1.
       -1    1    3    3    0  502 -0.74228711389E+03  0.86644954049E+03 -0.55154097397E+03  0.12672499405E+04  0.50400001928E-02 0. -1.
</event>
<event>
 5   0  0.4436695E-05  0.2189899E+04  0.7818609E-02  0.8522644E-01
        2   -1    0    0  501    0  0.00000000000E+00  0.00000000000E+00  0.11479217161E+04  0.11479217161E+04  0.25500000920E-02 0. -1.
       -2   -1    0    0    0  501  0.00000000000E+00  0.00000000000E+00 -0.10444217285E+04  0.10444217285E+04  0.25500000920E-02 0.  1.
    10030    2    1    2    0    0  0.00000000000E+00  0.00000000000E+00  0.10349998766E+03  0.21923434446E+04  0.21898989775E+04 0.  0.
        5    1    3    3  502    0  0.61119850928E+03  0.54499753696E+03  0.77940819547E+03  0.11305242847E+04  0.46999998093E+01 0. -1.
       -5    1    3    3    0  502 -0.61119850928E+03 -0.54499753696E+03 -0.67590820781E+03  0.10618191599E+04  0.46999998093E+01 0.  1.
</event>
<event>
 5   0  0.4605516E-05  0.2294295E+04  0.7818609E-02  0.8480174E-01
        2   -1    0    0  501    0  0.00000000000E+00  0.00000000000E+00  0.14165805904E+04  0.14165805904E+04  0.25500000920E-02 0.  1.
       -2   -1    0    0    0  501  0.00000000000E+00  0.00000000000E+00 -0.92896060999E+03  0.92896061000E+03  0.25500000920E-02 0. -1.
    10030    2    1    2    0    0  0.00000000000E+00  0.00000000000E+00  0.48761998041E+03  0.23455412004E+04  0.22942951592E+04 0.  0.
        1    1    3    3  502    0  0.59604064161E+03  0.60694722862E+03  0.10306093138E+04  0.13363401298E+04  0.50400001928E-02 0.  1.
       -1    1    3    3    0  502 -0.59604064161E+03 -0.60694722862E+03 -0.54298933337E+03  0.10092010706E+04  0.50400001928E-02 0. -1.
</event>
<event>
 5   0  0.4605516E-05  0.2364334E+04  0.7818609E-02  0.8452978E-01
        2   -1    0    0  501    0  0.00000000000E+00  0.00000000000E+00  0.10134793865E+04  0.10134793865E+04  0.25500000920E-02 0.  1.
       -2   -1    0    0    0  501  0.00000000000E+00  0.00000000000E+00 -0.13789316525E+04  0.13789316525E+04  0.25500000920E-02 0. -1.
    10030    2    1    2    0    0  0.00000000000E+00  0.00000000000E+00 -0.36545226596E+03  0.23924110390E+04  0.23643339909E+04 0.  0.
        1    1    3    3  502    0  0.89169684278E+03 -0.22372526372E+03  0.56929703935E+03  0.10813303714E+04  0.50400001928E-02 0.  1.
       -1    1    3    3    0  502 -0.89169684278E+03  0.22372526372E+03 -0.93474930531E+03  0.13110806676E+04  0.50400001928E-02 0. -1.
</event>
<event>
 5   0  0.1968318E-05  0.2291260E+04  0.7818609E-02  0.8481375E-01
        1   -1    0    0  501    0  0.00000000000E+00  0.00000000000E+00  0.10565395749E+04  0.10565395749E+04  0.50400001928E-02 0. -1.
       -1   -1    0    0    0  501  0.00000000000E+00  0.00000000000E+00 -0.12422324812E+04  0.12422324812E+04  0.50400001928E-02 0.  1.
    10030    2    1    2    0    0  0.00000000000E+00  0.00000000000E+00 -0.18569290625E+03  0.22987720561E+04  0.22912597213E+04 0.  0.
        3    1    3    3  502    0 -0.18930452978E+03 -0.10417788845E+04  0.34599860868E+03  0.11139364868E+04  0.10100000352E+00 0. -1.
       -3    1    3    3    0  502  0.18930452978E+03  0.10417788845E+04 -0.53169151493E+03  0.11848355694E+04  0.10100000352E+00 0.  1.
</event>
<event>
 5   0  0.4436695E-05  0.2279359E+04  0.7818609E-02  0.8486104E-01
        2   -1    0    0  501    0  0.00000000000E+00  0.00000000000E+00  0.11318500077E+04  0.11318500077E+04  0.25500000920E-02 0.  1.
       -2   -1    0    0    0  501  0.00000000000E+00  0.00000000000E+00 -0.11475633498E+04  0.11475633498E+04  0.25500000920E-02 0. -1.
    10030    2    1    2    0    0  0.00000000000E+00  0.00000000000E+00 -0.15713342182E+02  0.22794133575E+04  0.22793591962E+04 0.  0.
        5    1    3    3  502    0  0.10705602011E+04 -0.83314964201E+02  0.37399918948E+03  0.11370743208E+04  0.46999998093E+01 0.  1.
       -5    1    3    3    0  502 -0.10705602011E+04  0.83314964201E+02 -0.38971253166E+03  0.11423390367E+04  0.46999998093E+01 0. -1.
</event>
<event>
 5   0  0.4798609E-05  0.2275882E+04  0.7818609E-02  0.8487492E-01
       -2   -1    0    0    0  501  0.00000000000E+00  0.00000000000E+00  0.84771557415E+03  0.84771557416E+03  0.25500000920E-02 0. -1.
        2   -1    0    0  501    0  0.00000000000E+00  0.00000000000E+00 -0.15275283854E+04  0.15275283854E+04  0.25500000920E-02 0.  1.
    10030    2    1    2    0    0  0.00000000000E+00  0.00000000000E+00 -0.67981281120E+03  0.23752439595E+04  0.22758818970E+04 0.  0.
        2    1    3    3  502    0 -0.55694201919E+03  0.61673361916E+03 -0.11512561311E+04  0.14198364163E+04  0.25500000920E-02 0.  1.
       -2    1    3    3    0  502  0.55694201919E+03 -0.61673361916E+03  0.47144331988E+03  0.95540754320E+03  0.25500000920E-02 0. -1.
</event>
<event>
 5   0  0.2043885E-05  0.2304527E+04  0.7818609E-02  0.8476138E-01
        1   -1    0    0  501    0  0.00000000000E+00  0.00000000000E+00  0.18968619852E+04  0.18968619852E+04  0.50400001928E-02 0. -1.
       -1   -1    0    0    0  501  0.00000000000E+00  0.00000000000E+00 -0.69995113969E+03  0.69995113971E+03  0.50400001928E-02 0.  1.
    10030    2    1    2    0    0  0.00000000000E+00  0.00000000000E+00  0.11969108455E+04  0.25968131249E+04  0.23045265964E+04 0.  0.
        5    1    3    3  502    0  0.92401840385E+02 -0.86493202234E+03 -0.25306177312E+03  0.90592927670E+03  0.46999998093E+01 0.  1.
       -5    1    3    3    0  502 -0.92401840385E+02  0.86493202234E+03  0.14499726186E+04  0.16908838482E+04  0.46999998093E+01 0. -1.
</event>
<event>
 5   0  0.4605516E-05  0.2202447E+04  0.7818609E-02  0.8517410E-01
       -2   -1    0    0    0  501  0.00000000000E+00  0.00000000000E+00  0.10037403619E+04  0.10037403619E+04  0.25500000920E-02 0.  1.
        2   -1    0    0  501    0  0.00000000000E+00  0.00000000000E+00 -0.12081743933E+04  0.12081743933E+04  0.25500000920E-02 0. -1.
    10030    2    1    2    0    0  0.00000000000E+00  0.00000000000E+00 -0.20443403145E+03  0.22119147552E+04  0.22024471869E+04 0.  0.
        1    1    3    3  502    0  0.72265073568E+02  0.57023990877E+03 -0.10455617587E+04  0.11931450815E+04  0.50400001928E-02 0. -1.
       -1    1    3    3    0  502 -0.72265073568E+02 -0.57023990877E+03  0.84112772721E+03  0.10187696736E+04  0.50400001928E-02 0.  1.
</event>
<event>
 5   0  0.4505107E-05  0.2313942E+04  0.7818609E-02  0.8472444E-01
       -2   -1    0    0    0  501  0.00000000000E+00  0.00000000000E+00  0.93347419265E+03  0.93347419265E+03  0.25500000920E-02 0.  1.
        2   -1    0    0  501    0  0.00000000000E+00  0.00000000000E+00 -0.14339784431E+04  0.14339784431E+04  0.25500000920E-02 0. -1.
    10030    2    1    2    0    0  0.00000000000E+00  0.00000000000E+00 -0.50050425043E+03  0.23674526357E+04  0.23139419780E+04 0.  0.
        4    1    3    3  502    0 -0.69938536405E+03  0.60308905425E+03 -0.96330805945E+03  0.13344738008E+04  0.12699999809E+01 0. -1.
       -4    1    3    3    0  502  0.69938536405E+03 -0.60308905425E+03  0.46280380902E+03  0.10329788349E+04  0.12699999809E+01 0.  1.
</event>
<event>
 5   0  0.4605516E-05  0.2303130E+04  0.7818609E-02  0.8476688E-01
       -2   -1    0    0    0  501  0.00000000000E+00  0.00000000000E+00  0.75668697197E+03  0.75668697197E+03  0.25500000920E-02 0.  1.
        2   -1    0    0  501    0  0.00000000000E+00  0.00000000000E+00 -0.17525101295E+04  0.17525101295E+04  0.25500000920E-02 0. -1.
    10030    2    1    2    0    0  0.00000000000E+00  0.00000000000E+00 -0.99582315749E+03  0.25091971014E+04  0.23031296822E+04 0.  0.
        1    1    3    3  502    0 -0.46146228276E+03  0.76513755532E+03 -0.12893508803E+04  0.15686964682E+04  0.50400001928E-02 0. -1.
       -1    1    3    3    0  502  0.46146228276E+03 -0.76513755532E+03  0.29352772278E+03  0.94050063320E+03  0.50400001928E-02 0.  1.
</event>
<event>
 5   0  0.4798609E-05  0.2308189E+04  0.7818609E-02  0.8474699E-01
       -2   -1    0    0    0  501  0.00000000000E+00  0.00000000000E+00  0.12740502981E+04  0.12740502981E+04  0.25500000920E-02 0.  1.
        2   -1    0    0  501    0  0.00000000000E+00  0.00000000000E+00 -0.10454333566E+04  0.10454333566E+04  0.25500000920E-02 0. -1.
    10030    2    1    2    0    0  0.00000000000E+00  0.00000000000E+00  0.22861694158E+03  0.23194836547E+04  0.23081894893E+04 0.  0.
        2    1    3    3  502    0  0.40588983031E+03 -0.81673022349E+03 -0.59635762149E+03  0.10896959324E+04  0.25500000920E-02 0. -1.
       -2    1    3    3    0  502 -0.40588983031E+03  0.81673022349E+03  0.82497456307E+03  0.12297877223E+04  0.25500000920E-02 0.  1.
</event>
<event>
 5   0  0.2042951E-05  0.2256282E+04  0.7818609E-02  0.8495361E-01
       -1   -1    0    0    0  501  0.00000000000E+00  0.00000000000E+00  0.58378139947E+03  0.58378139949E+03  0.50400001928E-02 0.  1.
        1   -1    0    0  501    0  0.00000000000E+00  0.00000000000E+00 -0.21801009544E+04  0.21801009544E+04  0.50400001928E-02 0. -1.
    10030    2    1    2    0    0  0.00000000000E+00  0.00000000000E+00 -0.15963195550E+04  0.27638823539E+04  0.22562822396E+04 0.  0.
        2    1    3    3  502    0  0.13872424389E+03  0.99441699728E+03 -0.16805155894E+03  0.10180132154E+04  0.25500000920E-02 0.  1.
       -2    1    3    3    0  502 -0.13872424389E+03 -0.99441699728E+03 -0.14282679960E+04  0.17458691385E+04  0.25500000920E-02 0. -1.
</event>
<event>
 5   0  0.2042951E-05  0.2333353E+04  0.7818609E-02  0.8464885E-01
        1   -1    0    0  501    0  0.00000000000E+00  0.00000000000E+00  0.19576544520E+04  0.19576544520E+04  0.50400001928E-02 0. -1.
       -1   -1    0    0    0  501  0.00000000000E+00  0.00000000000E+00 -0.69528845860E+03  0.69528845861E+03  0.50400001928E-02 0.  1.
    10030    2    1    2    0    0  0.00000000000E+00  0.00000000000E+00  0.12623659934E+04  0.26529429106E+04  0.23333534207E+04 0.  0.
        2    1    3    3  502    0  0.50457120240E+03 -0.95208286271E+03  0.11397520711E+04  0.15684669774E+04  0.25500000920E-02 0.  1.
       -2    1    3    3    0  502 -0.50457120240E+03  0.95208286271E+03  0.12261392235E+03  0.10844759332E+04  0.25500000920E-02 0. -1.
</event>
<event>
 5   0  0.4605516E-05  0.2373924E+04  0.7818609E-02  0.8449331E-01
        2   -1    0    0  501    0  0.00000000000E+00  0.00000000000E+00  0.23897340934E+04  0.23897340934E+04  0.25500000920E-02 0. -1.
       -2   -1    0    0    0  501  0.00000000000E+00  0.00000000000E+00 -0.58955470678E+03  0.58955470679E+03  0.25500000920E-02 0.  1.
    10030    2    1    2    0    0  0.00000000000E+00  0.00000000000E+00  0.18001793866E+04  0.29792888002E+04  0.23739241628E+04 0.  0.
        1    1    3    3  502    0 -0.69685261124E+03 -0.61382058454E+03  0.18278605609E+04  0.20502325483E+04  0.50400001928E-02 0. -1.
       -1    1    3    3    0  502  0.69685261124E+03  0.61382058454E+03 -0.27681174290E+02  0.92905625192E+03  0.50400001928E-02 0.  1.
</event>
<event>
 5   0  0.2085063E-05  0.2303984E+04  0.7818609E-02  0.8476352E-01
        1   -1    0    0  501    0  0.00000000000E+00  0.00000000000E+00  0.22003346877E+04  0.22003346877E+04  0.50400001928E-02 0.  1.
       -1   -1    0    0    0  501  0.00000000000E+00  0.00000000000E+00 -0.60312916821E+03  0.60312916823E+03  0.50400001928E-02 0. -1.
    10030    2    1    2    0    0  0.00000000000E+00  0.00000000000E+00  0.15972055195E+04  0.28034638560E+04  0.23039844010E+04 0.  0.
        1    1    3    3  502    0  0.10784964814E+04 -0.40484099042E+03  0.80581599221E+03  0.14058414922E+04  0.50400001928E-02 0.  1.
       -1    1    3    3    0  502 -0.10784964814E+04  0.40484099042E+03  0.79138952732E+03  0.13976223638E+04  0.50400001928E-02 0. -1.
</event>
<event>
 5   0  0.2043885E-05  0.2297162E+04  0.7818609E-02  0.8479041E-01
        1   -1    0    0  501    0  0.00000000000E+00  0.00000000000E+00  0.68069713672E+03  0.68069713674E+03  0.50400001928E-02 0. -1.
       -1   -1    0    0    0  501  0.00000000000E+00  0.00000000000E+00 -0.19380695188E+04  0.19380695188E+04  0.50400001928E-02 0.  1.
    10030    2    1    2    0    0  0.00000000000E+00  0.00000000000E+00 -0.12573723821E+04  0.26187666555E+04  0.22971620511E+04 0.  0.
        5    1    3    3  502    0 -0.63350814736E+03  0.27334085666E+03  0.41811052673E+03  0.80677524705E+03  0.46999998093E+01 0. -1.
       -5    1    3    3    0  502  0.63350814736E+03 -0.27334085666E+03 -0.16754829088E+04  0.18119914085E+04  0.46999998093E+01 0.  1.
</event>
<event>
 5   0  0.4605516E-05  0.2299355E+04  0.7818609E-02  0.8478175E-01
       -2   -1    0    0    0  501  0.00000000000E+00  0.00000000000E+00  0.14559929744E+04  0.14559929744E+04  0.25500000920E-02 0.  1.
        2   -1    0    0  501    0  0.00000000000E+00  0.00000000000E+00 -0.90780547180E+03  0.90780547181E+03  0.25500000920E-02 0. -1.
    10030    2    1    2    0    0  0.00000000000E+00  0.00000000000E+00  0.54818750259E+03  0.23637984462E+04  0.22993550305E+04 0.  0.
        1    1    3    3  502    0 -0.72200559989E+03 -0.78559218662E+03 -0.16605445084E+03  0.10798246388E+04  0.50400001928E-02 0. -1.
       -1    1    3    3    0  502  0.72200559989E+03  0.78559218662E+03  0.71424195342E+03  0.12839738074E+04  0.50400001928E-02 0.  1.
</event>
<event>
 5   0  0.2031860E-05  0.2282464E+04  0.7818609E-02  0.8484867E-01
       -1   -1    0    0    0  501  0.00000000000E+00  0.00000000000E+00  0.11417150436E+04  0.11417150436E+04  0.50400001928E-02 0. -1.
        1   -1    0    0  501    0  0.00000000000E+00  0.00000000000E+00 -0.11407495877E+04  0.11407495877E+04  0.50400001928E-02 0.  1.
    10030    2    1    2    0    0  0.00000000000E+00  0.00000000000E+00  0.96545584135E+00  0.22824646313E+04  0.22824644271E+04 0.  0.
        4    1    3    3  502    0 -0.33762209894E+03  0.10767121270E+04 -0.17013869939E+03  0.11411601448E+04  0.12699999809E+01 0.  1.
       -4    1    3    3    0  502  0.33762209894E+03 -0.10767121270E+04  0.17110415523E+03  0.11413044865E+04  0.12699999809E+01 0. -1.
</event>
<event>
 5   0  0.4798609E-05  0.2374570E+04  0.7818609E-02  0.8449086E-01
        2   -1    0    0  501    0  0.00000000000E+00  0.00000000000E+00  0.17933154362E+04  0.17933154362E+04  0.25500000920E-02 0.  1.
       -2   -1    0    0    0  501  0.00000000000E+00  0.00000000000E+00 -0.78605529155E+03  0.78605529156E+03  0.25500000920E-02 0. -1.
    10030    2    1    2    0    0  0.00000000000E+00  0.00000000000E+00  0.10072601447E+04  0.25793707278E+04  0.23745695088E+04 0.  0.
        2    1    3    3  502    0 -0.43981849872E+03 -0.91045486079E+03 -0.17235884723E+03  0.10257075302E+04  0.25500000920E-02 0. -1.
       -2    1    3    3    0  502  0.43981849872E+03  0.91045486079E+03  0.11796189919E+04  0.15536631975E+04  0.25500000920E-02 0.  1.
</event>
<event>
 5   0  0.2031860E-05  0.2320353E+04  0.7818609E-02  0.8469939E-01
       -1   -1    0    0    0  501  0.00000000000E+00  0.00000000000E+00  0.13230580350E+04  0.13230580350E+04  0.50400001928E-02 0.  1.
        1   -1    0    0  501    0  0.00000000000E+00  0.00000000000E+00 -0.10173476316E+04  0.10173476316E+04  0.50400001928E-02 0. -1.
    10030    2    1    2    0    0  0.00000000000E+00  0.00000000000E+00  0.30571040343E+03  0.23404056666E+04  0.23203533855E+04 0.  0.
        4    1    3    3  502    0 -0.11906595009E+03  0.68681179850E+03  0.10882971355E+04  0.12923929028E+04  0.12699999809E+01 0.  1.
       -4    1    3    3    0  502  0.11906595009E+03 -0.68681179850E+03 -0.78258673211E+03  0.10480127639E+04  0.12699999809E+01 0. -1.
</event>
<event>
 5   0  0.2085063E-05  0.2308275E+04  0.7818609E-02  0.8474665E-01
       -1   -1    0    0    0  501  0.00000000000E+00  0.00000000000E+00  0.62179349683E+03  0.62179349685E+03  0.50400001928E-02 0. -1.
        1   -1    0    0  501    0  0.00000000000E+00  0.00000000000E+00 -0.21422447589E+04  0.21422447589E+04  0.50400001928E-02 0.  1.
    10030    2    1    2    0    0  0.00000000000E+00  0.00000000000E+00 -0.15204512621E+04  0.27640382558E+04  0.23082754253E+04 0.  0.
        1    1    3    3  502    0 -0.35844806450E+03 -0.43557539361E+03  0.44546940975E+03  0.71878643108E+03  0.50400001928E-02 0. -1.
       -1    1    3    3    0  502  0.35844806450E+03  0.43557539361E+03 -0.19659206718E+04  0.20452518247E+04  0.50400001928E-02 0.  1.
</event>
<event>
 5   0  0.4436695E-05  0.2289673E+04  0.7818609E-02  0.8482004E-01
       -2   -1    0    0    0  501  0.00000000000E+00  0.00000000000E+00  0.78277751132E+03  0.78277751133E+03  0.25500000920E-02 0.  1.
        2   -1    0    0  501    0  0.00000000000E+00  0.00000000000E+00 -0.16743586011E+04  0.16743586011E+04  0.25500000920E-02 0. -1.
    10030    2    1    2    0    0  0.00000000000E+00  0.00000000000E+00 -0.89158108982E+03  0.24571361125E+04  0.22896726918E+04 0.  0.
        5    1    3    3  502    0  0.10656735375E+04 -0.35392938530E+03 -0.68503564444E+03  0.13153790414E+04  0.46999998093E+01 0. -1.
       -5    1    3    3    0  502 -0.10656735375E+04  0.35392938530E+03 -0.20654544538E+03  0.11417570711E+04  0.46999998093E+01 0.  1.
</event>
<event>
 5   0  0.1968318E-05  0.2378596E+04  0.7818609E-02  0.8447560E-01
        1   -1    0    0  501    0  0.00000000000E+00  0.00000000000E+00  0.90168758390E+03  0.90168758392E+03  0.50400001928E-02 0.  1.
       -1   -1    0    0    0  501  0.00000000000E+00  0.00000000000E+00 -0.15686476696E+04  0.15686476696E+04  0.50400001928E-02 0. -1.
    10030    2    1    2    0    0  0.00000000000E+00  0.00000000000E+00 -0.66696008571E+03  0.24703352535E+04  0.23785963316E+04 0.  0.
        3    1    3    3  502    0  0.11838165996E+04 -0.42498934350E+02 -0.22355740976E+03  0.12054898700E+04  0.10100000352E+00 0. -1.
       -3    1    3    3    0  502 -0.11838165996E+04  0.42498934350E+02 -0.44340267594E+03  0.12648453835E+04  0.10100000352E+00 0.  1.
</event>
<event>
 5   0  0.1968318E-05  0.2280532E+04  0.7818609E-02  0.8485637E-01
        1   -1    0    0  501    0  0.00000000000E+00  0.00000000000E+00  0.11921580341E+04  0.11921580341E+04  0.50400001928E-02 0.  1.
       -1   -1    0    0    0  501  0.00000000000E+00  0.00000000000E+00 -0.10906330068E+04  0.10906330069E+04  0.50400001928E-02 0. -1.
    10030    2    1    2    0    0  0.00000000000E+00  0.00000000000E+00  0.10152502728E+03  0.22827910410E+04  0.22805323075E+04 0.  0.
        3    1    3    3  502    0 -0.89270531126E+03 -0.44309225715E+03  0.60534497803E+03  0.11660600644E+04  0.10100000352E+00 0.  1.
       -3    1    3    3    0  502  0.89270531126E+03  0.44309225715E+03 -0.50381995076E+03  0.11167309766E+04  0.10100000352E+00 0. -1.
</event>
<event>
 5   0  0.4798609E-05  0.2280438E+04  0.7818609E-02  0.8485674E-01
        2   -1    0    0  501    0  0.00000000000E+00  0.00000000000E+00  0.17867616005E+04  0.17867616005E+04  0.25500000920E-02 0. -1.
       -2   -1    0    0    0  501  0.00000000000E+00  0.00000000000E+00 -0.72762870550E+03  0.72762870550E+03  0.25500000920E-02 0.  1.
    10030    2    1    2    0    0  0.00000000000E+00  0.00000000000E+00  0.10591328950E+04  0.25143903060E+04  0.22804377040E+04 0.  0.
        2    1    3    3  502    0  0.34680903495E+03 -0.16309295684E+02 -0.66792897084E+03  0.75277593608E+03  0.25500000920E-02 0.  1.
       -2    1    3    3    0  502 -0.34680903495E+03  0.16309295684E+02  0.17270618658E+04  0.17616143699E+04  0.25500000920E-02 0. -1.
</event>
<event>
 5   0  0.4505107E-05  0.2308614E+04  0.7818609E-02  0.8474532E-01
        2   -1    0    0  501    0  0.00000000000E+00  0.00000000000E+00  0.13577044439E+04  0.13577044439E+04  0.25500000920E-02 0.  1.
       -2   -1    0    0    0  501  0.00000000000E+00  0.00000000000E+00 -0.98138068654E+03  0.98138068654E+03  0.25500000920E-02 0. -1.
    10030    2    1    2    0    0  0.00000000000E+00  0.00000000000E+00  0.37632375739E+03  0.23390851305E+04  0.23086142331E+04 0.  0.
        4    1    3    3  502    0  0.27137420828E+03 -0.27675816090E+03  0.12897956644E+04  0.13467789386E+04  0.12699999809E+01 0.  1.
       -4    1    3    3    0  502 -0.27137420828E+03  0.27675816090E+03 -0.91347190705E+03  0.99230619187E+03  0.12699999809E+01 0. -1.
</event>
<event>
 5   0  0.1968318E-05  0.2265963E+04  0.7818609E-02  0.8491464E-01
        1   -1    0    0  501    0  0.00000000000E+00  0.00000000000E+00  0.12537856493E+04  0.12537856494E+04  0.50400001928E-02 0.  1.
       -1   -1    0    0    0  501  0.00000000000E+00  0.00000000000E+00 -0.10238168641E+04  0.10238168642E+04  0.50400001928E-02 0. -1.
    10030    2    1    2    0    0  0.00000000000E+00  0.00000000000E+00  0.22996878521E+03  0.22776025135E+04  0.22659628345E+04 0.  0.
        3    1    3    3  502    0 -0.69229435768E+03 -0.89635060209E+03  0.84315331476E+02  0.11357046116E+04  0.10100000352E+00 0. -1.
       -3    1    3    3    0  502  0.69229435768E+03  0.89635060209E+03  0.14565345373E+03  0.11418979019E+04  0.10100000352E+00 0.  1.
</event>
<event>
 5   0  0.4798609E-05  0.2326133E+04  0.7818609E-02  0.8467688E-01
        2   -1    0    0  501    0  0.00000000000E+00  0.00000000000E+00  0.20905667558E+04  0.20905667558E+04  0.25500000920E-02 0.  1.
       -2   -1    0    0    0  501  0.00000000000E+00  0.00000000000E+00 -0.64706079631E+03  0.64706079632E+03  0.25500000920E-02 0. -1.
    10030    2    1    2    0    0  0.00000000000E+00  0.00000000000E+00  0.14435059595E+04  0.27376275521E+04  0.23261330914E+04 0.  0.
        2    1    3    3  502    0 -0.38165812949E+03 -0.69612575021E+03 -0.27859166828E+03  0.84134850422E+03  0.25500000920E-02 0. -1.
       -2    1    3    3    0  502  0.38165812949E+03  0.69612575021E+03  0.17220976278E+04  0.18962790479E+04  0.25500000920E-02 0.  1.
</event>
<event>
 5   0  0.4505107E-05  0.2305119E+04  0.7818609E-02  0.8475905E-01
       -2   -1    0    0    0  501  0.00000000000E+00  0.00000000000E+00  0.48911735100E+03  0.48911735101E+03  0.25500000920E-02 0. -1.
        2   -1    0    0  501    0  0.00000000000E+00  0.00000000000E+00 -0.27159002947E+04  0.27159002947E+04  0.25500000920E-02 0.  1.
    10030    2    1    2    0    0  0.00000000000E+00  0.00000000000E+00 -0.22267829437E+04  0.32050176457E+04  0.23051194830E+04 0.  0.
        4    1    3    3  502    0  0.54942247301E+03 -0.59928392789E+03  0.22470475956E+02  0.81333438097E+03  0.12699999809E+01 0. -1.
       -4    1    3    3    0  502 -0.54942247301E+03  0.59928392789E+03 -0.22492534196E+04  0.23916832647E+04  0.12699999809E+01 0.  1.
</event>
<event>
 5   0  0.4602447E-05  0.2307309E+04  0.7818609E-02  0.8475045E-01
       -2   -1    0    0    0  501  0.00000000000E+00  0.00000000000E+00  0.99817109638E+03  0.99817109638E+03  0.25500000920E-02 0. -1.
        2   -1    0    0  501    0  0.00000000000E+00  0.00000000000E+00 -0.13333573793E+04  0.13333573793E+04  0.25500000920E-02 0.  1.
    10030    2    1    2    0    0  0.00000000000E+00  0.00000000000E+00 -0.33518628293E+03  0.23315284757E+04  0.23073090796E+04 0.  0.
        3    1    3    3  502    0  0.46663070361E+03  0.94087487537E+03 -0.65002366928E+03  0.12351196401E+04  0.10100000352E+00 0.  1.
       -3    1    3    3    0  502 -0.46663070361E+03 -0.94087487537E+03  0.31483738635E+03  0.10964088356E+04  0.10100000352E+00 0. -1.
</event>
<event>
 5   0  0.1968318E-05  0.2295093E+04  0.7818609E-02  0.8479858E-01
       -1   -1    0    0    0  501  0.00000000000E+00  0.00000000000E+00  0.10674390046E+04  0.10674390046E+04  0.50400001928E-02 0. -1.
        1   -1    0    0  501    0  0.00000000000E+00  0.00000000000E+00 -0.12336658585E+04  0.12336658585E+04  0.50400001928E-02 0.  1.
    10030    2    1    2    0    0  0.00000000000E+00  0.00000000000E+00 -0.16622685392E+03  0.23011048631E+04  0.22950930752E+04 0.  0.
        3    1    3    3  502    0 -0.10142455420E+04  0.11384316620E+03 -0.60909100907E+03  0.11885479180E+04  0.10100000352E+00 0. -1.
       -3    1    3    3    0  502  0.10142455420E+04 -0.11384316620E+03  0.44286415515E+03  0.11125569451E+04  0.10100000352E+00 0.  1.
</event>
<event>
 5   0  0.4798609E-05  0.2296565E+04  0.7818609E-02  0.8479277E-01
       -2   -1    0    0    0  501  0.00000000000E+00  0.00000000000E+00  0.11642024990E+04  0.11642024990E+04  0.25500000920E-02 0.  1.
        2   -1    0    0  501    0  0.00000000000E+00  0.00000000000E+00 -0.11325797251E+04  0.11325797251E+04  0.25500000920E-02 0. -1.
    10030    2    1    2    0    0  0.00000000000E+00  0.00000000000E+00  0.31622773879E+02  0.22967822241E+04  0.22965645179E+04 0.  0.
        2    1    3    3  502    0  0.51006885376E+01 -0.11038861755E+04  0.33200815104E+03  0.11527446022E+04  0.25500000920E-02 0.  1.
       -2    1    3    3    0  502 -0.51006885376E+01  0.11038861755E+04 -0.30038537716E+03  0.11440376219E+04  0.25500000920E-02 0. -1.
</event>
<event>
 5   0  0.1604500E-05  0.2268631E+04  0.7818609E-02  0.8490393E-01
        3   -1    0    0  501    0  0.00000000000E+00  0.00000000000E+00  0.54731991208E+03  0.54731992140E+03  0.10100000352E+00 0.  1.
       -3   -1    0    0    0  501  0.00000000000E+00  0.00000000000E+00 -0.23508588777E+04  0.23508588799E+04  0.10100000352E+00 0. -1.
    10030    2    1    2    0    0  0.00000000000E+00  0.00000000000E+00 -0.18035389657E+04  0.28981788013E+04  0.22686312093E+04 0.  0.
        4    1    3    3  502    0 -0.90659200246E+03  0.61689420155E+03 -0.53106789615E+03  0.12184015094E+04  0.12699999809E+01 0. -1.
       -4    1    3    3    0  502  0.90659200246E+03 -0.61689420155E+03 -0.12724710695E+04  0.16797772919E+04  0.12699999809E+01 0.  1.
</event>
<event>
 5   0  0.2031860E-05  0.2001893E+04  0.7818609E-02  0.8605736E-01
       -1   -1    0    0    0  501  0.00000000000E+00  0.00000000000E+00  0.14332090211E+04  0.14332090211E+04  0.50400001928E-02 0. -1.
        1   -1    0    0  501    0  0.00000000000E+00  0.00000000000E+00 -0.69905647189E+03  0.69905647191E+03  0.50400001928E-02 0.  1.
    10030    2    1    2    0    0  0.00000000000E+00  0.00000000000E+00  0.73415254918E+03  0.21322654930E+04  0.20018931458E+04 0.  0.
        4    1    3    3  502    0 -0.94089350322E+03 -0.23516681167E+03  0.63080681874E+03  0.11569368475E+04  0.12699999809E+01 0. -1.
       -4    1    3    3    0  502  0.94089350322E+03  0.23516681167E+03  0.10334573044E+03  0.97532864544E+03  0.12699999809E+01 0.  1.
</event>
<event>
 5   0  0.4798609E-05  0.2265468E+04  0.7818609E-02  0.8491662E-01
       -2   -1    0    0    0  501  0.00000000000E+00  0.00000000000E+00  0.62986148156E+03  0.62986148156E+03  0.25500000920E-02 0. -1.
        2   -1    0    0  501    0  0.00000000000E+00  0.00000000000E+00 -0.20370925634E+04  0.20370925634E+04  0.25500000920E-02 0.  1.
    10030    2    1    2    0    0  0.00000000000E+00  0.00000000000E+00 -0.14072310819E+04  0.26669540450E+04  0.22654678458E+04 0.  0.
        2    1    3    3  502    0  0.10502502815E+03  0.49035197749E+03  0.49206613712E+03  0.70256985537E+03  0.25500000920E-02 0. -1.
       -2    1    3    3    0  502 -0.10502502815E+03 -0.49035197749E+03 -0.18992972190E+04  0.19643841896E+04  0.25500000920E-02 0.  1.
</event>
<event>
 5   0  0.2043885E-05  0.2274983E+04  0.7818609E-02  0.8487851E-01
       -1   -1    0    0    0  501  0.00000000000E+00  0.00000000000E+00  0.84029801810E+03  0.84029801812E+03  0.50400001928E-02 0. -1.
        1   -1    0    0  501    0  0.00000000000E+00  0.00000000000E+00 -0.15397948302E+04  0.15397948302E+04  0.50400001928E-02 0.  1.
    10030    2    1    2    0    0  0.00000000000E+00  0.00000000000E+00 -0.69949681209E+03  0.23800928483E+04  0.22749826761E+04 0.  0.
        5    1    3    3  502    0 -0.27401129442E+03 -0.46174574511E+03  0.69936548113E+03  0.88171735199E+03  0.46999998093E+01 0. -1.
       -5    1    3    3    0  502  0.27401129442E+03  0.46174574511E+03 -0.13988622932E+04  0.14983754963E+04  0.46999998093E+01 0.  1.
</event>
<event>
 5   0  0.2043885E-05  0.2346829E+04  0.7818609E-02  0.8459683E-01
       -1   -1    0    0    0  501  0.00000000000E+00  0.00000000000E+00  0.11999395574E+04  0.11999395574E+04  0.50400001928E-02 0. -1.
        1   -1    0    0  501    0  0.00000000000E+00  0.00000000000E+00 -0.11474757393E+04  0.11474757393E+04  0.50400001928E-02 0.  1.
    10030    2    1    2    0    0  0.00000000000E+00  0.00000000000E+00  0.52463818103E+02  0.23474152967E+04  0.23468289505E+04 0.  0.
        5    1    3    3  502    0 -0.77896692151E+03 -0.63665664550E+03  0.63033503051E+03  0.11872091180E+04  0.46999998093E+01 0. -1.
       -5    1    3    3    0  502  0.77896692151E+03  0.63665664550E+03 -0.57787121241E+03  0.11602061787E+04  0.46999998093E+01 0.  1.
</event>
<event>
 5   0  0.1968318E-05  0.2265234E+04  0.7818609E-02  0.8491756E-01
       -1   -1    0    0    0  501  0.00000000000E+00  0.00000000000E+00  0.10936300819E+04  0.10936300819E+04  0.50400001928E-02 0.  1.
        1   -1    0    0  501    0  0.00000000000E+00  0.00000000000E+00 -0.11729939769E+04  0.11729939769E+04  0.50400001928E-02 0. -1.
    10030    2    1    2    0    0  0.00000000000E+00  0.00000000000E+00 -0.79363894985E+02  0.22666240588E+04  0.22652342034E+04 0.  0.
        3    1    3    3  502    0 -0.63514400536E+03 -0.70976846576E+03 -0.65295464814E+03  0.11547852464E+04  0.10100000352E+00 0.  1.
       -3    1    3    3    0  502  0.63514400536E+03  0.70976846576E+03  0.57359075315E+03  0.11118388124E+04  0.10100000352E+00 0. -1.
</event>
<event>
 5   0  0.2042951E-05  0.2295870E+04  0.7818609E-02  0.8479551E-01
        1   -1    0    0  501    0  0.00000000000E+00  0.00000000000E+00  0.11462727437E+04  0.11462727438E+04  0.50400001928E-02 0.  1.
       -1   -1    0    0    0  501  0.00000000000E+00  0.00000000000E+00 -0.11495995166E+04  0.11495995167E+04  0.50400001928E-02 0. -1.
    10030    2    1    2    0    0  0.00000000000E+00  0.00000000000E+00 -0.33267729070E+01  0.22958722604E+04  0.22958698501E+04 0.  0.
        2    1    3    3  502    0  0.59405331483E+03  0.67164698536E+03 -0.71842461383E+03  0.11489747341E+04  0.25500000920E-02 0. -1.
       -2    1    3    3    0  502 -0.59405331483E+03 -0.67164698536E+03  0.71509784092E+03  0.11468975263E+04  0.25500000920E-02 0.  1.
</event>
<event>
 5   0  0.4436695E-05  0.2312501E+04  0.7818609E-02  0.8473008E-01
       -2   -1    0    0    0  501  0.00000000000E+00  0.00000000000E+00  0.74659222049E+03  0.74659222049E+03  0.25500000920E-02 0. -1.
        2   -1    0    0  501    0  0.00000000000E+00  0.00000000000E+00 -0.17906902160E+04  0.17906902160E+04  0.25500000920E-02 0.  1.
    10030    2    1    2    0    0  0.00000000000E+00  0.00000000000E+00 -0.10440979955E+04  0.25372824364E+04  0.23125011434E+04 0.  0.
        5    1    3    3  502    0  0.11217259224E+04 -0.25847198617E+03 -0.40277907037E+03  0.12195613482E+04  0.46999998093E+01 0.  1.
       -5    1    3    3    0  502 -0.11217259224E+04  0.25847198617E+03 -0.64131892510E+03  0.13177210882E+04  0.46999998093E+01 0. -1.
</event>
<event>
 5   0  0.2031860E-05  0.2293989E+04  0.7818609E-02  0.8480295E-01
       -1   -1    0    0    0  501  0.00000000000E+00  0.00000000000E+00  0.89439607391E+03  0.89439607392E+03  0.50400001928E-02 0.  1.
        1   -1    0    0  501    0  0.00000000000E+00  0.00000000000E+00 -0.14709323575E+04  0.14709323575E+04  0.50400001928E-02 0. -1.
    10030    2    1    2    0    0  0.00000000000E+00  0.00000000000E+00 -0.57653628358E+03  0.23653284314E+04  0.22939887755E+04 0.  0.
        4    1    3    3  502    0  0.11461189237E+04  0.44397468318E+02 -0.29434988334E+03  0.11841466080E+04  0.12699999809E+01 0. -1.
       -4    1    3    3    0  502 -0.11461189237E+04 -0.44397468318E+02 -0.28218640024E+03  0.11811818234E+04  0.12699999809E+01 0.  1.
</event>
<event>
 5   0  0.2043885E-05  0.2287909E+04  0.7818609E-02  0.8482704E-01
        1   -1    0    0  501    0  0.00000000000E+00  0.00000000000E+00  0.10731363387E+04  0.10731363387E+04  0.50400001928E-02 0. -1.
       -1   -1    0    0    0  501  0.00000000000E+00  0.00000000000E+00 -0.12194463663E+04  0.12194463663E+04  0.50400001928E-02 0.  1.
    10030    2    1    2    0    0  0.00000000000E+00  0.00000000000E+00 -0.14631002760E+03  0.22925827049E+04  0.22879092715E+04 0.  0.
        5    1    3    3  502    0  0.10720560114E+04 -0.35074394757E+03 -0.26402957179E+03  0.11584727502E+04  0.46999998093E+01 0.  1.
       -5    1    3    3    0  502 -0.10720560114E+04  0.35074394757E+03  0.11771954419E+03  0.11341099547E+04  0.46999998093E+01 0. -1.
</event>
<event>
 5   0  0.4798609E-05  0.2314588E+04  0.7818609E-02  0.8472191E-01
        2   -1    0    0  501    0  0.00000000000E+00  0.00000000000E+00  0.11442243007E+04  0.11442243007E+04  0.25500000920E-02 0.  1.
       -2   -1    0    0    0  501  0.00000000000E+00  0.00000000000E+00 -0.11705127451E+04  0.11705127451E+04  0.25500000920E-02 0. -1.
    10030    2    1    2    0    0  0.00000000000E+00  0.00000000000E+00 -0.26288444458E+02  0.23147370458E+04  0.23145877622E+04 0.  0.
        2    1    3    3  502    0 -0.49007455216E+03 -0.80612404142E+03  0.65721243787E+03  0.11497552893E+04  0.25500000920E-02 0.  1.
       -2    1    3    3    0  502  0.49007455216E+03  0.80612404142E+03 -0.68350088233E+03  0.11649817565E+04  0.25500000920E-02 0. -1.
</event>
<event>
 5   0  0.2042951E-05  0.2286973E+04  0.7818609E-02  0.8483075E-01
       -1   -1    0    0    0  501  0.00000000000E+00  0.00000000000E+00  0.11279652330E+04  0.11279652330E+04  0.50400001928E-02 0.  1.
        1   -1    0    0  501    0  0.00000000000E+00  0.00000000000E+00 -0.11592209090E+04  0.11592209090E+04  0.50400001928E-02 0. -1.
    10030    2    1    2    0    0  0.00000000000E+00  0.00000000000E+00 -0.31255676046E+02  0.22871861420E+04  0.22869725689E+04 0.  0.
        2    1    3    3  502    0  0.90606770917E+02 -0.68913021526E+03 -0.92370538709E+03  0.11560024579E+04  0.25500000920E-02 0. -1.
       -2    1    3    3    0  502 -0.90606770917E+02  0.68913021526E+03  0.89244971104E+03  0.11311836841E+04  0.25500000920E-02 0.  1.
</event>
<event>
 5   0  0.4436695E-05  0.2291501E+04  0.7818609E-02  0.8481280E-01
       -2   -1    0    0    0  501  0.00000000000E+00  0.00000000000E+00  0.86663478348E+03  0.86663478349E+03  0.25500000920E-02 0.  1.
        2   -1    0    0  501    0  0.00000000000E+00  0.00000000000E+00 -0.15147611256E+04  0.15147611256E+04  0.25500000920E-02 0. -1.
    10030    2    1    2    0    0  0.00000000000E+00  0.00000000000E+00 -0.64812634214E+03  0.23813959091E+04  0.22915014119E+04 0.  0.
        5    1    3    3  502    0 -0.44394959215E+02 -0.32762270586E+03 -0.14641008141E+04  0.15009732954E+04  0.46999998093E+01 0. -1.
       -5    1    3    3    0  502  0.44394959215E+02  0.32762270586E+03  0.81597447195E+03  0.88042261368E+03  0.46999998093E+01 0.  1.
</event>
<event>
 5   0  0.2085063E-05  0.2296015E+04  0.7818609E-02  0.8479494E-01
        1   -1    0    0  501    0  0.00000000000E+00  0.00000000000E+00  0.15950731452E+04  0.15950731452E+04  0.50400001928E-02 0. -1.
       -1   -1    0    0    0  501  0.00000000000E+00  0.00000000000E+00 -0.82624513013E+03  0.82624513014E+03  0.50400001928E-02 0.  1.
    10030    2    1    2    0    0  0.00000000000E+00  0.00000000000E+00  0.76882801508E+03  0.24213182753E+04  0.22960151728E+04 0.  0.
        1    1    3    3  502    0  0.36833761727E+02 -0.21176148245E+03  0.15736640584E+04  0.15882752344E+04  0.50400001928E-02 0. -1.
       -1    1    3    3    0  502 -0.36833761727E+02  0.21176148245E+03 -0.80483604332E+03  0.83304304097E+03  0.50400001928E-02 0.  1.
</event>
<event>
 5   0  0.4602447E-05  0.2356836E+04  0.7818609E-02  0.8455842E-01
        2   -1    0    0  501    0  0.00000000000E+00  0.00000000000E+00  0.22119861368E+04  0.22119861368E+04  0.25500000920E-02 0. -1.
       -2   -1    0    0    0  501  0.00000000000E+00  0.00000000000E+00 -0.62779302359E+03  0.62779302360E+03  0.25500000920E-02 0.  1.
    10030    2    1    2    0    0  0.00000000000E+00  0.00000000000E+00  0.15841931132E+04  0.28397791604E+04  0.23568364092E+04 0.  0.
        3    1    3    3  502    0 -0.55093886967E+03  0.23249737846E+03  0.20155895202E+04  0.21024247414E+04  0.10100000352E+00 0. -1.
       -3    1    3    3    0  502  0.55093886967E+03 -0.23249737846E+03 -0.43139640697E+03  0.73735441902E+03  0.10100000352E+00 0.  1.
</event>
<event>
 5   0  0.4436695E-05  0.2372462E+04  0.7818609E-02  0.8449886E-01
       -2   -1    0    0    0  501  0.00000000000E+00  0.00000000000E+00  0.73179755656E+03  0.73179755657E+03  0.25500000920E-02 0. -1.
        2   -1    0    0  501    0  0.00000000000E+00  0.00000000000E+00 -0.19228597725E+04  0.19228597725E+04  0.25500000920E-02 0.  1.
    10030    2    1    2    0    0  0.00000000000E+00  0.00000000000E+00 -0.11910622159E+04  0.26546573291E+04  0.23724620824E+04 0.  0.
        5    1    3    3  502    0  0.55893001801E+03 -0.26316881848E+02 -0.17659009963E+04  0.18524372491E+04  0.46999998093E+01 0.  1.
       -5    1    3    3    0  502 -0.55893001801E+03  0.26316881848E+02  0.57483878034E+03  0.80222007995E+03  0.46999998093E+01 0. -1.
</event>
<event>
 5   0  0.2085063E-05  0.2301136E+04  0.7818609E-02  0.8477473E-01
        1   -1    0    0  501    0  0.00000000000E+00  0.00000000000E+00  0.22839099038E+04  0.22839099038E+04  0.50400001928E-02 0.  1.
       -1   -1    0    0    0  501  0.00000000000E+00  0.00000000000E+00 -0.57962318413E+03  0.57962318415E+03  0.50400001928E-02 0. -1.
    10030    2    1    2    0    0  0.00000000000E+00  0.00000000000E+00  0.17042867197E+04  0.28635330879E+04  0.23011363547E+04 0.  0.
        1    1    3    3  502    0 -0.96654631291E+03  0.15904130555E+02  0.75671518271E+02  0.96963441310E+03  0.50400001928E-02 0. -1.
       -1    1    3    3    0  502  0.96654631291E+03 -0.15904130555E+02  0.16286152014E+04  0.18938986748E+04  0.50400001928E-02 0.  1.
</event>
<event>
 5   0  0.4798609E-05  0.2293137E+04  0.7818609E-02  0.8480632E-01
       -2   -1    0    0    0  501  0.00000000000E+00  0.00000000000E+00  0.95443004514E+03  0.95443004514E+03  0.25500000920E-02 0.  1.
        2   -1    0    0  501    0  0.00000000000E+00  0.00000000000E+00 -0.13773863505E+04  0.13773863505E+04  0.25500000920E-02 0. -1.
    10030    2    1    2    0    0  0.00000000000E+00  0.00000000000E+00 -0.42295630536E+03  0.23318163956E+04  0.22931366437E+04 0.  0.
        2    1    3    3  502    0 -0.91718514066E+03 -0.42887027824E+02  0.48680050692E+03  0.10392509865E+04  0.25500000920E-02 0.  1.
       -2    1    3    3    0  502  0.91718514066E+03  0.42887027824E+02 -0.90975681228E+03  0.12925654091E+04  0.25500000920E-02 0. -1.
</event>
<event>
 5   0  0.4436695E-05  0.2256011E+04  0.7818609E-02  0.8495470E-01
        2   -1    0    0  501    0  0.00000000000E+00  0.00000000000E+00  0.16877326998E+04  0.16877326998E+04  0.25500000920E-02 0. -1.
       -2   -1    0    0    0  501  0.00000000000E+00  0.00000000000E+00 -0.75390860181E+03  0.75390860182E+03  0.25500000920E-02 0.  1.
    10030    2    1    2    0    0  0.00000000000E+00  0.00000000000E+00  0.93382409801E+03  0.24416413016E+04  0.22560108156E+04 0.  0.
        5    1    3    3  502    0 -0.97775893204E+03  0.56245952115E+03  0.46792028525E+03  0.12212062584E+04  0.46999998093E+01 0. -1.
       -5    1    3    3    0  502  0.97775893204E+03 -0.56245952115E+03  0.46590381277E+03  0.12204350433E+04  0.46999998093E+01 0.  1.
</event>
<event>
 5   0  0.2042951E-05  0.2282746E+04  0.7818609E-02  0.8484755E-01
        1   -1    0    0  501    0  0.00000000000E+00  0.00000000000E+00  0.20827946631E+04  0.20827946632E+04  0.50400001928E-02 0. -1.
       -1   -1    0    0    0  501  0.00000000000E+00  0.00000000000E+00 -0.62547334405E+03  0.62547334407E+03  0.50400001928E-02 0.  1.
    10030    2    1    2    0    0  0.00000000000E+00  0.00000000000E+00  0.14573213191E+04  0.27082680072E+04  0.22827461909E+04 0.  0.
        2    1    3    3  502    0 -0.12156469671E+03 -0.12620680598E+03  0.20667406513E+04  0.20741559857E+04  0.25500000920E-02 0. -1.
       -2    1    3    3    0  502  0.12156469671E+03  0.12620680598E+03 -0.60941933220E+03  0.63411202151E+03  0.25500000920E-02 0.  1.
</event>
<event>
 5   0  0.4436695E-05  0.2355252E+04  0.7818609E-02  0.8456449E-01
        2   -1    0    0  501    0  0.00000000000E+00  0.00000000000E+00  0.14174062627E+04  0.14174062627E+04  0.25500000920E-02 0.  1.
       -2   -1    0    0    0  501  0.00000000000E+00  0.00000000000E+00 -0.97840932632E+03  0.97840932632E+03  0.25500000920E-02 0. -1.
    10030    2    1    2    0    0  0.00000000000E+00  0.00000000000E+00  0.43899693634E+03  0.23958155890E+04  0.23552524337E+04 0.  0.
        5    1    3    3  502    0  0.98864408005E+03  0.19708804363E+02 -0.43102768877E+03  0.10787087246E+04  0.46999998093E+01 0.  1.
       -5    1    3    3    0  502 -0.98864408005E+03 -0.19708804363E+02  0.87002462511E+03  0.13171068644E+04  0.46999998093E+01 0. -1.
</event>
<event>
 5   0  0.2031860E-05  0.2285911E+04  0.7818609E-02  0.8483497E-01
       -1   -1    0    0    0  501  0.00000000000E+00  0.00000000000E+00  0.20801475845E+04  0.20801475845E+04  0.50400001928E-02 0.  1.
        1   -1    0    0  501    0  0.00000000000E+00  0.00000000000E+00 -0.62800678586E+03  0.62800678588E+03  0.50400001928E-02 0. -1.
    10030    2    1    2    0    0  0.00000000000E+00  0.00000000000E+00  0.14521407986E+04  0.27081543703E+04  0.22859105833E+04 0.  0.
        4    1    3    3  502    0  0.47274146505E+03  0.14068604866E+03  0.19475739312E+04  0.20090602001E+04  0.12699999809E+01 0.  1.
       -4    1    3    3    0  502 -0.47274146505E+03 -0.14068604866E+03 -0.49543313264E+03  0.69909417025E+03  0.12699999809E+01 0. -1.
</event>
<event>
 5   0  0.2043885E-05  0.2304004E+04  0.7818609E-02  0.8476344E-01
        1   -1    0    0  501    0  0.00000000000E+00  0.00000000000E+00  0.14794847718E+04  0.14794847718E+04  0.50400001928E-02 0. -1.
       -1   -1    0    0    0  501  0.00000000000E+00  0.00000000000E+00 -0.89700723524E+03  0.89700723526E+03  0.50400001928E-02 0.  1.
    10030    2    1    2    0    0  0.00000000000E+00  0.00000000000E+00  0.58247753656E+03  0.23764920071E+04  0.23040039451E+04 0.  0.
        5    1    3    3  502    0 -0.23677461530E+02  0.45003125716E+03  0.13847817329E+04  0.14562730831E+04  0.46999998093E+01 0. -1.
       -5    1    3    3    0  502  0.23677461530E+02 -0.45003125716E+03 -0.80230419636E+03  0.92021892401E+03  0.46999998093E+01 0.  1.
</event>
<event>
 5   0  0.2043885E-05  0.2282493E+04  0.7818609E-02  0.8484856E-01
       -1   -1    0    0    0  501  0.00000000000E+00  0.00000000000E+00  0.14645858513E+04  0.14645858513E+04  0.50400001928E-02 0. -1.
        1   -1    0    0  501    0  0.00000000000E+00  0.00000000000E+00 -0.88929128016E+03  0.88929128017E+03  0.50400001928E-02 0.  1.
    10030    2    1    2    0    0  0.00000000000E+00  0.00000000000E+00  0.57529457118E+03  0.23538771315E+04  0.22824928711E+04 0.  0.
        5    1    3    3  502    0 -0.22697012261E+03 -0.10240459191E+04  0.75141812544E+03  0.12902855382E+04  0.46999998093E+01 0. -1.
       -5    1    3    3    0  502  0.22697012261E+03  0.10240459191E+04 -0.17612355426E+03  0.10635915933E+04  0.46999998093E+01 0.  1.
</event>
<event>
 5   0  0.1604500E-05  0.2255042E+04  0.7818609E-02  0.8495861E-01
        3   -1    0    0  501    0  0.00000000000E+00  0.00000000000E+00  0.50309162981E+03  0.50309163995E+03  0.10100000352E+00 0.  1.
       -3   -1    0    0    0  501  0.00000000000E+00  0.00000000000E+00 -0.25269831287E+04  0.25269831307E+04  0.10100000352E+00 0. -1.
    10030    2    1    2    0    0  0.00000000000E+00  0.00000000000E+00 -0.20238914989E+04  0.30300747706E+04  0.22550424201E+04 0.  0.
        4    1    3    3  502    0  0.11246481826E+03  0.11197315730E+04 -0.11055742884E+04  0.15775751173E+04  0.12699999809E+01 0.  1.
       -4    1    3    3    0  502 -0.11246481826E+03 -0.11197315730E+04 -0.91831721050E+03  0.14524996533E+04  0.12699999809E+01 0. -1.
</event>
<event>
 5   0  0.4602447E-05  0.2294719E+04  0.7818609E-02  0.8480006E-01
       -2   -1    0    0    0  501  0.00000000000E+00  0.00000000000E+00  0.62637811812E+03  0.62637811812E+03  0.25500000920E-02 0.  1.
        2   -1    0    0  501    0  0.00000000000E+00  0.00000000000E+00 -0.21016592262E+04  0.21016592262E+04  0.25500000920E-02 0. -1.
    10030    2    1    2    0    0  0.00000000000E+00  0.00000000000E+00 -0.14752811081E+04  0.27280373444E+04  0.22947185893E+04 0.  0.
        3    1    3    3  502    0  0.17267242446E+03 -0.68231619465E+03  0.33959059436E+03  0.78146844954E+03  0.10100000352E+00 0. -1.
       -3    1    3    3    0  502 -0.17267242446E+03  0.68231619465E+03 -0.18148717025E+04  0.19465688948E+04  0.10100000352E+00 0.  1.
</event>
<event>
 5   0  0.2043885E-05  0.2269162E+04  0.7818609E-02  0.8490180E-01
        1   -1    0    0  501    0  0.00000000000E+00  0.00000000000E+00  0.12372252413E+04  0.12372252413E+04  0.50400001928E-02 0. -1.
       -1   -1    0    0    0  501  0.00000000000E+00  0.00000000000E+00 -0.10404527892E+04  0.10404527892E+04  0.50400001928E-02 0.  1.
    10030    2    1    2    0    0  0.00000000000E+00  0.00000000000E+00  0.19677245207E+03  0.22776780305E+04  0.22691623592E+04 0.  0.
        5    1    3    3  502    0  0.12269025818E+03 -0.91943577947E+03 -0.55739344506E+03  0.10821851018E+04  0.46999998093E+01 0.  1.
       -5    1    3    3    0  502 -0.12269025818E+03  0.91943577947E+03  0.75416589713E+03  0.11954929286E+04  0.46999998093E+01 0. -1.
</event>
<event>
 5   0  0.2043885E-05  0.2207860E+04  0.7818609E-02  0.8515164E-01
       -1   -1    0    0    0  501  0.00000000000E+00  0.00000000000E+00  0.43615942267E+03  0.43615942270E+03  0.50400001928E-02 0. -1.
        1   -1    0    0  501    0  0.00000000000E+00  0.00000000000E+00 -0.27940740444E+04  0.27940740444E+04  0.50400001928E-02 0.  1.
    10030    2    1    2    0    0  0.00000000000E+00  0.00000000000E+00 -0.23579146218E+04  0.32302334671E+04  0.22078602512E+04 0.  0.
        5    1    3    3  502    0  0.89939067831E+03  0.24233982636E+03 -0.31215412716E+03  0.98239221942E+03  0.46999998093E+01 0. -1.
       -5    1    3    3    0  502 -0.89939067831E+03 -0.24233982636E+03 -0.20457604946E+04  0.22478412477E+04  0.46999998093E+01 0.  1.
</event>
<event>
 5   0  0.4602447E-05  0.2517078E+04  0.7818609E-02  0.8396927E-01
       -2   -1    0    0    0  501  0.00000000000E+00  0.00000000000E+00  0.17675943962E+04  0.17675943962E+04  0.25500000920E-02 0. -1.
        2   -1    0    0  501    0  0.00000000000E+00  0.00000000000E+00 -0.89608811017E+03  0.89608811018E+03  0.25500000920E-02 0.  1.
    10030    2    1    2    0    0  0.00000000000E+00  0.00000000000E+00  0.87150628606E+03  0.26636825064E+04  0.25170779265E+04 0.  0.
        3    1    3    3  502    0 -0.14066755303E+03 -0.70109046913E+03  0.15317409619E+04  0.16904276355E+04  0.10100000352E+00 0. -1.
       -3    1    3    3    0  502  0.14066755303E+03  0.70109046913E+03 -0.66023467582E+03  0.97325487090E+03  0.10100000352E+00 0.  1.
</event>
<event>
 5   0  0.4605516E-05  0.2282178E+04  0.7818609E-02  0.8484981E-01
       -2   -1    0    0    0  501  0.00000000000E+00  0.00000000000E+00  0.73403761337E+03  0.73403761337E+03  0.25500000920E-02 0.  1.
        2   -1    0    0  501    0  0.00000000000E+00  0.00000000000E+00 -0.17738654992E+04  0.17738654992E+04  0.25500000920E-02 0. -1.
    10030    2    1    2    0    0  0.00000000000E+00  0.00000000000E+00 -0.10398278858E+04  0.25079031126E+04  0.22821779050E+04 0.  0.
        1    1    3    3  502    0  0.47287562149E+02  0.52120218679E+02  0.73165056469E+03  0.73502733253E+03  0.50400001928E-02 0.  1.
       -1    1    3    3    0  502 -0.47287562149E+02 -0.52120218679E+02 -0.17714784505E+04  0.17728757800E+04  0.50400001928E-02 0. -1.
</event>
<event>
 5   0  0.4505107E-05  0.2302467E+04  0.7818609E-02  0.8476949E-01
        2   -1    0    0  501    0  0.00000000000E+00  0.00000000000E+00  0.15982721065E+04  0.15982721065E+04  0.25500000920E-02 0.  1.
       -2   -1    0    0    0  501  0.00000000000E+00  0.00000000000E+00 -0.82923184625E+03  0.82923184626E+03  0.25500000920E-02 0. -1.
    10030    2    1    2    0    0  0.00000000000E+00  0.00000000000E+00  0.76904026028E+03  0.24275039528E+04  0.23024666162E+04 0.  0.
        4    1    3    3  502    0 -0.83878539058E+03  0.10305447101E+03 -0.43969848082E+03  0.95263714098E+03  0.12699999809E+01 0. -1.
       -4    1    3    3    0  502  0.83878539058E+03 -0.10305447101E+03  0.12087387411E+04  0.14748668118E+04  0.12699999809E+01 0.  1.
</event>
<event>
 5   0  0.2042951E-05  0.2302373E+04  0.7818609E-02  0.8476986E-01
       -1   -1    0    0    0  501  0.00000000000E+00  0.00000000000E+00  0.96439053943E+03  0.96439053944E+03  0.50400001928E-02 0. -1.
        1   -1    0    0  501    0  0.00000000000E+00  0.00000000000E+00 -0.13741629909E+04  0.13741629909E+04  0.50400001928E-02 0.  1.
    10030    2    1    2    0    0  0.00000000000E+00  0.00000000000E+00 -0.40977245146E+03  0.23385535303E+04  0.23023725051E+04 0.  0.
        2    1    3    3  502    0  0.63391629539E+03 -0.90724394512E+03  0.11677369616E+03  0.11129139866E+04  0.25500000920E-02 0. -1.
       -2    1    3    3    0  502 -0.63391629539E+03  0.90724394512E+03 -0.52654614762E+03  0.12256395437E+04  0.25500000920E-02 0.  1.
</event>
<event>
 5   0  0.4436695E-05  0.2291835E+04  0.7818609E-02  0.8481147E-01
       -2   -1    0    0    0  501  0.00000000000E+00  0.00000000000E+00  0.90805163769E+03  0.90805163770E+03  0.25500000920E-02 0.  1.
        2   -1    0    0  501    0  0.00000000000E+00  0.00000000000E+00 -0.14460928518E+04  0.14460928518E+04  0.25500000920E-02 0. -1.
    10030    2    1    2    0    0  0.00000000000E+00  0.00000000000E+00 -0.53804121412E+03  0.23541444895E+04  0.22918350572E+04 0.  0.
        5    1    3    3  502    0 -0.64110702139E+03  0.26857913005E+03 -0.12048059233E+04  0.13909465715E+04  0.46999998093E+01 0. -1.
       -5    1    3    3    0  502  0.64110702139E+03 -0.26857913005E+03  0.66676470914E+03  0.96319791804E+03  0.46999998093E+01 0.  1.
</event>
<event>
 5   0  0.2031860E-05  0.2306492E+04  0.7818609E-02  0.8475366E-01
        1   -1    0    0  501    0  0.00000000000E+00  0.00000000000E+00  0.15660056590E+04  0.15660056590E+04  0.50400001928E-02 0. -1.
       -1   -1    0    0    0  501  0.00000000000E+00  0.00000000000E+00 -0.84927931365E+03  0.84927931367E+03  0.50400001928E-02 0.  1.
    10030    2    1    2    0    0  0.00000000000E+00  0.00000000000E+00  0.71672634533E+03  0.24152849727E+04  0.23064918914E+04 0.  0.
        4    1    3    3  502    0 -0.56562149074E+03  0.87258396256E+03 -0.16379920247E+03  0.10526928489E+04  0.12699999809E+01 0. -1.
       -4    1    3    3    0  502  0.56562149074E+03 -0.87258396256E+03  0.88052554781E+03  0.13625921238E+04  0.12699999809E+01 0.  1.
</event>
<event>
 5   0  0.4605516E-05  0.2305179E+04  0.7818609E-02  0.8475882E-01
       -2   -1    0    0    0  501  0.00000000000E+00  0.00000000000E+00  0.11316246996E+04  0.11316246996E+04  0.25500000920E-02 0. -1.
        2   -1    0    0  501    0  0.00000000000E+00  0.00000000000E+00 -0.11739423002E+04  0.11739423003E+04  0.25500000920E-02 0.  1.
    10030    2    1    2    0    0  0.00000000000E+00  0.00000000000E+00 -0.42317600691E+02  0.23055669998E+04  0.23051786072E+04 0.  0.
        1    1    3    3  502    0  0.10723038492E+03 -0.84040168197E+03 -0.80275624393E+03  0.11671293543E+04  0.50400001928E-02 0.  1.
       -1    1    3    3    0  502 -0.10723038492E+03  0.84040168197E+03  0.76043864324E+03  0.11384376455E+04  0.50400001928E-02 0. -1.
</event>
<event>
 5   0  0.4436695E-05  0.2292518E+04  0.7818609E-02  0.8480877E-01
       -2   -1    0    0    0  501  0.00000000000E+00  0.00000000000E+00  0.10324143536E+04  0.10324143536E+04  0.25500000920E-02 0. -1.
        2   -1    0    0  501    0  0.00000000000E+00  0.00000000000E+00 -0.12726574692E+04  0.12726574692E+04  0.25500000920E-02 0.  1.
    10030    2    1    2    0    0  0.00000000000E+00  0.00000000000E+00 -0.24024311554E+03  0.23050718228E+04  0.22925181251E+04 0.  0.
        5    1    3    3  502    0  0.33123581110E+03 -0.12901332652E+03  0.97558251118E+03  0.10383375786E+04  0.46999998093E+01 0. -1.
       -5    1    3    3    0  502 -0.33123581110E+03  0.12901332652E+03 -0.12158256267E+04  0.12667342443E+04  0.46999998093E+01 0.  1.
</event>
<event>
 5   0  0.4798609E-05  0.2295619E+04  0.7818609E-02  0.8479650E-01
        2   -1    0    0  501    0  0.00000000000E+00  0.00000000000E+00  0.79092396634E+03  0.79092396634E+03  0.25500000920E-02 0. -1.
       -2   -1    0    0    0  501  0.00000000000E+00  0.00000000000E+00 -0.16657310681E+04  0.16657310681E+04  0.25500000920E-02 0.  1.
    10030    2    1    2    0    0  0.00000000000E+00  0.00000000000E+00 -0.87480710178E+03  0.24566550345E+04  0.22956189782E+04 0.  0.
        2    1    3    3  502    0 -0.48049667973E+03  0.10265239401E+04 -0.24347854806E+03  0.11592714360E+04  0.25500000920E-02 0. -1.
       -2    1    3    3    0  502  0.48049667973E+03 -0.10265239401E+04 -0.63132855373E+03  0.12973835985E+04  0.25500000920E-02 0.  1.
</event>
<event>
 5   0  0.2085063E-05  0.2260536E+04  0.7818609E-02  0.8493646E-01
       -1   -1    0    0    0  501  0.00000000000E+00  0.00000000000E+00  0.58029070906E+03  0.58029070908E+03  0.50400001928E-02 0.  1.
        1   -1    0    0  501    0  0.00000000000E+00  0.00000000000E+00 -0.22014933674E+04  0.22014933674E+04  0.50400001928E-02 0. -1.
    10030    2    1    2    0    0  0.00000000000E+00  0.00000000000E+00 -0.16212026583E+04  0.27817840764E+04  0.22605363498E+04 0.  0.
        1    1    3    3  502    0  0.10246309395E+04  0.44257598938E+03 -0.59128041240E+03  0.12630734716E+04  0.50400001928E-02 0.  1.
       -1    1    3    3    0  502 -0.10246309395E+04 -0.44257598938E+03 -0.10299222459E+04  0.15187106048E+04  0.50400001928E-02 0. -1.
</event>
<event>
 5   0  0.2031860E-05  0.2275141E+04  0.7818609E-02  0.8487788E-01
        1   -1    0    0  501    0  0.00000000000E+00  0.00000000000E+00  0.16326205716E+04  0.16326205716E+04  0.50400001928E-02 0.  1.
       -1   -1    0    0    0  501  0.00000000000E+00  0.00000000000E+00 -0.79263155058E+03  0.79263155060E+03  0.50400001928E-02 0. -1.
    10030    2    1    2    0    0  0.00000000000E+00  0.00000000000E+00  0.83998902102E+03  0.24252521222E+04  0.22751409409E+04 0.  0.
        4    1    3    3  502    0  0.58511341621E+03  0.72699250726E+03 -0.27345660053E+03  0.97244842573E+03  0.12699999809E+01 0. -1.
       -4    1    3    3    0  502 -0.58511341621E+03 -0.72699250726E+03  0.11134456215E+04  0.14528036965E+04  0.12699999809E+01 0.  1.
</event>
<event>
 5   0  0.4798609E-05  0.2285636E+04  0.7818609E-02  0.8483606E-01
       -2   -1    0    0    0  501  0.00000000000E+00  0.00000000000E+00  0.76261451270E+03  0.76261451270E+03  0.25500000920E-02 0. -1.
        2   -1    0    0  501    0  0.00000000000E+00  0.00000000000E+00 -0.17125725202E+04  0.17125725202E+04  0.25500000920E-02 0.  1.
    10030    2    1    2    0    0  0.00000000000E+00  0.00000000000E+00 -0.94995800750E+03  0.24751870329E+04  0.22856357172E+04 0.  0.
        2    1    3    3  502    0 -0.10672013614E+04  0.34393549492E+03 -0.71426102504E+03  0.13294281411E+04  0.25500000920E-02 0. -1.
       -2    1    3    3    0  502  0.10672013614E+04 -0.34393549492E+03 -0.23569698246E+03  0.11457588918E+04  0.25500000920E-02 0.  1.
</event>
<event>
 5   0  0.4436695E-05  0.2058034E+04  0.7818609E-02  0.8579958E-01
       -2   -1    0    0    0  501  0.00000000000E+00  0.00000000000E+00  0.79306052401E+03  0.79306052401E+03  0.25500000920E-02 0.  1.
        2   -1    0    0  501    0  0.00000000000E+00  0.00000000000E+00 -0.13351772180E+04  0.13351772180E+04  0.25500000920E-02 0. -1.
    10030    2    1    2    0    0  0.00000000000E+00  0.00000000000E+00 -0.54211669404E+03  0.21282377421E+04  0.20580343478E+04 0.  0.
        5    1    3    3  502    0 -0.10166017398E+04 -0.62919590345E+02 -0.11972328464E+03  0.10255699523E+04  0.46999998093E+01 0.  1.
       -5    1    3    3    0  502  0.10166017398E+04  0.62919590345E+02 -0.42239340940E+03  0.11026677897E+04  0.46999998093E+01 0. -1.
</event>
<event>
 5   0  0.2031860E-05  0.2345245E+04  0.7818609E-02  0.8460292E-01
        1   -1    0    0  501    0  0.00000000000E+00  0.00000000000E+00  0.13559023770E+04  0.13559023770E+04  0.50400001928E-02 0. -1.
       -1   -1    0    0    0  501  0.00000000000E+00  0.00000000000E+00 -0.10141169637E+04  0.10141169637E+04  0.50400001928E-02 0.  1.
    10030    2    1    2    0    0  0.00000000000E+00  0.00000000000E+00  0.34178541336E+03  0.23700193407E+04  0.23452450632E+04 0.  0.
        4    1    3    3  502    0 -0.11822750952E+03 -0.76378542723E+03  0.10620792306E+04  0.13135295306E+04  0.12699999809E+01 0. -1.
       -4    1    3    3    0  502  0.11822750952E+03  0.76378542723E+03 -0.72029381722E+03  0.10564898101E+04  0.12699999809E+01 0.  1.
</event>
<event>
 5   0  0.2042951E-05  0.2291020E+04  0.7818609E-02  0.8481470E-01
       -1   -1    0    0    0  501  0.00000000000E+00  0.00000000000E+00  0.62058373856E+03  0.62058373858E+03  0.50400001928E-02 0.  1.
        1   -1    0    0  501    0  0.00000000000E+00  0.00000000000E+00 -0.21144505638E+04  0.21144505638E+04  0.50400001928E-02 0. -1.
    10030    2    1    2    0    0  0.00000000000E+00  0.00000000000E+00 -0.14938668253E+04  0.27350343024E+04  0.22910204154E+04 0.  0.
        2    1    3    3  502    0 -0.92772537405E+03 -0.61841097061E+03 -0.10607185856E+04  0.15389055904E+04  0.25500000920E-02 0. -1.
       -2    1    3    3    0  502  0.92772537405E+03  0.61841097061E+03 -0.43314823966E+03  0.11961287120E+04  0.25500000920E-02 0.  1.
</event>
<event>
 5   0  0.4505107E-05  0.2235864E+04  0.7818609E-02  0.8503647E-01
        2   -1    0    0  501    0  0.00000000000E+00  0.00000000000E+00  0.10704825314E+04  0.10704825314E+04  0.25500000920E-02 0.  1.
       -2   -1    0    0    0  501  0.00000000000E+00  0.00000000000E+00 -0.11674847359E+04  0.11674847359E+04  0.25500000920E-02 0. -1.
    10030    2    1    2    0    0  0.00000000000E+00  0.00000000000E+00 -0.97002204499E+02  0.22379672674E+04  0.22358640527E+04 0.  0.
        4    1    3    3  502    0  0.71196644258E+03  0.23880273152E+03  0.78043699227E+03  0.10830542331E+04  0.12699999809E+01 0.  1.
       -4    1    3    3    0  502 -0.71196644258E+03 -0.23880273152E+03 -0.87743919677E+03  0.11549130343E+04  0.12699999809E+01 0. -1.
</event>
<event>
 5   0  0.2043885E-05  0.2271892E+04  0.7818609E-02  0.8489087E-01
        1   -1    0    0  501    0  0.00000000000E+00  0.00000000000E+00  0.76211178354E+03  0.76211178356E+03  0.50400001928E-02 0. -1.
       -1   -1    0    0    0  501  0.00000000000E+00  0.00000000000E+00 -0.16931552393E+04  0.16931552393E+04  0.50400001928E-02 0.  1.
    10030    2    1    2    0    0  0.00000000000E+00  0.00000000000E+00 -0.93104345575E+03  0.24552670229E+04  0.22718922151E+04 0.  0.
        5    1    3    3  502    0 -0.21628814200E+03 -0.44468830606E+03 -0.15707198728E+04  0.16467274391E+04  0.46999998093E+01 0.  1.
       -5    1    3    3    0  502  0.21628814200E+03  0.44468830606E+03  0.63967641706E+03  0.80853958373E+03  0.46999998093E+01 0. -1.
</event>
<event>
 5   0  0.4505107E-05  0.2299432E+04  0.7818609E-02  0.8478145E-01
       -2   -1    0    0    0  501  0.00000000000E+00  0.00000000000E+00  0.46595900326E+03  0.46595900327E+03  0.25500000920E-02 0. -1.
        2   -1    0    0  501    0  0.00000000000E+00  0.00000000000E+00 -0.28368303192E+04  0.28368303192E+04  0.25500000920E-02 0.  1.
    10030    2    1    2    0    0  0.00000000000E+00  0.00000000000E+00 -0.23708713159E+04  0.33027893225E+04  0.22994317802E+04 0.  0.
        4    1    3    3  502    0  0.36917448008E+03  0.99033258789E+03 -0.18354481400E+04  0.21179990365E+04  0.12699999809E+01 0.  1.
       -4    1    3    3    0  502 -0.36917448008E+03 -0.99033258789E+03 -0.53542317599E+03  0.11847902859E+04  0.12699999809E+01 0. -1.
</event>
<event>
 5   0  0.4505107E-05  0.2288470E+04  0.7818609E-02  0.8482481E-01
       -2   -1    0    0    0  501  0.00000000000E+00  0.00000000000E+00  0.82639939613E+03  0.82639939614E+03  0.25500000920E-02 0. -1.
        2   -1    0    0  501    0  0.00000000000E+00  0.00000000000E+00 -0.15843113312E+04  0.15843113312E+04  0.25500000920E-02 0.  1.
    10030    2    1    2    0    0  0.00000000000E+00  0.00000000000E+00 -0.75791193504E+03  0.24107107273E+04  0.22884701679E+04 0.  0.
        4    1    3    3  502    0 -0.16028380413E+03 -0.10697809966E+04 -0.77190977979E+03  0.13288975128E+04  0.12699999809E+01 0.  1.
       -4    1    3    3    0  502  0.16028380413E+03  0.10697809966E+04  0.13997844756E+02  0.10818132145E+04  0.12699999809E+01 0. -1.
</event>
<event>
 5   0  0.4602447E-05  0.2297316E+04  0.7818609E-02  0.8478980E-01
        2   -1    0    0  501    0  0.00000000000E+00  0.00000000000E+00  0.33327726944E+04  0.33327726944E+04  0.25500000920E-02 0. -1.
       -2   -1    0    0    0  501  0.00000000000E+00  0.00000000000E+00 -0.39589121312E+03  0.39589121313E+03  0.25500000920E-02 0.  1.
    10030    2    1    2    0    0  0.00000000000E+00  0.00000000000E+00  0.29368814813E+04  0.37286639076E+04  0.22973161951E+04 0.  0.
        3    1    3    3  502    0  0.29093864555E+03 -0.10640914261E+04  0.19880191343E+04  0.22735777856E+04  0.10100000352E+00 0.  1.
       -3    1    3    3    0  502 -0.29093864555E+03  0.10640914261E+04  0.94886234702E+03  0.14550861220E+04  0.10100000352E+00 0. -1.
</event>
<event>
 5   0  0.2042951E-05  0.2317990E+04  0.7818609E-02  0.8470862E-01
       -1   -1    0    0    0  501  0.00000000000E+00  0.00000000000E+00  0.11315124258E+04  0.11315124258E+04  0.50400001928E-02 0. -1.
        1   -1    0    0  501    0  0.00000000000E+00  0.00000000000E+00 -0.11871448193E+04  0.11871448193E+04  0.50400001928E-02 0.  1.
    10030    2    1    2    0    0  0.00000000000E+00  0.00000000000E+00 -0.55632393480E+02  0.23186572451E+04  0.23179897448E+04 0.  0.
        2    1    3    3  502    0  0.47431628165E+02  0.77334960739E+01  0.11305153441E+04  0.11315363492E+04  0.25500000920E-02 0. -1.
       -2    1    3    3    0  502 -0.47431628165E+02 -0.77334960739E+01 -0.11861477375E+04  0.11871208960E+04  0.25500000920E-02 0.  1.
</event>
<event>
 5   0  0.2085063E-05  0.2300761E+04  0.7818609E-02  0.8477621E-01
        1   -1    0    0  501    0  0.00000000000E+00  0.00000000000E+00  0.10006955071E+04  0.10006955071E+04  0.50400001928E-02 0. -1.
       -1   -1    0    0    0  501  0.00000000000E+00  0.00000000000E+00 -0.13224558459E+04  0.13224558459E+04  0.50400001928E-02 0.  1.
    10030    2    1    2    0    0  0.00000000000E+00  0.00000000000E+00 -0.32176033883E+03  0.23231513530E+04  0.23007612856E+04 0.  0.
        1    1    3    3  502    0 -0.55531055161E+03 -0.15319663170E+03  0.84456946433E+03  0.10223192245E+04  0.50400001928E-02 0. -1.
       -1    1    3    3    0  502  0.55531055161E+03  0.15319663170E+03 -0.11663298032E+04  0.13008321285E+04  0.50400001928E-02 0.  1.
</event>
<event>
 5   0  0.2043885E-05  0.2234934E+04  0.7818609E-02  0.8504027E-01
       -1   -1    0    0    0  501  0.00000000000E+00  0.00000000000E+00  0.95931505316E+03  0.95931505318E+03  0.50400001928E-02 0. -1.
        1   -1    0    0  501    0  0.00000000000E+00  0.00000000000E+00 -0.13016912569E+04  0.13016912569E+04  0.50400001928E-02 0.  1.
    10030    2    1    2    0    0  0.00000000000E+00  0.00000000000E+00 -0.34237620373E+03  0.22610063101E+04  0.22349335716E+04 0.  0.
        5    1    3    3  502    0  0.58131735429E+03 -0.51132888880E+03 -0.98639433383E+03  0.12539469569E+04  0.46999998093E+01 0.  1.
       -5    1    3    3    0  502 -0.58131735429E+03  0.51132888880E+03  0.64401813010E+03  0.10070593532E+04  0.46999998093E+01 0. -1.
</event>
<event>
 5   0  0.4605516E-05  0.2304719E+04  0.7818609E-02  0.8476063E-01
        2   -1    0    0  501    0  0.00000000000E+00  0.00000000000E+00  0.22814615242E+04  0.22814615242E+04  0.25500000920E-02 0.  1.
       -2   -1    0    0    0  501  0.00000000000E+00  0.00000000000E+00 -0.58205362865E+03  0.58205362866E+03  0.25500000920E-02 0. -1.
    10030    2    1    2    0    0  0.00000000000E+00  0.00000000000E+00  0.16994078956E+04  0.28635151529E+04  0.23047194700E+04 0.  0.
        1    1    3    3  502    0 -0.74314723975E+03  0.71699470545E+03  0.21424605247E+03  0.10546329213E+04  0.50400001928E-02 0. -1.
       -1    1    3    3    0  502  0.74314723975E+03 -0.71699470545E+03  0.14851618431E+04  0.18088822316E+04  0.50400001928E-02 0.  1.
</event>
<event>
 5   0  0.4436695E-05  0.2169457E+04  0.7818609E-02  0.8531249E-01
        2   -1    0    0  501    0  0.00000000000E+00  0.00000000000E+00  0.90169305013E+03  0.90169305014E+03  0.25500000920E-02 0. -1.
       -2   -1    0    0    0  501  0.00000000000E+00  0.00000000000E+00 -0.13049184200E+04  0.13049184200E+04  0.25500000920E-02 0.  1.
    10030    2    1    2    0    0  0.00000000000E+00  0.00000000000E+00 -0.40322536986E+03  0.22066114701E+04  0.21694569554E+04 0.  0.
        5    1    3    3  502    0  0.95864904555E+03  0.50655823016E+03 -0.16937528459E+03  0.10974148305E+04  0.46999998093E+01 0.  1.
       -5    1    3    3    0  502 -0.95864904555E+03 -0.50655823016E+03 -0.23385008526E+03  0.11091966397E+04  0.46999998093E+01 0. -1.
</event>
<event>
 5   0  0.4505107E-05  0.2287943E+04  0.7818609E-02  0.8482690E-01
       -2   -1    0    0    0  501  0.00000000000E+00  0.00000000000E+00  0.74475501592E+03  0.74475501592E+03  0.25500000920E-02 0.  1.
        2   -1    0    0  501    0  0.00000000000E+00  0.00000000000E+00 -0.17571831094E+04  0.17571831094E+04  0.25500000920E-02 0. -1.
    10030    2    1    2    0    0  0.00000000000E+00  0.00000000000E+00 -0.10124280934E+04  0.25019381253E+04  0.22879431239E+04 0.  0.
        4    1    3    3  502    0 -0.10425453440E+04  0.34301865222E+03 -0.15337978767E+03  0.11081920241E+04  0.12699999809E+01 0.  1.
       -4    1    3    3    0  502  0.10425453440E+04 -0.34301865222E+03 -0.85904830576E+03  0.13937461012E+04  0.12699999809E+01 0. -1.
</event>
<event>
 5   0  0.2043885E-05  0.2344066E+04  0.7818609E-02  0.8460746E-01
        1   -1    0    0  501    0  0.00000000000E+00  0.00000000000E+00  0.12131752782E+04  0.12131752782E+04  0.50400001928E-02 0. -1.
       -1   -1    0    0    0  501  0.00000000000E+00  0.00000000000E+00 -0.11322864512E+04  0.11322864512E+04  0.50400001928E-02 0.  1.
    10030    2    1    2    0    0  0.00000000000E+00  0.00000000000E+00  0.80888826992E+02  0.23454617294E+04  0.23440664926E+04 0.  0.
        5    1    3    3  502    0  0.29608083359E+03 -0.48966902961E+02 -0.10931810547E+04  0.11336350938E+04  0.46999998093E+01 0.  1.
       -5    1    3    3    0  502 -0.29608083359E+03  0.48966902961E+02  0.11740698817E+04  0.12118266356E+04  0.46999998093E+01 0. -1.
</event>
<event>
 5   0  0.2085063E-05  0.2292099E+04  0.7818609E-02  0.8481043E-01
       -1   -1    0    0    0  501  0.00000000000E+00  0.00000000000E+00  0.91780601849E+03  0.91780601850E+03  0.50400001928E-02 0.  1.
        1   -1    0    0  501    0  0.00000000000E+00  0.00000000000E+00 -0.14310537381E+04  0.14310537381E+04  0.50400001928E-02 0. -1.
    10030    2    1    2    0    0  0.00000000000E+00  0.00000000000E+00 -0.51324771964E+03  0.23488597566E+04  0.22920992419E+04 0.  0.
        1    1    3    3  502    0 -0.10431407741E+04  0.47461282750E+03 -0.25103696977E+03  0.11732090908E+04  0.50400001928E-02 0. -1.
       -1    1    3    3    0  502  0.10431407741E+04 -0.47461282750E+03 -0.26221074987E+03  0.11756506658E+04  0.50400001928E-02 0.  1.
</event>
<event>
 5   0  0.2042951E-05  0.2300919E+04  0.7818609E-02  0.8477559E-01
        1   -1    0    0  501    0  0.00000000000E+00  0.00000000000E+00  0.88702476080E+03  0.88702476082E+03  0.50400001928E-02 0.  1.
       -1   -1    0    0    0  501  0.00000000000E+00  0.00000000000E+00 -0.14921306736E+04  0.14921306736E+04  0.50400001928E-02 0. -1.
    10030    2    1    2    0    0  0.00000000000E+00  0.00000000000E+00 -0.60510591278E+03  0.23791554344E+04  0.23009188198E+04 0.  0.
        2    1    3    3  502    0 -0.28248823970E+03 -0.70650280597E+03 -0.11948023335E+04  0.14165092434E+04  0.25500000920E-02 0. -1.
       -2    1    3    3    0  502  0.28248823970E+03  0.70650280597E+03  0.58969642075E+03  0.96264619101E+03  0.25500000920E-02 0.  1.
</event>
<event>
 5   0  0.2042951E-05  0.2290422E+04  0.7818609E-02  0.8481707E-01
       -1   -1    0    0    0  501  0.00000000000E+00  0.00000000000E+00  0.13040377373E+04  0.13040377373E+04  0.50400001928E-02 0.  1.
        1   -1    0    0  501    0  0.00000000000E+00  0.00000000000E+00 -0.10057284449E+04  0.10057284450E+04  0.50400001928E-02 0. -1.
    10030    2    1    2    0    0  0.00000000000E+00  0.00000000000E+00  0.29830929239E+03  0.23097661823E+04  0.22904216605E+04 0.  0.
        2    1    3    3  502    0  0.42103180440E+03  0.87165375686E+03 -0.46794482334E+03  0.10751838958E+04  0.25500000920E-02 0. -1.
       -2    1    3    3    0  502 -0.42103180440E+03 -0.87165375686E+03  0.76625411572E+03  0.12345822865E+04  0.25500000920E-02 0.  1.
</event>
<event>
 5   0  0.2043885E-05  0.2302828E+04  0.7818609E-02  0.8476807E-01
        1   -1    0    0  501    0  0.00000000000E+00  0.00000000000E+00  0.18930894178E+04  0.18930894178E+04  0.50400001928E-02 0.  1.
       -1   -1    0    0    0  501  0.00000000000E+00  0.00000000000E+00 -0.70031239775E+03  0.70031239776E+03  0.50400001928E-02 0. -1.
    10030    2    1    2    0    0  0.00000000000E+00  0.00000000000E+00  0.11927770200E+04  0.25934018155E+04  0.23028278176E+04 0.  0.
        5    1    3    3  502    0  0.27791267797E+03 -0.81674558895E+03  0.14551142470E+04  0.16916525575E+04  0.46999998093E+01 0.  1.
       -5    1    3    3    0  502 -0.27791267797E+03  0.81674558895E+03 -0.26233722697E+03  0.90174925800E+03  0.46999998093E+01 0. -1.
</event>
<event>
 5   0  0.4605516E-05  0.2251818E+04  0.7818609E-02  0.8497165E-01
       -2   -1    0    0    0  501  0.00000000000E+00  0.00000000000E+00  0.60000493296E+03  0.60000493296E+03  0.25500000920E-02 0. -1.
        2   -1    0    0  501    0  0.00000000000E+00  0.00000000000E+00 -0.21127678733E+04  0.21127678733E+04  0.25500000920E-02 0.  1.
    10030    2    1    2    0    0  0.00000000000E+00  0.00000000000E+00 -0.15127629404E+04  0.27127728063E+04  0.22518180621E+04 0.  0.
        1    1    3    3  502    0 -0.19601395877E+03  0.33109909859E+03  0.51834217728E+03  0.64554372269E+03  0.50400001928E-02 0. -1.
       -1    1    3    3    0  502  0.19601395877E+03 -0.33109909859E+03 -0.20311051177E+04  0.20672290836E+04  0.50400001928E-02 0.  1.
</event>
<event>
 5   0  0.2042951E-05  0.2216825E+04  0.7818609E-02  0.8511458E-01
        1   -1    0    0  501    0  0.00000000000E+00  0.00000000000E+00  0.17897169301E+04  0.17897169301E+04  0.50400001928E-02 0. -1.
       -1   -1    0    0    0  501  0.00000000000E+00  0.00000000000E+00 -0.68646491883E+03  0.68646491885E+03  0.50400001928E-02 0.  1.
    10030    2    1    2    0    0  0.00000000000E+00  0.00000000000E+00  0.11032520113E+04  0.24761818490E+04  0.22168246545E+04 0.  0.
        2    1    3    3  502    0 -0.87275026222E+03  0.54480720326E+03  0.90982427474E+02  0.10328531895E+04  0.25500000920E-02 0.  1.
       -2    1    3    3    0  502  0.87275026222E+03 -0.54480720326E+03  0.10122695838E+04  0.14433286595E+04  0.25500000920E-02 0. -1.
</event>
<event>
 5   0  0.2085063E-05  0.2290507E+04  0.7818609E-02  0.8481674E-01
        1   -1    0    0  501    0  0.00000000000E+00  0.00000000000E+00  0.29318062687E+04  0.29318062687E+04  0.50400001928E-02 0.  1.
       -1   -1    0    0    0  501  0.00000000000E+00  0.00000000000E+00 -0.44737111508E+03  0.44737111511E+03  0.50400001928E-02 0. -1.
    10030    2    1    2    0    0  0.00000000000E+00  0.00000000000E+00  0.24844351537E+04  0.33791773839E+04  0.22905068781E+04 0.  0.
        1    1    3    3  502    0 -0.43744331631E+03 -0.88572786253E+03  0.38739170311E+03  0.10611045345E+04  0.50400001928E-02 0. -1.
       -1    1    3    3    0  502  0.43744331631E+03  0.88572786253E+03  0.20970434506E+04  0.23180728494E+04  0.50400001928E-02 0.  1.
</event>
<event>
 5   0  0.4505107E-05  0.2312074E+04  0.7818609E-02  0.8473176E-01
       -2   -1    0    0    0  501  0.00000000000E+00  0.00000000000E+00  0.62398497527E+03  0.62398497528E+03  0.25500000920E-02 0.  1.
        2   -1    0    0  501    0  0.00000000000E+00  0.00000000000E+00 -0.21417519929E+04  0.21417519929E+04  0.25500000920E-02 0. -1.
    10030    2    1    2    0    0  0.00000000000E+00  0.00000000000E+00 -0.15177670176E+04  0.27657369682E+04  0.23120735839E+04 0.  0.
        4    1    3    3  502    0 -0.59841515546E+03  0.45198093753E+02  0.42305669100E+03  0.73424937362E+03  0.12699999809E+01 0.  1.
       -4    1    3    3    0  502  0.59841515546E+03 -0.45198093753E+02 -0.19408237086E+04  0.20314875945E+04  0.12699999809E+01 0. -1.
</event>
<event>
 5   0  0.2043885E-05  0.2307569E+04  0.7818609E-02  0.8474943E-01
        1   -1    0    0  501    0  0.00000000000E+00  0.00000000000E+00  0.23579682736E+04  0.23579682736E+04  0.50400001928E-02 0.  1.
       -1   -1    0    0    0  501  0.00000000000E+00  0.00000000000E+00 -0.56456197627E+03  0.56456197630E+03  0.50400001928E-02 0. -1.
    10030    2    1    2    0    0  0.00000000000E+00  0.00000000000E+00  0.17934062974E+04  0.29225302499E+04  0.23075694820E+04 0.  0.
        5    1    3    3  502    0 -0.21910213946E+03 -0.68222568485E+02 -0.53535578526E+03  0.58248431153E+03  0.46999998093E+01 0. -1.
       -5    1    3    3    0  502  0.21910213946E+03  0.68222568485E+02  0.23287620826E+04  0.23400459384E+04  0.46999998093E+01 0.  1.
</event>
<event>
 5   0  0.2043885E-05  0.2297932E+04  0.7818609E-02  0.8478737E-01
       -1   -1    0    0    0  501  0.00000000000E+00  0.00000000000E+00  0.57501949969E+03  0.57501949972E+03  0.50400001928E-02 0. -1.
        1   -1    0    0  501    0  0.00000000000E+00  0.00000000000E+00 -0.22957872556E+04  0.22957872556E+04  0.50400001928E-02 0.  1.
    10030    2    1    2    0    0  0.00000000000E+00  0.00000000000E+00 -0.17207677559E+04  0.28708067553E+04  0.22979316258E+04 0.  0.
        5    1    3    3  502    0 -0.73194076886E+03  0.19747832253E+03  0.21819388844E+03  0.78890154008E+03  0.46999998093E+01 0. -1.
       -5    1    3    3    0  502  0.73194076886E+03 -0.19747832253E+03 -0.19389616444E+04  0.20819052152E+04  0.46999998093E+01 0.  1.
</event>
<event>
 5   0  0.2042951E-05  0.2301256E+04  0.7818609E-02  0.8477426E-01
        1   -1    0    0  501    0  0.00000000000E+00  0.00000000000E+00  0.12065884549E+04  0.12065884549E+04  0.50400001928E-02 0. -1.
       -1   -1    0    0    0  501  0.00000000000E+00  0.00000000000E+00 -0.10972627182E+04  0.10972627182E+04  0.50400001928E-02 0.  1.
    10030    2    1    2    0    0  0.00000000000E+00  0.00000000000E+00  0.10932573667E+03  0.23038511731E+04  0.23012557682E+04 0.  0.
        2    1    3    3  502    0  0.38149296436E+02  0.44712022969E+03 -0.10060473698E+04  0.11015912032E+04  0.25500000920E-02 0.  1.
       -2    1    3    3    0  502 -0.38149296436E+02 -0.44712022969E+03  0.11153731065E+04  0.12022599699E+04  0.25500000920E-02 0. -1.
</event>
<event>
 5   0  0.4605516E-05  0.2310400E+04  0.7818609E-02  0.8473832E-01
        2   -1    0    0  501    0  0.00000000000E+00  0.00000000000E+00  0.88620125856E+03  0.88620125856E+03  0.25500000920E-02 0. -1.
       -2   -1    0    0    0  501  0.00000000000E+00  0.00000000000E+00 -0.15058512415E+04  0.15058512415E+04  0.25500000920E-02 0.  1.
    10030    2    1    2    0    0  0.00000000000E+00  0.00000000000E+00 -0.61964998299E+03  0.23920525001E+04  0.23104001952E+04 0.  0.
        1    1    3    3  502    0  0.79173442158E+03  0.30756621734E+03  0.50081932562E+03  0.98603264110E+03  0.50400001928E-02 0. -1.
       -1    1    3    3    0  502 -0.79173442158E+03 -0.30756621734E+03 -0.11204693086E+04  0.14060198590E+04  0.50400001928E-02 0.  1.
</event>
<event>
 5   0  0.2031860E-05  0.1951368E+04  0.7818609E-02  0.8629701E-01
        1   -1    0    0  501    0  0.00000000000E+00  0.00000000000E+00  0.20962544402E+04  0.20962544402E+04  0.50400001928E-02 0.  1.
       -1   -1    0    0    0  501  0.00000000000E+00  0.00000000000E+00 -0.45412398604E+03  0.45412398607E+03  0.50400001928E-02 0. -1.
    10030    2    1    2    0    0  0.00000000000E+00  0.00000000000E+00  0.16421304542E+04  0.25503784263E+04  0.19513681582E+04 0.  0.
        4    1    3    3  502    0  0.49045079362E+02  0.75142299882E+03  0.16319297857E+04  0.17972863938E+04  0.12699999809E+01 0.  1.
       -4    1    3    3    0  502 -0.49045079362E+02 -0.75142299882E+03  0.10200668536E+02  0.75309203256E+03  0.12699999809E+01 0. -1.
</event>
<event>
 5   0  0.4605516E-05  0.2291878E+04  0.7818609E-02  0.8481131E-01
       -2   -1    0    0    0  501  0.00000000000E+00  0.00000000000E+00  0.10400023093E+04  0.10400023093E+04  0.25500000920E-02 0.  1.
        2   -1    0    0  501    0  0.00000000000E+00  0.00000000000E+00 -0.12626661952E+04  0.12626661952E+04  0.25500000920E-02 0. -1.
    10030    2    1    2    0    0  0.00000000000E+00  0.00000000000E+00 -0.22266388592E+03  0.23026685046E+04  0.22918776224E+04 0.  0.
        1    1    3    3  502    0  0.35857463394E+03 -0.83696383609E+03 -0.81037469583E+03  0.12189304241E+04  0.50400001928E-02 0. -1.
       -1    1    3    3    0  502 -0.35857463394E+03  0.83696383609E+03  0.58771080991E+03  0.10837380805E+04  0.50400001928E-02 0.  1.
</event>
<event>
 5   0  0.4602447E-05  0.2385898E+04  0.7818609E-02  0.8444802E-01
       -2   -1    0    0    0  501  0.00000000000E+00  0.00000000000E+00  0.17127715126E+04  0.17127715126E+04  0.25500000920E-02 0. -1.
        2   -1    0    0  501    0  0.00000000000E+00  0.00000000000E+00 -0.83089116727E+03  0.83089116728E+03  0.25500000920E-02 0.  1.
    10030    2    1    2    0    0  0.00000000000E+00  0.00000000000E+00  0.88188034529E+03  0.25436626798E+04  0.23858975010E+04 0.  0.
        3    1    3    3  502    0  0.18815179334E+03  0.88094322051E+03 -0.39286470045E+03  0.98275365080E+03  0.10100000352E+00 0.  1.
       -3    1    3    3    0  502 -0.18815179334E+03 -0.88094322051E+03  0.12747450457E+04  0.15609090290E+04  0.10100000352E+00 0. -1.
</event>
<event>
 5   0  0.4602447E-05  0.2286840E+04  0.7818609E-02  0.8483128E-01
       -2   -1    0    0    0  501  0.00000000000E+00  0.00000000000E+00  0.86844382307E+03  0.86844382308E+03  0.25500000920E-02 0.  1.
        2   -1    0    0  501    0  0.00000000000E+00  0.00000000000E+00 -0.15054627132E+04  0.15054627132E+04  0.25500000920E-02 0. -1.
    10030    2    1    2    0    0  0.00000000000E+00  0.00000000000E+00 -0.63701889010E+03  0.23739065363E+04  0.22868404353E+04 0.  0.
        3    1    3    3  502    0  0.85481977446E+03  0.54388291667E+03  0.23165369978E+03  0.10393213751E+04  0.10100000352E+00 0.  1.
       -3    1    3    3    0  502 -0.85481977446E+03 -0.54388291667E+03 -0.86867258988E+03  0.13345851612E+04  0.10100000352E+00 0. -1.
</event>
<event>
 5   0  0.2085063E-05  0.2283533E+04  0.7818609E-02  0.8484442E-01
       -1   -1    0    0    0  501  0.00000000000E+00  0.00000000000E+00  0.76480560379E+03  0.76480560380E+03  0.50400001928E-02 0.  1.
        1   -1    0    0  501    0  0.00000000000E+00  0.00000000000E+00 -0.17045249011E+04  0.17045249011E+04  0.50400001928E-02 0. -1.
    10030    2    1    2    0    0  0.00000000000E+00  0.00000000000E+00 -0.93971929730E+03  0.24693305049E+04  0.22835325232E+04 0.  0.
        1    1    3    3  502    0 -0.53545667283E+03 -0.25008632966E+03 -0.15262663126E+04  0.16366874710E+04  0.50400001928E-02 0. -1.
       -1    1    3    3    0  502  0.53545667283E+03  0.25008632966E+03  0.58654701528E+03  0.83264303391E+03  0.50400001928E-02 0.  1.
</event>
<event>
 5   0  0.2043885E-05  0.2309783E+04  0.7818609E-02  0.8474074E-01
       -1   -1    0    0    0  501  0.00000000000E+00  0.00000000000E+00  0.11933764556E+04  0.11933764556E+04  0.50400001928E-02 0.  1.
        1   -1    0    0  501    0  0.00000000000E+00  0.00000000000E+00 -0.11176473674E+04  0.11176473674E+04  0.50400001928E-02 0. -1.
    10030    2    1    2    0    0  0.00000000000E+00  0.00000000000E+00  0.75729088152E+02  0.23110238230E+04  0.23097827204E+04 0.  0.
        5    1    3    3  502    0  0.93671150162E+03  0.16493542850E+03  0.69328891658E+03  0.11769892713E+04  0.46999998093E+01 0.  1.
       -5    1    3    3    0  502 -0.93671150162E+03 -0.16493542850E+03 -0.61755982843E+03  0.11340345517E+04  0.46999998093E+01 0. -1.
</event>
<event>
 5   0  0.4602447E-05  0.2293311E+04  0.7818609E-02  0.8480563E-01
        2   -1    0    0  501    0  0.00000000000E+00  0.00000000000E+00  0.10038388539E+04  0.10038388539E+04  0.25500000920E-02 0.  1.
       -2   -1    0    0    0  501  0.00000000000E+00  0.00000000000E+00 -0.13097909905E+04  0.13097909905E+04  0.25500000920E-02 0. -1.
    10030    2    1    2    0    0  0.00000000000E+00  0.00000000000E+00 -0.30595213661E+03  0.23136298444E+04  0.22933112189E+04 0.  0.
        3    1    3    3  502    0  0.54704996543E+03  0.98101385153E+03 -0.38559921140E+03  0.11875767780E+04  0.10100000352E+00 0.  1.
       -3    1    3    3    0  502 -0.54704996543E+03 -0.98101385153E+03  0.79647074793E+02  0.11260530664E+04  0.10100000352E+00 0. -1.
</event>
<event>
 5   0  0.2043885E-05  0.2291679E+04  0.7818609E-02  0.8481209E-01
       -1   -1    0    0    0  501  0.00000000000E+00  0.00000000000E+00  0.12429490371E+04  0.12429490371E+04  0.50400001928E-02 0.  1.
        1   -1    0    0  501    0  0.00000000000E+00  0.00000000000E+00 -0.10563174115E+04  0.10563174115E+04  0.50400001928E-02 0. -1.
    10030    2    1    2    0    0  0.00000000000E+00  0.00000000000E+00  0.18663162566E+03  0.22992664486E+04  0.22916794798E+04 0.  0.
        5    1    3    3  502    0  0.64211865043E+03  0.35473356694E+03 -0.78981094687E+03  0.10779497607E+04  0.46999998093E+01 0. -1.
       -5    1    3    3    0  502 -0.64211865043E+03 -0.35473356694E+03  0.97644257253E+03  0.12213166879E+04  0.46999998093E+01 0.  1.
</event>
<event>
 5   0  0.4798609E-05  0.2298974E+04  0.7818609E-02  0.8478326E-01
       -2   -1    0    0    0  501  0.00000000000E+00  0.00000000000E+00  0.51264918851E+03  0.51264918852E+03  0.25500000920E-02 0. -1.
        2   -1    0    0  501    0  0.00000000000E+00  0.00000000000E+00 -0.25774363328E+04  0.25774363328E+04  0.25500000920E-02 0.  1.
    10030    2    1    2    0    0  0.00000000000E+00  0.00000000000E+00 -0.20647871443E+04  0.30900855213E+04  0.22989742447E+04 0.  0.
        2    1    3    3  502    0  0.38874295310E+03  0.66445908651E+03 -0.21797778527E+04  0.23117219660E+04  0.25500000920E-02 0.  1.
       -2    1    3    3    0  502 -0.38874295310E+03 -0.66445908651E+03  0.11499070836E+03  0.77836355531E+03  0.25500000920E-02 0. -1.
</event>
<event>
 5   0  0.1968318E-05  0.2300724E+04  0.7818609E-02  0.8477636E-01
       -1   -1    0    0    0  501  0.00000000000E+00  0.00000000000E+00  0.12547642411E+04  0.12547642411E+04  0.50400001928E-02 0.  1.
        1   -1    0    0  501    0  0.00000000000E+00  0.00000000000E+00 -0.10546463880E+04  0.10546463880E+04  0.50400001928E-02 0. -1.
    10030    2    1    2    0    0  0.00000000000E+00  0.00000000000E+00  0.20011785318E+03  0.23094106291E+04  0.23007238641E+04 0.  0.
        3    1    3    3  502    0 -0.35415005938E+03  0.36630375555E+02  0.11980667862E+04  0.12498512245E+04  0.10100000352E+00 0.  1.
       -3    1    3    3    0  502  0.35415005938E+03 -0.36630375555E+02 -0.99794893298E+03  0.10595594047E+04  0.10100000352E+00 0. -1.
</event>
<event>
 5   0  0.2085063E-05  0.2310946E+04  0.7818609E-02  0.8473618E-01
        1   -1    0    0  501    0  0.00000000000E+00  0.00000000000E+00  0.29703116294E+04  0.29703116294E+04  0.50400001928E-02 0. -1.
       -1   -1    0    0    0  501  0.00000000000E+00  0.00000000000E+00 -0.44948738804E+03  0.44948738806E+03  0.50400001928E-02 0.  1.
    10030    2    1    2    0    0  0.00000000000E+00  0.00000000000E+00  0.25208242413E+04  0.34197990174E+04  0.23109457942E+04 0.  0.
        1    1    3    3  502    0  0.58682566777E+03 -0.92751495047E+03  0.72589091692E+03  0.13158898020E+04  0.50400001928E-02 0.  1.
       -1    1    3    3    0  502 -0.58682566777E+03  0.92751495047E+03  0.17949333244E+04  0.21039092154E+04  0.50400001928E-02 0. -1.
</event>
<event>
 5   0  0.2031860E-05  0.2303852E+04  0.7818609E-02  0.8476404E-01
       -1   -1    0    0    0  501  0.00000000000E+00  0.00000000000E+00  0.11157657961E+04  0.11157657961E+04  0.50400001928E-02 0.  1.
        1   -1    0    0  501    0  0.00000000000E+00  0.00000000000E+00 -0.11892580397E+04  0.11892580397E+04  0.50400001928E-02 0. -1.
    10030    2    1    2    0    0  0.00000000000E+00  0.00000000000E+00 -0.73492243620E+02  0.23050238358E+04  0.23038519427E+04 0.  0.
        4    1    3    3  502    0  0.41793595949E+02  0.53616807820E+03  0.98245203487E+03  0.11200163063E+04  0.12699999809E+01 0.  1.
       -4    1    3    3    0  502 -0.41793595949E+02 -0.53616807820E+03 -0.10559442785E+04  0.11850075295E+04  0.12699999809E+01 0. -1.
</event>
<event>
 5   0  0.4505107E-05  0.2318920E+04  0.7818609E-02  0.8470498E-01
        2   -1    0    0  501    0  0.00000000000E+00  0.00000000000E+00  0.83005326067E+03  0.83005326067E+03  0.25500000920E-02 0. -1.
       -2   -1    0    0    0  501  0.00000000000E+00  0.00000000000E+00 -0.16195916803E+04  0.16195916803E+04  0.25500000920E-02 0.  1.
    10030    2    1    2    0    0  0.00000000000E+00  0.00000000000E+00 -0.78953841964E+03  0.24496449410E+04  0.23189198824E+04 0.  0.
        4    1    3    3  502    0  0.73758812153E+03  0.90178183744E+02 -0.13349873391E+04  0.15278616267E+04  0.12699999809E+01 0.  1.
       -4    1    3    3    0  502 -0.73758812153E+03 -0.90178183744E+02  0.54544891947E+03  0.92178331428E+03  0.12699999809E+01 0. -1.
</event>
<event>
 5   0  0.1968318E-05  0.2301183E+04  0.7818609E-02  0.8477455E-01
        1   -1    0    0  501    0  0.00000000000E+00  0.00000000000E+00  0.12844252579E+04  0.12844252579E+04  0.50400001928E-02 0. -1.
       -1   -1    0    0    0  501  0.00000000000E+00  0.00000000000E+00 -0.10307025078E+04  0.10307025079E+04  0.50400001928E-02 0.  1.
    10030    2    1    2    0    0  0.00000000000E+00  0.00000000000E+00  0.25372275003E+03  0.23151277657E+04  0.23011825955E+04 0.  0.
        3    1    3    3  502    0  0.39856828354E+03  0.49607897687E+03 -0.83754529523E+03  0.10518712658E+04  0.10100000352E+00 0.  1.
       -3    1    3    3    0  502 -0.39856828354E+03 -0.49607897687E+03  0.10912680453E+04  0.12632565000E+04  0.10100000352E+00 0. -1.
</event>
<event>
 5   0  0.2043885E-05  0.2335041E+04  0.7818609E-02  0.8464232E-01
        1   -1    0    0  501    0  0.00000000000E+00  0.00000000000E+00  0.16753906227E+04  0.16753906227E+04  0.50400001928E-02 0. -1.
       -1   -1    0    0    0  501  0.00000000000E+00  0.00000000000E+00 -0.81360399886E+03  0.81360399888E+03  0.50400001928E-02 0.  1.
    10030    2    1    2    0    0  0.00000000000E+00  0.00000000000E+00  0.86178662379E+03  0.24889946215E+04  0.23350413361E+04 0.  0.
        5    1    3    3  502    0  0.20618798847E+03 -0.37889824826E+03 -0.72553455475E+03  0.84409706152E+03  0.46999998093E+01 0.  1.
       -5    1    3    3    0  502 -0.20618798847E+03  0.37889824826E+03  0.15873211785E+04  0.16448975600E+04  0.46999998093E+01 0. -1.
</event>
<event>
 5   0  0.2031860E-05  0.2282774E+04  0.7818609E-02  0.8484744E-01
        1   -1    0    0  501    0  0.00000000000E+00  0.00000000000E+00  0.10560943208E+04  0.10560943208E+04  0.50400001928E-02 0. -1.
       -1   -1    0    0    0  501  0.00000000000E+00  0.00000000000E+00 -0.12335684420E+04  0.12335684420E+04  0.50400001928E-02 0.  1.
    10030    2    1    2    0    0  0.00000000000E+00  0.00000000000E+00 -0.17747412122E+03  0.22896627628E+04  0.22827742998E+04 0.  0.
        4    1    3    3  502    0 -0.75625947153E+03 -0.83796622711E+03 -0.25850271859E+03  0.11579900926E+04  0.12699999809E+01 0.  1.
       -4    1    3    3    0  502  0.75625947153E+03  0.83796622711E+03  0.81028597371E+02  0.11316726702E+04  0.12699999809E+01 0. -1.
</event>
<event>
 5   0  0.4798609E-05  0.2318640E+04  0.7818609E-02  0.8470608E-01
       -2   -1    0    0    0  501  0.00000000000E+00  0.00000000000E+00  0.98757772097E+03  0.98757772097E+03  0.25500000920E-02 0.  1.
        2   -1    0    0  501    0  0.00000000000E+00  0.00000000000E+00 -0.13609291148E+04  0.13609291148E+04  0.25500000920E-02 0. -1.
    10030    2    1    2    0    0  0.00000000000E+00  0.00000000000E+00 -0.37335139382E+03  0.23485068358E+04  0.23186403547E+04 0.  0.
        2    1    3    3  502    0 -0.84870409725E+03  0.24478379063E+02 -0.98622671162E+03  0.13013611960E+04  0.25500000920E-02 0. -1.
       -2    1    3    3    0  502  0.84870409725E+03 -0.24478379063E+02  0.61287531779E+03  0.10471456398E+04  0.25500000920E-02 0.  1.
</event>
<event>
 5   0  0.4505107E-05  0.2377969E+04  0.7818609E-02  0.8447798E-01
       -2   -1    0    0    0  501  0.00000000000E+00  0.00000000000E+00  0.28909564708E+04  0.28909564708E+04  0.25500000920E-02 0.  1.
        2   -1    0    0  501    0  0.00000000000E+00  0.00000000000E+00 -0.48900216811E+03  0.48900216812E+03  0.25500000920E-02 0. -1.
    10030    2    1    2    0    0  0.00000000000E+00  0.00000000000E+00  0.24019543027E+04  0.33799586389E+04  0.23779688662E+04 0.  0.
        4    1    3    3  502    0  0.10955467789E+04 -0.10036372056E+03  0.55996457871E+03  0.12344462578E+04  0.12699999809E+01 0.  1.
       -4    1    3    3    0  502 -0.10955467789E+04  0.10036372056E+03  0.18419897240E+04  0.21455123811E+04  0.12699999809E+01 0. -1.
</event>
<event>
 5   0  0.4505107E-05  0.2349872E+04  0.7818609E-02  0.8458513E-01
        2   -1    0    0  501    0  0.00000000000E+00  0.00000000000E+00  0.23154554539E+04  0.23154554539E+04  0.25500000920E-02 0.  1.
       -2   -1    0    0    0  501  0.00000000000E+00  0.00000000000E+00 -0.59620006301E+03  0.59620006301E+03  0.25500000920E-02 0. -1.
    10030    2    1    2    0    0  0.00000000000E+00  0.00000000000E+00  0.17192553909E+04  0.29116555169E+04  0.23498720710E+04 0.  0.
        4    1    3    3  502    0 -0.65616359600E+03 -0.44807926163E+03  0.19320835046E+04  0.20890844815E+04  0.12699999809E+01 0.  1.
       -4    1    3    3    0  502  0.65616359600E+03  0.44807926163E+03 -0.21282811366E+03  0.82257103540E+03  0.12699999809E+01 0. -1.
</event>
<event>
 5   0  0.2031860E-05  0.2380222E+04  0.7818609E-02  0.8446946E-01
        1   -1    0    0  501    0  0.00000000000E+00  0.00000000000E+00  0.19844158296E+04  0.19844158296E+04  0.50400001928E-02 0. -1.
       -1   -1    0    0    0  501  0.00000000000E+00  0.00000000000E+00 -0.71374336344E+03  0.71374336345E+03  0.50400001928E-02 0.  1.
    10030    2    1    2    0    0  0.00000000000E+00  0.00000000000E+00  0.12706724662E+04  0.26981591931E+04  0.23802215264E+04 0.  0.
        4    1    3    3  502    0  0.82355494771E+03 -0.19119442223E+03 -0.31413940415E+03  0.90193305580E+03  0.12699999809E+01 0.  1.
       -4    1    3    3    0  502 -0.82355494771E+03  0.19119442223E+03  0.15848118703E+04  0.17962261373E+04  0.12699999809E+01 0. -1.
</event>
<event>
 5   0  0.4798609E-05  0.2292885E+04  0.7818609E-02  0.8480732E-01
        2   -1    0    0  501    0  0.00000000000E+00  0.00000000000E+00  0.90655028077E+03  0.90655028077E+03  0.25500000920E-02 0. -1.
       -2   -1    0    0    0  501  0.00000000000E+00  0.00000000000E+00 -0.14498158527E+04  0.14498158527E+04  0.25500000920E-02 0.  1.
    10030    2    1    2    0    0  0.00000000000E+00  0.00000000000E+00 -0.54326557190E+03  0.23563661334E+04  0.22928854907E+04 0.  0.
        2    1    3    3  502    0 -0.10103713809E+04  0.53867766005E+03 -0.21253396881E+03  0.11645577000E+04  0.25500000920E-02 0. -1.
       -2    1    3    3    0  502  0.10103713809E+04 -0.53867766005E+03 -0.33073160309E+03  0.11918084334E+04  0.25500000920E-02 0.  1.
</event>
<event>
 5   0  0.4505107E-05  0.2327985E+04  0.7818609E-02  0.8466968E-01
       -2   -1    0    0    0  501  0.00000000000E+00  0.00000000000E+00  0.91879722098E+03  0.91879722098E+03  0.25500000920E-02 0.  1.
        2   -1    0    0  501    0  0.00000000000E+00  0.00000000000E+00 -0.14746225188E+04  0.14746225188E+04  0.25500000920E-02 0. -1.
    10030    2    1    2    0    0  0.00000000000E+00  0.00000000000E+00 -0.55582529787E+03  0.23934197398E+04  0.23279854573E+04 0.  0.
        4    1    3    3  502    0  0.31837703913E+02 -0.96124818533E+03  0.39615739224E+03  0.10401701810E+04  0.12699999809E+01 0.  1.
       -4    1    3    3    0  502 -0.31837703913E+02  0.96124818533E+03 -0.95198269011E+03  0.13532495588E+04  0.12699999809E+01 0. -1.
</event>
<event>
 5   0  0.4436695E-05  0.2287535E+04  0.7818609E-02  0.8482852E-01
        2   -1    0    0  501    0  0.00000000000E+00  0.00000000000E+00  0.46781035645E+03  0.46781035646E+03  0.25500000920E-02 0.  1.
       -2   -1    0    0    0  501  0.00000000000E+00  0.00000000000E+00 -0.27964418526E+04  0.27964418526E+04  0.25500000920E-02 0. -1.
    10030    2    1    2    0    0  0.00000000000E+00  0.00000000000E+00 -0.23286314961E+04  0.32642522090E+04  0.22875353198E+04 0.  0.
        5    1    3    3  502    0  0.12658924357E+03  0.11174353634E+04 -0.14619200942E+04  0.18444292017E+04  0.46999998093E+01 0. -1.
       -5    1    3    3    0  502 -0.12658924357E+03 -0.11174353634E+04 -0.86671140190E+03  0.14198230074E+04  0.46999998093E+01 0.  1.
</event>
<event>
 5   0  0.1604500E-05  0.2295727E+04  0.7818609E-02  0.8479608E-01
       -4   -1    0    0    0  501  0.00000000000E+00  0.00000000000E+00  0.10293597965E+04  0.10293605799E+04  0.12699999809E+01 0.  1.
        4   -1    0    0  501    0  0.00000000000E+00  0.00000000000E+00 -0.12800077709E+04  0.12800084010E+04  0.12699999809E+01 0. -1.
    10030    2    1    2    0    0  0.00000000000E+00  0.00000000000E+00 -0.25064797445E+03  0.23093689809E+04  0.22957266133E+04 0.  0.
        3    1    3    3  502    0 -0.67126855055E+03 -0.88807761369E+03 -0.40682050332E+03  0.11852367894E+04  0.10100000352E+00 0. -1.
       -3    1    3    3    0  502  0.67126855055E+03  0.88807761369E+03  0.15617252887E+03  0.11241321915E+04  0.10100000352E+00 0.  1.
</event>
<event>
 5   0  0.4436695E-05  0.2316386E+04  0.7818609E-02  0.8471488E-01
       -2   -1    0    0    0  501  0.00000000000E+00  0.00000000000E+00  0.87755738367E+03  0.87755738367E+03  0.25500000920E-02 0.  1.
        2   -1    0    0  501    0  0.00000000000E+00  0.00000000000E+00 -0.15285735428E+04  0.15285735428E+04  0.25500000920E-02 0. -1.
    10030    2    1    2    0    0  0.00000000000E+00  0.00000000000E+00 -0.65101615912E+03  0.24061309265E+04  0.23163859773E+04 0.  0.
        5    1    3    3  502    0  0.46275426887E+03  0.78424188013E+03 -0.10689263526E+04  0.14042088438E+04  0.46999998093E+01 0. -1.
       -5    1    3    3    0  502 -0.46275426887E+03 -0.78424188013E+03  0.41791019343E+03  0.10019220826E+04  0.46999998093E+01 0.  1.
</event>
<event>
 5   0  0.2043885E-05  0.2306862E+04  0.7818609E-02  0.8475220E-01
       -1   -1    0    0    0  501  0.00000000000E+00  0.00000000000E+00  0.95468808263E+03  0.95468808264E+03  0.50400001928E-02 0. -1.
        1   -1    0    0  501    0  0.00000000000E+00  0.00000000000E+00 -0.13935477868E+04  0.13935477868E+04  0.50400001928E-02 0.  1.
    10030    2    1    2    0    0  0.00000000000E+00  0.00000000000E+00 -0.43885970414E+03  0.23482358694E+04  0.23068623406E+04 0.  0.
        5    1    3    3  502    0  0.78494224278E+03 -0.75468207312E+02  0.63742207904E+03  0.10139816427E+04  0.46999998093E+01 0. -1.
       -5    1    3    3    0  502 -0.78494224278E+03  0.75468207312E+02 -0.10762817832E+04  0.13342542268E+04  0.46999998093E+01 0.  1.
</event>
<event>
 5   0  0.2042951E-05  0.2296618E+04  0.7818609E-02  0.8479256E-01
        1   -1    0    0  501    0  0.00000000000E+00  0.00000000000E+00  0.69933128933E+03  0.69933128935E+03  0.50400001928E-02 0.  1.
       -1   -1    0    0    0  501  0.00000000000E+00  0.00000000000E+00 -0.18855342047E+04  0.18855342047E+04  0.50400001928E-02 0. -1.
    10030    2    1    2    0    0  0.00000000000E+00  0.00000000000E+00 -0.11862029153E+04  0.25848654940E+04  0.22966175707E+04 0.  0.
        2    1    3    3  502    0 -0.31342054267E+03  0.43408247877E+03 -0.17364515510E+04  0.18171197054E+04  0.25500000920E-02 0. -1.
       -2    1    3    3    0  502  0.31342054267E+03 -0.43408247877E+03  0.55024863562E+03  0.76774578862E+03  0.25500000920E-02 0.  1.
</event>
<event>
 5   0  0.4605516E-05  0.2306723E+04  0.7818609E-02  0.8475275E-01
        2   -1    0    0  501    0  0.00000000000E+00  0.00000000000E+00  0.12115643580E+04  0.12115643580E+04  0.25500000920E-02 0. -1.
       -2   -1    0    0    0  501  0.00000000000E+00  0.00000000000E+00 -0.10979543934E+04  0.10979543934E+04  0.25500000920E-02 0.  1.
    10030    2    1    2    0    0  0.00000000000E+00  0.00000000000E+00  0.11360996463E+03  0.23095187515E+04  0.23067227053E+04 0.  0.
        1    1    3    3  502    0  0.10661901762E+04 -0.28140016784E+03 -0.28168004193E+03  0.11381086031E+04  0.50400001928E-02 0.  1.
       -1    1    3    3    0  502 -0.10661901762E+04  0.28140016784E+03  0.39529000657E+03  0.11714101484E+04  0.50400001928E-02 0. -1.
</event>
<event>
 5   0  0.2031860E-05  0.2300208E+04  0.7818609E-02  0.8477839E-01
        1   -1    0    0  501    0  0.00000000000E+00  0.00000000000E+00  0.15102694640E+04  0.15102694640E+04  0.50400001928E-02 0. -1.
       -1   -1    0    0    0  501  0.00000000000E+00  0.00000000000E+00 -0.87583018669E+03  0.87583018671E+03  0.50400001928E-02 0.  1.
    10030    2    1    2    0    0  0.00000000000E+00  0.00000000000E+00  0.63443927734E+03  0.23860996508E+04  0.23002083268E+04 0.  0.
        4    1    3    3  502    0 -0.91300609850E+03 -0.35407512124E+03 -0.30845129009E+03  0.10266903811E+04  0.12699999809E+01 0.  1.
       -4    1    3    3    0  502  0.91300609850E+03  0.35407512124E+03  0.94289056743E+03  0.13594092697E+04  0.12699999809E+01 0. -1.
</event>
<event>
 5   0  0.4602447E-05  0.2275237E+04  0.7818609E-02  0.8487749E-01
       -2   -1    0    0    0  501  0.00000000000E+00  0.00000000000E+00  0.58123651497E+03  0.58123651498E+03  0.25500000920E-02 0. -1.
        2   -1    0    0  501    0  0.00000000000E+00  0.00000000000E+00 -0.22265912314E+04  0.22265912314E+04  0.25500000920E-02 0.  1.
    10030    2    1    2    0    0  0.00000000000E+00  0.00000000000E+00 -0.16453547164E+04  0.28078277463E+04  0.22752372427E+04 0.  0.
        3    1    3    3  502    0 -0.35487670177E+03  0.22378195840E+03  0.48227844681E+03  0.63922480304E+03  0.10100000352E+00 0. -1.
       -3    1    3    3    0  502  0.35487670177E+03 -0.22378195840E+03 -0.21276331632E+04  0.21686029433E+04  0.10100000352E+00 0.  1.
</event>
<event>
 5   0  0.2043885E-05  0.2168393E+04  0.7818609E-02  0.8531700E-01
        1   -1    0    0  501    0  0.00000000000E+00  0.00000000000E+00  0.10168482859E+04  0.10168482859E+04  0.50400001928E-02 0.  1.
       -1   -1    0    0    0  501  0.00000000000E+00  0.00000000000E+00 -0.11560057026E+04  0.11560057026E+04  0.50400001928E-02 0. -1.
    10030    2    1    2    0    0  0.00000000000E+00  0.00000000000E+00 -0.13915741669E+03  0.21728539885E+04  0.21683933381E+04 0.  0.
        5    1    3    3  502    0 -0.10048164172E+04 -0.35299642412E+03 -0.27296870721E+03  0.10994528243E+04  0.46999998093E+01 0. -1.
       -5    1    3    3    0  502  0.10048164172E+04  0.35299642412E+03  0.13381129053E+03  0.10734011642E+04  0.46999998093E+01 0.  1.
</event>
<event>
 5   0  0.1968318E-05  0.2325728E+04  0.7818609E-02  0.8467846E-01
        1   -1    0    0  501    0  0.00000000000E+00  0.00000000000E+00  0.98608701568E+03  0.98608701570E+03  0.50400001928E-02 0. -1.
       -1   -1    0    0    0  501  0.00000000000E+00  0.00000000000E+00 -0.13713314546E+04  0.13713314546E+04  0.50400001928E-02 0.  1.
    10030    2    1    2    0    0  0.00000000000E+00  0.00000000000E+00 -0.38524443891E+03  0.23574184703E+04  0.23257275349E+04 0.  0.
        3    1    3    3  502    0 -0.62747525001E+03 -0.58749956504E+03  0.60122977198E+03  0.10489795886E+04  0.10100000352E+00 0. -1.
       -3    1    3    3    0  502  0.62747525001E+03  0.58749956504E+03 -0.98647421089E+03  0.13084388817E+04  0.10100000352E+00 0.  1.
</event>
<event>
 5   0  0.1604500E-05  0.2221423E+04  0.7818609E-02  0.8509564E-01
       -3   -1    0    0    0  501  0.00000000000E+00  0.00000000000E+00  0.30206165453E+04  0.30206165470E+04  0.10100000352E+00 0. -1.
        3   -1    0    0  501    0  0.00000000000E+00  0.00000000000E+00 -0.40841986589E+03  0.40841987838E+03  0.10100000352E+00 0.  1.
    10030    2    1    2    0    0  0.00000000000E+00  0.00000000000E+00  0.26121966794E+04  0.34290364254E+04  0.22214228131E+04 0.  0.
        4    1    3    3  502    0 -0.17505664554E+03 -0.88865843739E+03  0.22984917103E+04  0.24705109599E+04  0.12699999809E+01 0. -1.
       -4    1    3    3    0  502  0.17505664554E+03  0.88865843739E+03  0.31370496911E+03  0.95852546551E+03  0.12699999809E+01 0.  1.
</event>
<event>
 5   0  0.4798609E-05  0.2302186E+04  0.7818609E-02  0.8477060E-01
        2   -1    0    0  501    0  0.00000000000E+00  0.00000000000E+00  0.15084151564E+04  0.15084151564E+04  0.25500000920E-02 0. -1.
       -2   -1    0    0    0  501  0.00000000000E+00  0.00000000000E+00 -0.87841547789E+03  0.87841547789E+03  0.25500000920E-02 0.  1.
    10030    2    1    2    0    0  0.00000000000E+00  0.00000000000E+00  0.62999967851E+03  0.23868306343E+04  0.23021861093E+04 0.  0.
        2    1    3    3  502    0 -0.92562098181E+03 -0.51966349496E+03 -0.14655466830E+03  0.10715888301E+04  0.25500000920E-02 0.  1.
       -2    1    3    3    0  502  0.92562098181E+03  0.51966349496E+03  0.77655434681E+03  0.13152418042E+04  0.25500000920E-02 0. -1.
</event>
<event>
 5   0  0.4436695E-05  0.2313351E+04  0.7818609E-02  0.8472675E-01
        2   -1    0    0  501    0  0.00000000000E+00  0.00000000000E+00  0.11625527345E+04  0.11625527345E+04  0.25500000920E-02 0.  1.
       -2   -1    0    0    0  501  0.00000000000E+00  0.00000000000E+00 -0.11508284433E+04  0.11508284433E+04  0.25500000920E-02 0. -1.
    10030    2    1    2    0    0  0.00000000000E+00  0.00000000000E+00  0.11724291268E+02  0.23133811778E+04  0.23133514680E+04 0.  0.
        5    1    3    3  502    0 -0.14339660512E+03 -0.19457768249E+03  0.11370060208E+04  0.11624232629E+04  0.46999998093E+01 0.  1.
       -5    1    3    3    0  502  0.14339660512E+03  0.19457768249E+03 -0.11252817295E+04  0.11509579148E+04  0.46999998093E+01 0. -1.
</event>
<event>
 5   0  0.2031860E-05  0.2317624E+04  0.7818609E-02  0.8471004E-01
        1   -1    0    0  501    0  0.00000000000E+00  0.00000000000E+00  0.11284579979E+04  0.11284579979E+04  0.50400001928E-02 0.  1.
       -1   -1    0    0    0  501  0.00000000000E+00  0.00000000000E+00 -0.11899824354E+04  0.11899824354E+04  0.50400001928E-02 0. -1.
    10030    2    1    2    0    0  0.00000000000E+00  0.00000000000E+00 -0.61524437505E+02  0.23184404334E+04  0.23176239528E+04 0.  0.
        4    1    3    3  502    0 -0.97559323502E+03 -0.62347672628E+03  0.17609705686E+02  0.11579365713E+04  0.12699999809E+01 0. -1.
       -4    1    3    3    0  502  0.97559323502E+03  0.62347672628E+03 -0.79134143190E+02  0.11605038621E+04  0.12699999809E+01 0.  1.
</event>
<event>
 5   0  0.4505107E-05  0.2327626E+04  0.7818609E-02  0.8467108E-01
        2   -1    0    0  501    0  0.00000000000E+00  0.00000000000E+00  0.15021564173E+04  0.15021564173E+04  0.25500000920E-02 0.  1.
       -2   -1    0    0    0  501  0.00000000000E+00  0.00000000000E+00 -0.90167762279E+03  0.90167762280E+03  0.25500000920E-02 0. -1.
    10030    2    1    2    0    0  0.00000000000E+00  0.00000000000E+00  0.60047879454E+03  0.24038340401E+04  0.23276261104E+04 0.  0.
        4    1    3    3  502    0 -0.33604976626E+02 -0.90397954048E+03 -0.45595731433E+03  0.10130187508E+04  0.12699999809E+01 0. -1.
       -4    1    3    3    0  502  0.33604976626E+02  0.90397954048E+03  0.10564361089E+04  0.13908152894E+04  0.12699999809E+01 0.  1.
</event>
<event>
 5   0  0.2043885E-05  0.2306040E+04  0.7818609E-02  0.8475543E-01
       -1   -1    0    0    0  501  0.00000000000E+00  0.00000000000E+00  0.12704129536E+04  0.12704129536E+04  0.50400001928E-02 0. -1.
        1   -1    0    0  501    0  0.00000000000E+00  0.00000000000E+00 -0.10464749864E+04  0.10464749864E+04  0.50400001928E-02 0.  1.
    10030    2    1    2    0    0  0.00000000000E+00  0.00000000000E+00  0.22393796717E+03  0.23168879401E+04  0.23060402238E+04 0.  0.
        5    1    3    3  502    0 -0.79852414626E+03  0.55952586147E+02 -0.72179118260E+03  0.10778571823E+04  0.46999998093E+01 0.  1.
       -5    1    3    3    0  502  0.79852414626E+03 -0.55952586147E+02  0.94572914977E+03  0.12390307578E+04  0.46999998093E+01 0. -1.
</event>
<event>
 5   0  0.4798609E-05  0.2314770E+04  0.7818609E-02  0.8472120E-01
        2   -1    0    0  501    0  0.00000000000E+00  0.00000000000E+00  0.13401751977E+04  0.13401751977E+04  0.25500000920E-02 0. -1.
       -2   -1    0    0    0  501  0.00000000000E+00  0.00000000000E+00 -0.99952634137E+03  0.99952634138E+03  0.25500000920E-02 0.  1.
    10030    2    1    2    0    0  0.00000000000E+00  0.00000000000E+00  0.34064885628E+03  0.23397015390E+04  0.23147703231E+04 0.  0.
        2    1    3    3  502    0  0.10064424566E+04  0.31680801840E+03 -0.31045254169E+03  0.10998520444E+04  0.25500000920E-02 0.  1.
       -2    1    3    3    0  502 -0.10064424566E+04 -0.31680801840E+03  0.65110139798E+03  0.12398494946E+04  0.25500000920E-02 0. -1.
</event>
<event>
 5   0  0.4602447E-05  0.2306647E+04  0.7818609E-02  0.8475305E-01
        2   -1    0    0  501    0  0.00000000000E+00  0.00000000000E+00  0.95560217435E+03  0.95560217435E+03  0.25500000920E-02 0.  1.
       -2   -1    0    0    0  501  0.00000000000E+00  0.00000000000E+00 -0.13919550211E+04  0.13919550211E+04  0.25500000920E-02 0. -1.
    10030    2    1    2    0    0  0.00000000000E+00  0.00000000000E+00 -0.43635284675E+03  0.23475571955E+04  0.23066471293E+04 0.  0.
        3    1    3    3  502    0 -0.98265389753E+03 -0.58154793847E+03 -0.38337768526E+03  0.12044854282E+04  0.10100000352E+00 0. -1.
       -3    1    3    3    0  502  0.98265389753E+03  0.58154793847E+03 -0.52975161491E+02  0.11430717672E+04  0.10100000352E+00 0.  1.
</event>
<event>
 5   0  0.2042951E-05  0.2273924E+04  0.7818609E-02  0.8488274E-01
        1   -1    0    0  501    0  0.00000000000E+00  0.00000000000E+00  0.18006733802E+04  0.18006733802E+04  0.50400001928E-02 0. -1.
       -1   -1    0    0    0  501  0.00000000000E+00  0.00000000000E+00 -0.71788867332E+03  0.71788867334E+03  0.50400001928E-02 0.  1.
    10030    2    1    2    0    0  0.00000000000E+00  0.00000000000E+00  0.10827847069E+04  0.25185620535E+04  0.22739243822E+04 0.  0.
        2    1    3    3  502    0 -0.23766951755E+01  0.11337685665E+04  0.63567509080E+03  0.12998152300E+04  0.25500000920E-02 0. -1.
       -2    1    3    3    0  502  0.23766951755E+01 -0.11337685665E+04  0.44710961608E+03  0.12187468235E+04  0.25500000920E-02 0.  1.
</event>
<event>
 5   0  0.2043885E-05  0.2303781E+04  0.7818609E-02  0.8476432E-01
        1   -1    0    0  501    0  0.00000000000E+00  0.00000000000E+00  0.14996839314E+04  0.14996839314E+04  0.50400001928E-02 0.  1.
       -1   -1    0    0    0  501  0.00000000000E+00  0.00000000000E+00 -0.88475435989E+03  0.88475435990E+03  0.50400001928E-02 0. -1.
    10030    2    1    2    0    0  0.00000000000E+00  0.00000000000E+00  0.61492957153E+03  0.23844382913E+04  0.23037811500E+04 0.  0.
        5    1    3    3  502    0  0.73296739900E+03  0.86194114241E+03  0.83926262592E+02  0.11345701602E+04  0.46999998093E+01 0.  1.
       -5    1    3    3    0  502 -0.73296739900E+03 -0.86194114241E+03  0.53100330894E+03  0.12498681311E+04  0.46999998093E+01 0. -1.
</event>
<event>
 5   0  0.4602447E-05  0.2232643E+04  0.7818609E-02  0.8504963E-01
        2   -1    0    0  501    0  0.00000000000E+00  0.00000000000E+00  0.22256909770E+04  0.22256909770E+04  0.25500000920E-02 0.  1.
       -2   -1    0    0    0  501  0.00000000000E+00  0.00000000000E+00 -0.55990435332E+03  0.55990435333E+03  0.25500000920E-02 0. -1.
    10030    2    1    2    0    0  0.00000000000E+00  0.00000000000E+00  0.16657866236E+04  0.27855953303E+04  0.22326433366E+04 0.  0.
        3    1    3    3  502    0 -0.10953148886E+02  0.10561111240E+04  0.12839268674E+04  0.16625158312E+04  0.10100000352E+00 0.  1.
       -3    1    3    3    0  502  0.10953148886E+02 -0.10561111240E+04  0.38185975619E+03  0.11230794991E+04  0.10100000352E+00 0. -1.
</event>
<event>
 5   0  0.4602447E-05  0.2285265E+04  0.7818609E-02  0.8483754E-01
        2   -1    0    0  501    0  0.00000000000E+00  0.00000000000E+00  0.18523847722E+04  0.18523847722E+04  0.25500000920E-02 0. -1.
       -2   -1    0    0    0  501  0.00000000000E+00  0.00000000000E+00 -0.70482579031E+03  0.70482579031E+03  0.25500000920E-02 0.  1.
    10030    2    1    2    0    0  0.00000000000E+00  0.00000000000E+00  0.11475589819E+04  0.25572105625E+04  0.22852645895E+04 0.  0.
        3    1    3    3  502    0 -0.11110001818E+04 -0.21291436965E+03  0.75405524497E+03  0.13595047831E+04  0.10100000352E+00 0.  1.
       -3    1    3    3    0  502  0.11110001818E+04  0.21291436965E+03  0.39350373689E+03  0.11977057793E+04  0.10100000352E+00 0. -1.
</event>
<event>
 5   0  0.4798609E-05  0.2296499E+04  0.7818609E-02  0.8479303E-01
        2   -1    0    0  501    0  0.00000000000E+00  0.00000000000E+00  0.22849606908E+04  0.22849606908E+04  0.25500000920E-02 0.  1.
       -2   -1    0    0    0  501  0.00000000000E+00  0.00000000000E+00 -0.57702397841E+03  0.57702397841E+03  0.25500000920E-02 0. -1.
    10030    2    1    2    0    0  0.00000000000E+00  0.00000000000E+00  0.17079367123E+04  0.28619846692E+04  0.22964991690E+04 0.  0.
        2    1    3    3  502    0 -0.57494850069E+03  0.49463507491E+03 -0.22043592687E+03  0.78982379910E+03  0.25500000920E-02 0. -1.
       -2    1    3    3    0  502  0.57494850069E+03 -0.49463507491E+03  0.19283726392E+04  0.20721608701E+04  0.25500000920E-02 0.  1.
</event>
<event>
 5   0  0.2085063E-05  0.2278369E+04  0.7818609E-02  0.8486499E-01
       -1   -1    0    0    0  501  0.00000000000E+00  0.00000000000E+00  0.16644260714E+04  0.16644260714E+04  0.50400001928E-02 0.  1.
        1   -1    0    0  501    0  0.00000000000E+00  0.00000000000E+00 -0.77969325900E+03  0.77969325901E+03  0.50400001928E-02 0. -1.
    10030    2    1    2    0    0  0.00000000000E+00  0.00000000000E+00  0.88473281244E+03  0.24441193305E+04  0.22783694064E+04 0.  0.
        1    1    3    3  502    0 -0.25618928410E+03  0.81194623254E+03  0.12542981867E+04  0.15159662183E+04  0.50400001928E-02 0.  1.
       -1    1    3    3    0  502  0.25618928410E+03 -0.81194623254E+03 -0.36956537423E+03  0.92815311219E+03  0.50400001928E-02 0. -1.
</event>
<event>
 5   0  0.4505107E-05  0.2294812E+04  0.7818609E-02  0.8479969E-01
       -2   -1    0    0    0  501  0.00000000000E+00  0.00000000000E+00  0.11268125267E+04  0.11268125267E+04  0.25500000920E-02 0.  1.
        2   -1    0    0  501    0  0.00000000000E+00  0.00000000000E+00 -0.11683761196E+04  0.11683761196E+04  0.25500000920E-02 0. -1.
    10030    2    1    2    0    0  0.00000000000E+00  0.00000000000E+00 -0.41563592952E+02  0.22951886463E+04  0.22948122777E+04 0.  0.
        4    1    3    3  502    0 -0.53549181570E+03  0.91531890196E+02 -0.10315956913E+04  0.11658991615E+04  0.12699999809E+01 0. -1.
       -4    1    3    3    0  502  0.53549181570E+03 -0.91531890196E+02  0.99003209838E+03  0.11292894847E+04  0.12699999809E+01 0.  1.
</event>
<event>
 5   0  0.4602447E-05  0.2251708E+04  0.7818609E-02  0.8497209E-01
       -2   -1    0    0    0  501  0.00000000000E+00  0.00000000000E+00  0.14724825405E+04  0.14724825405E+04  0.25500000920E-02 0. -1.
        2   -1    0    0  501    0  0.00000000000E+00  0.00000000000E+00 -0.86082352460E+03  0.86082352460E+03  0.25500000920E-02 0.  1.
    10030    2    1    2    0    0  0.00000000000E+00  0.00000000000E+00  0.61165901587E+03  0.23333060651E+04  0.22517083385E+04 0.  0.
        3    1    3    3  502    0  0.16990575281E+02  0.11012901936E+04  0.54756152416E+03  0.12300213019E+04  0.10100000352E+00 0. -1.
       -3    1    3    3    0  502 -0.16990575281E+02 -0.11012901936E+04  0.64097491711E+02  0.11032847632E+04  0.10100000352E+00 0.  1.
</event>
<event>
 5   0  0.2042951E-05  0.2118455E+04  0.7818609E-02  0.8553157E-01
        1   -1    0    0  501    0  0.00000000000E+00  0.00000000000E+00  0.29334096906E+04  0.29334096906E+04  0.50400001928E-02 0. -1.
       -1   -1    0    0    0  501  0.00000000000E+00  0.00000000000E+00 -0.38247739702E+03  0.38247739706E+03  0.50400001928E-02 0.  1.
    10030    2    1    2    0    0  0.00000000000E+00  0.00000000000E+00  0.25509322936E+04  0.33158870877E+04  0.21184550058E+04 0.  0.
        2    1    3    3  502    0 -0.42587818640E+03  0.76045440895E+03  0.33332815861E+03  0.93315100551E+03  0.25500000920E-02 0.  1.
       -2    1    3    3    0  502  0.42587818640E+03 -0.76045440895E+03  0.22176041350E+04  0.23827360822E+04  0.25500000920E-02 0. -1.
</event>
<event>
 5   0  0.2085063E-05  0.2295024E+04  0.7818609E-02  0.8479885E-01
       -1   -1    0    0    0  501  0.00000000000E+00  0.00000000000E+00  0.94981507029E+03  0.94981507031E+03  0.50400001928E-02 0.  1.
        1   -1    0    0  501    0  0.00000000000E+00  0.00000000000E+00 -0.13863586202E+04  0.13863586202E+04  0.50400001928E-02 0. -1.
    10030    2    1    2    0    0  0.00000000000E+00  0.00000000000E+00 -0.43654354994E+03  0.23361736905E+04  0.22950244533E+04 0.  0.
        1    1    3    3  502    0  0.30368410385E+03 -0.83504644610E+03  0.52087260689E+03  0.10299683853E+04  0.50400001928E-02 0.  1.
       -1    1    3    3    0  502 -0.30368410385E+03  0.83504644610E+03 -0.95741615683E+03  0.13062053052E+04  0.50400001928E-02 0. -1.
</event>
<event>
 5   0  0.4605516E-05  0.2216282E+04  0.7818609E-02  0.8511682E-01
        2   -1    0    0  501    0  0.00000000000E+00  0.00000000000E+00  0.11696543333E+04  0.11696543333E+04  0.25500000920E-02 0. -1.
       -2   -1    0    0    0  501  0.00000000000E+00  0.00000000000E+00 -0.10498629174E+04  0.10498629174E+04  0.25500000920E-02 0.  1.
    10030    2    1    2    0    0  0.00000000000E+00  0.00000000000E+00  0.11979141586E+03  0.22195172507E+04  0.22162822119E+04 0.  0.
        1    1    3    3  502    0 -0.58521543796E+03  0.41501753045E+03  0.90567571379E+03  0.11554069231E+04  0.50400001928E-02 0. -1.
       -1    1    3    3    0  502  0.58521543796E+03 -0.41501753045E+03 -0.78588429794E+03  0.10641103275E+04  0.50400001928E-02 0.  1.
</event>
<event>
 5   0  0.2043885E-05  0.2295082E+04  0.7818609E-02  0.8479863E-01
       -1   -1    0    0    0  501  0.00000000000E+00  0.00000000000E+00  0.15453939136E+04  0.15453939136E+04  0.50400001928E-02 0. -1.
        1   -1    0    0  501    0  0.00000000000E+00  0.00000000000E+00 -0.85211319754E+03  0.85211319756E+03  0.50400001928E-02 0.  1.
    10030    2    1    2    0    0  0.00000000000E+00  0.00000000000E+00  0.69328071608E+03  0.23975071112E+04  0.22950821765E+04 0.  0.
        5    1    3    3  502    0  0.29793249915E+03 -0.80462528818E+01  0.15042465391E+04  0.15334954374E+04  0.46999998093E+01 0. -1.
       -5    1    3    3    0  502 -0.29793249915E+03  0.80462528818E+01 -0.81096582303E+03  0.86401167374E+03  0.46999998093E+01 0.  1.
</event>
<event>
 5   0  0.2085063E-05  0.2293908E+04  0.7818609E-02  0.8480327E-01
        1   -1    0    0  501    0  0.00000000000E+00  0.00000000000E+00  0.13033924723E+04  0.13033924723E+04  0.50400001928E-02 0. -1.
       -1   -1    0    0    0  501  0.00000000000E+00  0.00000000000E+00 -0.10092916073E+04  0.10092916073E+04  0.50400001928E-02 0.  1.
    10030    2    1    2    0    0  0.00000000000E+00  0.00000000000E+00  0.29410086499E+03  0.23126840796E+04  0.22939076558E+04 0.  0.
        1    1    3    3  502    0  0.93818576123E+03  0.26868916884E+03  0.75457449808E+03  0.12336000426E+04  0.50400001928E-02 0. -1.
       -1    1    3    3    0  502 -0.93818576123E+03 -0.26868916884E+03 -0.46047363309E+03  0.10790840370E+04  0.50400001928E-02 0.  1.
</event>
<event>
 5   0  0.4602447E-05  0.2287565E+04  0.7818609E-02  0.8482840E-01
       -2   -1    0    0    0  501  0.00000000000E+00  0.00000000000E+00  0.15935113854E+04  0.15935113854E+04  0.25500000920E-02 0. -1.
        2   -1    0    0  501    0  0.00000000000E+00  0.00000000000E+00 -0.82097868658E+03  0.82097868658E+03  0.25500000920E-02 0.  1.
    10030    2    1    2    0    0  0.00000000000E+00  0.00000000000E+00  0.77253269883E+03  0.24144900720E+04  0.22875654170E+04 0.  0.
        3    1    3    3  502    0 -0.16397662378E+03  0.37103538813E+03  0.15150346069E+04  0.15684022006E+04  0.10100000352E+00 0. -1.
       -3    1    3    3    0  502  0.16397662378E+03 -0.37103538813E+03 -0.74250190811E+03  0.84608787140E+03  0.10100000352E+00 0.  1.
</event>
<event>
 5   0  0.2085063E-05  0.2295685E+04  0.7818609E-02  0.8479625E-01
       -1   -1    0    0    0  501  0.00000000000E+00  0.00000000000E+00  0.70575733826E+03  0.70575733828E+03  0.50400001928E-02 0. -1.
        1   -1    0    0  501    0  0.00000000000E+00  0.00000000000E+00 -0.18668484943E+04  0.18668484943E+04  0.50400001928E-02 0.  1.
    10030    2    1    2    0    0  0.00000000000E+00  0.00000000000E+00 -0.11610911560E+04  0.25726058325E+04  0.22956846685E+04 0.  0.
        1    1    3    3  502    0  0.29796011053E+03  0.52412586537E+03 -0.16751254703E+04  0.17803183680E+04  0.50400001928E-02 0.  1.
       -1    1    3    3    0  502 -0.29796011053E+03 -0.52412586537E+03  0.51403431428E+03  0.79228746456E+03  0.50400001928E-02 0. -1.
</event>
<event>
 5   0  0.2085063E-05  0.2295028E+04  0.7818609E-02  0.8479884E-01
        1   -1    0    0  501    0  0.00000000000E+00  0.00000000000E+00  0.14915868107E+04  0.14915868107E+04  0.50400001928E-02 0. -1.
       -1   -1    0    0    0  501  0.00000000000E+00  0.00000000000E+00 -0.88281037105E+03  0.88281037107E+03  0.50400001928E-02 0.  1.
    10030    2    1    2    0    0  0.00000000000E+00  0.00000000000E+00  0.60877643966E+03  0.23743971818E+04  0.22950279352E+04 0.  0.
        1    1    3    3  502    0 -0.44846846197E+03 -0.25572071618E+03 -0.75588094836E+03  0.91535405947E+03  0.50400001928E-02 0.  1.
       -1    1    3    3    0  502  0.44846846197E+03  0.25572071618E+03  0.13646573880E+04  0.14590431223E+04  0.50400001928E-02 0. -1.
</event>
<event>
 5   0  0.2042951E-05  0.2315677E+04  0.7818609E-02  0.8471765E-01
        1   -1    0    0  501    0  0.00000000000E+00  0.00000000000E+00  0.14858578939E+04  0.14858578939E+04  0.50400001928E-02 0.  1.
       -1   -1    0    0    0  501  0.00000000000E+00  0.00000000000E+00 -0.90223327987E+03  0.90223327989E+03  0.50400001928E-02 0. -1.
    10030    2    1    2    0    0  0.00000000000E+00  0.00000000000E+00  0.58362461407E+03  0.23880911738E+04  0.23156773878E+04 0.  0.
        2    1    3    3  502    0  0.17254154318E+03  0.10542599119E+04  0.75226751567E+03  0.13065760449E+04  0.25500000920E-02 0.  1.
       -2    1    3    3    0  502 -0.17254154318E+03 -0.10542599119E+04 -0.16864290160E+03  0.10815151290E+04  0.25500000920E-02 0. -1.
</event>
<event>
 5   0  0.4605516E-05  0.2305116E+04  0.7818609E-02  0.8475907E-01
       -2   -1    0    0    0  501  0.00000000000E+00  0.00000000000E+00  0.92259495216E+03  0.92259495216E+03  0.25500000920E-02 0. -1.
        2   -1    0    0  501    0  0.00000000000E+00  0.00000000000E+00 -0.14398406723E+04  0.14398406723E+04  0.25500000920E-02 0.  1.
    10030    2    1    2    0    0  0.00000000000E+00  0.00000000000E+00 -0.51724572015E+03  0.23624356245E+04  0.23051158202E+04 0.  0.
        1    1    3    3  502    0  0.20416074720E+03 -0.11290423519E+04 -0.14648780749E+03  0.11566662962E+04  0.50400001928E-02 0.  1.
       -1    1    3    3    0  502 -0.20416074720E+03  0.11290423519E+04 -0.37075791266E+03  0.12057693282E+04  0.50400001928E-02 0. -1.
</event>
<event>
 5   0  0.1604500E-05  0.2292424E+04  0.7818609E-02  0.8480914E-01
       -3   -1    0    0    0  501  0.00000000000E+00  0.00000000000E+00  0.17695638966E+04  0.17695638994E+04  0.10100000352E+00 0.  1.
        3   -1    0    0  501    0  0.00000000000E+00  0.00000000000E+00 -0.74244383579E+03  0.74244384266E+03  0.10100000352E+00 0. -1.
    10030    2    1    2    0    0  0.00000000000E+00  0.00000000000E+00  0.10271200608E+04  0.25120077421E+04  0.22924238869E+04 0.  0.
        4    1    3    3  502    0 -0.43868020121E+03 -0.33376593680E+03  0.16147903890E+04  0.17062794709E+04  0.12699999809E+01 0.  1.
       -4    1    3    3    0  502  0.43868020121E+03  0.33376593680E+03 -0.58767032821E+03  0.80572827123E+03  0.12699999809E+01 0. -1.
</event>
<event>
 5   0  0.4602447E-05  0.2304248E+04  0.7818609E-02  0.8476248E-01
       -2   -1    0    0    0  501  0.00000000000E+00  0.00000000000E+00  0.13703397563E+04  0.13703397563E+04  0.25500000920E-02 0. -1.
        2   -1    0    0  501    0  0.00000000000E+00  0.00000000000E+00 -0.96865712876E+03  0.96865712876E+03  0.25500000920E-02 0.  1.
    10030    2    1    2    0    0  0.00000000000E+00  0.00000000000E+00  0.40168262749E+03  0.23389968850E+04  0.23042477069E+04 0.  0.
        3    1    3    3  502    0 -0.84438487590E+03 -0.64086485186E+03 -0.25729160872E+03  0.10908219649E+04  0.10100000352E+00 0.  1.
       -3    1    3    3    0  502  0.84438487590E+03  0.64086485186E+03  0.65897423621E+03  0.12481749201E+04  0.10100000352E+00 0. -1.
</event>
<event>
 5   0  0.4798609E-05  0.2317751E+04  0.7818609E-02  0.8470955E-01
        2   -1    0    0  501    0  0.00000000000E+00  0.00000000000E+00  0.15599891086E+04  0.15599891086E+04  0.25500000920E-02 0.  1.
       -2   -1    0    0    0  501  0.00000000000E+00  0.00000000000E+00 -0.86089879831E+03  0.86089879831E+03  0.25500000920E-02 0. -1.
    10030    2    1    2    0    0  0.00000000000E+00  0.00000000000E+00  0.69909031025E+03  0.24208879069E+04  0.23177512800E+04 0.  0.
        2    1    3    3  502    0 -0.37518862220E+03 -0.82894096849E+03  0.10991743794E+04  0.14269176388E+04  0.25500000920E-02 0.  1.
       -2    1    3    3    0  502  0.37518862220E+03  0.82894096849E+03 -0.40008406917E+03  0.99397026810E+03  0.25500000920E-02 0. -1.
</event>
<event>
 5   0  0.4605516E-05  0.2163473E+04  0.7818609E-02  0.8533787E-01
        2   -1    0    0  501    0  0.00000000000E+00  0.00000000000E+00  0.24865766741E+04  0.24865766741E+04  0.25500000920E-02 0. -1.
       -2   -1    0    0    0  501  0.00000000000E+00  0.00000000000E+00 -0.47058825973E+03  0.47058825974E+03  0.25500000920E-02 0.  1.
    10030    2    1    2    0    0  0.00000000000E+00  0.00000000000E+00  0.20159884144E+04  0.29571649338E+04  0.21634729393E+04 0.  0.
        1    1    3    3  502    0  0.15990389929E+03 -0.77021168628E+03  0.20229359481E+04  0.21704988249E+04  0.50400001928E-02 0. -1.
       -1    1    3    3    0  502 -0.15990389929E+03  0.77021168628E+03 -0.69475337467E+01  0.78666610893E+03  0.50400001928E-02 0.  1.
</event>
<event>
 5   0  0.4602447E-05  0.2297366E+04  0.7818609E-02  0.8478960E-01
        2   -1    0    0  501    0  0.00000000000E+00  0.00000000000E+00  0.13339444440E+04  0.13339444440E+04  0.25500000920E-02 0. -1.
       -2   -1    0    0    0  501  0.00000000000E+00  0.00000000000E+00 -0.98915142301E+03  0.98915142302E+03  0.25500000920E-02 0.  1.
    10030    2    1    2    0    0  0.00000000000E+00  0.00000000000E+00  0.34479302102E+03  0.23230958670E+04  0.22973663574E+04 0.  0.
        3    1    3    3  502    0 -0.88000763427E+02 -0.50455330157E+03  0.12120920526E+04  0.13158591576E+04  0.10100000352E+00 0. -1.
       -3    1    3    3    0  502  0.88000763427E+02  0.50455330157E+03 -0.86729903157E+03  0.10072367094E+04  0.10100000352E+00 0.  1.
</event>
<event>
 5   0  0.2085063E-05  0.2126827E+04  0.7818609E-02  0.8549517E-01
        1   -1    0    0  501    0  0.00000000000E+00  0.00000000000E+00  0.16411562166E+04  0.16411562166E+04  0.50400001928E-02 0. -1.
       -1   -1    0    0    0  501  0.00000000000E+00  0.00000000000E+00 -0.68905560354E+03  0.68905560356E+03  0.50400001928E-02 0.  1.
    10030    2    1    2    0    0  0.00000000000E+00  0.00000000000E+00  0.95210061306E+03  0.23302118202E+04  0.21268266383E+04 0.  0.
        1    1    3    3  502    0 -0.54343287641E+03  0.43292490553E+03 -0.40598479602E+03  0.80471542772E+03  0.50400001928E-02 0.  1.
       -1    1    3    3    0  502  0.54343287641E+03 -0.43292490553E+03  0.13580854091E+04  0.15254963924E+04  0.50400001928E-02 0. -1.
</event>
<event>
 5   0  0.1604500E-05  0.2099677E+04  0.7818609E-02  0.8561386E-01
       -3   -1    0    0    0  501  0.00000000000E+00  0.00000000000E+00  0.78404994284E+03  0.78404994934E+03  0.10100000352E+00 0.  1.
        3   -1    0    0  501    0  0.00000000000E+00  0.00000000000E+00 -0.14057281460E+04  0.14057281496E+04  0.10100000352E+00 0. -1.
    10030    2    1    2    0    0  0.00000000000E+00  0.00000000000E+00 -0.62167820316E+03  0.21897780990E+04  0.20996771977E+04 0.  0.
        4    1    3    3  502    0  0.14535880220E+03  0.33332098593E+03 -0.13379496566E+04  0.13864858303E+04  0.12699999809E+01 0. -1.
       -4    1    3    3    0  502 -0.14535880220E+03 -0.33332098593E+03  0.71627145344E+03  0.80329226870E+03  0.12699999809E+01 0.  1.
</event>
<event>
 5   0  0.4505107E-05  0.2292905E+04  0.7818609E-02  0.8480724E-01
        2   -1    0    0  501    0  0.00000000000E+00  0.00000000000E+00  0.96347783051E+03  0.96347783051E+03  0.25500000920E-02 0. -1.
       -2   -1    0    0    0  501  0.00000000000E+00  0.00000000000E+00 -0.13641757620E+04  0.13641757620E+04  0.25500000920E-02 0.  1.
    10030    2    1    2    0    0  0.00000000000E+00  0.00000000000E+00 -0.40069793147E+03  0.23276535925E+04  0.22929047984E+04 0.  0.
        4    1    3    3  502    0  0.13024887306E+03 -0.36351915203E+03  0.89547329659E+03  0.97518458798E+03  0.12699999809E+01 0. -1.
       -4    1    3    3    0  502 -0.13024887306E+03  0.36351915203E+03 -0.12961712281E+04  0.13524690045E+04  0.12699999809E+01 0.  1.
</event>
<event>
 5   0  0.4798609E-05  0.2304750E+04  0.7818609E-02  0.8476051E-01
       -2   -1    0    0    0  501  0.00000000000E+00  0.00000000000E+00  0.12180472148E+04  0.12180472148E+04  0.25500000920E-02 0.  1.
        2   -1    0    0  501    0  0.00000000000E+00  0.00000000000E+00 -0.10902432686E+04  0.10902432686E+04  0.25500000920E-02 0. -1.
    10030    2    1    2    0    0  0.00000000000E+00  0.00000000000E+00  0.12780394619E+03  0.23082904834E+04  0.23047496842E+04 0.  0.
        2    1    3    3  502    0 -0.20976599523E+03  0.67205096063E+03  0.97761574123E+03  0.12047351593E+04  0.25500000920E-02 0.  1.
       -2    1    3    3    0  502  0.20976599523E+03 -0.67205096063E+03 -0.84981179504E+03  0.11035553241E+04  0.25500000920E-02 0. -1.
</event>
<event>
 5   0  0.2042951E-05  0.2413467E+04  0.7818609E-02  0.8434479E-01
       -1   -1    0    0    0  501  0.00000000000E+00  0.00000000000E+00  0.66233859431E+03  0.66233859433E+03  0.50400001928E-02 0.  1.
        1   -1    0    0  501    0  0.00000000000E+00  0.00000000000E+00 -0.21985820628E+04  0.21985820628E+04  0.50400001928E-02 0. -1.
    10030    2    1    2    0    0  0.00000000000E+00  0.00000000000E+00 -0.15362434685E+04  0.28609206572E+04  0.24134670108E+04 0.  0.
        2    1    3    3  502    0  0.14671408524E+03  0.83434427724E+03  0.25059749258E+03  0.88343335859E+03  0.25500000920E-02 0.  1.
       -2    1    3    3    0  502 -0.14671408524E+03 -0.83434427724E+03 -0.17868409611E+04  0.19774872986E+04  0.25500000920E-02 0. -1.
</event>
<event>
 5   0  0.1604500E-05  0.2266413E+04  0.7818609E-02  0.8491283E-01
       -4   -1    0    0    0  501  0.00000000000E+00  0.00000000000E+00  0.14702674851E+04  0.14702680336E+04  0.12699999809E+01 0.  1.
        4   -1    0    0  501    0  0.00000000000E+00  0.00000000000E+00 -0.87341634244E+03  0.87341726577E+03  0.12699999809E+01 0. -1.
    10030    2    1    2    0    0  0.00000000000E+00  0.00000000000E+00  0.59685114261E+03  0.23436852993E+04  0.22664133550E+04 0.  0.
        5    1    3    3  502    0  0.51086846930E+03 -0.94598282081E+03  0.66877747902E+03  0.12661577693E+04  0.46999998093E+01 0. -1.
       -5    1    3    3    0  502 -0.51086846930E+03  0.94598282081E+03 -0.71926336406E+02  0.10775275301E+04  0.46999998093E+01 0.  1.
</event>
<event>
 5   0  0.4605516E-05  0.2296498E+04  0.7818609E-02  0.8479303E-01
        2   -1    0    0  501    0  0.00000000000E+00  0.00000000000E+00  0.11233417509E+04  0.11233417509E+04  0.25500000920E-02 0. -1.
       -2   -1    0    0    0  501  0.00000000000E+00  0.00000000000E+00 -0.11737081151E+04  0.11737081151E+04  0.25500000920E-02 0.  1.
    10030    2    1    2    0    0  0.00000000000E+00  0.00000000000E+00 -0.50366364230E+02  0.22970498660E+04  0.22964976194E+04 0.  0.
        1    1    3    3  502    0  0.91930637840E+03  0.31178065084E+03 -0.63863641125E+03  0.11619758420E+04  0.50400001928E-02 0.  1.
       -1    1    3    3    0  502 -0.91930637840E+03 -0.31178065084E+03  0.58827004702E+03  0.11350740239E+04  0.50400001928E-02 0. -1.
</event>
<event>
 5   0  0.2085063E-05  0.2210027E+04  0.7818609E-02  0.8514266E-01
       -1   -1    0    0    0  501  0.00000000000E+00  0.00000000000E+00  0.49068107912E+03  0.49068107915E+03  0.50400001928E-02 0.  1.
        1   -1    0    0  501    0  0.00000000000E+00  0.00000000000E+00 -0.24884900253E+04  0.24884900253E+04  0.50400001928E-02 0. -1.
    10030    2    1    2    0    0  0.00000000000E+00  0.00000000000E+00 -0.19978089462E+04  0.29791711045E+04  0.22100271230E+04 0.  0.
        1    1    3    3  502    0  0.23830930170E+03 -0.10785271702E+04 -0.10424352554E+04  0.15187769559E+04  0.50400001928E-02 0. -1.
       -1    1    3    3    0  502 -0.23830930170E+03  0.10785271702E+04 -0.95537369083E+03  0.14603941486E+04  0.50400001928E-02 0.  1.
</event>
<event>
 5   0  0.2043885E-05  0.2293436E+04  0.7818609E-02  0.8480514E-01
        1   -1    0    0  501    0  0.00000000000E+00  0.00000000000E+00  0.22852035064E+04  0.22852035064E+04  0.50400001928E-02 0.  1.
       -1   -1    0    0    0  501  0.00000000000E+00  0.00000000000E+00 -0.57542460100E+03  0.57542460103E+03  0.50400001928E-02 0. -1.
    10030    2    1    2    0    0  0.00000000000E+00  0.00000000000E+00  0.17097789054E+04  0.28606281075E+04  0.22934361259E+04 0.  0.
        5    1    3    3  502    0 -0.72420440567E+03  0.26233402513E+03 -0.20470037102E+03  0.79700407390E+03  0.46999998093E+01 0. -1.
       -5    1    3    3    0  502  0.72420440567E+03 -0.26233402513E+03  0.19144792765E+04  0.20636240336E+04  0.46999998093E+01 0.  1.
</event>
<event>
 5   0  0.2085063E-05  0.2201449E+04  0.7818609E-02  0.8517825E-01
       -1   -1    0    0    0  501  0.00000000000E+00  0.00000000000E+00  0.70309305044E+03  0.70309305046E+03  0.50400001928E-02 0. -1.
        1   -1    0    0  501    0  0.00000000000E+00  0.00000000000E+00 -0.17232342667E+04  0.17232342667E+04  0.50400001928E-02 0.  1.
    10030    2    1    2    0    0  0.00000000000E+00  0.00000000000E+00 -0.10201412163E+04  0.24263273172E+04  0.22014486478E+04 0.  0.
        1    1    3    3  502    0 -0.61533091271E+03 -0.70276083703E+02 -0.15129808701E+04  0.16348339284E+04  0.50400001928E-02 0.  1.
       -1    1    3    3    0  502  0.61533091271E+03  0.70276083703E+02  0.49283965384E+03  0.79149338879E+03  0.50400001928E-02 0. -1.
</event>
<event>
 5   0  0.1968318E-05  0.2274765E+04  0.7818609E-02  0.8487938E-01
       -1   -1    0    0    0  501  0.00000000000E+00  0.00000000000E+00  0.89538669175E+03  0.89538669176E+03  0.50400001928E-02 0.  1.
        1   -1    0    0  501    0  0.00000000000E+00  0.00000000000E+00 -0.14447818780E+04  0.14447818780E+04  0.50400001928E-02 0. -1.
    10030    2    1    2    0    0  0.00000000000E+00  0.00000000000E+00 -0.54939518621E+03  0.23401685697E+04  0.22747645733E+04 0.  0.
        3    1    3    3  502    0 -0.33159411732E+02 -0.19590468689E+03  0.87739452190E+03  0.89961066589E+03  0.10100000352E+00 0.  1.
       -3    1    3    3    0  502  0.33159411732E+02  0.19590468689E+03 -0.14267897081E+04  0.14405579038E+04  0.10100000352E+00 0. -1.
</event>
<event>
 5   0  0.4602447E-05  0.2314817E+04  0.7818609E-02  0.8472102E-01
       -2   -1    0    0    0  501  0.00000000000E+00  0.00000000000E+00  0.13681583610E+04  0.13681583610E+04  0.25500000920E-02 0. -1.
        2   -1    0    0  501    0  0.00000000000E+00  0.00000000000E+00 -0.97912260479E+03  0.97912260479E+03  0.25500000920E-02 0.  1.
    10030    2    1    2    0    0  0.00000000000E+00  0.00000000000E+00  0.38903575625E+03  0.23472809658E+04  0.23148172958E+04 0.  0.
        3    1    3    3  502    0 -0.75883561976E+03 -0.67213817459E+03 -0.37187940624E+03  0.10797664222E+04  0.10100000352E+00 0.  1.
       -3    1    3    3    0  502  0.75883561976E+03  0.67213817459E+03  0.76091516249E+03  0.12675145436E+04  0.10100000352E+00 0. -1.
</event>
<event>
 5   0  0.4605516E-05  0.2347465E+04  0.7818609E-02  0.8459438E-01
        2   -1    0    0  501    0  0.00000000000E+00  0.00000000000E+00  0.13084946320E+04  0.13084946320E+04  0.25500000920E-02 0. -1.
       -2   -1    0    0    0  501  0.00000000000E+00  0.00000000000E+00 -0.10528497894E+04  0.10528497894E+04  0.25500000920E-02 0.  1.
    10030    2    1    2    0    0  0.00000000000E+00  0.00000000000E+00  0.25564484266E+03  0.23613444214E+04  0.23474652694E+04 0.  0.
        1    1    3    3  502    0 -0.10404383793E+04 -0.54324873889E+03  0.12366467200E+03  0.11802220827E+04  0.50400001928E-02 0. -1.
       -1    1    3    3    0  502  0.10404383793E+04  0.54324873889E+03  0.13198017066E+03  0.11811223387E+04  0.50400001928E-02 0.  1.
</event>
<event>
 5   0  0.1604500E-05  0.2326046E+04  0.7818609E-02  0.8467722E-01
       -3   -1    0    0    0  501  0.00000000000E+00  0.00000000000E+00  0.17250754613E+04  0.17250754642E+04  0.10100000352E+00 0.  1.
        3   -1    0    0  501    0  0.00000000000E+00  0.00000000000E+00 -0.78409486475E+03  0.78409487126E+03  0.10100000352E+00 0. -1.
    10030    2    1    2    0    0  0.00000000000E+00  0.00000000000E+00  0.94098059652E+03  0.25091703355E+04  0.23260462784E+04 0.  0.
        1    1    3    3  502    0 -0.35171512622E+03  0.54714507165E+03 -0.56954609394E+03  0.86455422768E+03  0.50400001928E-02 0. -1.
       -1    1    3    3    0  502  0.35171512622E+03 -0.54714507165E+03  0.15105266905E+04  0.16446161078E+04  0.50400001928E-02 0.  1.
</event>
<event>
 5   0  0.4505107E-05  0.2314636E+04  0.7818609E-02  0.8472173E-01
        2   -1    0    0  501    0  0.00000000000E+00  0.00000000000E+00  0.20412635684E+04  0.20412635684E+04  0.25500000920E-02 0.  1.
       -2   -1    0    0    0  501  0.00000000000E+00  0.00000000000E+00 -0.65615478432E+03  0.65615478433E+03  0.25500000920E-02 0. -1.
    10030    2    1    2    0    0  0.00000000000E+00  0.00000000000E+00  0.13851087841E+04  0.26974183527E+04  0.23146359165E+04 0.  0.
        4    1    3    3  502    0  0.59891843213E+03  0.12719188645E+03  0.18370581601E+04  0.19364052677E+04  0.12699999809E+01 0.  1.
       -4    1    3    3    0  502 -0.59891843213E+03 -0.12719188645E+03 -0.45194937597E+03  0.76101308508E+03  0.12699999809E+01 0. -1.
</event>
<event>
 5   0  0.2042951E-05  0.2254713E+04  0.7818609E-02  0.8495994E-01
       -1   -1    0    0    0  501  0.00000000000E+00  0.00000000000E+00  0.81283291986E+03  0.81283291988E+03  0.50400001928E-02 0. -1.
        1   -1    0    0  501    0  0.00000000000E+00  0.00000000000E+00 -0.15635842789E+04  0.15635842789E+04  0.50400001928E-02 0.  1.
    10030    2    1    2    0    0  0.00000000000E+00  0.00000000000E+00 -0.75075135902E+03  0.23764171988E+04  0.22547130859E+04 0.  0.
        2    1    3    3  502    0 -0.74758858380E+03  0.26807680394E+03 -0.12186756464E+04  0.14546216671E+04  0.25500000920E-02 0.  1.
       -2    1    3    3    0  502  0.74758858380E+03 -0.26807680394E+03  0.46792428735E+03  0.92179553163E+03  0.25500000920E-02 0. -1.
</event>
<event>
 5   0  0.4436695E-05  0.2291104E+04  0.7818609E-02  0.8481437E-01
       -2   -1    0    0    0  501  0.00000000000E+00  0.00000000000E+00  0.17837070394E+04  0.17837070394E+04  0.25500000920E-02 0.  1.
        2   -1    0    0  501    0  0.00000000000E+00  0.00000000000E+00 -0.73570929164E+03  0.73570929165E+03  0.25500000920E-02 0. -1.
    10030    2    1    2    0    0  0.00000000000E+00  0.00000000000E+00  0.10479977478E+04  0.25194163311E+04  0.22911043996E+04 0.  0.
        5    1    3    3  502    0 -0.84224704702E+03  0.55700644748E+02  0.13756326907E+04  0.16139609783E+04  0.46999998093E+01 0.  1.
       -5    1    3    3    0  502  0.84224704702E+03 -0.55700644748E+02 -0.32763494286E+03  0.90545535274E+03  0.46999998093E+01 0. -1.
</event>
<event>
 5   0  0.4436695E-05  0.2289156E+04  0.7818609E-02  0.8482209E-01
       -2   -1    0    0    0  501  0.00000000000E+00  0.00000000000E+00  0.74171001801E+03  0.74171001801E+03  0.25500000920E-02 0. -1.
        2   -1    0    0  501    0  0.00000000000E+00  0.00000000000E+00 -0.17662684504E+04  0.17662684504E+04  0.25500000920E-02 0.  1.
    10030    2    1    2    0    0  0.00000000000E+00  0.00000000000E+00 -0.10245584324E+04  0.25079784684E+04  0.22891561800E+04 0.  0.
        5    1    3    3  502    0  0.64917474642E+03  0.39358398561E+03  0.42616367572E+03  0.87061689256E+03  0.46999998093E+01 0. -1.
       -5    1    3    3    0  502 -0.64917474642E+03 -0.39358398561E+03 -0.14507221081E+04  0.16373615758E+04  0.46999998093E+01 0.  1.
</event>
<event>
 5   0  0.4602447E-05  0.2312448E+04  0.7818609E-02  0.8473029E-01
       -2   -1    0    0    0  501  0.00000000000E+00  0.00000000000E+00  0.10107698849E+04  0.10107698849E+04  0.25500000920E-02 0.  1.
        2   -1    0    0  501    0  0.00000000000E+00  0.00000000000E+00 -0.13226096670E+04  0.13226096670E+04  0.25500000920E-02 0. -1.
    10030    2    1    2    0    0  0.00000000000E+00  0.00000000000E+00 -0.31183978215E+03  0.23333795519E+04  0.23124480716E+04 0.  0.
        3    1    3    3  502    0 -0.78801680753E+02 -0.27344593994E+03 -0.12867204711E+04  0.13178133282E+04  0.10100000352E+00 0. -1.
       -3    1    3    3    0  502  0.78801680753E+02  0.27344593994E+03  0.97488068895E+03  0.10155662238E+04  0.10100000352E+00 0.  1.
</event>
<event>
 5   0  0.4436695E-05  0.2285692E+04  0.7818609E-02  0.8483584E-01
        2   -1    0    0  501    0  0.00000000000E+00  0.00000000000E+00  0.25092378756E+04  0.25092378756E+04  0.25500000920E-02 0.  1.
       -2   -1    0    0    0  501  0.00000000000E+00  0.00000000000E+00 -0.52051548850E+03  0.52051548850E+03  0.25500000920E-02 0. -1.
    10030    2    1    2    0    0  0.00000000000E+00  0.00000000000E+00  0.19887223871E+04  0.30297533641E+04  0.22856921740E+04 0.  0.
        5    1    3    3  502    0 -0.24326932832E+03  0.32982615490E+03 -0.41974369058E+03  0.58666183985E+03  0.46999998093E+01 0. -1.
       -5    1    3    3    0  502  0.24326932832E+03 -0.32982615490E+03  0.24084660777E+04  0.24430915243E+04  0.46999998093E+01 0.  1.
</event>
<event>
 5   0  0.4798609E-05  0.2311115E+04  0.7818609E-02  0.8473551E-01
       -2   -1    0    0    0  501  0.00000000000E+00  0.00000000000E+00  0.13456937929E+04  0.13456937929E+04  0.25500000920E-02 0. -1.
        2   -1    0    0  501    0  0.00000000000E+00  0.00000000000E+00 -0.99228618185E+03  0.99228618186E+03  0.25500000920E-02 0.  1.
    10030    2    1    2    0    0  0.00000000000E+00  0.00000000000E+00  0.35340761101E+03  0.23379799747E+04  0.23111151903E+04 0.  0.
        2    1    3    3  502    0 -0.10994334817E+03 -0.62906748634E+03 -0.79755902484E+03  0.10217210188E+04  0.25500000920E-02 0.  1.
       -2    1    3    3    0  502  0.10994334817E+03  0.62906748634E+03  0.11509666358E+04  0.13162589559E+04  0.25500000920E-02 0. -1.
</event>
<event>
 5   0  0.4436695E-05  0.2269284E+04  0.7818609E-02  0.8490132E-01
        2   -1    0    0  501    0  0.00000000000E+00  0.00000000000E+00  0.24435227201E+04  0.24435227201E+04  0.25500000920E-02 0.  1.
       -2   -1    0    0    0  501  0.00000000000E+00  0.00000000000E+00 -0.52686722243E+03  0.52686722244E+03  0.25500000920E-02 0. -1.
    10030    2    1    2    0    0  0.00000000000E+00  0.00000000000E+00  0.19166554977E+04  0.29703899426E+04  0.22692836125E+04 0.  0.
        5    1    3    3  502    0  0.70918604066E+03  0.70557523392E+03  0.25756765194E+03  0.10330268323E+04  0.46999998093E+01 0. -1.
       -5    1    3    3    0  502 -0.70918604066E+03 -0.70557523392E+03  0.16590878457E+04  0.19373631102E+04  0.46999998093E+01 0.  1.
</event>
<event>
 5   0  0.4798609E-05  0.2284232E+04  0.7818609E-02  0.8484164E-01
       -2   -1    0    0    0  501  0.00000000000E+00  0.00000000000E+00  0.74639054053E+03  0.74639054053E+03  0.25500000920E-02 0.  1.
        2   -1    0    0  501    0  0.00000000000E+00  0.00000000000E+00 -0.17476498798E+04  0.17476498798E+04  0.25500000920E-02 0. -1.
    10030    2    1    2    0    0  0.00000000000E+00  0.00000000000E+00 -0.10012593393E+04  0.24940404204E+04  0.22842323336E+04 0.  0.
        2    1    3    3  502    0 -0.26825417866E+03 -0.10672983261E+03 -0.17071506454E+04  0.17313910268E+04  0.25500000920E-02 0. -1.
       -2    1    3    3    0  502  0.26825417866E+03  0.10672983261E+03  0.70589130608E+03  0.76264939359E+03  0.25500000920E-02 0.  1.
</event>
<event>
 5   0  0.4505107E-05  0.2163349E+04  0.7818609E-02  0.8533840E-01
        2   -1    0    0  501    0  0.00000000000E+00  0.00000000000E+00  0.20558883639E+04  0.20558883639E+04  0.25500000920E-02 0. -1.
       -2   -1    0    0    0  501  0.00000000000E+00  0.00000000000E+00 -0.56910644660E+03  0.56910644661E+03  0.25500000920E-02 0.  1.
    10030    2    1    2    0    0  0.00000000000E+00  0.00000000000E+00  0.14867819173E+04  0.26249948105E+04  0.21633486278E+04 0.  0.
        4    1    3    3  502    0 -0.51686205895E+03 -0.80071635393E+03  0.12263021729E+03  0.96090210247E+03  0.12699999809E+01 0.  1.
       -4    1    3    3    0  502  0.51686205895E+03  0.80071635393E+03  0.13641517000E+04  0.16640927081E+04  0.12699999809E+01 0. -1.
</event>
<event>
 5   0  0.4605516E-05  0.2181428E+04  0.7818609E-02  0.8526198E-01
        2   -1    0    0  501    0  0.00000000000E+00  0.00000000000E+00  0.12820432307E+04  0.12820432307E+04  0.25500000920E-02 0.  1.
       -2   -1    0    0    0  501  0.00000000000E+00  0.00000000000E+00 -0.92793871663E+03  0.92793871663E+03  0.25500000920E-02 0. -1.
    10030    2    1    2    0    0  0.00000000000E+00  0.00000000000E+00  0.35410451407E+03  0.22099819473E+04  0.21814284771E+04 0.  0.
        1    1    3    3  502    0 -0.58523806959E+03 -0.13308851236E+03  0.10997099392E+04  0.12528280411E+04  0.50400001928E-02 0.  1.
       -1    1    3    3    0  502  0.58523806959E+03  0.13308851236E+03 -0.74560542511E+03  0.95715390622E+03  0.50400001928E-02 0. -1.
</event>
<event>
 5   0  0.2085063E-05  0.2346648E+04  0.7818609E-02  0.8459752E-01
        1   -1    0    0  501    0  0.00000000000E+00  0.00000000000E+00  0.15868601987E+04  0.15868601987E+04  0.50400001928E-02 0.  1.
       -1   -1    0    0    0  501  0.00000000000E+00  0.00000000000E+00 -0.86755535694E+03  0.86755535696E+03  0.50400001928E-02 0. -1.
    10030    2    1    2    0    0  0.00000000000E+00  0.00000000000E+00  0.71930484177E+03  0.24544155557E+04  0.23466478783E+04 0.  0.
        1    1    3    3  502    0 -0.11153731137E+04 -0.29884812267E+03  0.14195522871E+03  0.11634082130E+04  0.50400001928E-02 0.  1.
       -1    1    3    3    0  502  0.11153731137E+04  0.29884812267E+03  0.57734961306E+03  0.12910073427E+04  0.50400001928E-02 0. -1.
</event>
<event>
 5   0  0.2043885E-05  0.2304691E+04  0.7818609E-02  0.8476074E-01
       -1   -1    0    0    0  501  0.00000000000E+00  0.00000000000E+00  0.12224259346E+04  0.12224259346E+04  0.50400001928E-02 0. -1.
        1   -1    0    0  501    0  0.00000000000E+00  0.00000000000E+00 -0.10862824753E+04  0.10862824753E+04  0.50400001928E-02 0.  1.
    10030    2    1    2    0    0  0.00000000000E+00  0.00000000000E+00  0.13614345924E+03  0.23087084099E+04  0.23046907559E+04 0.  0.
        5    1    3    3  502    0  0.47386873584E+03 -0.59332815568E+03  0.93635137960E+03  0.12055562514E+04  0.46999998093E+01 0. -1.
       -5    1    3    3    0  502 -0.47386873584E+03  0.59332815568E+03 -0.80020792036E+03  0.11031521586E+04  0.46999998093E+01 0.  1.
</event>
<event>
 5   0  0.2042951E-05  0.2294245E+04  0.7818609E-02  0.8480194E-01
        1   -1    0    0  501    0  0.00000000000E+00  0.00000000000E+00  0.15631141738E+04  0.15631141738E+04  0.50400001928E-02 0.  1.
       -1   -1    0    0    0  501  0.00000000000E+00  0.00000000000E+00 -0.84183874109E+03  0.84183874110E+03  0.50400001928E-02 0. -1.
    10030    2    1    2    0    0  0.00000000000E+00  0.00000000000E+00  0.72127543273E+03  0.24049529149E+04  0.22942450334E+04 0.  0.
        2    1    3    3  502    0  0.66993280108E+03  0.39545090233E+03  0.12443472424E+04  0.14675119876E+04  0.25500000920E-02 0.  1.
       -2    1    3    3    0  502 -0.66993280108E+03 -0.39545090233E+03 -0.52307180967E+03  0.93744092731E+03  0.25500000920E-02 0. -1.
</event>
<event>
 5   0  0.2043885E-05  0.2292180E+04  0.7818609E-02  0.8481011E-01
        1   -1    0    0  501    0  0.00000000000E+00  0.00000000000E+00  0.95554408718E+03  0.95554408719E+03  0.50400001928E-02 0. -1.
       -1   -1    0    0    0  501  0.00000000000E+00  0.00000000000E+00 -0.13746332532E+04  0.13746332532E+04  0.50400001928E-02 0.  1.
    10030    2    1    2    0    0  0.00000000000E+00  0.00000000000E+00 -0.41908916597E+03  0.23301773404E+04  0.22921803394E+04 0.  0.
        5    1    3    3  502    0  0.41685256343E+03 -0.58702218536E+03 -0.11160321473E+04  0.13281230928E+04  0.46999998093E+01 0.  1.
       -5    1    3    3    0  502 -0.41685256343E+03  0.58702218536E+03  0.69694298137E+03  0.10020542475E+04  0.46999998093E+01 0. -1.
</event>
<event>
 5   0  0.4605516E-05  0.2303791E+04  0.7818609E-02  0.8476428E-01
       -2   -1    0    0    0  501  0.00000000000E+00  0.00000000000E+00  0.12319730894E+04  0.12319730894E+04  0.25500000920E-02 0.  1.
        2   -1    0    0  501    0  0.00000000000E+00  0.00000000000E+00 -0.10770231489E+04  0.10770231489E+04  0.25500000920E-02 0. -1.
    10030    2    1    2    0    0  0.00000000000E+00  0.00000000000E+00  0.15494994052E+03  0.23089962383E+04  0.23037912545E+04 0.  0.
        1    1    3    3  502    0  0.85815921360E+03  0.18096714668E+03  0.82594004793E+03  0.12047254072E+04  0.50400001928E-02 0.  1.
       -1    1    3    3    0  502 -0.85815921360E+03 -0.18096714668E+03 -0.67099010741E+03  0.11042708311E+04  0.50400001928E-02 0. -1.
</event>
<event>
 5   0  0.4505107E-05  0.2339045E+04  0.7818609E-02  0.8462684E-01
        2   -1    0    0  501    0  0.00000000000E+00  0.00000000000E+00  0.23461652091E+04  0.23461652091E+04  0.25500000920E-02 0.  1.
       -2   -1    0    0    0  501  0.00000000000E+00  0.00000000000E+00 -0.58298639487E+03  0.58298639488E+03  0.25500000920E-02 0. -1.
    10030    2    1    2    0    0  0.00000000000E+00  0.00000000000E+00  0.17631788142E+04  0.29291516040E+04  0.23390445887E+04 0.  0.
        4    1    3    3  502    0  0.62898260114E+03  0.40026285565E+03 -0.24682427876E+03  0.78533642704E+03  0.12699999809E+01 0. -1.
       -4    1    3    3    0  502 -0.62898260114E+03 -0.40026285565E+03  0.20100030930E+04  0.21438151769E+04  0.12699999809E+01 0.  1.
</event>
<event>
 5   0  0.2031860E-05  0.2299788E+04  0.7818609E-02  0.8478005E-01
        1   -1    0    0  501    0  0.00000000000E+00  0.00000000000E+00  0.12966688906E+04  0.12966688906E+04  0.50400001928E-02 0.  1.
       -1   -1    0    0    0  501  0.00000000000E+00  0.00000000000E+00 -0.10197334504E+04  0.10197334504E+04  0.50400001928E-02 0. -1.
    10030    2    1    2    0    0  0.00000000000E+00  0.00000000000E+00  0.27693544018E+03  0.23164023411E+04  0.22997883745E+04 0.  0.
        4    1    3    3  502    0  0.33699698813E+03  0.10740427344E+04 -0.98005390347E+02  0.11299298362E+04  0.12699999809E+01 0. -1.
       -4    1    3    3    0  502 -0.33699698813E+03 -0.10740427344E+04  0.37494083053E+03  0.11864725048E+04  0.12699999809E+01 0.  1.
</event>
<event>
 5   0  0.2042951E-05  0.2237440E+04  0.7818609E-02  0.8503004E-01
       -1   -1    0    0    0  501  0.00000000000E+00  0.00000000000E+00  0.83539052312E+03  0.83539052313E+03  0.50400001928E-02 0.  1.
        1   -1    0    0  501    0  0.00000000000E+00  0.00000000000E+00 -0.14981427617E+04  0.14981427617E+04  0.50400001928E-02 0. -1.
    10030    2    1    2    0    0  0.00000000000E+00  0.00000000000E+00 -0.66275223861E+03  0.23335332849E+04  0.22374398454E+04 0.  0.
        2    1    3    3  502    0  0.12198611291E+03  0.11118148633E+04 -0.30756208912E+03  0.11600031641E+04  0.25500000920E-02 0.  1.
       -2    1    3    3    0  502 -0.12198611291E+03 -0.11118148633E+04 -0.35519014949E+03  0.11735301208E+04  0.25500000920E-02 0. -1.
</event>
<event>
 5   0  0.2042951E-05  0.2276396E+04  0.7818609E-02  0.8487286E-01
       -1   -1    0    0    0  501  0.00000000000E+00  0.00000000000E+00  0.99966986283E+03  0.99966986284E+03  0.50400001928E-02 0. -1.
        1   -1    0    0  501    0  0.00000000000E+00  0.00000000000E+00 -0.12959229829E+04  0.12959229829E+04  0.50400001928E-02 0.  1.
    10030    2    1    2    0    0  0.00000000000E+00  0.00000000000E+00 -0.29625312008E+03  0.22955928458E+04  0.22763964071E+04 0.  0.
        2    1    3    3  502    0  0.99968666335E+03 -0.47906399014E+03 -0.40841051175E+03  0.11813868450E+04  0.25500000920E-02 0.  1.
       -2    1    3    3    0  502 -0.99968666335E+03  0.47906399014E+03  0.11215739167E+03  0.11142060007E+04  0.25500000920E-02 0. -1.
</event>
<event>
 5   0  0.4798609E-05  0.2294711E+04  0.7818609E-02  0.8480010E-01
        2   -1    0    0  501    0  0.00000000000E+00  0.00000000000E+00  0.10256385184E+04  0.10256385185E+04  0.25500000920E-02 0.  1.
       -2   -1    0    0    0  501  0.00000000000E+00  0.00000000000E+00 -0.12835167399E+04  0.12835167399E+04  0.25500000920E-02 0. -1.
    10030    2    1    2    0    0  0.00000000000E+00  0.00000000000E+00 -0.25787822141E+03  0.23091552583E+04  0.22947106201E+04 0.  0.
        2    1    3    3  502    0  0.89629014517E+03  0.58710006578E+03 -0.54189003158E+03  0.12006945148E+04  0.25500000920E-02 0. -1.
       -2    1    3    3    0  502 -0.89629014517E+03 -0.58710006578E+03  0.28401181017E+03  0.11084607435E+04  0.25500000920E-02 0.  1.
</event>
<event>
 5   0  0.2085063E-05  0.2329378E+04  0.7818609E-02  0.8466427E-01
       -1   -1    0    0    0  501  0.00000000000E+00  0.00000000000E+00  0.76104017128E+03  0.76104017130E+03  0.50400001928E-02 0. -1.
        1   -1    0    0  501    0  0.00000000000E+00  0.00000000000E+00 -0.17824295301E+04  0.17824295301E+04  0.50400001928E-02 0.  1.
    10030    2    1    2    0    0  0.00000000000E+00  0.00000000000E+00 -0.10213893588E+04  0.25434697014E+04  0.23293780070E+04 0.  0.
        1    1    3    3  502    0 -0.31877540141E+03 -0.77524730924E+03  0.37225050268E+03  0.91716769666E+03  0.50400001928E-02 0. -1.
       -1    1    3    3    0  502  0.31877540141E+03  0.77524730924E+03 -0.13936398615E+04  0.16263020047E+04  0.50400001928E-02 0.  1.
</event>
<event>
 5   0  0.2042951E-05  0.2292430E+04  0.7818609E-02  0.8480912E-01
       -1   -1    0    0    0  501  0.00000000000E+00  0.00000000000E+00  0.13725913680E+04  0.13725913680E+04  0.50400001928E-02 0. -1.
        1   -1    0    0  501    0  0.00000000000E+00  0.00000000000E+00 -0.95717421433E+03  0.95717421434E+03  0.50400001928E-02 0.  1.
    10030    2    1    2    0    0  0.00000000000E+00  0.00000000000E+00  0.41541715366E+03  0.23297655823E+04  0.22924302077E+04 0.  0.
        2    1    3    3  502    0 -0.11434103380E+04  0.20041605527E+02  0.12885498816E+03  0.11508225211E+04  0.25500000920E-02 0.  1.
       -2    1    3    3    0  502  0.11434103380E+04 -0.20041605527E+02  0.28656216550E+03  0.11789430613E+04  0.25500000920E-02 0. -1.
</event>
<event>
 5   0  0.1968318E-05  0.2310837E+04  0.7818609E-02  0.8473660E-01
       -1   -1    0    0    0  501  0.00000000000E+00  0.00000000000E+00  0.84422752942E+03  0.84422752944E+03  0.50400001928E-02 0. -1.
        1   -1    0    0  501    0  0.00000000000E+00  0.00000000000E+00 -0.15813180423E+04  0.15813180423E+04  0.50400001928E-02 0.  1.
    10030    2    1    2    0    0  0.00000000000E+00  0.00000000000E+00 -0.73709051287E+03  0.24255455717E+04  0.23108372717E+04 0.  0.
        3    1    3    3  502    0  0.35574064375E+03 -0.59587060518E+03 -0.13381864520E+04  0.15074336385E+04  0.10100000352E+00 0.  1.
       -3    1    3    3    0  502 -0.35574064375E+03  0.59587060518E+03  0.60109593917E+03  0.91811193328E+03  0.10100000352E+00 0. -1.
</event>
<event>
 5   0  0.2031860E-05  0.2297352E+04  0.7818609E-02  0.8478966E-01
       -1   -1    0    0    0  501  0.00000000000E+00  0.00000000000E+00  0.13992136601E+04  0.13992136601E+04  0.50400001928E-02 0. -1.
        1   -1    0    0  501    0  0.00000000000E+00  0.00000000000E+00 -0.94299878260E+03  0.94299878262E+03  0.50400001928E-02 0.  1.
    10030    2    1    2    0    0  0.00000000000E+00  0.00000000000E+00  0.45621487753E+03  0.23422124428E+04  0.22973521960E+04 0.  0.
        4    1    3    3  502    0  0.41381330660E+03 -0.10440188549E+04 -0.17931139791E+02  0.11231829596E+04  0.12699999809E+01 0. -1.
       -4    1    3    3    0  502 -0.41381330660E+03  0.10440188549E+04  0.47414601732E+03  0.12190294831E+04  0.12699999809E+01 0.  1.
</event>
<event>
 5   0  0.4505107E-05  0.2308584E+04  0.7818609E-02  0.8474544E-01
        2   -1    0    0  501    0  0.00000000000E+00  0.00000000000E+00  0.18418965864E+04  0.18418965864E+04  0.25500000920E-02 0.  1.
       -2   -1    0    0    0  501  0.00000000000E+00  0.00000000000E+00 -0.72337964761E+03  0.72337964762E+03  0.25500000920E-02 0. -1.
    10030    2    1    2    0    0  0.00000000000E+00  0.00000000000E+00  0.11185169388E+04  0.25652762340E+04  0.23085844179E+04 0.  0.
        4    1    3    3  502    0  0.46018435148E+03  0.81932184738E+03  0.13041131502E+04  0.16074111634E+04  0.12699999809E+01 0.  1.
       -4    1    3    3    0  502 -0.46018435148E+03 -0.81932184738E+03 -0.18559621137E+03  0.95786507062E+03  0.12699999809E+01 0. -1.
</event>
<event>
 5   0  0.4798609E-05  0.2421113E+04  0.7818609E-02  0.8431641E-01
        2   -1    0    0  501    0  0.00000000000E+00  0.00000000000E+00  0.19458387403E+04  0.19458387403E+04  0.25500000920E-02 0. -1.
       -2   -1    0    0    0  501  0.00000000000E+00  0.00000000000E+00 -0.75311833959E+03  0.75311833960E+03  0.25500000920E-02 0.  1.
    10030    2    1    2    0    0  0.00000000000E+00  0.00000000000E+00  0.11927204007E+04  0.26989570799E+04  0.24211128361E+04 0.  0.
        2    1    3    3  502    0  0.30458053360E+03 -0.62445661682E+03  0.17014520621E+04  0.18378396251E+04  0.25500000920E-02 0. -1.
       -2    1    3    3    0  502 -0.30458053360E+03  0.62445661682E+03 -0.50873166140E+03  0.86111745485E+03  0.25500000920E-02 0.  1.
</event>
<event>
 5   0  0.4436695E-05  0.2326515E+04  0.7818609E-02  0.8467539E-01
       -2   -1    0    0    0  501  0.00000000000E+00  0.00000000000E+00  0.73937426993E+03  0.73937426994E+03  0.25500000920E-02 0.  1.
        2   -1    0    0  501    0  0.00000000000E+00  0.00000000000E+00 -0.18301527763E+04  0.18301527763E+04  0.25500000920E-02 0. -1.
    10030    2    1    2    0    0  0.00000000000E+00  0.00000000000E+00 -0.10907785063E+04  0.25695270462E+04  0.23265148810E+04 0.  0.
        5    1    3    3  502    0 -0.90797578336E+03 -0.46803671189E+02  0.25603236583E+03  0.94455559347E+03  0.46999998093E+01 0.  1.
       -5    1    3    3    0  502  0.90797578336E+03  0.46803671189E+02 -0.13468108722E+04  0.16249714527E+04  0.46999998093E+01 0. -1.
</event>
<event>
 5   0  0.4602447E-05  0.2277819E+04  0.7818609E-02  0.8486718E-01
       -2   -1    0    0    0  501  0.00000000000E+00  0.00000000000E+00  0.10436257246E+04  0.10436257246E+04  0.25500000920E-02 0. -1.
        2   -1    0    0  501    0  0.00000000000E+00  0.00000000000E+00 -0.12428927059E+04  0.12428927059E+04  0.25500000920E-02 0.  1.
    10030    2    1    2    0    0  0.00000000000E+00  0.00000000000E+00 -0.19926698128E+03  0.22865184305E+04  0.22778189575E+04 0.  0.
        3    1    3    3  502    0  0.80315143327E+02 -0.10284576992E+04 -0.58411436128E+03  0.11854810663E+04  0.10100000352E+00 0.  1.
       -3    1    3    3    0  502 -0.80315143327E+02  0.10284576992E+04  0.38484737999E+03  0.11010373642E+04  0.10100000352E+00 0. -1.
</event>
<event>
 5   0  0.4605516E-05  0.2403373E+04  0.7818609E-02  0.8438242E-01
       -2   -1    0    0    0  501  0.00000000000E+00  0.00000000000E+00  0.78827029016E+03  0.78827029016E+03  0.25500000920E-02 0.  1.
        2   -1    0    0  501    0  0.00000000000E+00  0.00000000000E+00 -0.18319230104E+04  0.18319230104E+04  0.25500000920E-02 0. -1.
    10030    2    1    2    0    0  0.00000000000E+00  0.00000000000E+00 -0.10436527203E+04  0.26201933006E+04  0.24033730322E+04 0.  0.
        1    1    3    3  502    0 -0.25524114730E+03  0.10472804307E+04  0.57226774297E+02  0.10794532169E+04  0.50400001928E-02 0.  1.
       -1    1    3    3    0  502  0.25524114730E+03 -0.10472804307E+04 -0.11008794946E+04  0.15407400837E+04  0.50400001928E-02 0. -1.
</event>
<event>
 5   0  0.1968318E-05  0.2279878E+04  0.7818609E-02  0.8485898E-01
        1   -1    0    0  501    0  0.00000000000E+00  0.00000000000E+00  0.13027672305E+04  0.13027672305E+04  0.50400001928E-02 0.  1.
       -1   -1    0    0    0  501  0.00000000000E+00  0.00000000000E+00 -0.99746187843E+03  0.99746187844E+03  0.50400001928E-02 0. -1.
    10030    2    1    2    0    0  0.00000000000E+00  0.00000000000E+00  0.30530535204E+03  0.23002291089E+04  0.22798777589E+04 0.  0.
        3    1    3    3  502    0 -0.78824697825E+03 -0.36577617471E+03  0.89702928044E+03  0.12489143481E+04  0.10100000352E+00 0.  1.
       -3    1    3    3    0  502  0.78824697825E+03  0.36577617471E+03 -0.59172392840E+03  0.10513147608E+04  0.10100000352E+00 0. -1.
</event>
<event>
 5   0  0.1968318E-05  0.2299854E+04  0.7818609E-02  0.8477979E-01
        1   -1    0    0  501    0  0.00000000000E+00  0.00000000000E+00  0.14083454774E+04  0.14083454774E+04  0.50400001928E-02 0. -1.
       -1   -1    0    0    0  501  0.00000000000E+00  0.00000000000E+00 -0.93892561973E+03  0.93892561975E+03  0.50400001928E-02 0.  1.
    10030    2    1    2    0    0  0.00000000000E+00  0.00000000000E+00  0.46941985763E+03  0.23472710971E+04  0.22998536042E+04 0.  0.
        3    1    3    3  502    0 -0.11405380774E+04 -0.19405315130E+02  0.38306142139E+03  0.12033036754E+04  0.10100000352E+00 0. -1.
       -3    1    3    3    0  502  0.11405380774E+04  0.19405315130E+02  0.86358436249E+02  0.11439674218E+04  0.10100000352E+00 0.  1.
</event>
<event>
 5   0  0.4436695E-05  0.2283077E+04  0.7818609E-02  0.8484624E-01
       -2   -1    0    0    0  501  0.00000000000E+00  0.00000000000E+00  0.60041295766E+03  0.60041295766E+03  0.25500000920E-02 0.  1.
        2   -1    0    0  501    0  0.00000000000E+00  0.00000000000E+00 -0.21703557852E+04  0.21703557852E+04  0.25500000920E-02 0. -1.
    10030    2    1    2    0    0  0.00000000000E+00  0.00000000000E+00 -0.15699428276E+04  0.27707687429E+04  0.22830766401E+04 0.  0.
        5    1    3    3  502    0  0.37750254028E+03 -0.42965171867E+03  0.41397562350E+03  0.70605005072E+03  0.46999998093E+01 0.  1.
       -5    1    3    3    0  502 -0.37750254028E+03  0.42965171867E+03 -0.19839184511E+04  0.20647186922E+04  0.46999998093E+01 0. -1.
</event>
<event>
 5   0  0.2031860E-05  0.2296919E+04  0.7818609E-02  0.8479137E-01
       -1   -1    0    0    0  501  0.00000000000E+00  0.00000000000E+00  0.13024603581E+04  0.13024603581E+04  0.50400001928E-02 0. -1.
        1   -1    0    0  501    0  0.00000000000E+00  0.00000000000E+00 -0.10126672995E+04  0.10126672995E+04  0.50400001928E-02 0.  1.
    10030    2    1    2    0    0  0.00000000000E+00  0.00000000000E+00  0.28979305864E+03  0.23151276576E+04  0.22969188175E+04 0.  0.
        4    1    3    3  502    0  0.85253697521E+03 -0.68926738251E+03  0.48973235225E+03  0.12007281992E+04  0.12699999809E+01 0. -1.
       -4    1    3    3    0  502 -0.85253697521E+03  0.68926738251E+03 -0.19993929361E+03  0.11143994583E+04  0.12699999809E+01 0.  1.
</event>
<event>
 5   0  0.4605516E-05  0.2337905E+04  0.7818609E-02  0.8463124E-01
       -2   -1    0    0    0  501  0.00000000000E+00  0.00000000000E+00  0.71947587953E+03  0.71947587954E+03  0.25500000920E-02 0. -1.
        2   -1    0    0  501    0  0.00000000000E+00  0.00000000000E+00 -0.18992294513E+04  0.18992294513E+04  0.25500000920E-02 0.  1.
    10030    2    1    2    0    0  0.00000000000E+00  0.00000000000E+00 -0.11797535718E+04  0.26187053309E+04  0.23379048569E+04 0.  0.
        1    1    3    3  502    0 -0.11387102344E+04  0.20010014493E+03 -0.39668266878E+03  0.12223167370E+04  0.50400001928E-02 0. -1.
       -1    1    3    3    0  502  0.11387102344E+04 -0.20010014493E+03 -0.78307090300E+03  0.13963885938E+04  0.50400001928E-02 0.  1.
</event>
<event>
 5   0  0.4602447E-05  0.2280926E+04  0.7818609E-02  0.8485480E-01
       -2   -1    0    0    0  501  0.00000000000E+00  0.00000000000E+00  0.11794539610E+04  0.11794539610E+04  0.25500000920E-02 0. -1.
        2   -1    0    0  501    0  0.00000000000E+00  0.00000000000E+00 -0.11027605519E+04  0.11027605519E+04  0.25500000920E-02 0.  1.
    10030    2    1    2    0    0  0.00000000000E+00  0.00000000000E+00  0.76693409072E+02  0.22822145129E+04  0.22809255148E+04 0.  0.
        3    1    3    3  502    0 -0.62809799420E+03 -0.79105531332E+03  0.56815485660E+03  0.11589113643E+04  0.10100000352E+00 0. -1.
       -3    1    3    3    0  502  0.62809799420E+03  0.79105531332E+03 -0.49146144753E+03  0.11233031486E+04  0.10100000352E+00 0.  1.
</event>
<event>
 5   0  0.1968318E-05  0.2240327E+04  0.7818609E-02  0.8501828E-01
       -1   -1    0    0    0  501  0.00000000000E+00  0.00000000000E+00  0.78015887859E+03  0.78015887861E+03  0.50400001928E-02 0. -1.
        1   -1    0    0  501    0  0.00000000000E+00  0.00000000000E+00 -0.16083469436E+04  0.16083469436E+04  0.50400001928E-02 0.  1.
    10030    2    1    2    0    0  0.00000000000E+00  0.00000000000E+00 -0.82818806504E+03  0.23885058223E+04  0.22403268940E+04 0.  0.
        3    1    3    3  502    0 -0.30573809135E+03 -0.71722848072E+03  0.44338724608E+03  0.89693072990E+03  0.10100000352E+00 0. -1.
       -3    1    3    3    0  502  0.30573809135E+03  0.71722848072E+03 -0.12715753111E+04  0.14915750924E+04  0.10100000352E+00 0.  1.
</event>
<event>
 5   0  0.4602447E-05  0.2289762E+04  0.7818609E-02  0.8481969E-01
        2   -1    0    0  501    0  0.00000000000E+00  0.00000000000E+00  0.15866551631E+04  0.15866551631E+04  0.25500000920E-02 0. -1.
       -2   -1    0    0    0  501  0.00000000000E+00  0.00000000000E+00 -0.82611022108E+03  0.82611022109E+03  0.25500000920E-02 0.  1.
    10030    2    1    2    0    0  0.00000000000E+00  0.00000000000E+00  0.76054494202E+03  0.24127653842E+04  0.22897616012E+04 0.  0.
        3    1    3    3  502    0  0.18782521226E+03 -0.65294433302E+03  0.13512603679E+04  0.15124546950E+04  0.10100000352E+00 0. -1.
       -3    1    3    3    0  502 -0.18782521226E+03  0.65294433302E+03 -0.59071542591E+03  0.90031068915E+03  0.10100000352E+00 0.  1.
</event>
<event>
 5   0  0.4605516E-05  0.2272056E+04  0.7818609E-02  0.8489021E-01
       -2   -1    0    0    0  501  0.00000000000E+00  0.00000000000E+00  0.11375058686E+04  0.11375058686E+04  0.25500000920E-02 0. -1.
        2   -1    0    0  501    0  0.00000000000E+00  0.00000000000E+00 -0.11345525153E+04  0.11345525153E+04  0.25500000920E-02 0.  1.
    10030    2    1    2    0    0  0.00000000000E+00  0.00000000000E+00  0.29533532303E+01  0.22720583839E+04  0.22720564644E+04 0.  0.
        1    1    3    3  502    0 -0.18787695195E+03 -0.16578734847E+03  0.11095285819E+04  0.11374695021E+04  0.50400001928E-02 0. -1.
       -1    1    3    3    0  502  0.18787695195E+03  0.16578734847E+03 -0.11065752287E+04  0.11345888818E+04  0.50400001928E-02 0.  1.
</event>
<event>
 5   0  0.2042951E-05  0.2265140E+04  0.7818609E-02  0.8491794E-01
        1   -1    0    0  501    0  0.00000000000E+00  0.00000000000E+00  0.18841801842E+04  0.18841801842E+04  0.50400001928E-02 0. -1.
       -1   -1    0    0    0  501  0.00000000000E+00  0.00000000000E+00 -0.68078161501E+03  0.68078161503E+03  0.50400001928E-02 0.  1.
    10030    2    1    2    0    0  0.00000000000E+00  0.00000000000E+00  0.12033985692E+04  0.25649617992E+04  0.22651403743E+04 0.  0.
        2    1    3    3  502    0  0.84189031738E+02  0.32869504322E+03  0.18252737539E+04  0.18565431590E+04  0.25500000920E-02 0. -1.
       -2    1    3    3    0  502 -0.84189031738E+02 -0.32869504322E+03 -0.62187518470E+03  0.70841864025E+03  0.25500000920E-02 0.  1.
</event>
<event>
 5   0  0.4505107E-05  0.2289013E+04  0.7818609E-02  0.8482266E-01
        2   -1    0    0  501    0  0.00000000000E+00  0.00000000000E+00  0.14850752198E+04  0.14850752198E+04  0.25500000920E-02 0.  1.
       -2   -1    0    0    0  501  0.00000000000E+00  0.00000000000E+00 -0.88203938560E+03  0.88203938561E+03  0.25500000920E-02 0. -1.
    10030    2    1    2    0    0  0.00000000000E+00  0.00000000000E+00  0.60303583419E+03  0.23671146054E+04  0.22890127430E+04 0.  0.
        4    1    3    3  502    0  0.45629479571E+03  0.96736293410E+03 -0.11968429961E+03  0.10762536557E+04  0.12699999809E+01 0. -1.
       -4    1    3    3    0  502 -0.45629479571E+03 -0.96736293410E+03  0.72272013379E+03  0.12908609497E+04  0.12699999809E+01 0.  1.
</event>
<event>
 5   0  0.4798609E-05  0.2309373E+04  0.7818609E-02  0.8474235E-01
       -2   -1    0    0    0  501  0.00000000000E+00  0.00000000000E+00  0.14348544436E+04  0.14348544436E+04  0.25500000920E-02 0. -1.
        2   -1    0    0  501    0  0.00000000000E+00  0.00000000000E+00 -0.92922361400E+03  0.92922361400E+03  0.25500000920E-02 0.  1.
    10030    2    1    2    0    0  0.00000000000E+00  0.00000000000E+00  0.50563082962E+03  0.23640780576E+04  0.23093727561E+04 0.  0.
        2    1    3    3  502    0 -0.68310638137E+03  0.43305107352E+03  0.10964322029E+04  0.13624724350E+04  0.25500000920E-02 0. -1.
       -2    1    3    3    0  502  0.68310638137E+03 -0.43305107352E+03 -0.59080137331E+03  0.10016056226E+04  0.25500000920E-02 0.  1.
</event>
<event>
 5   0  0.1968318E-05  0.2260248E+04  0.7818609E-02  0.8493762E-01
        1   -1    0    0  501    0  0.00000000000E+00  0.00000000000E+00  0.17873934172E+04  0.17873934172E+04  0.50400001928E-02 0.  1.
       -1   -1    0    0    0  501  0.00000000000E+00  0.00000000000E+00 -0.71454893582E+03  0.71454893584E+03  0.50400001928E-02 0. -1.
    10030    2    1    2    0    0  0.00000000000E+00  0.00000000000E+00  0.10728444813E+04  0.25019423530E+04  0.22602478308E+04 0.  0.
        3    1    3    3  502    0  0.23618015723E+03 -0.10426540477E+04  0.94203648413E+03  0.14249004447E+04  0.10100000352E+00 0.  1.
       -3    1    3    3    0  502 -0.23618015723E+03  0.10426540477E+04  0.13080799720E+03  0.10770419083E+04  0.10100000352E+00 0. -1.
</event>
<event>
 5   0  0.2031860E-05  0.2289164E+04  0.7818609E-02  0.8482206E-01
        1   -1    0    0  501    0  0.00000000000E+00  0.00000000000E+00  0.16458785963E+04  0.16458785963E+04  0.50400001928E-02 0. -1.
       -1   -1    0    0    0  501  0.00000000000E+00  0.00000000000E+00 -0.79596863549E+03  0.79596863551E+03  0.50400001928E-02 0.  1.
    10030    2    1    2    0    0  0.00000000000E+00  0.00000000000E+00  0.84990996078E+03  0.24418472318E+04  0.22891638128E+04 0.  0.
        4    1    3    3  502    0 -0.50879731935E+03 -0.60697515973E+03 -0.45645842388E+03  0.91413864503E+03  0.12699999809E+01 0.  1.
       -4    1    3    3    0  502  0.50879731935E+03  0.60697515973E+03  0.13063683847E+04  0.15277085868E+04  0.12699999809E+01 0. -1.
</event>
<event>
 5   0  0.2043885E-05  0.2280844E+04  0.7818609E-02  0.8485512E-01
       -1   -1    0    0    0  501  0.00000000000E+00  0.00000000000E+00  0.66949092133E+03  0.66949092135E+03  0.50400001928E-02 0.  1.
        1   -1    0    0  501    0  0.00000000000E+00  0.00000000000E+00 -0.19426145364E+04  0.19426145364E+04  0.50400001928E-02 0. -1.
    10030    2    1    2    0    0  0.00000000000E+00  0.00000000000E+00 -0.12731236151E+04  0.26121054578E+04  0.22808444014E+04 0.  0.
        5    1    3    3  502    0 -0.27444432765E+03 -0.14145284557E+03  0.62070309206E+03  0.69326979957E+03  0.46999998093E+01 0.  1.
       -5    1    3    3    0  502  0.27444432765E+03  0.14145284557E+03 -0.18938267072E+04  0.19188356582E+04  0.46999998093E+01 0. -1.
</event>
<event>
 5   0  0.2031860E-05  0.2267298E+04  0.7818609E-02  0.8490928E-01
        1   -1    0    0  501    0  0.00000000000E+00  0.00000000000E+00  0.11069028075E+04  0.11069028075E+04  0.50400001928E-02 0.  1.
       -1   -1    0    0    0  501  0.00000000000E+00  0.00000000000E+00 -0.11610411218E+04  0.11610411218E+04  0.50400001928E-02 0. -1.
    10030    2    1    2    0    0  0.00000000000E+00  0.00000000000E+00 -0.54138314353E+02  0.22679439293E+04  0.22672976667E+04 0.  0.
        4    1    3    3  502    0  0.49078629384E+03  0.11327234389E+03  0.98882667584E+03  0.11097214145E+04  0.12699999809E+01 0.  1.
       -4    1    3    3    0  502 -0.49078629384E+03 -0.11327234389E+03 -0.10429649902E+04  0.11582225148E+04  0.12699999809E+01 0. -1.
</event>
<event>
 5   0  0.2085063E-05  0.2285034E+04  0.7818609E-02  0.8483846E-01
       -1   -1    0    0    0  501  0.00000000000E+00  0.00000000000E+00  0.12396900615E+04  0.12396900615E+04  0.50400001928E-02 0.  1.
        1   -1    0    0  501    0  0.00000000000E+00  0.00000000000E+00 -0.10529606690E+04  0.10529606690E+04  0.50400001928E-02 0. -1.
    10030    2    1    2    0    0  0.00000000000E+00  0.00000000000E+00  0.18672939252E+03  0.22926507305E+04  0.22850338085E+04 0.  0.
        1    1    3    3  502    0 -0.52317696909E+02 -0.31111862839E+03  0.11951202209E+04  0.12360599843E+04  0.50400001928E-02 0.  1.
       -1    1    3    3    0  502  0.52317696909E+02  0.31111862839E+03 -0.10083908284E+04  0.10565907463E+04  0.50400001928E-02 0. -1.
</event>
<event>
 5   0  0.4436695E-05  0.2398816E+04  0.7818609E-02  0.8439947E-01
        2   -1    0    0  501    0  0.00000000000E+00  0.00000000000E+00  0.17835008094E+04  0.17835008094E+04  0.25500000920E-02 0. -1.
       -2   -1    0    0    0  501  0.00000000000E+00  0.00000000000E+00 -0.80660448476E+03  0.80660448476E+03  0.25500000920E-02 0.  1.
    10030    2    1    2    0    0  0.00000000000E+00  0.00000000000E+00  0.97689632469E+03  0.25901052942E+04  0.23988161676E+04 0.  0.
        5    1    3    3  502    0  0.74438692230E+02  0.11749552404E+04  0.73584067977E+03  0.13883603754E+04  0.46999998093E+01 0.  1.
       -5    1    3    3    0  502 -0.74438692230E+02 -0.11749552404E+04  0.24105564491E+03  0.12017449188E+04  0.46999998093E+01 0. -1.
</event>
<event>
 5   0  0.2031860E-05  0.1976738E+04  0.7818609E-02  0.8617574E-01
        1   -1    0    0  501    0  0.00000000000E+00  0.00000000000E+00  0.13779658868E+04  0.13779658869E+04  0.50400001928E-02 0. -1.
       -1   -1    0    0    0  501  0.00000000000E+00  0.00000000000E+00 -0.70892441232E+03  0.70892441234E+03  0.50400001928E-02 0.  1.
    10030    2    1    2    0    0  0.00000000000E+00  0.00000000000E+00  0.66904147453E+03  0.20868902992E+04  0.19767383808E+04 0.  0.
        4    1    3    3  502    0  0.50346744417E+03  0.66581228434E+03 -0.22420229488E+03  0.86432271013E+03  0.12699999809E+01 0.  1.
       -4    1    3    3    0  502 -0.50346744417E+03 -0.66581228434E+03  0.89324376941E+03  0.12225675891E+04  0.12699999809E+01 0. -1.
</event>
<event>
 5   0  0.4436695E-05  0.2293036E+04  0.7818609E-02  0.8480672E-01
        2   -1    0    0  501    0  0.00000000000E+00  0.00000000000E+00  0.17176880907E+04  0.17176880907E+04  0.25500000920E-02 0. -1.
       -2   -1    0    0    0  501  0.00000000000E+00  0.00000000000E+00 -0.76527477017E+03  0.76527477017E+03  0.25500000920E-02 0.  1.
    10030    2    1    2    0    0  0.00000000000E+00  0.00000000000E+00  0.95241332052E+03  0.24829628609E+04  0.22930358557E+04 0.  0.
        5    1    3    3  502    0 -0.44941937707E+03  0.18775575297E+03 -0.64766801493E+03  0.81038629481E+03  0.46999998093E+01 0.  1.
       -5    1    3    3    0  502  0.44941937707E+03 -0.18775575297E+03  0.16000813355E+04  0.16725765661E+04  0.46999998093E+01 0. -1.
</event>
<event>
 5   0  0.4602447E-05  0.2330707E+04  0.7818609E-02  0.8465911E-01
        2   -1    0    0  501    0  0.00000000000E+00  0.00000000000E+00  0.27004337664E+04  0.27004337664E+04  0.25500000920E-02 0. -1.
       -2   -1    0    0    0  501  0.00000000000E+00  0.00000000000E+00 -0.50290015177E+03  0.50290015178E+03  0.25500000920E-02 0.  1.
    10030    2    1    2    0    0  0.00000000000E+00  0.00000000000E+00  0.21975336147E+04  0.32033339182E+04  0.23307068035E+04 0.  0.
        3    1    3    3  502    0 -0.47890139970E+01  0.10662940737E+03 -0.49616774776E+03  0.50751867876E+03  0.10100000352E+00 0.  1.
       -3    1    3    3    0  502  0.47890139970E+01 -0.10662940737E+03  0.26937013624E+04  0.26958152394E+04  0.10100000352E+00 0. -1.
</event>
<event>
 5   0  0.4602447E-05  0.2304848E+04  0.7818609E-02  0.8476012E-01
        2   -1    0    0  501    0  0.00000000000E+00  0.00000000000E+00  0.16726645236E+04  0.16726645236E+04  0.25500000920E-02 0.  1.
       -2   -1    0    0    0  501  0.00000000000E+00  0.00000000000E+00 -0.79399142280E+03  0.79399142280E+03  0.25500000920E-02 0. -1.
    10030    2    1    2    0    0  0.00000000000E+00  0.00000000000E+00  0.87867310082E+03  0.24666559464E+04  0.23048481815E+04 0.  0.
        3    1    3    3  502    0 -0.88692752490E+03 -0.41327390039E+03  0.10908833760E+04  0.14654222263E+04  0.10100000352E+00 0.  1.
       -3    1    3    3    0  502  0.88692752490E+03  0.41327390039E+03 -0.21221027517E+03  0.10012337201E+04  0.10100000352E+00 0. -1.
</event>
<event>
 5   0  0.2043885E-05  0.2234087E+04  0.7818609E-02  0.8504373E-01
        1   -1    0    0  501    0  0.00000000000E+00  0.00000000000E+00  0.15605919974E+04  0.15605919974E+04  0.50400001928E-02 0.  1.
       -1   -1    0    0    0  501  0.00000000000E+00  0.00000000000E+00 -0.79955972129E+03  0.79955972131E+03  0.50400001928E-02 0. -1.
    10030    2    1    2    0    0  0.00000000000E+00  0.00000000000E+00  0.76103227607E+03  0.23601517187E+04  0.22340872879E+04 0.  0.
        5    1    3    3  502    0 -0.35148358269E+03 -0.24934067972E+03  0.14692277748E+04  0.15311315514E+04  0.46999998093E+01 0.  1.
       -5    1    3    3    0  502  0.35148358269E+03  0.24934067972E+03 -0.70819549869E+03  0.82902016732E+03  0.46999998093E+01 0. -1.
</event>
<event>
 5   0  0.4436695E-05  0.2288831E+04  0.7818609E-02  0.8482338E-01
       -2   -1    0    0    0  501  0.00000000000E+00  0.00000000000E+00  0.14685713784E+04  0.14685713784E+04  0.25500000920E-02 0. -1.
        2   -1    0    0  501    0  0.00000000000E+00  0.00000000000E+00 -0.89181010330E+03  0.89181010330E+03  0.25500000920E-02 0.  1.
    10030    2    1    2    0    0  0.00000000000E+00  0.00000000000E+00  0.57676127508E+03  0.23603814817E+04  0.22888309616E+04 0.  0.
        5    1    3    3  502    0  0.15484263190E+03 -0.83357454103E+03 -0.50431074917E+03  0.98649590868E+03  0.46999998093E+01 0.  1.
       -5    1    3    3    0  502 -0.15484263190E+03  0.83357454103E+03  0.10810720243E+04  0.13738855730E+04  0.46999998093E+01 0. -1.
</event>
<event>
 5   0  0.4602447E-05  0.2288336E+04  0.7818609E-02  0.8482534E-01
        2   -1    0    0  501    0  0.00000000000E+00  0.00000000000E+00  0.24144200675E+04  0.24144200675E+04  0.25500000920E-02 0. -1.
       -2   -1    0    0    0  501  0.00000000000E+00  0.00000000000E+00 -0.54220887622E+03  0.54220887623E+03  0.25500000920E-02 0.  1.
    10030    2    1    2    0    0  0.00000000000E+00  0.00000000000E+00  0.18722111912E+04  0.29566289437E+04  0.22883356323E+04 0.  0.
        3    1    3    3  502    0  0.19338396435E+03  0.34568071074E+03 -0.45079780604E+03  0.60009264583E+03  0.10100000352E+00 0.  1.
       -3    1    3    3    0  502 -0.19338396435E+03 -0.34568071074E+03  0.23230089973E+04  0.23565362979E+04  0.10100000352E+00 0. -1.
</event>
<event>
 5   0  0.1968318E-05  0.2291566E+04  0.7818609E-02  0.8481254E-01
        1   -1    0    0  501    0  0.00000000000E+00  0.00000000000E+00  0.12345449023E+04  0.12345449024E+04  0.50400001928E-02 0. -1.
       -1   -1    0    0    0  501  0.00000000000E+00  0.00000000000E+00 -0.10634026792E+04  0.10634026792E+04  0.50400001928E-02 0.  1.
    10030    2    1    2    0    0  0.00000000000E+00  0.00000000000E+00  0.17114222311E+03  0.22979475816E+04  0.22915657152E+04 0.  0.
        3    1    3    3  502    0 -0.51007830256E+03 -0.66802082631E+03 -0.69530586204E+03  0.10908171025E+04  0.10100000352E+00 0.  1.
       -3    1    3    3    0  502  0.51007830256E+03  0.66802082631E+03  0.86644808515E+03  0.12071304791E+04  0.10100000352E+00 0. -1.
</event>
<event>
 5   0  0.1968318E-05  0.2301214E+04  0.7818609E-02  0.8477442E-01
       -1   -1    0    0    0  501  0.00000000000E+00  0.00000000000E+00  0.19172754721E+04  0.19172754721E+04  0.50400001928E-02 0.  1.
        1   -1    0    0  501    0  0.00000000000E+00  0.00000000000E+00 -0.69050949269E+03  0.69050949271E+03  0.50400001928E-02 0. -1.
    10030    2    1    2    0    0  0.00000000000E+00  0.00000000000E+00  0.12267659794E+04  0.26077849648E+04  0.23012143869E+04 0.  0.
        3    1    3    3  502    0 -0.35610980534E+02 -0.52360050002E+03  0.17737435670E+04  0.18497545452E+04  0.10100000352E+00 0.  1.
       -3    1    3    3    0  502  0.35610980534E+02  0.52360050002E+03 -0.54697758762E+03  0.75803041965E+03  0.10100000352E+00 0. -1.
</event>
<event>
 5   0  0.2031860E-05  0.2023358E+04  0.7818609E-02  0.8595777E-01
        1   -1    0    0  501    0  0.00000000000E+00  0.00000000000E+00  0.19197172383E+04  0.19197172383E+04  0.50400001928E-02 0. -1.
       -1   -1    0    0    0  501  0.00000000000E+00  0.00000000000E+00 -0.53314831560E+03  0.53314831562E+03  0.50400001928E-02 0.  1.
    10030    2    1    2    0    0  0.00000000000E+00  0.00000000000E+00  0.13865689227E+04  0.24528655539E+04  0.20233576175E+04 0.  0.
        4    1    3    3  502    0 -0.34407348935E+03  0.88726524922E+03  0.27709051763E+03  0.99116444468E+03  0.12699999809E+01 0.  1.
       -4    1    3    3    0  502  0.34407348935E+03 -0.88726524922E+03  0.11094784051E+04  0.14617011092E+04  0.12699999809E+01 0. -1.
</event>
<event>
 5   0  0.4605516E-05  0.2319654E+04  0.7818609E-02  0.8470212E-01
        2   -1    0    0  501    0  0.00000000000E+00  0.00000000000E+00  0.16409659121E+04  0.16409659121E+04  0.25500000920E-02 0. -1.
       -2   -1    0    0    0  501  0.00000000000E+00  0.00000000000E+00 -0.81976028882E+03  0.81976028882E+03  0.25500000920E-02 0.  1.
    10030    2    1    2    0    0  0.00000000000E+00  0.00000000000E+00  0.82120562325E+03  0.24607262009E+04  0.23196540173E+04 0.  0.
        1    1    3    3  502    0 -0.58779229301E+03 -0.97914695319E+03  0.62532349462E+03  0.13020207405E+04  0.50400001928E-02 0. -1.
       -1    1    3    3    0  502  0.58779229301E+03  0.97914695319E+03  0.19588212863E+03  0.11587054604E+04  0.50400001928E-02 0.  1.
</event>
<event>
 5   0  0.4436695E-05  0.2299176E+04  0.7818609E-02  0.8478246E-01
       -2   -1    0    0    0  501  0.00000000000E+00  0.00000000000E+00  0.17628567946E+04  0.17628567946E+04  0.25500000920E-02 0. -1.
        2   -1    0    0  501    0  0.00000000000E+00  0.00000000000E+00 -0.74966540548E+03  0.74966540549E+03  0.25500000920E-02 0.  1.
    10030    2    1    2    0    0  0.00000000000E+00  0.00000000000E+00  0.10131913891E+04  0.25125222001E+04  0.22991761601E+04 0.  0.
        5    1    3    3  502    0  0.68929969934E+03  0.55967518693E+03 -0.29133753438E+03  0.93448918630E+03  0.46999998093E+01 0.  1.
       -5    1    3    3    0  502 -0.68929969934E+03 -0.55967518693E+03  0.13045289235E+04  0.15780330138E+04  0.46999998093E+01 0. -1.
</event>
<event>
 5   0  0.4798609E-05  0.2378419E+04  0.7818609E-02  0.8447628E-01
        2   -1    0    0  501    0  0.00000000000E+00  0.00000000000E+00  0.13622830670E+04  0.13622830670E+04  0.25500000920E-02 0. -1.
       -2   -1    0    0    0  501  0.00000000000E+00  0.00000000000E+00 -0.10381241580E+04  0.10381241580E+04  0.25500000920E-02 0.  1.
    10030    2    1    2    0    0  0.00000000000E+00  0.00000000000E+00  0.32415890899E+03  0.24004072250E+04  0.23784187704E+04 0.  0.
        2    1    3    3  502    0  0.11736234638E+04 -0.31459389398E+02 -0.28977936298E+02  0.11744025923E+04  0.25500000920E-02 0.  1.
       -2    1    3    3    0  502 -0.11736234638E+04  0.31459389398E+02  0.35313684529E+03  0.12260046327E+04  0.25500000920E-02 0. -1.
</event>
<event>
 5   0  0.4602447E-05  0.2410382E+04  0.7818609E-02  0.8435627E-01
        2   -1    0    0  501    0  0.00000000000E+00  0.00000000000E+00  0.26760392528E+04  0.26760392528E+04  0.25500000920E-02 0. -1.
       -2   -1    0    0    0  501  0.00000000000E+00  0.00000000000E+00 -0.54277438860E+03  0.54277438860E+03  0.25500000920E-02 0.  1.
    10030    2    1    2    0    0  0.00000000000E+00  0.00000000000E+00  0.21332648642E+04  0.32188136415E+04  0.24103821849E+04 0.  0.
        3    1    3    3  502    0  0.41933803186E+03  0.73883623760E+03 -0.74925505501E+02  0.85284067241E+03  0.10100000352E+00 0.  1.
       -3    1    3    3    0  502 -0.41933803186E+03 -0.73883623760E+03  0.22081903698E+04  0.23659729690E+04  0.10100000352E+00 0. -1.
</event>
<event>
 5   0  0.2042951E-05  0.2309973E+04  0.7818609E-02  0.8473999E-01
        1   -1    0    0  501    0  0.00000000000E+00  0.00000000000E+00  0.87979939016E+03  0.87979939018E+03  0.50400001928E-02 0. -1.
       -1   -1    0    0    0  501  0.00000000000E+00  0.00000000000E+00 -0.15162477020E+04  0.15162477020E+04  0.50400001928E-02 0.  1.
    10030    2    1    2    0    0  0.00000000000E+00  0.00000000000E+00 -0.63644831184E+03  0.23960470922E+04  0.23099729900E+04 0.  0.
        2    1    3    3  502    0 -0.26029544921E+03  0.18292137894E+03 -0.14699025293E+04  0.15039372983E+04  0.25500000920E-02 0.  1.
       -2    1    3    3    0  502  0.26029544921E+03 -0.18292137894E+03  0.83345421742E+03  0.89210979386E+03  0.25500000920E-02 0. -1.
</event>
<event>
 5   0  0.2085063E-05  0.2309744E+04  0.7818609E-02  0.8474089E-01
       -1   -1    0    0    0  501  0.00000000000E+00  0.00000000000E+00  0.62303693703E+03  0.62303693705E+03  0.50400001928E-02 0. -1.
        1   -1    0    0  501    0  0.00000000000E+00  0.00000000000E+00 -0.21406914108E+04  0.21406914108E+04  0.50400001928E-02 0.  1.
    10030    2    1    2    0    0  0.00000000000E+00  0.00000000000E+00 -0.15176544738E+04  0.27637283478E+04  0.23097444185E+04 0.  0.
        1    1    3    3  502    0  0.26529202755E+03  0.10321584838E+04 -0.12912574996E+04  0.16742392081E+04  0.50400001928E-02 0.  1.
       -1    1    3    3    0  502 -0.26529202755E+03 -0.10321584838E+04 -0.22639697412E+03  0.10894891397E+04  0.50400001928E-02 0. -1.
</event>
<event>
 5   0  0.4602447E-05  0.2284874E+04  0.7818609E-02  0.8483909E-01
       -2   -1    0    0    0  501  0.00000000000E+00  0.00000000000E+00  0.12838524131E+04  0.12838524131E+04  0.25500000920E-02 0. -1.
        2   -1    0    0  501    0  0.00000000000E+00  0.00000000000E+00 -0.10165984655E+04  0.10165984655E+04  0.25500000920E-02 0.  1.
    10030    2    1    2    0    0  0.00000000000E+00  0.00000000000E+00  0.26725394753E+03  0.23004508786E+04  0.22848740824E+04 0.  0.
        3    1    3    3  502    0  0.40515834099E+03  0.10655164995E+04  0.20953119257E+03  0.11590435811E+04  0.10100000352E+00 0. -1.
       -3    1    3    3    0  502 -0.40515834099E+03 -0.10655164995E+04  0.57722754959E+02  0.11414072975E+04  0.10100000352E+00 0.  1.
</event>
<event>
 5   0  0.4436695E-05  0.2463760E+04  0.7818609E-02  0.8416011E-01
        2   -1    0    0  501    0  0.00000000000E+00  0.00000000000E+00  0.21272762192E+04  0.21272762192E+04  0.25500000920E-02 0. -1.
       -2   -1    0    0    0  501  0.00000000000E+00  0.00000000000E+00 -0.71336696603E+03  0.71336696604E+03  0.25500000920E-02 0.  1.
    10030    2    1    2    0    0  0.00000000000E+00  0.00000000000E+00  0.14139092531E+04  0.28406431852E+04  0.24637602013E+04 0.  0.
        5    1    3    3  502    0  0.72010777359E+03 -0.80508595126E+03  0.13898285842E+04  0.17602170826E+04  0.46999998093E+01 0. -1.
       -5    1    3    3    0  502 -0.72010777359E+03  0.80508595126E+03  0.24080668922E+02  0.10804261026E+04  0.46999998093E+01 0.  1.
</event>
<event>
 5   0  0.1968318E-05  0.2269620E+04  0.7818609E-02  0.8489997E-01
       -1   -1    0    0    0  501  0.00000000000E+00  0.00000000000E+00  0.70294244884E+03  0.70294244886E+03  0.50400001928E-02 0. -1.
        1   -1    0    0  501    0  0.00000000000E+00  0.00000000000E+00 -0.18320045711E+04  0.18320045711E+04  0.50400001928E-02 0.  1.
    10030    2    1    2    0    0  0.00000000000E+00  0.00000000000E+00 -0.11290621222E+04  0.25349470199E+04  0.22696200382E+04 0.  0.
        3    1    3    3  502    0  0.80521751489E+03 -0.40437470702E+03 -0.13350324194E+04  0.16106538178E+04  0.10100000352E+00 0.  1.
       -3    1    3    3    0  502 -0.80521751489E+03  0.40437470702E+03  0.20597029712E+03  0.92429320210E+03  0.10100000352E+00 0. -1.
</event>
<event>
 5   0  0.2042951E-05  0.2112844E+04  0.7818609E-02  0.8555607E-01
        1   -1    0    0  501    0  0.00000000000E+00  0.00000000000E+00  0.92872476052E+03  0.92872476053E+03  0.50400001928E-02 0. -1.
       -1   -1    0    0    0  501  0.00000000000E+00  0.00000000000E+00 -0.12016769480E+04  0.12016769480E+04  0.50400001928E-02 0.  1.
    10030    2    1    2    0    0  0.00000000000E+00  0.00000000000E+00 -0.27295218747E+03  0.21304017085E+04  0.21128437100E+04 0.  0.
        2    1    3    3  502    0 -0.38900730456E+03 -0.62355630923E+03 -0.90164861600E+03  0.11632365970E+04  0.25500000920E-02 0.  1.
       -2    1    3    3    0  502  0.38900730456E+03  0.62355630923E+03  0.62869642853E+03  0.96716511157E+03  0.25500000920E-02 0. -1.
</event>
<event>
 5   0  0.2042951E-05  0.2315859E+04  0.7818609E-02  0.8471694E-01
       -1   -1    0    0    0  501  0.00000000000E+00  0.00000000000E+00  0.97471345781E+03  0.97471345782E+03  0.50400001928E-02 0. -1.
        1   -1    0    0  501    0  0.00000000000E+00  0.00000000000E+00 -0.13755843071E+04  0.13755843071E+04  0.50400001928E-02 0.  1.
    10030    2    1    2    0    0  0.00000000000E+00  0.00000000000E+00 -0.40087084929E+03  0.23502977649E+04  0.23158588355E+04 0.  0.
        2    1    3    3  502    0 -0.86509312232E+02  0.13273504390E+03 -0.13645317690E+04  0.13736991671E+04  0.25500000920E-02 0.  1.
       -2    1    3    3    0  502  0.86509312232E+02 -0.13273504390E+03  0.96366091976E+03  0.97659859781E+03  0.25500000920E-02 0. -1.
</event>
<event>
 5   0  0.4505107E-05  0.2303867E+04  0.7818609E-02  0.8476398E-01
       -2   -1    0    0    0  501  0.00000000000E+00  0.00000000000E+00  0.11828092077E+04  0.11828092077E+04  0.25500000920E-02 0. -1.
        2   -1    0    0  501    0  0.00000000000E+00  0.00000000000E+00 -0.11218636048E+04  0.11218636048E+04  0.25500000920E-02 0.  1.
    10030    2    1    2    0    0  0.00000000000E+00  0.00000000000E+00  0.60945602901E+02  0.23046728124E+04  0.23038668377E+04 0.  0.
        4    1    3    3  502    0  0.52153216102E+03 -0.14578632964E+02  0.10578377599E+04  0.11795044174E+04  0.12699999809E+01 0. -1.
       -4    1    3    3    0  502 -0.52153216102E+03  0.14578632964E+02 -0.99689215700E+03  0.11251683950E+04  0.12699999809E+01 0.  1.
</event>
<event>
 5   0  0.2043885E-05  0.2271764E+04  0.7818609E-02  0.8489138E-01
       -1   -1    0    0    0  501  0.00000000000E+00  0.00000000000E+00  0.84818077219E+03  0.84818077220E+03  0.50400001928E-02 0. -1.
        1   -1    0    0  501    0  0.00000000000E+00  0.00000000000E+00 -0.15211713559E+04  0.15211713559E+04  0.50400001928E-02 0.  1.
    10030    2    1    2    0    0  0.00000000000E+00  0.00000000000E+00 -0.67299058366E+03  0.23693521281E+04  0.22717643322E+04 0.  0.
        5    1    3    3  502    0  0.10713232642E+04 -0.88325742096E+02  0.46244617325E+02  0.10759626517E+04  0.46999998093E+01 0. -1.
       -5    1    3    3    0  502 -0.10713232642E+04  0.88325742096E+02 -0.71923520099E+03  0.12933894764E+04  0.46999998093E+01 0.  1.
</event>
<event>
 5   0  0.4436695E-05  0.1864919E+04  0.7818609E-02  0.8672518E-01
       -2   -1    0    0    0  501  0.00000000000E+00  0.00000000000E+00  0.52795837468E+03  0.52795837469E+03  0.25500000920E-02 0. -1.
        2   -1    0    0  501    0  0.00000000000E+00  0.00000000000E+00 -0.16468729075E+04  0.16468729075E+04  0.25500000920E-02 0.  1.
    10030    2    1    2    0    0  0.00000000000E+00  0.00000000000E+00 -0.11189145328E+04  0.21748312821E+04  0.18649185972E+04 0.  0.
        5    1    3    3  502    0 -0.87381173485E+03  0.24378125710E+03 -0.30803246577E+03  0.95806176171E+03  0.46999998093E+01 0. -1.
       -5    1    3    3    0  502  0.87381173485E+03 -0.24378125710E+03 -0.81088206700E+03  0.12167695204E+04  0.46999998093E+01 0.  1.
</event>
<event>
 5   0  0.2042951E-05  0.2295860E+04  0.7818609E-02  0.8479555E-01
       -1   -1    0    0    0  501  0.00000000000E+00  0.00000000000E+00  0.12163566398E+04  0.12163566398E+04  0.50400001928E-02 0. -1.
        1   -1    0    0  501    0  0.00000000000E+00  0.00000000000E+00 -0.10833527154E+04  0.10833527154E+04  0.50400001928E-02 0.  1.
    10030    2    1    2    0    0  0.00000000000E+00  0.00000000000E+00  0.13300392434E+03  0.22997093552E+04  0.22958599858E+04 0.  0.
        2    1    3    3  502    0  0.12426497782E+02 -0.22592645239E+03  0.11937981858E+04  0.12150519693E+04  0.25500000920E-02 0. -1.
       -2    1    3    3    0  502 -0.12426497782E+02  0.22592645239E+03 -0.10607942614E+04  0.10846573859E+04  0.25500000920E-02 0.  1.
</event>
<event>
 5   0  0.4605516E-05  0.2322132E+04  0.7818609E-02  0.8469246E-01
        2   -1    0    0  501    0  0.00000000000E+00  0.00000000000E+00  0.13470711911E+04  0.13470711911E+04  0.25500000920E-02 0.  1.
       -2   -1    0    0    0  501  0.00000000000E+00  0.00000000000E+00 -0.10007445224E+04  0.10007445224E+04  0.25500000920E-02 0. -1.
    10030    2    1    2    0    0  0.00000000000E+00  0.00000000000E+00  0.34632666870E+03  0.23478157134E+04  0.23221318788E+04 0.  0.
        1    1    3    3  502    0 -0.67464970750E+02  0.61270491923E+03 -0.82164785317E+03  0.10271631005E+04  0.50400001928E-02 0. -1.
       -1    1    3    3    0  502  0.67464970750E+02 -0.61270491923E+03  0.11679745219E+04  0.13206526130E+04  0.50400001928E-02 0.  1.
</event>
<event>
 5   0  0.2043885E-05  0.2307407E+04  0.7818609E-02  0.8475006E-01
        1   -1    0    0  501    0  0.00000000000E+00  0.00000000000E+00  0.16665977809E+04  0.16665977809E+04  0.50400001928E-02 0. -1.
       -1   -1    0    0    0  501  0.00000000000E+00  0.00000000000E+00 -0.79865202436E+03  0.79865202437E+03  0.50400001928E-02 0.  1.
    10030    2    1    2    0    0  0.00000000000E+00  0.00000000000E+00  0.86794575654E+03  0.24652498053E+04  0.23074069355E+04 0.  0.
        5    1    3    3  502    0 -0.89302893380E+03  0.48562645273E+03 -0.14894658682E+03  0.10273952034E+04  0.46999998093E+01 0.  1.
       -5    1    3    3    0  502  0.89302893380E+03 -0.48562645273E+03  0.10168923434E+04  0.14378546019E+04  0.46999998093E+01 0. -1.
</event>
<event>
 5   0  0.2042951E-05  0.2323263E+04  0.7818609E-02  0.8468805E-01
       -1   -1    0    0    0  501  0.00000000000E+00  0.00000000000E+00  0.10829786749E+04  0.10829786749E+04  0.50400001928E-02 0.  1.
        1   -1    0    0  501    0  0.00000000000E+00  0.00000000000E+00 -0.12459969612E+04  0.12459969612E+04  0.50400001928E-02 0. -1.
    10030    2    1    2    0    0  0.00000000000E+00  0.00000000000E+00 -0.16301828632E+03  0.23289756361E+04  0.23232633411E+04 0.  0.
        2    1    3    3  502    0 -0.50202256995E+03 -0.10348993800E+04  0.81200596753E+02  0.11530988355E+04  0.25500000920E-02 0.  1.
       -2    1    3    3    0  502  0.50202256995E+03  0.10348993800E+04 -0.24421888308E+03  0.11758768007E+04  0.25500000920E-02 0. -1.
</event>
<event>
 5   0  0.4798609E-05  0.2346468E+04  0.7818609E-02  0.8459821E-01
        2   -1    0    0  501    0  0.00000000000E+00  0.00000000000E+00  0.54145353208E+03  0.54145353208E+03  0.25500000920E-02 0.  1.
       -2   -1    0    0    0  501  0.00000000000E+00  0.00000000000E+00 -0.25421906126E+04  0.25421906126E+04  0.25500000920E-02 0. -1.
    10030    2    1    2    0    0  0.00000000000E+00  0.00000000000E+00 -0.20007370805E+04  0.30836441447E+04  0.23464680577E+04 0.  0.
        2    1    3    3  502    0 -0.10171666439E+04 -0.28416964543E+02 -0.23291178891E+03  0.10438790192E+04  0.25500000920E-02 0.  1.
       -2    1    3    3    0  502  0.10171666439E+04  0.28416964543E+02 -0.17678252916E+04  0.20397651255E+04  0.25500000920E-02 0. -1.
</event>
<event>
 5   0  0.4798609E-05  0.2309116E+04  0.7818609E-02  0.8474335E-01
        2   -1    0    0  501    0  0.00000000000E+00  0.00000000000E+00  0.17391377663E+04  0.17391377663E+04  0.25500000920E-02 0. -1.
       -2   -1    0    0    0  501  0.00000000000E+00  0.00000000000E+00 -0.76647422727E+03  0.76647422727E+03  0.25500000920E-02 0.  1.
    10030    2    1    2    0    0  0.00000000000E+00  0.00000000000E+00  0.97266353903E+03  0.25056119936E+04  0.23091160868E+04 0.  0.
        2    1    3    3  502    0  0.11078479921E+04  0.45327807764E+01  0.83904055459E+03  0.13897254304E+04  0.25500000920E-02 0. -1.
       -2    1    3    3    0  502 -0.11078479921E+04 -0.45327807764E+01  0.13362298444E+03  0.11158865631E+04  0.25500000920E-02 0.  1.
</event>
<event>
 5   0  0.4505107E-05  0.2326199E+04  0.7818609E-02  0.8467662E-01
        2   -1    0    0  501    0  0.00000000000E+00  0.00000000000E+00  0.51056043371E+03  0.51056043371E+03  0.25500000920E-02 0. -1.
       -2   -1    0    0    0  501  0.00000000000E+00  0.00000000000E+00 -0.26496376835E+04  0.26496376835E+04  0.25500000920E-02 0.  1.
    10030    2    1    2    0    0  0.00000000000E+00  0.00000000000E+00 -0.21390772498E+04  0.31601981172E+04  0.23261987575E+04 0.  0.
        4    1    3    3  502    0 -0.89543870635E+03 -0.21294927074E+03 -0.20355639131E+04  0.22339829735E+04  0.12699999809E+01 0.  1.
       -4    1    3    3    0  502  0.89543870635E+03  0.21294927074E+03 -0.10351333675E+03  0.92621514375E+03  0.12699999809E+01 0. -1.
</event>
<event>
 5   0  0.4798609E-05  0.2298823E+04  0.7818609E-02  0.8478385E-01
       -2   -1    0    0    0  501  0.00000000000E+00  0.00000000000E+00  0.95169323208E+03  0.95169323208E+03  0.25500000920E-02 0. -1.
        2   -1    0    0  501    0  0.00000000000E+00  0.00000000000E+00 -0.13882061587E+04  0.13882061587E+04  0.25500000920E-02 0.  1.
    10030    2    1    2    0    0  0.00000000000E+00  0.00000000000E+00 -0.43651292663E+03  0.23398993908E+04  0.22988226604E+04 0.  0.
        2    1    3    3  502    0  0.10319596406E+03  0.11374237653E+04 -0.35004657799E+03  0.11945354057E+04  0.25500000920E-02 0. -1.
       -2    1    3    3    0  502 -0.10319596406E+03 -0.11374237653E+04 -0.86466348636E+02  0.11453639851E+04  0.25500000920E-02 0.  1.
</event>
<event>
 5   0  0.4798609E-05  0.2314469E+04  0.7818609E-02  0.8472238E-01
       -2   -1    0    0    0  501  0.00000000000E+00  0.00000000000E+00  0.83721956797E+03  0.83721956797E+03  0.25500000920E-02 0.  1.
        2   -1    0    0  501    0  0.00000000000E+00  0.00000000000E+00 -0.15995700800E+04  0.15995700800E+04  0.25500000920E-02 0. -1.
    10030    2    1    2    0    0  0.00000000000E+00  0.00000000000E+00 -0.76235051201E+03  0.24367896479E+04  0.23144687263E+04 0.  0.
        2    1    3    3  502    0 -0.30496162915E+03 -0.91634059011E+02 -0.15525361770E+04  0.15848555066E+04  0.25500000920E-02 0. -1.
       -2    1    3    3    0  502  0.30496162915E+03  0.91634059011E+02  0.79018566497E+03  0.85193414133E+03  0.25500000920E-02 0.  1.
</event>
<event>
 5   0  0.4602447E-05  0.2278209E+04  0.7818609E-02  0.8486563E-01
       -2   -1    0    0    0  501  0.00000000000E+00  0.00000000000E+00  0.53352428174E+03  0.53352428174E+03  0.25500000920E-02 0.  1.
        2   -1    0    0  501    0  0.00000000000E+00  0.00000000000E+00 -0.24320531364E+04  0.24320531364E+04  0.25500000920E-02 0. -1.
    10030    2    1    2    0    0  0.00000000000E+00  0.00000000000E+00 -0.18985288547E+04  0.29655774181E+04  0.22782092992E+04 0.  0.
        3    1    3    3  502    0 -0.10576002864E+04  0.37752265853E+03 -0.11980167643E+04  0.16420371193E+04  0.10100000352E+00 0.  1.
       -3    1    3    3    0  502  0.10576002864E+04 -0.37752265853E+03 -0.70051209038E+03  0.13235402988E+04  0.10100000352E+00 0. -1.
</event>
<event>
 5   0  0.2031860E-05  0.2283360E+04  0.7818609E-02  0.8484511E-01
        1   -1    0    0  501    0  0.00000000000E+00  0.00000000000E+00  0.16782980793E+04  0.16782980793E+04  0.50400001928E-02 0. -1.
       -1   -1    0    0    0  501  0.00000000000E+00  0.00000000000E+00 -0.77664022150E+03  0.77664022152E+03  0.50400001928E-02 0.  1.
    10030    2    1    2    0    0  0.00000000000E+00  0.00000000000E+00  0.90165785777E+03  0.24549383008E+04  0.22833604990E+04 0.  0.
        4    1    3    3  502    0  0.71285946021E+03 -0.56327614478E+03 -0.29248551999E+03  0.95446216142E+03  0.12699999809E+01 0.  1.
       -4    1    3    3    0  502 -0.71285946021E+03  0.56327614478E+03  0.11941433778E+04  0.15004761394E+04  0.12699999809E+01 0. -1.
</event>
<event>
 5   0  0.2085063E-05  0.2299121E+04  0.7818609E-02  0.8478268E-01
       -1   -1    0    0    0  501  0.00000000000E+00  0.00000000000E+00  0.76781253735E+03  0.76781253737E+03  0.50400001928E-02 0. -1.
        1   -1    0    0  501    0  0.00000000000E+00  0.00000000000E+00 -0.17211086543E+04  0.17211086543E+04  0.50400001928E-02 0.  1.
    10030    2    1    2    0    0  0.00000000000E+00  0.00000000000E+00 -0.95329611691E+03  0.24889211916E+04  0.22991205300E+04 0.  0.
        1    1    3    3  502    0  0.34590165986E+03 -0.26704376062E+03  0.67439125910E+03  0.80359436208E+03  0.50400001928E-02 0. -1.
       -1    1    3    3    0  502 -0.34590165986E+03  0.26704376062E+03 -0.16276873760E+04  0.16853268296E+04  0.50400001928E-02 0.  1.
</event>
<event>
 5   0  0.1968318E-05  0.2257786E+04  0.7818609E-02  0.8494754E-01
       -1   -1    0    0    0  501  0.00000000000E+00  0.00000000000E+00  0.67963418061E+03  0.67963418063E+03  0.50400001928E-02 0.  1.
        1   -1    0    0  501    0  0.00000000000E+00  0.00000000000E+00 -0.18751254208E+04  0.18751254208E+04  0.50400001928E-02 0. -1.
    10030    2    1    2    0    0  0.00000000000E+00  0.00000000000E+00 -0.11954912401E+04  0.25547596014E+04  0.22577859322E+04 0.  0.
        3    1    3    3  502    0 -0.59676827581E+03 -0.62100209348E+03 -0.14235503682E+04  0.16638123801E+04  0.10100000352E+00 0. -1.
       -3    1    3    3    0  502  0.59676827581E+03  0.62100209348E+03  0.22805912803E+03  0.89094722133E+03  0.10100000352E+00 0.  1.
</event>
<event>
 5   0  0.2042951E-05  0.2316449E+04  0.7818609E-02  0.8471464E-01
        1   -1    0    0  501    0  0.00000000000E+00  0.00000000000E+00  0.11482501825E+04  0.11482501826E+04  0.50400001928E-02 0. -1.
       -1   -1    0    0    0  501  0.00000000000E+00  0.00000000000E+00 -0.11682853931E+04  0.11682853931E+04  0.50400001928E-02 0.  1.
    10030    2    1    2    0    0  0.00000000000E+00  0.00000000000E+00 -0.20035210527E+02  0.23165355756E+04  0.23164489339E+04 0.  0.
        2    1    3    3  502    0 -0.86408719966E+03 -0.62730919923E+03 -0.45872180182E+03  0.11621485325E+04  0.25500000920E-02 0.  1.
       -2    1    3    3    0  502  0.86408719966E+03  0.62730919923E+03  0.43868659129E+03  0.11543870432E+04  0.25500000920E-02 0. -1.
</event>
<event>
 5   0  0.1968318E-05  0.2282131E+04  0.7818609E-02  0.8485000E-01
        1   -1    0    0  501    0  0.00000000000E+00  0.00000000000E+00  0.93365262145E+03  0.93365262146E+03  0.50400001928E-02 0.  1.
       -1   -1    0    0    0  501  0.00000000000E+00  0.00000000000E+00 -0.13945550820E+04  0.13945550820E+04  0.50400001928E-02 0. -1.
    10030    2    1    2    0    0  0.00000000000E+00  0.00000000000E+00 -0.46090246056E+03  0.23282077035E+04  0.22821305906E+04 0.  0.
        3    1    3    3  502    0 -0.35051587353E+03  0.68657797349E+03  0.62783107677E+03  0.99419442889E+03  0.10100000352E+00 0.  1.
       -3    1    3    3    0  502  0.35051587353E+03 -0.68657797349E+03 -0.10887335373E+04  0.13340132746E+04  0.10100000352E+00 0. -1.
</event>
<event>
 5   0  0.4505107E-05  0.2291971E+04  0.7818609E-02  0.8481094E-01
        2   -1    0    0  501    0  0.00000000000E+00  0.00000000000E+00  0.17377064727E+04  0.17377064728E+04  0.25500000920E-02 0. -1.
       -2   -1    0    0    0  501  0.00000000000E+00  0.00000000000E+00 -0.75575647944E+03  0.75575647944E+03  0.25500000920E-02 0.  1.
    10030    2    1    2    0    0  0.00000000000E+00  0.00000000000E+00  0.98194999331E+03  0.24934629522E+04  0.22919711396E+04 0.  0.
        4    1    3    3  502    0 -0.38051924512E+03  0.30328831836E+03 -0.63778424574E+03  0.80221509395E+03  0.12699999809E+01 0.  1.
       -4    1    3    3    0  502  0.38051924512E+03 -0.30328831836E+03  0.16197342390E+04  0.16912478582E+04  0.12699999809E+01 0. -1.
</event>
<event>
 5   0  0.4505107E-05  0.2308265E+04  0.7818609E-02  0.8474670E-01
        2   -1    0    0  501    0  0.00000000000E+00  0.00000000000E+00  0.16230946004E+04  0.16230946004E+04  0.25500000920E-02 0.  1.
       -2   -1    0    0    0  501  0.00000000000E+00  0.00000000000E+00 -0.82066783664E+03  0.82066783665E+03  0.25500000920E-02 0. -1.
    10030    2    1    2    0    0  0.00000000000E+00  0.00000000000E+00  0.80242676373E+03  0.24437624370E+04  0.23082647460E+04 0.  0.
        4    1    3    3  502    0 -0.44394966696E+03  0.26256373679E+03 -0.69186097827E+03  0.86296248401E+03  0.12699999809E+01 0. -1.
       -4    1    3    3    0  502  0.44394966696E+03 -0.26256373679E+03  0.14942877420E+04  0.15807999530E+04  0.12699999809E+01 0.  1.
</event>
<event>
 5   0  0.4798609E-05  0.2263885E+04  0.7818609E-02  0.8492298E-01
        2   -1    0    0  501    0  0.00000000000E+00  0.00000000000E+00  0.11267737758E+04  0.11267737758E+04  0.25500000920E-02 0.  1.
       -2   -1    0    0    0  501  0.00000000000E+00  0.00000000000E+00 -0.11371348229E+04  0.11371348229E+04  0.25500000920E-02 0. -1.
    10030    2    1    2    0    0  0.00000000000E+00  0.00000000000E+00 -0.10361047019E+02  0.22639085987E+04  0.22638848893E+04 0.  0.
        2    1    3    3  502    0  0.83911462061E+03  0.56253426523E+03  0.50544753414E+03  0.11296173493E+04  0.25500000920E-02 0.  1.
       -2    1    3    3    0  502 -0.83911462061E+03 -0.56253426523E+03 -0.51580858116E+03  0.11342912494E+04  0.25500000920E-02 0. -1.
</event>
<event>
 5   0  0.1604500E-05  0.2284861E+04  0.7818609E-02  0.8483914E-01
       -3   -1    0    0    0  501  0.00000000000E+00  0.00000000000E+00  0.12470652465E+04  0.12470652506E+04  0.10100000352E+00 0.  1.
        3   -1    0    0  501    0  0.00000000000E+00  0.00000000000E+00 -0.10465752700E+04  0.10465752749E+04  0.10100000352E+00 0. -1.
    10030    2    1    2    0    0  0.00000000000E+00  0.00000000000E+00  0.20048997646E+03  0.22936405255E+04  0.22848611839E+04 0.  0.
        4    1    3    3  502    0  0.34551174459E+03  0.50936536546E+03  0.10663955017E+04  0.12312726831E+04  0.12699999809E+01 0.  1.
       -4    1    3    3    0  502 -0.34551174459E+03 -0.50936536546E+03 -0.86590552520E+03  0.10623678424E+04  0.12699999809E+01 0. -1.
</event>
<event>
 5   0  0.2031860E-05  0.2284093E+04  0.7818609E-02  0.8484219E-01
        1   -1    0    0  501    0  0.00000000000E+00  0.00000000000E+00  0.16811267750E+04  0.16811267750E+04  0.50400001928E-02 0. -1.
       -1   -1    0    0    0  501  0.00000000000E+00  0.00000000000E+00 -0.77583123494E+03  0.77583123495E+03  0.50400001928E-02 0.  1.
    10030    2    1    2    0    0  0.00000000000E+00  0.00000000000E+00  0.90529554010E+03  0.24569580100E+04  0.22840933974E+04 0.  0.
        4    1    3    3  502    0 -0.77781247349E+03 -0.44493433871E+03  0.12142657070E+04  0.15091062354E+04  0.12699999809E+01 0. -1.
       -4    1    3    3    0  502  0.77781247349E+03  0.44493433871E+03 -0.30897016688E+03  0.94785177460E+03  0.12699999809E+01 0.  1.
</event>
<event>
 5   0  0.1968318E-05  0.2287180E+04  0.7818609E-02  0.8482993E-01
        1   -1    0    0  501    0  0.00000000000E+00  0.00000000000E+00  0.12965326608E+04  0.12965326608E+04  0.50400001928E-02 0. -1.
       -1   -1    0    0    0  501  0.00000000000E+00  0.00000000000E+00 -0.10086889112E+04  0.10086889112E+04  0.50400001928E-02 0.  1.
    10030    2    1    2    0    0  0.00000000000E+00  0.00000000000E+00  0.28784374963E+03  0.23052215720E+04  0.22871800261E+04 0.  0.
        3    1    3    3  502    0  0.33605610211E+03 -0.18671294476E+03 -0.94160810375E+03  0.10170650219E+04  0.10100000352E+00 0.  1.
       -3    1    3    3    0  502 -0.33605610211E+03  0.18671294476E+03  0.12294518534E+04  0.12881565501E+04  0.10100000352E+00 0. -1.
</event>
<event>
 5   0  0.2031860E-05  0.2262791E+04  0.7818609E-02  0.8492738E-01
        1   -1    0    0  501    0  0.00000000000E+00  0.00000000000E+00  0.19320319820E+04  0.19320319820E+04  0.50400001928E-02 0. -1.
       -1   -1    0    0    0  501  0.00000000000E+00  0.00000000000E+00 -0.66254404645E+03  0.66254404646E+03  0.50400001928E-02 0.  1.
    10030    2    1    2    0    0  0.00000000000E+00  0.00000000000E+00  0.12694879356E+04  0.25945760285E+04  0.22627914506E+04 0.  0.
        4    1    3    3  502    0  0.67216883876E+03 -0.17373378818E+03  0.16590735731E+04  0.17984774424E+04  0.12699999809E+01 0. -1.
       -4    1    3    3    0  502 -0.67216883876E+03  0.17373378818E+03 -0.38958563751E+03  0.79609858611E+03  0.12699999809E+01 0.  1.
</event>
<event>
 5   0  0.2031860E-05  0.2309972E+04  0.7818609E-02  0.8474000E-01
       -1   -1    0    0    0  501  0.00000000000E+00  0.00000000000E+00  0.89451267423E+03  0.89451267424E+03  0.50400001928E-02 0. -1.
        1   -1    0    0  501    0  0.00000000000E+00  0.00000000000E+00 -0.14913064310E+04  0.14913064310E+04  0.50400001928E-02 0.  1.
    10030    2    1    2    0    0  0.00000000000E+00  0.00000000000E+00 -0.59679375680E+03  0.23858191053E+04  0.23099718645E+04 0.  0.
        4    1    3    3  502    0 -0.31991354719E+02  0.14947208814E+03 -0.14808124352E+04  0.14886814411E+04  0.12699999809E+01 0.  1.
       -4    1    3    3    0  502  0.31991354719E+02 -0.14947208814E+03  0.88401867838E+03  0.89713766421E+03  0.12699999809E+01 0. -1.
</event>
<event>
 5   0  0.4605516E-05  0.2235648E+04  0.7818609E-02  0.8503735E-01
        2   -1    0    0  501    0  0.00000000000E+00  0.00000000000E+00  0.16811182004E+04  0.16811182004E+04  0.25500000920E-02 0.  1.
       -2   -1    0    0    0  501  0.00000000000E+00  0.00000000000E+00 -0.74327345328E+03  0.74327345329E+03  0.25500000920E-02 0. -1.
    10030    2    1    2    0    0  0.00000000000E+00  0.00000000000E+00  0.93784474711E+03  0.24243916537E+04  0.22356480315E+04 0.  0.
        1    1    3    3  502    0  0.47070381920E+03 -0.84422419857E+02 -0.62674433140E+03  0.78835124618E+03  0.50400001928E-02 0. -1.
       -1    1    3    3    0  502 -0.47070381920E+03  0.84422419857E+02  0.15645890785E+04  0.16360404075E+04  0.50400001928E-02 0.  1.
</event>
<event>
 5   0  0.4798609E-05  0.2280093E+04  0.7818609E-02  0.8485812E-01
       -2   -1    0    0    0  501  0.00000000000E+00  0.00000000000E+00  0.53609310238E+03  0.53609310238E+03  0.25500000920E-02 0.  1.
        2   -1    0    0  501    0  0.00000000000E+00  0.00000000000E+00 -0.24244042210E+04  0.24244042210E+04  0.25500000920E-02 0. -1.
    10030    2    1    2    0    0  0.00000000000E+00  0.00000000000E+00 -0.18883111186E+04  0.29604973234E+04  0.22800933141E+04 0.  0.
        2    1    3    3  502    0 -0.95364472697E+03  0.21934517193E+03 -0.17036489721E+04  0.19646807348E+04  0.25500000920E-02 0. -1.
       -2    1    3    3    0  502  0.95364472697E+03 -0.21934517193E+03 -0.18466214658E+03  0.99581658859E+03  0.25500000920E-02 0.  1.
</event>
<event>
 5   0  0.4602447E-05  0.2315620E+04  0.7818609E-02  0.8471788E-01
       -2   -1    0    0    0  501  0.00000000000E+00  0.00000000000E+00  0.13887088894E+04  0.13887088894E+04  0.25500000920E-02 0.  1.
        2   -1    0    0  501    0  0.00000000000E+00  0.00000000000E+00 -0.96530211013E+03  0.96530211013E+03  0.25500000920E-02 0. -1.
    10030    2    1    2    0    0  0.00000000000E+00  0.00000000000E+00  0.42340677926E+03  0.23540109995E+04  0.23156196763E+04 0.  0.
        3    1    3    3  502    0 -0.32756790423E+03 -0.38421528818E+03 -0.84749295253E+03  0.98649198392E+03  0.10100000352E+00 0. -1.
       -3    1    3    3    0  502  0.32756790423E+03  0.38421528818E+03  0.12708997318E+04  0.13675190156E+04  0.10100000352E+00 0.  1.
</event>
<event>
 5   0  0.4436695E-05  0.2288472E+04  0.7818609E-02  0.8482480E-01
       -2   -1    0    0    0  501  0.00000000000E+00  0.00000000000E+00  0.58544540344E+03  0.58544540345E+03  0.25500000920E-02 0.  1.
        2   -1    0    0  501    0  0.00000000000E+00  0.00000000000E+00 -0.22363758135E+04  0.22363758135E+04  0.25500000920E-02 0. -1.
    10030    2    1    2    0    0  0.00000000000E+00  0.00000000000E+00 -0.16509304101E+04  0.28218212170E+04  0.22884719272E+04 0.  0.
        5    1    3    3  502    0  0.18857318280E+03  0.86909970785E+03 -0.17132332762E+04  0.19303068399E+04  0.46999998093E+01 0. -1.
       -5    1    3    3    0  502 -0.18857318280E+03 -0.86909970785E+03  0.62302866096E+02  0.89151437710E+03  0.46999998093E+01 0.  1.
</event>
<event>
 5   0  0.2043885E-05  0.2309065E+04  0.7818609E-02  0.8474355E-01
        1   -1    0    0  501    0  0.00000000000E+00  0.00000000000E+00  0.71771490399E+03  0.71771490400E+03  0.50400001928E-02 0. -1.
       -1   -1    0    0    0  501  0.00000000000E+00  0.00000000000E+00 -0.18572073438E+04  0.18572073438E+04  0.50400001928E-02 0.  1.
    10030    2    1    2    0    0  0.00000000000E+00  0.00000000000E+00 -0.11394924398E+04  0.25749222478E+04  0.23090650839E+04 0.  0.
        5    1    3    3  502    0  0.60452379654E+03 -0.63150630302E+03  0.27118341604E+03  0.91532058125E+03  0.46999998093E+01 0. -1.
       -5    1    3    3    0  502 -0.60452379654E+03  0.63150630302E+03 -0.14106758558E+04  0.16596016665E+04  0.46999998093E+01 0.  1.
</event>
<event>
 5   0  0.2042951E-05  0.2210843E+04  0.7818609E-02  0.8513929E-01
        1   -1    0    0  501    0  0.00000000000E+00  0.00000000000E+00  0.22258168330E+04  0.22258168330E+04  0.50400001928E-02 0.  1.
       -1   -1    0    0    0  501  0.00000000000E+00  0.00000000000E+00 -0.54899239576E+03  0.54899239578E+03  0.50400001928E-02 0. -1.
    10030    2    1    2    0    0  0.00000000000E+00  0.00000000000E+00  0.16768244372E+04  0.27748092288E+04  0.22108428399E+04 0.  0.
        2    1    3    3  502    0  0.34182274701E+03  0.52625559379E+03  0.19805925702E+04  0.20776271729E+04  0.25500000920E-02 0.  1.
       -2    1    3    3    0  502 -0.34182274701E+03 -0.52625559379E+03 -0.30376813300E+03  0.69718205585E+03  0.25500000920E-02 0. -1.
</event>
<event>
 5   0  0.2043885E-05  0.2287217E+04  0.7818609E-02  0.8482978E-01
        1   -1    0    0  501    0  0.00000000000E+00  0.00000000000E+00  0.14321308732E+04  0.14321308732E+04  0.50400001928E-02 0. -1.
       -1   -1    0    0    0  501  0.00000000000E+00  0.00000000000E+00 -0.91321304571E+03  0.91321304572E+03  0.50400001928E-02 0.  1.
    10030    2    1    2    0    0  0.00000000000E+00  0.00000000000E+00  0.51891782744E+03  0.23453439189E+04  0.22872171708E+04 0.  0.
        5    1    3    3  502    0  0.28341609381E+03 -0.77774655332E+03  0.10685643697E+04  0.13516901589E+04  0.46999998093E+01 0. -1.
       -5    1    3    3    0  502 -0.28341609381E+03  0.77774655332E+03 -0.54964654223E+03  0.99365376002E+03  0.46999998093E+01 0.  1.
</event>
<event>
 5   0  0.4798609E-05  0.2312807E+04  0.7818609E-02  0.8472889E-01
        2   -1    0    0  501    0  0.00000000000E+00  0.00000000000E+00  0.14066318416E+04  0.14066318416E+04  0.25500000920E-02 0. -1.
       -2   -1    0    0    0  501  0.00000000000E+00  0.00000000000E+00 -0.95068852850E+03  0.95068852850E+03  0.25500000920E-02 0.  1.
    10030    2    1    2    0    0  0.00000000000E+00  0.00000000000E+00  0.45594331313E+03  0.23573203701E+04  0.23128067413E+04 0.  0.
        2    1    3    3  502    0 -0.81298791546E+01  0.75603663978E+03  0.11198044149E+04  0.13511548480E+04  0.25500000920E-02 0. -1.
       -2    1    3    3    0  502  0.81298791546E+01 -0.75603663978E+03 -0.66386110173E+03  0.10061655222E+04  0.25500000920E-02 0.  1.
</event>
<event>
 5   0  0.4605516E-05  0.2363775E+04  0.7818609E-02  0.8453191E-01
        2   -1    0    0  501    0  0.00000000000E+00  0.00000000000E+00  0.10175962765E+04  0.10175962765E+04  0.25500000920E-02 0.  1.
       -2   -1    0    0    0  501  0.00000000000E+00  0.00000000000E+00 -0.13727036957E+04  0.13727036957E+04  0.25500000920E-02 0. -1.
    10030    2    1    2    0    0  0.00000000000E+00  0.00000000000E+00 -0.35510741916E+03  0.23902999723E+04  0.23637750904E+04 0.  0.
        1    1    3    3  502    0 -0.43881400492E+03  0.25682753123E+03 -0.12564563703E+04  0.13554337764E+04  0.50400001928E-02 0. -1.
       -1    1    3    3    0  502  0.43881400492E+03 -0.25682753123E+03  0.90134895110E+03  0.10348661959E+04  0.50400001928E-02 0.  1.
</event>
<event>
 5   0  0.4605516E-05  0.2260224E+04  0.7818609E-02  0.8493771E-01
       -2   -1    0    0    0  501  0.00000000000E+00  0.00000000000E+00  0.82215080240E+03  0.82215080240E+03  0.25500000920E-02 0.  1.
        2   -1    0    0  501    0  0.00000000000E+00  0.00000000000E+00 -0.15534293020E+04  0.15534293020E+04  0.25500000920E-02 0. -1.
    10030    2    1    2    0    0  0.00000000000E+00  0.00000000000E+00 -0.73127849964E+03  0.23755801044E+04  0.22602240129E+04 0.  0.
        1    1    3    3  502    0 -0.63974119439E+03  0.50611837981E+03 -0.11876879843E+04  0.14408425862E+04  0.50400001928E-02 0. -1.
       -1    1    3    3    0  502  0.63974119439E+03 -0.50611837981E+03  0.45640948469E+03  0.93473751820E+03  0.50400001928E-02 0.  1.
</event>
<event>
 5   0  0.4602447E-05  0.2300543E+04  0.7818609E-02  0.8477707E-01
        2   -1    0    0  501    0  0.00000000000E+00  0.00000000000E+00  0.22081268017E+04  0.22081268017E+04  0.25500000920E-02 0. -1.
       -2   -1    0    0    0  501  0.00000000000E+00  0.00000000000E+00 -0.59920655987E+03  0.59920655988E+03  0.25500000920E-02 0.  1.
    10030    2    1    2    0    0  0.00000000000E+00  0.00000000000E+00  0.16089202418E+04  0.28073333615E+04  0.23005426009E+04 0.  0.
        3    1    3    3  502    0 -0.11381732547E+04 -0.11651652921E+03  0.65950919827E+03  0.13205933712E+04  0.10100000352E+00 0. -1.
       -3    1    3    3    0  502  0.11381732547E+04  0.11651652921E+03  0.94941104351E+03  0.14867399904E+04  0.10100000352E+00 0.  1.
</event>
<event>
 5   0  0.2031860E-05  0.2089777E+04  0.7818609E-02  0.8565760E-01
        1   -1    0    0  501    0  0.00000000000E+00  0.00000000000E+00  0.20632260251E+04  0.20632260251E+04  0.50400001928E-02 0. -1.
       -1   -1    0    0    0  501  0.00000000000E+00  0.00000000000E+00 -0.52916727406E+03  0.52916727408E+03  0.50400001928E-02 0.  1.
    10030    2    1    2    0    0  0.00000000000E+00  0.00000000000E+00  0.15340587510E+04  0.25923932992E+04  0.20897767263E+04 0.  0.
        4    1    3    3  502    0 -0.67284116819E+03 -0.29394807915E+03  0.16892475973E+04  0.18419228455E+04  0.12699999809E+01 0. -1.
       -4    1    3    3    0  502  0.67284116819E+03  0.29394807915E+03 -0.15518884632E+03  0.75047045363E+03  0.12699999809E+01 0.  1.
</event>
<event>
 5   0  0.4602447E-05  0.2311539E+04  0.7818609E-02  0.8473385E-01
       -2   -1    0    0    0  501  0.00000000000E+00  0.00000000000E+00  0.12988314275E+04  0.12988314275E+04  0.25500000920E-02 0.  1.
        2   -1    0    0  501    0  0.00000000000E+00  0.00000000000E+00 -0.10284653031E+04  0.10284653031E+04  0.25500000920E-02 0. -1.
    10030    2    1    2    0    0  0.00000000000E+00  0.00000000000E+00  0.27036612448E+03  0.23272967306E+04  0.23115389313E+04 0.  0.
        3    1    3    3  502    0 -0.24376141847E+03 -0.96841872653E+02  0.12684695835E+04  0.12953042391E+04  0.10100000352E+00 0.  1.
       -3    1    3    3    0  502  0.24376141847E+03  0.96841872653E+02 -0.99810345901E+03  0.10319924915E+04  0.10100000352E+00 0. -1.
</event>
<event>
 5   0  0.2042951E-05  0.2343602E+04  0.7818609E-02  0.8460925E-01
        1   -1    0    0  501    0  0.00000000000E+00  0.00000000000E+00  0.11981381051E+04  0.11981381051E+04  0.50400001928E-02 0. -1.
       -1   -1    0    0    0  501  0.00000000000E+00  0.00000000000E+00 -0.11460428402E+04  0.11460428402E+04  0.50400001928E-02 0.  1.
    10030    2    1    2    0    0  0.00000000000E+00  0.00000000000E+00  0.52095264834E+02  0.23441809453E+04  0.23436020114E+04 0.  0.
        2    1    3    3  502    0  0.10072037339E+04  0.56898675178E+03  0.21294215460E+03  0.11762438720E+04  0.25500000920E-02 0. -1.
       -2    1    3    3    0  502 -0.10072037339E+04 -0.56898675178E+03 -0.16084688976E+03  0.11679370733E+04  0.25500000920E-02 0.  1.
</event>
<event>
 5   0  0.4436695E-05  0.2369538E+04  0.7818609E-02  0.8450997E-01
       -2   -1    0    0    0  501  0.00000000000E+00  0.00000000000E+00  0.14580626994E+04  0.14580626994E+04  0.25500000920E-02 0. -1.
        2   -1    0    0  501    0  0.00000000000E+00  0.00000000000E+00 -0.96270081736E+03  0.96270081736E+03  0.25500000920E-02 0.  1.
    10030    2    1    2    0    0  0.00000000000E+00  0.00000000000E+00  0.49536188205E+03  0.24207635168E+04  0.23695384804E+04 0.  0.
        5    1    3    3  502    0  0.49989780320E+03 -0.96524163398E+03 -0.23374606963E+03  0.11118671416E+04  0.46999998093E+01 0.  1.
       -5    1    3    3    0  502 -0.49989780320E+03  0.96524163398E+03  0.72910795167E+03  0.13088963751E+04  0.46999998093E+01 0. -1.
</event>
<event>
 5   0  0.4602447E-05  0.2226038E+04  0.7818609E-02  0.8507668E-01
        2   -1    0    0  501    0  0.00000000000E+00  0.00000000000E+00  0.26494193664E+04  0.26494193664E+04  0.25500000920E-02 0. -1.
       -2   -1    0    0    0  501  0.00000000000E+00  0.00000000000E+00 -0.46757835658E+03  0.46757835659E+03  0.25500000920E-02 0.  1.
    10030    2    1    2    0    0  0.00000000000E+00  0.00000000000E+00  0.21818410098E+04  0.31169977230E+04  0.22260378732E+04 0.  0.
        3    1    3    3  502    0 -0.52773087707E+03 -0.74378109901E+03  0.19843391038E+04  0.21838754293E+04  0.10100000352E+00 0. -1.
       -3    1    3    3    0  502  0.52773087707E+03  0.74378109901E+03  0.19750190606E+03  0.93312229367E+03  0.10100000352E+00 0.  1.
</event>
<event>
 5   0  0.2042951E-05  0.2290402E+04  0.7818609E-02  0.8481715E-01
       -1   -1    0    0    0  501  0.00000000000E+00  0.00000000000E+00  0.78031755099E+03  0.78031755101E+03  0.50400001928E-02 0.  1.
        1   -1    0    0  501    0  0.00000000000E+00  0.00000000000E+00 -0.16807075323E+04  0.16807075323E+04  0.50400001928E-02 0. -1.
    10030    2    1    2    0    0  0.00000000000E+00  0.00000000000E+00 -0.90038998132E+03  0.24610250833E+04  0.22904022228E+04 0.  0.
        2    1    3    3  502    0 -0.69773468062E+01  0.63246546138E+03 -0.14759994801E+04  0.16058130989E+04  0.25500000920E-02 0. -1.
       -2    1    3    3    0  502  0.69773468062E+01 -0.63246546138E+03  0.57560949881E+03  0.85521198444E+03  0.25500000920E-02 0.  1.
</event>
<event>
 5   0  0.2042951E-05  0.2310188E+04  0.7818609E-02  0.8473915E-01
       -1   -1    0    0    0  501  0.00000000000E+00  0.00000000000E+00  0.18134152273E+04  0.18134152273E+04  0.50400001928E-02 0.  1.
        1   -1    0    0  501    0  0.00000000000E+00  0.00000000000E+00 -0.73576180123E+03  0.73576180125E+03  0.50400001928E-02 0. -1.
    10030    2    1    2    0    0  0.00000000000E+00  0.00000000000E+00  0.10776534261E+04  0.25491770286E+04  0.23101875717E+04 0.  0.
        2    1    3    3  502    0 -0.11273959671E+04 -0.20397678948E+03  0.37660280151E+03  0.12060090661E+04  0.25500000920E-02 0. -1.
       -2    1    3    3    0  502  0.11273959671E+04  0.20397678948E+03  0.70105062460E+03  0.13431679625E+04  0.25500000920E-02 0.  1.
</event>
<event>
 5   0  0.2043885E-05  0.2345442E+04  0.7818609E-02  0.8460216E-01
       -1   -1    0    0    0  501  0.00000000000E+00  0.00000000000E+00  0.13651598260E+04  0.13651598260E+04  0.50400001928E-02 0. -1.
        1   -1    0    0  501    0  0.00000000000E+00  0.00000000000E+00 -0.10074090285E+04  0.10074090285E+04  0.50400001928E-02 0.  1.
    10030    2    1    2    0    0  0.00000000000E+00  0.00000000000E+00  0.35775079747E+03  0.23725688545E+04  0.23454418211E+04 0.  0.
        5    1    3    3  502    0 -0.79940111867E+03  0.55985844473E+03  0.83660218806E+03  0.12854605936E+04  0.46999998093E+01 0. -1.
       -5    1    3    3    0  502  0.79940111867E+03 -0.55985844473E+03 -0.47885139059E+03  0.10871082609E+04  0.46999998093E+01 0.  1.
</event>
<event>
 5   0  0.4798609E-05  0.2366928E+04  0.7818609E-02  0.8451990E-01
       -2   -1    0    0    0  501  0.00000000000E+00  0.00000000000E+00  0.12439739733E+04  0.12439739733E+04  0.25500000920E-02 0. -1.
        2   -1    0    0  501    0  0.00000000000E+00  0.00000000000E+00 -0.11258977437E+04  0.11258977437E+04  0.25500000920E-02 0.  1.
    10030    2    1    2    0    0  0.00000000000E+00  0.00000000000E+00  0.11807622959E+03  0.23698717171E+04  0.23669283807E+04 0.  0.
        2    1    3    3  502    0 -0.61506681999E+03  0.32692239780E+03  0.10169943299E+04  0.12326649644E+04  0.25500000920E-02 0. -1.
       -2    1    3    3    0  502  0.61506681999E+03 -0.32692239780E+03 -0.89891810035E+03  0.11372067527E+04  0.25500000920E-02 0.  1.
</event>
<event>
 5   0  0.4798609E-05  0.2292374E+04  0.7818609E-02  0.8480934E-01
        2   -1    0    0  501    0  0.00000000000E+00  0.00000000000E+00  0.14241015361E+04  0.14241015361E+04  0.25500000920E-02 0. -1.
       -2   -1    0    0    0  501  0.00000000000E+00  0.00000000000E+00 -0.92250793840E+03  0.92250793841E+03  0.25500000920E-02 0.  1.
    10030    2    1    2    0    0  0.00000000000E+00  0.00000000000E+00  0.50159359771E+03  0.23466094745E+04  0.22923742907E+04 0.  0.
        2    1    3    3  502    0  0.52798757810E+03  0.63977916656E+03  0.10604953146E+04  0.13463798041E+04  0.25500000920E-02 0. -1.
       -2    1    3    3    0  502 -0.52798757810E+03 -0.63977916656E+03 -0.55890171684E+03  0.10002296705E+04  0.25500000920E-02 0.  1.
</event>
<event>
 5   0  0.1968318E-05  0.2297581E+04  0.7818609E-02  0.8478876E-01
        1   -1    0    0  501    0  0.00000000000E+00  0.00000000000E+00  0.82253791436E+03  0.82253791438E+03  0.50400001928E-02 0. -1.
       -1   -1    0    0    0  501  0.00000000000E+00  0.00000000000E+00 -0.16044483454E+04  0.16044483454E+04  0.50400001928E-02 0.  1.
    10030    2    1    2    0    0  0.00000000000E+00  0.00000000000E+00 -0.78191043099E+03  0.24269862597E+04  0.22975809850E+04 0.  0.
        3    1    3    3  502    0  0.11281519209E+04  0.13499909888E+03 -0.57011967718E+03  0.12712151548E+04  0.10100000352E+00 0.  1.
       -3    1    3    3    0  502 -0.11281519209E+04 -0.13499909888E+03 -0.21179075381E+03  0.11557711049E+04  0.10100000352E+00 0. -1.
</event>
<event>
 5   0  0.4505107E-05  0.2289245E+04  0.7818609E-02  0.8482174E-01
       -2   -1    0    0    0  501  0.00000000000E+00  0.00000000000E+00  0.10354602639E+04  0.10354602640E+04  0.25500000920E-02 0.  1.
        2   -1    0    0  501    0  0.00000000000E+00  0.00000000000E+00 -0.12652933905E+04  0.12652933905E+04  0.25500000920E-02 0. -1.
    10030    2    1    2    0    0  0.00000000000E+00  0.00000000000E+00 -0.22983312652E+03  0.23007536544E+04  0.22892453150E+04 0.  0.
        4    1    3    3  502    0 -0.10194357326E+04  0.20865450945E+03  0.36431753140E+03  0.11025038748E+04  0.12699999809E+01 0.  1.
       -4    1    3    3    0  502  0.10194357326E+04 -0.20865450945E+03 -0.59415065791E+03  0.11982497797E+04  0.12699999809E+01 0. -1.
</event>
<event>
 5   0  0.2085063E-05  0.2287159E+04  0.7818609E-02  0.8483001E-01
       -1   -1    0    0    0  501  0.00000000000E+00  0.00000000000E+00  0.94702662926E+03  0.94702662927E+03  0.50400001928E-02 0.  1.
        1   -1    0    0  501    0  0.00000000000E+00  0.00000000000E+00 -0.13809262782E+04  0.13809262782E+04  0.50400001928E-02 0. -1.
    10030    2    1    2    0    0  0.00000000000E+00  0.00000000000E+00 -0.43389964889E+03  0.23279529074E+04  0.22871589000E+04 0.  0.
        1    1    3    3  502    0 -0.35398127847E+03 -0.85823523244E+02  0.88640776981E+03  0.95832518336E+03  0.50400001928E-02 0.  1.
       -1    1    3    3    0  502  0.35398127847E+03  0.85823523244E+02 -0.13203074187E+04  0.13696277241E+04  0.50400001928E-02 0. -1.
</event>
<event>
 5   0  0.4798609E-05  0.2218474E+04  0.7818609E-02  0.8510778E-01
       -2   -1    0    0    0  501  0.00000000000E+00  0.00000000000E+00  0.58755405592E+03  0.58755405592E+03  0.25500000920E-02 0. -1.
        2   -1    0    0  501    0  0.00000000000E+00  0.00000000000E+00 -0.20941174816E+04  0.20941174816E+04  0.25500000920E-02 0.  1.
    10030    2    1    2    0    0  0.00000000000E+00  0.00000000000E+00 -0.15065634257E+04  0.26816715375E+04  0.22184744487E+04 0.  0.
        2    1    3    3  502    0 -0.63695485570E+03  0.90209049541E+03 -0.62691554101E+03  0.12698432367E+04  0.25500000920E-02 0.  1.
       -2    1    3    3    0  502  0.63695485570E+03 -0.90209049541E+03 -0.87964788466E+03  0.14118283009E+04  0.25500000920E-02 0. -1.
</event>
<event>
 5   0  0.1968318E-05  0.2301637E+04  0.7818609E-02  0.8477276E-01
       -1   -1    0    0    0  501  0.00000000000E+00  0.00000000000E+00  0.62994586713E+03  0.62994586715E+03  0.50400001928E-02 0. -1.
        1   -1    0    0  501    0  0.00000000000E+00  0.00000000000E+00 -0.21023762122E+04  0.21023762122E+04  0.50400001928E-02 0.  1.
    10030    2    1    2    0    0  0.00000000000E+00  0.00000000000E+00 -0.14724303451E+04  0.27323220794E+04  0.23016369879E+04 0.  0.
        3    1    3    3  502    0  0.16684512834E+03  0.85493127085E+03 -0.16290364138E+04  0.18472965172E+04  0.10100000352E+00 0.  1.
       -3    1    3    3    0  502 -0.16684512834E+03 -0.85493127085E+03  0.15660606872E+03  0.88502556217E+03  0.10100000352E+00 0. -1.
</event>
<event>
 5   0  0.4605516E-05  0.2703531E+04  0.7818609E-02  0.8333860E-01
        2   -1    0    0  501    0  0.00000000000E+00  0.00000000000E+00  0.20177334535E+04  0.20177334535E+04  0.25500000920E-02 0.  1.
       -2   -1    0    0    0  501  0.00000000000E+00  0.00000000000E+00 -0.90560496120E+03  0.90560496121E+03  0.25500000920E-02 0. -1.
    10030    2    1    2    0    0  0.00000000000E+00  0.00000000000E+00  0.11121284923E+04  0.29233384147E+04  0.27035305997E+04 0.  0.
        1    1    3    3  502    0 -0.51501047825E+03 -0.10062649666E+04 -0.24546173362E+03  0.11567438949E+04  0.50400001928E-02 0. -1.
       -1    1    3    3    0  502  0.51501047825E+03  0.10062649666E+04  0.13575902259E+04  0.17665945198E+04  0.50400001928E-02 0.  1.
</event>
<event>
 5   0  0.4436695E-05  0.2297844E+04  0.7818609E-02  0.8478772E-01
       -2   -1    0    0    0  501  0.00000000000E+00  0.00000000000E+00  0.48866618857E+03  0.48866618857E+03  0.25500000920E-02 0. -1.
        2   -1    0    0  501    0  0.00000000000E+00  0.00000000000E+00 -0.27012740804E+04  0.27012740804E+04  0.25500000920E-02 0.  1.
    10030    2    1    2    0    0  0.00000000000E+00  0.00000000000E+00 -0.22126078918E+04  0.31899402690E+04  0.22978436058E+04 0.  0.
        5    1    3    3  502    0  0.11354834018E+04  0.62807851876E+02 -0.13332781430E+04  0.17524040854E+04  0.46999998093E+01 0.  1.
       -5    1    3    3    0  502 -0.11354834018E+04 -0.62807851876E+02 -0.87932974886E+03  0.14375361836E+04  0.46999998093E+01 0. -1.
</event>
<event>
 5   0  0.2085063E-05  0.2278222E+04  0.7818609E-02  0.8486558E-01
        1   -1    0    0  501    0  0.00000000000E+00  0.00000000000E+00  0.91600875657E+03  0.91600875658E+03  0.50400001928E-02 0. -1.
       -1   -1    0    0    0  501  0.00000000000E+00  0.00000000000E+00 -0.14165522822E+04  0.14165522823E+04  0.50400001928E-02 0.  1.
    10030    2    1    2    0    0  0.00000000000E+00  0.00000000000E+00 -0.50054352568E+03  0.23325610388E+04  0.22782223726E+04 0.  0.
        1    1    3    3  502    0 -0.14410151044E+03  0.98354895024E+03  0.31926988867E+03  0.10440627590E+04  0.50400001928E-02 0. -1.
       -1    1    3    3    0  502  0.14410151044E+03 -0.98354895024E+03 -0.81981341435E+03  0.12884982799E+04  0.50400001928E-02 0.  1.
</event>
<event>
 5   0  0.2031860E-05  0.2284362E+04  0.7818609E-02  0.8484112E-01
       -1   -1    0    0    0  501  0.00000000000E+00  0.00000000000E+00  0.97899550230E+03  0.97899550232E+03  0.50400001928E-02 0. -1.
        1   -1    0    0  501    0  0.00000000000E+00  0.00000000000E+00 -0.13325678849E+04  0.13325678849E+04  0.50400001928E-02 0.  1.
    10030    2    1    2    0    0  0.00000000000E+00  0.00000000000E+00 -0.35357238259E+03  0.23115633872E+04  0.22843624632E+04 0.  0.
        4    1    3    3  502    0  0.73911282752E+03 -0.10815578387E+03 -0.10511298007E+04  0.12895196455E+04  0.12699999809E+01 0.  1.
       -4    1    3    3    0  502 -0.73911282752E+03  0.10815578387E+03  0.69755741814E+03  0.10220437417E+04  0.12699999809E+01 0. -1.
</event>
<event>
 5   0  0.2031860E-05  0.2425001E+04  0.7818609E-02  0.8430202E-01
       -1   -1    0    0    0  501  0.00000000000E+00  0.00000000000E+00  0.90396311212E+03  0.90396311214E+03  0.50400001928E-02 0.  1.
        1   -1    0    0  501    0  0.00000000000E+00  0.00000000000E+00 -0.16263471394E+04  0.16263471394E+04  0.50400001928E-02 0. -1.
    10030    2    1    2    0    0  0.00000000000E+00  0.00000000000E+00 -0.72238402728E+03  0.25303102516E+04  0.24250012961E+04 0.  0.
        4    1    3    3  502    0  0.82963559323E+03 -0.45543580960E+03 -0.11520232955E+04  0.14909313467E+04  0.12699999809E+01 0. -1.
       -4    1    3    3    0  502 -0.82963559323E+03  0.45543580960E+03  0.42963926822E+03  0.10393789049E+04  0.12699999809E+01 0.  1.
</event>
<event>
 5   0  0.4798609E-05  0.2293854E+04  0.7818609E-02  0.8480348E-01
       -2   -1    0    0    0  501  0.00000000000E+00  0.00000000000E+00  0.12802787673E+04  0.12802787673E+04  0.25500000920E-02 0. -1.
        2   -1    0    0  501    0  0.00000000000E+00  0.00000000000E+00 -0.10274653300E+04  0.10274653300E+04  0.25500000920E-02 0.  1.
    10030    2    1    2    0    0  0.00000000000E+00  0.00000000000E+00  0.25281343734E+03  0.23077440973E+04  0.22938544384E+04 0.  0.
        2    1    3    3  502    0 -0.99254110106E+03  0.44571969855E+03 -0.23860994715E+03  0.11138844616E+04  0.25500000920E-02 0.  1.
       -2    1    3    3    0  502  0.99254110106E+03 -0.44571969855E+03  0.49142338449E+03  0.11938596357E+04  0.25500000920E-02 0. -1.
</event>
<event>
 5   0  0.4798609E-05  0.2312465E+04  0.7818609E-02  0.8473022E-01
        2   -1    0    0  501    0  0.00000000000E+00  0.00000000000E+00  0.11235461012E+04  0.11235461012E+04  0.25500000920E-02 0.  1.
       -2   -1    0    0    0  501  0.00000000000E+00  0.00000000000E+00 -0.11898700675E+04  0.11898700675E+04  0.25500000920E-02 0. -1.
    10030    2    1    2    0    0  0.00000000000E+00  0.00000000000E+00 -0.66323966327E+02  0.23134161687E+04  0.23124652433E+04 0.  0.
        2    1    3    3  502    0 -0.15150537205E+03 -0.77530584331E+03  0.81147238495E+03  0.11324930287E+04  0.25500000920E-02 0.  1.
       -2    1    3    3    0  502  0.15150537205E+03  0.77530584331E+03 -0.87779635128E+03  0.11809231401E+04  0.25500000920E-02 0. -1.
</event>
<event>
 5   0  0.4505107E-05  0.2317987E+04  0.7818609E-02  0.8470863E-01
       -2   -1    0    0    0  501  0.00000000000E+00  0.00000000000E+00  0.82342962286E+03  0.82342962286E+03  0.25500000920E-02 0. -1.
        2   -1    0    0  501    0  0.00000000000E+00  0.00000000000E+00 -0.16313062291E+04  0.16313062291E+04  0.25500000920E-02 0.  1.
    10030    2    1    2    0    0  0.00000000000E+00  0.00000000000E+00 -0.80787660628E+03  0.24547358520E+04  0.23179869482E+04 0.  0.
        4    1    3    3  502    0 -0.48446170894E+03 -0.10230734978E+04 -0.66737423146E+03  0.13140671623E+04  0.12699999809E+01 0.  1.
       -4    1    3    3    0  502  0.48446170894E+03  0.10230734978E+04 -0.14050237482E+03  0.11406686897E+04  0.12699999809E+01 0. -1.
</event>
<event>
 5   0  0.4436695E-05  0.2293752E+04  0.7818609E-02  0.8480389E-01
        2   -1    0    0  501    0  0.00000000000E+00  0.00000000000E+00  0.11521499142E+04  0.11521499142E+04  0.25500000920E-02 0. -1.
       -2   -1    0    0    0  501  0.00000000000E+00  0.00000000000E+00 -0.11416258740E+04  0.11416258740E+04  0.25500000920E-02 0.  1.
    10030    2    1    2    0    0  0.00000000000E+00  0.00000000000E+00  0.10524040265E+02  0.22937757882E+04  0.22937516455E+04 0.  0.
        5    1    3    3  502    0 -0.61399267422E+03 -0.33552637363E+03  0.91397236672E+03  0.11510571352E+04  0.46999998093E+01 0. -1.
       -5    1    3    3    0  502  0.61399267422E+03  0.33552637363E+03 -0.90344832645E+03  0.11427186530E+04  0.46999998093E+01 0.  1.
</event>
<event>
 5   0  0.4798609E-05  0.2301485E+04  0.7818609E-02  0.8477336E-01
       -2   -1    0    0    0  501  0.00000000000E+00  0.00000000000E+00  0.76271120289E+03  0.76271120290E+03  0.25500000920E-02 0.  1.
        2   -1    0    0  501    0  0.00000000000E+00  0.00000000000E+00 -0.17361856447E+04  0.17361856447E+04  0.25500000920E-02 0. -1.
    10030    2    1    2    0    0  0.00000000000E+00  0.00000000000E+00 -0.97347444178E+03  0.24988968476E+04  0.23014849480E+04 0.  0.
        2    1    3    3  502    0 -0.53084748709E+03  0.15137518400E+03 -0.15830454780E+04  0.16765281048E+04  0.25500000920E-02 0. -1.
       -2    1    3    3    0  502  0.53084748709E+03 -0.15137518400E+03  0.60957103620E+03  0.82236874275E+03  0.25500000920E-02 0.  1.
</event>
<event>
 5   0  0.4605516E-05  0.2296819E+04  0.7818609E-02  0.8479177E-01
       -2   -1    0    0    0  501  0.00000000000E+00  0.00000000000E+00  0.88188272389E+03  0.88188272389E+03  0.25500000920E-02 0. -1.
        2   -1    0    0  501    0  0.00000000000E+00  0.00000000000E+00 -0.14954867732E+04  0.14954867732E+04  0.25500000920E-02 0.  1.
    10030    2    1    2    0    0  0.00000000000E+00  0.00000000000E+00 -0.61360404931E+03  0.23773694971E+04  0.22968186250E+04 0.  0.
        1    1    3    3  502    0 -0.25569803601E+03 -0.10367825660E+04  0.13056201313E+03  0.10758001738E+04  0.50400001928E-02 0.  1.
       -1    1    3    3    0  502  0.25569803601E+03  0.10367825660E+04 -0.74416606244E+03  0.13015693233E+04  0.50400001928E-02 0. -1.
</event>
<event>
 5   0  0.4505107E-05  0.2306476E+04  0.7818609E-02  0.8475372E-01
       -2   -1    0    0    0  501  0.00000000000E+00  0.00000000000E+00  0.61146548715E+03  0.61146548715E+03  0.25500000920E-02 0.  1.
        2   -1    0    0  501    0  0.00000000000E+00  0.00000000000E+00 -0.21750331971E+04  0.21750331971E+04  0.25500000920E-02 0. -1.
    10030    2    1    2    0    0  0.00000000000E+00  0.00000000000E+00 -0.15635677100E+04  0.27864986843E+04  0.23064758689E+04 0.  0.
        4    1    3    3  502    0  0.88283244673E+03  0.14156573708E+03 -0.16617413219E+04  0.18870134660E+04  0.12699999809E+01 0. -1.
       -4    1    3    3    0  502 -0.88283244673E+03 -0.14156573708E+03  0.98173611969E+02  0.89948521827E+03  0.12699999809E+01 0.  1.
</event>
<event>
 5   0  0.4505107E-05  0.2316563E+04  0.7818609E-02  0.8471419E-01
        2   -1    0    0  501    0  0.00000000000E+00  0.00000000000E+00  0.14266481509E+04  0.14266481509E+04  0.25500000920E-02 0.  1.
       -2   -1    0    0    0  501  0.00000000000E+00  0.00000000000E+00 -0.94039722145E+03  0.94039722145E+03  0.25500000920E-02 0. -1.
    10030    2    1    2    0    0  0.00000000000E+00  0.00000000000E+00  0.48625092947E+03  0.23670453724E+04  0.23165629343E+04 0.  0.
        4    1    3    3  502    0  0.96041755498E+03 -0.15710342174E+03  0.88493037390E+03  0.13153656315E+04  0.12699999809E+01 0.  1.
       -4    1    3    3    0  502 -0.96041755498E+03  0.15710342174E+03 -0.39867944443E+03  0.10516797409E+04  0.12699999809E+01 0. -1.
</event>
<event>
 5   0  0.4436695E-05  0.2295234E+04  0.7818609E-02  0.8479803E-01
        2   -1    0    0  501    0  0.00000000000E+00  0.00000000000E+00  0.10329825172E+04  0.10329825172E+04  0.25500000920E-02 0.  1.
       -2   -1    0    0    0  501  0.00000000000E+00  0.00000000000E+00 -0.12749726637E+04  0.12749726637E+04  0.25500000920E-02 0. -1.
    10030    2    1    2    0    0  0.00000000000E+00  0.00000000000E+00 -0.24199014647E+03  0.23079551809E+04  0.22952337324E+04 0.  0.
        5    1    3    3  502    0 -0.38286924018E+03 -0.77481188909E+03 -0.88021636555E+03  0.12335822870E+04  0.46999998093E+01 0. -1.
       -5    1    3    3    0  502  0.38286924018E+03  0.77481188909E+03  0.63822621908E+03  0.10743728940E+04  0.46999998093E+01 0.  1.
</event>
<event>
 5   0  0.2031860E-05  0.2303017E+04  0.7818609E-02  0.8476733E-01
       -1   -1    0    0    0  501  0.00000000000E+00  0.00000000000E+00  0.17731563994E+04  0.17731563994E+04  0.50400001928E-02 0. -1.
        1   -1    0    0  501    0  0.00000000000E+00  0.00000000000E+00 -0.74780288367E+03  0.74780288368E+03  0.50400001928E-02 0.  1.
    10030    2    1    2    0    0  0.00000000000E+00  0.00000000000E+00  0.10253535157E+04  0.25209592831E+04  0.23030166901E+04 0.  0.
        4    1    3    3  502    0  0.26766921752E+03  0.47826717020E+03 -0.59587065097E+03  0.80959850648E+03  0.12699999809E+01 0.  1.
       -4    1    3    3    0  502 -0.26766921752E+03 -0.47826717020E+03  0.16212241667E+04  0.17113607766E+04  0.12699999809E+01 0. -1.
</event>
<event>
 5   0  0.4436695E-05  0.2197850E+04  0.7818609E-02  0.8519323E-01
        2   -1    0    0  501    0  0.00000000000E+00  0.00000000000E+00  0.18590392139E+04  0.18590392139E+04  0.25500000920E-02 0. -1.
       -2   -1    0    0    0  501  0.00000000000E+00  0.00000000000E+00 -0.64960253925E+03  0.64960253925E+03  0.25500000920E-02 0.  1.
    10030    2    1    2    0    0  0.00000000000E+00  0.00000000000E+00  0.12094366746E+04  0.25086417531E+04  0.21978503988E+04 0.  0.
        5    1    3    3  502    0 -0.96266167927E+03 -0.16987899495E+03  0.31693250037E+02  0.97806080269E+03  0.46999998093E+01 0.  1.
       -5    1    3    3    0  502  0.96266167927E+03  0.16987899495E+03  0.11777434246E+04  0.15305809504E+04  0.46999998093E+01 0. -1.
</event>
<event>
 5   0  0.4602447E-05  0.2350464E+04  0.7818609E-02  0.8458286E-01
       -2   -1    0    0    0  501  0.00000000000E+00  0.00000000000E+00  0.11266572524E+04  0.11266572524E+04  0.25500000920E-02 0.  1.
        2   -1    0    0  501    0  0.00000000000E+00  0.00000000000E+00 -0.12259007521E+04  0.12259007521E+04  0.25500000920E-02 0. -1.
    10030    2    1    2    0    0  0.00000000000E+00  0.00000000000E+00 -0.99243499723E+02  0.23525580045E+04  0.23504637611E+04 0.  0.
        3    1    3    3  502    0 -0.55128362190E+03  0.78733255354E+03 -0.72651107529E+03  0.12048338202E+04  0.10100000352E+00 0. -1.
       -3    1    3    3    0  502  0.55128362190E+03 -0.78733255354E+03  0.62726757557E+03  0.11477241843E+04  0.10100000352E+00 0.  1.
</event>
<event>
 5   0  0.1604500E-05  0.2404905E+04  0.7818609E-02  0.8437670E-01
        4   -1    0    0  501    0  0.00000000000E+00  0.00000000000E+00  0.15086811491E+04  0.15086816836E+04  0.12699999809E+01 0.  1.
       -4   -1    0    0    0  501  0.00000000000E+00  0.00000000000E+00 -0.95837993917E+03  0.95838078064E+03  0.12699999809E+01 0. -1.
    10030    2    1    2    0    0  0.00000000000E+00  0.00000000000E+00  0.55030120989E+03  0.24670624642E+04  0.24049045263E+04 0.  0.
        2    1    3    3  502    0  0.52888526039E+03 -0.49390529089E+02  0.13817969888E+04  0.14803789925E+04  0.25500000920E-02 0.  1.
       -2    1    3    3    0  502 -0.52888526039E+03  0.49390529089E+02 -0.83149577895E+03  0.98668347175E+03  0.25500000920E-02 0. -1.
</event>
<event>
 5   0  0.2085063E-05  0.2301972E+04  0.7818609E-02  0.8477144E-01
        1   -1    0    0  501    0  0.00000000000E+00  0.00000000000E+00  0.19766141854E+04  0.19766141854E+04  0.50400001928E-02 0.  1.
       -1   -1    0    0    0  501  0.00000000000E+00  0.00000000000E+00 -0.67022147877E+03  0.67022147879E+03  0.50400001928E-02 0. -1.
    10030    2    1    2    0    0  0.00000000000E+00  0.00000000000E+00  0.13063927067E+04  0.26468356642E+04  0.23019724432E+04 0.  0.
        1    1    3    3  502    0  0.59290321582E+03 -0.51690145524E+03  0.16193450090E+04  0.18002776442E+04  0.50400001928E-02 0.  1.
       -1    1    3    3    0  502 -0.59290321582E+03  0.51690145524E+03 -0.31295230237E+03  0.84655802007E+03  0.50400001928E-02 0. -1.
</event>
<event>
 5   0  0.2043885E-05  0.2231191E+04  0.7818609E-02  0.8505557E-01
       -1   -1    0    0    0  501  0.00000000000E+00  0.00000000000E+00  0.83270426463E+03  0.83270426465E+03  0.50400001928E-02 0.  1.
        1   -1    0    0  501    0  0.00000000000E+00  0.00000000000E+00 -0.14945924932E+04  0.14945924932E+04  0.50400001928E-02 0. -1.
    10030    2    1    2    0    0  0.00000000000E+00  0.00000000000E+00 -0.66188822859E+03  0.23272967579E+04  0.22311912003E+04 0.  0.
        5    1    3    3  502    0  0.54076668347E+03  0.85271536545E+03  0.16380646051E+03  0.10229402460E+04  0.46999998093E+01 0.  1.
       -5    1    3    3    0  502 -0.54076668347E+03 -0.85271536545E+03 -0.82569468910E+03  0.13043565119E+04  0.46999998093E+01 0. -1.
</event>
<event>
 5   0  0.2043885E-05  0.2308362E+04  0.7818609E-02  0.8474631E-01
        1   -1    0    0  501    0  0.00000000000E+00  0.00000000000E+00  0.17232070415E+04  0.17232070415E+04  0.50400001928E-02 0.  1.
       -1   -1    0    0    0  501  0.00000000000E+00  0.00000000000E+00 -0.77305493088E+03  0.77305493090E+03  0.50400001928E-02 0. -1.
    10030    2    1    2    0    0  0.00000000000E+00  0.00000000000E+00  0.95015211058E+03  0.24962619724E+04  0.23083619303E+04 0.  0.
        5    1    3    3  502    0 -0.72804722536E+03 -0.89527438837E+03  0.44988576515E+03  0.12385428069E+04  0.46999998093E+01 0. -1.
       -5    1    3    3    0  502  0.72804722536E+03  0.89527438837E+03  0.50026634543E+03  0.12577191655E+04  0.46999998093E+01 0.  1.
</event>
<event>
 5   0  0.4605516E-05  0.2318615E+04  0.7818609E-02  0.8470617E-01
       -2   -1    0    0    0  501  0.00000000000E+00  0.00000000000E+00  0.87342539821E+03  0.87342539822E+03  0.25500000920E-02 0.  1.
        2   -1    0    0  501    0  0.00000000000E+00  0.00000000000E+00 -0.15387623956E+04  0.15387623956E+04  0.25500000920E-02 0. -1.
    10030    2    1    2    0    0  0.00000000000E+00  0.00000000000E+00 -0.66533699737E+03  0.24121877938E+04  0.23186152403E+04 0.  0.
        1    1    3    3  502    0 -0.47947293021E+03  0.90233056352E+03  0.23706301626E+03  0.10489488121E+04  0.50400001928E-02 0.  1.
       -1    1    3    3    0  502  0.47947293021E+03 -0.90233056352E+03 -0.90240001363E+03  0.13632389817E+04  0.50400001928E-02 0. -1.
</event>
<event>
 5   0  0.4605516E-05  0.2304780E+04  0.7818609E-02  0.8476039E-01
       -2   -1    0    0    0  501  0.00000000000E+00  0.00000000000E+00  0.23533198571E+04  0.23533198571E+04  0.25500000920E-02 0. -1.
        2   -1    0    0  501    0  0.00000000000E+00  0.00000000000E+00 -0.56431051227E+03  0.56431051228E+03  0.25500000920E-02 0.  1.
    10030    2    1    2    0    0  0.00000000000E+00  0.00000000000E+00  0.17890093448E+04  0.29176303694E+04  0.23047803662E+04 0.  0.
        1    1    3    3  502    0 -0.20931125900E+03 -0.10868407887E+04  0.48829146675E+03  0.12097366076E+04  0.50400001928E-02 0. -1.
       -1    1    3    3    0  502  0.20931125900E+03  0.10868407887E+04  0.13007178781E+04  0.17078937618E+04  0.50400001928E-02 0.  1.
</event>
<event>
 5   0  0.2031860E-05  0.2070354E+04  0.7818609E-02  0.8574416E-01
       -1   -1    0    0    0  501  0.00000000000E+00  0.00000000000E+00  0.91149337214E+03  0.91149337215E+03  0.50400001928E-02 0.  1.
        1   -1    0    0  501    0  0.00000000000E+00  0.00000000000E+00 -0.11756440755E+04  0.11756440755E+04  0.50400001928E-02 0. -1.
    10030    2    1    2    0    0  0.00000000000E+00  0.00000000000E+00 -0.26415070340E+03  0.20871374477E+04  0.20703543493E+04 0.  0.
        4    1    3    3  502    0 -0.82379520011E+03  0.61938980939E+03 -0.34815797534E+02  0.10312594341E+04  0.12699999809E+01 0.  1.
       -4    1    3    3    0  502  0.82379520011E+03 -0.61938980939E+03 -0.22933490586E+03  0.10558780136E+04  0.12699999809E+01 0. -1.
</event>
<event>
 5   0  0.4798609E-05  0.2329965E+04  0.7818609E-02  0.8466199E-01
        2   -1    0    0  501    0  0.00000000000E+00  0.00000000000E+00  0.20275825146E+04  0.20275825146E+04  0.25500000920E-02 0. -1.
       -2   -1    0    0    0  501  0.00000000000E+00  0.00000000000E+00 -0.66936055014E+03  0.66936055015E+03  0.25500000920E-02 0.  1.
    10030    2    1    2    0    0  0.00000000000E+00  0.00000000000E+00  0.13582219645E+04  0.26969430648E+04  0.23299645898E+04 0.  0.
        2    1    3    3  502    0  0.95603826669E+03  0.23546315485E+03 -0.41644745562E+02  0.98548787385E+03  0.25500000920E-02 0.  1.
       -2    1    3    3    0  502 -0.95603826669E+03 -0.23546315485E+03  0.13998667101E+04  0.17114551909E+04  0.25500000920E-02 0. -1.
</event>
<event>
 5   0  0.1604500E-05  0.2261426E+04  0.7818609E-02  0.8493288E-01
       -3   -1    0    0    0  501  0.00000000000E+00  0.00000000000E+00  0.49822494756E+03  0.49822495779E+03  0.10100000352E+00 0. -1.
        3   -1    0    0  501    0  0.00000000000E+00  0.00000000000E+00 -0.25661334879E+04  0.25661334899E+04  0.10100000352E+00 0.  1.
    10030    2    1    2    0    0  0.00000000000E+00  0.00000000000E+00 -0.20679085403E+04  0.30643584477E+04  0.22614258698E+04 0.  0.
        3    1    3    3  502    0  0.69475205775E+03 -0.74100616036E+03 -0.17070518468E+04  0.19864029222E+04  0.10100000352E+00 0.  1.
       -3    1    3    3    0  502 -0.69475205775E+03  0.74100616036E+03 -0.36085669353E+03  0.10779555255E+04  0.10100000352E+00 0. -1.
</event>
<event>
 5   0  0.4436695E-05  0.2299790E+04  0.7818609E-02  0.8478004E-01
        2   -1    0    0  501    0  0.00000000000E+00  0.00000000000E+00  0.24854482207E+04  0.24854482207E+04  0.25500000920E-02 0.  1.
       -2   -1    0    0    0  501  0.00000000000E+00  0.00000000000E+00 -0.53199989181E+03  0.53199989182E+03  0.25500000920E-02 0. -1.
    10030    2    1    2    0    0  0.00000000000E+00  0.00000000000E+00  0.19534483289E+04  0.30174481125E+04  0.22997897161E+04 0.  0.
        5    1    3    3  502    0 -0.63949746272E+03 -0.71612471647E+02  0.22270714471E+04  0.23181791716E+04  0.46999998093E+01 0.  1.
       -5    1    3    3    0  502  0.63949746272E+03  0.71612471647E+02 -0.27362311825E+03  0.69926894093E+03  0.46999998093E+01 0. -1.
</event>
<event>
 5   0  0.4436695E-05  0.2257062E+04  0.7818609E-02  0.8495046E-01
        2   -1    0    0  501    0  0.00000000000E+00  0.00000000000E+00  0.11707345949E+04  0.11707345949E+04  0.25500000920E-02 0. -1.
       -2   -1    0    0    0  501  0.00000000000E+00  0.00000000000E+00 -0.10878491008E+04  0.10878491008E+04  0.25500000920E-02 0.  1.
    10030    2    1    2    0    0  0.00000000000E+00  0.00000000000E+00  0.82885494142E+02  0.22585836957E+04  0.22570623175E+04 0.  0.
        5    1    3    3  502    0  0.12043036966E+03 -0.99365796631E+03 -0.48015792683E+03  0.11101501487E+04  0.46999998093E+01 0.  1.
       -5    1    3    3    0  502 -0.12043036966E+03  0.99365796631E+03  0.56304342097E+03  0.11484335470E+04  0.46999998093E+01 0. -1.
</event>
<event>
 5   0  0.2085063E-05  0.2293827E+04  0.7818609E-02  0.8480359E-01
        1   -1    0    0  501    0  0.00000000000E+00  0.00000000000E+00  0.14535738798E+04  0.14535738798E+04  0.50400001928E-02 0.  1.
       -1   -1    0    0    0  501  0.00000000000E+00  0.00000000000E+00 -0.90494960113E+03  0.90494960114E+03  0.50400001928E-02 0. -1.
    10030    2    1    2    0    0  0.00000000000E+00  0.00000000000E+00  0.54862427863E+03  0.23585234809E+04  0.22938274588E+04 0.  0.
        1    1    3    3  502    0  0.89618603028E+03  0.15534300078E+03 -0.44405642585E+03  0.10121595517E+04  0.50400001928E-02 0. -1.
       -1    1    3    3    0  502 -0.89618603028E+03 -0.15534300078E+03  0.99268070448E+03  0.13463639292E+04  0.50400001928E-02 0.  1.
</event>
<event>
 5   0  0.2031860E-05  0.2295228E+04  0.7818609E-02  0.8479805E-01
       -1   -1    0    0    0  501  0.00000000000E+00  0.00000000000E+00  0.11263101207E+04  0.11263101207E+04  0.50400001928E-02 0.  1.
        1   -1    0    0  501    0  0.00000000000E+00  0.00000000000E+00 -0.11693211990E+04  0.11693211990E+04  0.50400001928E-02 0. -1.
    10030    2    1    2    0    0  0.00000000000E+00  0.00000000000E+00 -0.43011078328E+02  0.22956313197E+04  0.22952283553E+04 0.  0.
        4    1    3    3  502    0 -0.90519823830E+03  0.15342048922E+03  0.66716090798E+03  0.11349127663E+04  0.12699999809E+01 0.  1.
       -4    1    3    3    0  502  0.90519823830E+03 -0.15342048922E+03 -0.71017198631E+03  0.11607185534E+04  0.12699999809E+01 0. -1.
</event>
<event>
 5   0  0.4602447E-05  0.2357919E+04  0.7818609E-02  0.8455428E-01
       -2   -1    0    0    0  501  0.00000000000E+00  0.00000000000E+00  0.14369558279E+04  0.14369558279E+04  0.25500000920E-02 0. -1.
        2   -1    0    0  501    0  0.00000000000E+00  0.00000000000E+00 -0.96728501395E+03  0.96728501395E+03  0.25500000920E-02 0.  1.
    10030    2    1    2    0    0  0.00000000000E+00  0.00000000000E+00  0.46967081391E+03  0.24042408418E+04  0.23579192845E+04 0.  0.
        3    1    3    3  502    0 -0.11306187141E+04  0.12845193732E+03  0.54935460418E+03  0.12635620555E+04  0.10100000352E+00 0. -1.
       -3    1    3    3    0  502  0.11306187141E+04 -0.12845193732E+03 -0.79683790269E+02  0.11406787863E+04  0.10100000352E+00 0.  1.
</event>
<event>
 5   0  0.4605516E-05  0.2264509E+04  0.7818609E-02  0.8492048E-01
        2   -1    0    0  501    0  0.00000000000E+00  0.00000000000E+00  0.13905976225E+04  0.13905976225E+04  0.25500000920E-02 0.  1.
       -2   -1    0    0    0  501  0.00000000000E+00  0.00000000000E+00 -0.92190584183E+03  0.92190584184E+03  0.25500000920E-02 0. -1.
    10030    2    1    2    0    0  0.00000000000E+00  0.00000000000E+00  0.46869178066E+03  0.23125034643E+04  0.22645088402E+04 0.  0.
        1    1    3    3  502    0 -0.70065779900E+03  0.80791572928E+03 -0.14549293823E+03  0.10792670532E+04  0.50400001928E-02 0. -1.
       -1    1    3    3    0  502  0.70065779900E+03 -0.80791572928E+03  0.61418471888E+03  0.12332364112E+04  0.50400001928E-02 0.  1.
</event>
<event>
 5   0  0.4436695E-05  0.2051793E+04  0.7818609E-02  0.8582781E-01
       -2   -1    0    0    0  501  0.00000000000E+00  0.00000000000E+00  0.81826463137E+03  0.81826463137E+03  0.25500000920E-02 0. -1.
        2   -1    0    0  501    0  0.00000000000E+00  0.00000000000E+00 -0.12862147054E+04  0.12862147054E+04  0.25500000920E-02 0.  1.
    10030    2    1    2    0    0  0.00000000000E+00  0.00000000000E+00 -0.46795007403E+03  0.21044793368E+04  0.20517933637E+04 0.  0.
        5    1    3    3  502    0  0.56866792863E+03 -0.15995467484E+03  0.62629505345E+03  0.86095080872E+03  0.46999998093E+01 0. -1.
       -5    1    3    3    0  502 -0.56866792863E+03  0.15995467484E+03 -0.10942451275E+04  0.12435285281E+04  0.46999998093E+01 0.  1.
</event>
<event>
 5   0  0.1604500E-05  0.2322396E+04  0.7818609E-02  0.8469143E-01
        4   -1    0    0  501    0  0.00000000000E+00  0.00000000000E+00  0.13497343169E+04  0.13497349143E+04  0.12699999809E+01 0. -1.
       -4   -1    0    0    0  501  0.00000000000E+00  0.00000000000E+00 -0.99899565626E+03  0.99899646352E+03  0.12699999809E+01 0.  1.
    10030    2    1    2    0    0  0.00000000000E+00  0.00000000000E+00  0.35073866060E+03  0.23487313779E+04  0.23223956332E+04 0.  0.
        1    1    3    3  502    0 -0.67291217458E+03 -0.94038321648E+03  0.28263326665E+03  0.11903835315E+04  0.50400001928E-02 0. -1.
       -1    1    3    3    0  502  0.67291217458E+03  0.94038321648E+03  0.68105393949E+02  0.11583478464E+04  0.50400001928E-02 0.  1.
</event>
<event>
 5   0  0.4602447E-05  0.2329794E+04  0.7818609E-02  0.8466266E-01
        2   -1    0    0  501    0  0.00000000000E+00  0.00000000000E+00  0.13687454049E+04  0.13687454049E+04  0.25500000920E-02 0. -1.
       -2   -1    0    0    0  501  0.00000000000E+00  0.00000000000E+00 -0.99140752041E+03  0.99140752041E+03  0.25500000920E-02 0.  1.
    10030    2    1    2    0    0  0.00000000000E+00  0.00000000000E+00  0.37733788450E+03  0.23601529253E+04  0.23297935428E+04 0.  0.
        3    1    3    3  502    0 -0.14889931409E+03  0.77015369849E+03 -0.68375995045E+03  0.10405937752E+04  0.10100000352E+00 0.  1.
       -3    1    3    3    0  502  0.14889931409E+03 -0.77015369849E+03  0.10610978349E+04  0.13195591501E+04  0.10100000352E+00 0. -1.
</event>
<event>
 5   0  0.4505107E-05  0.2262713E+04  0.7818609E-02  0.8492770E-01
       -2   -1    0    0    0  501  0.00000000000E+00  0.00000000000E+00  0.65604163505E+03  0.65604163506E+03  0.25500000920E-02 0.  1.
        2   -1    0    0  501    0  0.00000000000E+00  0.00000000000E+00 -0.19510455829E+04  0.19510455829E+04  0.25500000920E-02 0. -1.
    10030    2    1    2    0    0  0.00000000000E+00  0.00000000000E+00 -0.12950039479E+04  0.26070872180E+04  0.22627126502E+04 0.  0.
        4    1    3    3  502    0 -0.52052566089E+03 -0.85856430256E+03 -0.12482875470E+04  0.16019684885E+04  0.12699999809E+01 0. -1.
       -4    1    3    3    0  502  0.52052566089E+03  0.85856430256E+03 -0.46716400838E+02  0.10051187294E+04  0.12699999809E+01 0.  1.
</event>
<event>
 5   0  0.1604500E-05  0.2320952E+04  0.7818609E-02  0.8469706E-01
       -3   -1    0    0    0  501  0.00000000000E+00  0.00000000000E+00  0.14026932463E+04  0.14026932499E+04  0.10100000352E+00 0. -1.
        3   -1    0    0  501    0  0.00000000000E+00  0.00000000000E+00 -0.96008488425E+03  0.96008488956E+03  0.10100000352E+00 0.  1.
    10030    2    1    2    0    0  0.00000000000E+00  0.00000000000E+00  0.44260836203E+03  0.23627781395E+04  0.23209520405E+04 0.  0.
        2    1    3    3  502    0 -0.10258888315E+04 -0.21245955381E+03 -0.28680730860E+03  0.10862068813E+04  0.25500000920E-02 0.  1.
       -2    1    3    3    0  502  0.10258888315E+04  0.21245955381E+03  0.72941567063E+03  0.12765712582E+04  0.25500000920E-02 0. -1.
</event>
<event>
 5   0  0.4602447E-05  0.2235361E+04  0.7818609E-02  0.8503852E-01
        2   -1    0    0  501    0  0.00000000000E+00  0.00000000000E+00  0.68394071863E+03  0.68394071863E+03  0.25500000920E-02 0.  1.
       -2   -1    0    0    0  501  0.00000000000E+00  0.00000000000E+00 -0.18264887184E+04  0.18264887184E+04  0.25500000920E-02 0. -1.
    10030    2    1    2    0    0  0.00000000000E+00  0.00000000000E+00 -0.11425479998E+04  0.25104294370E+04  0.22353612743E+04 0.  0.
        3    1    3    3  502    0  0.57613000350E+03 -0.39454090295E+03 -0.15513730045E+04  0.17012779063E+04  0.10100000352E+00 0. -1.
       -3    1    3    3    0  502 -0.57613000350E+03  0.39454090295E+03  0.40882500474E+03  0.80915153076E+03  0.10100000352E+00 0.  1.
</event>
<event>
 5   0  0.4505107E-05  0.2304890E+04  0.7818609E-02  0.8475996E-01
        2   -1    0    0  501    0  0.00000000000E+00  0.00000000000E+00  0.15186383846E+04  0.15186383846E+04  0.25500000920E-02 0. -1.
       -2   -1    0    0    0  501  0.00000000000E+00  0.00000000000E+00 -0.87455277049E+03  0.87455277049E+03  0.25500000920E-02 0.  1.
    10030    2    1    2    0    0  0.00000000000E+00  0.00000000000E+00  0.64408561407E+03  0.23931911551E+04  0.23048899380E+04 0.  0.
        4    1    3    3  502    0 -0.43055818959E+03  0.16855458369E+03  0.14181055911E+04  0.14915817385E+04  0.12699999809E+01 0. -1.
       -4    1    3    3    0  502  0.43055818959E+03 -0.16855458369E+03 -0.77401997701E+03  0.90160941655E+03  0.12699999809E+01 0.  1.
</event>
<event>
 5   0  0.4605516E-05  0.2301932E+04  0.7818609E-02  0.8477160E-01
        2   -1    0    0  501    0  0.00000000000E+00  0.00000000000E+00  0.49131859239E+03  0.49131859239E+03  0.25500000920E-02 0.  1.
       -2   -1    0    0    0  501  0.00000000000E+00  0.00000000000E+00 -0.26962608797E+04  0.26962608797E+04  0.25500000920E-02 0. -1.
    10030    2    1    2    0    0  0.00000000000E+00  0.00000000000E+00 -0.22049422874E+04  0.31875794721E+04  0.23019323189E+04 0.  0.
        1    1    3    3  502    0  0.11800155054E+03  0.36134537666E+03  0.40188780690E+03  0.55318049182E+03  0.50400001928E-02 0.  1.
       -1    1    3    3    0  502 -0.11800155054E+03 -0.36134537666E+03 -0.26068300943E+04  0.26343989803E+04  0.50400001928E-02 0. -1.
</event>
<event>
 5   0  0.2031860E-05  0.2287014E+04  0.7818609E-02  0.8483059E-01
        1   -1    0    0  501    0  0.00000000000E+00  0.00000000000E+00  0.16206488716E+04  0.16206488716E+04  0.50400001928E-02 0.  1.
       -1   -1    0    0    0  501  0.00000000000E+00  0.00000000000E+00 -0.80684207871E+03  0.80684207872E+03  0.50400001928E-02 0. -1.
    10030    2    1    2    0    0  0.00000000000E+00  0.00000000000E+00  0.81380679290E+03  0.24274909503E+04  0.22870135150E+04 0.  0.
        4    1    3    3  502    0  0.10340850093E+04 -0.69893286852E+02 -0.10587447910E+03  0.10418387093E+04  0.12699999809E+01 0. -1.
       -4    1    3    3    0  502 -0.10340850093E+04  0.69893286852E+02  0.91968127201E+03  0.13856522410E+04  0.12699999809E+01 0.  1.
</event>
<event>
 5   0  0.4602447E-05  0.2329677E+04  0.7818609E-02  0.8466311E-01
        2   -1    0    0  501    0  0.00000000000E+00  0.00000000000E+00  0.11881715811E+04  0.11881715811E+04  0.25500000920E-02 0. -1.
       -2   -1    0    0    0  501  0.00000000000E+00  0.00000000000E+00 -0.11419636151E+04  0.11419636151E+04  0.25500000920E-02 0.  1.
    10030    2    1    2    0    0  0.00000000000E+00  0.00000000000E+00  0.46207966033E+02  0.23301351962E+04  0.23296769854E+04 0.  0.
        3    1    3    3  502    0 -0.10738812193E+04 -0.18238173508E+03  0.43593779470E+03  0.11732543380E+04  0.10100000352E+00 0. -1.
       -3    1    3    3    0  502  0.10738812193E+04  0.18238173508E+03 -0.38972982866E+03  0.11568808582E+04  0.10100000352E+00 0.  1.
</event>
<event>
 5   0  0.4436695E-05  0.2305091E+04  0.7818609E-02  0.8475917E-01
        2   -1    0    0  501    0  0.00000000000E+00  0.00000000000E+00  0.13350292691E+04  0.13350292691E+04  0.25500000920E-02 0.  1.
       -2   -1    0    0    0  501  0.00000000000E+00  0.00000000000E+00 -0.99500515927E+03  0.99500515928E+03  0.25500000920E-02 0. -1.
    10030    2    1    2    0    0  0.00000000000E+00  0.00000000000E+00  0.34002410981E+03  0.23300344284E+04  0.23050908967E+04 0.  0.
        5    1    3    3  502    0  0.15925926922E+03 -0.78836764181E+02 -0.98106424991E+03  0.99703956926E+03  0.46999998093E+01 0. -1.
       -5    1    3    3    0  502 -0.15925926922E+03  0.78836764181E+02  0.13210883597E+04  0.13329948591E+04  0.46999998093E+01 0.  1.
</event>
<event>
 5   0  0.1968318E-05  0.2325483E+04  0.7818609E-02  0.8467941E-01
       -1   -1    0    0    0  501  0.00000000000E+00  0.00000000000E+00  0.12831436206E+04  0.12831436206E+04  0.50400001928E-02 0. -1.
        1   -1    0    0  501    0  0.00000000000E+00  0.00000000000E+00 -0.10536375418E+04  0.10536375418E+04  0.50400001928E-02 0.  1.
    10030    2    1    2    0    0  0.00000000000E+00  0.00000000000E+00  0.22950607882E+03  0.23367811624E+04  0.23254834251E+04 0.  0.
        3    1    3    3  502    0  0.21528044531E+03 -0.44718149499E+03 -0.94185494699E+03  0.10646162271E+04  0.10100000352E+00 0.  1.
       -3    1    3    3    0  502 -0.21528044531E+03  0.44718149499E+03  0.11713610258E+04  0.12721649353E+04  0.10100000352E+00 0. -1.
</event>
<event>
 5   0  0.2031860E-05  0.1997957E+04  0.7818609E-02  0.8607577E-01
        1   -1    0    0  501    0  0.00000000000E+00  0.00000000000E+00  0.12017324848E+04  0.12017324849E+04  0.50400001928E-02 0. -1.
       -1   -1    0    0    0  501  0.00000000000E+00  0.00000000000E+00 -0.83043262034E+03  0.83043262036E+03  0.50400001928E-02 0.  1.
    10030    2    1    2    0    0  0.00000000000E+00  0.00000000000E+00  0.37129986451E+03  0.20321651052E+04  0.19979568127E+04 0.  0.
        4    1    3    3  502    0  0.30024773472E+03  0.82515432915E+03 -0.29887576574E+03  0.92755415226E+03  0.12699999809E+01 0.  1.
       -4    1    3    3    0  502 -0.30024773472E+03 -0.82515432915E+03  0.67017563025E+03  0.11046109530E+04  0.12699999809E+01 0. -1.
</event>
<event>
 5   0  0.4505107E-05  0.2297176E+04  0.7818609E-02  0.8479036E-01
        2   -1    0    0  501    0  0.00000000000E+00  0.00000000000E+00  0.31457415083E+04  0.31457415083E+04  0.25500000920E-02 0. -1.
       -2   -1    0    0    0  501  0.00000000000E+00  0.00000000000E+00 -0.41937775150E+03  0.41937775151E+03  0.25500000920E-02 0.  1.
    10030    2    1    2    0    0  0.00000000000E+00  0.00000000000E+00  0.27263637568E+04  0.35651192598E+04  0.22971756577E+04 0.  0.
        4    1    3    3  502    0  0.87631341420E+03 -0.45759906268E+03  0.22706860735E+04  0.24765578853E+04  0.12699999809E+01 0. -1.
       -4    1    3    3    0  502 -0.87631341420E+03  0.45759906268E+03  0.45567768330E+03  0.10885613745E+04  0.12699999809E+01 0.  1.
</event>
<event>
 5   0  0.1968318E-05  0.2299697E+04  0.7818609E-02  0.8478041E-01
       -1   -1    0    0    0  501  0.00000000000E+00  0.00000000000E+00  0.16237045120E+04  0.16237045120E+04  0.50400001928E-02 0. -1.
        1   -1    0    0  501    0  0.00000000000E+00  0.00000000000E+00 -0.81428066827E+03  0.81428066829E+03  0.50400001928E-02 0.  1.
    10030    2    1    2    0    0  0.00000000000E+00  0.00000000000E+00  0.80942384371E+03  0.24379851803E+04  0.22996966714E+04 0.  0.
        3    1    3    3  502    0  0.13522932737E+02  0.57816141007E+03 -0.64888022718E+03  0.86919448067E+03  0.10100000352E+00 0.  1.
       -3    1    3    3    0  502 -0.13522932737E+02 -0.57816141007E+03  0.14583040709E+04  0.15687906996E+04  0.10100000352E+00 0. -1.
</event>
<event>
 5   0  0.4436695E-05  0.2277469E+04  0.7818609E-02  0.8486858E-01
        2   -1    0    0  501    0  0.00000000000E+00  0.00000000000E+00  0.23603901377E+04  0.23603901377E+04  0.25500000920E-02 0. -1.
       -2   -1    0    0    0  501  0.00000000000E+00  0.00000000000E+00 -0.54936509215E+03  0.54936509215E+03  0.25500000920E-02 0.  1.
    10030    2    1    2    0    0  0.00000000000E+00  0.00000000000E+00  0.18110250456E+04  0.29097552299E+04  0.22774687225E+04 0.  0.
        5    1    3    3  502    0  0.10204673149E+04 -0.38170567869E+03  0.48246348879E+03  0.11915728571E+04  0.46999998093E+01 0.  1.
       -5    1    3    3    0  502 -0.10204673149E+04  0.38170567869E+03  0.13285615568E+04  0.17181823727E+04  0.46999998093E+01 0. -1.
</event>
<event>
 5   0  0.4798609E-05  0.2315752E+04  0.7818609E-02  0.8471736E-01
       -2   -1    0    0    0  501  0.00000000000E+00  0.00000000000E+00  0.57298025617E+03  0.57298025617E+03  0.25500000920E-02 0. -1.
        2   -1    0    0  501    0  0.00000000000E+00  0.00000000000E+00 -0.23398314668E+04  0.23398314668E+04  0.25500000920E-02 0.  1.
    10030    2    1    2    0    0  0.00000000000E+00  0.00000000000E+00 -0.17668512106E+04  0.29128117230E+04  0.23157523471E+04 0.  0.
        2    1    3    3  502    0  0.55516855302E+03 -0.71855548015E+03 -0.17870862687E+04  0.20045476876E+04  0.25500000920E-02 0.  1.
       -2    1    3    3    0  502 -0.55516855302E+03  0.71855548015E+03  0.20235058038E+02  0.90826403534E+03  0.25500000920E-02 0. -1.
</event>
<event>
 5   0  0.4436695E-05  0.2317125E+04  0.7818609E-02  0.8471200E-01
        2   -1    0    0  501    0  0.00000000000E+00  0.00000000000E+00  0.10326984851E+04  0.10326984851E+04  0.25500000920E-02 0. -1.
       -2   -1    0    0    0  501  0.00000000000E+00  0.00000000000E+00 -0.12997661990E+04  0.12997661990E+04  0.25500000920E-02 0.  1.
    10030    2    1    2    0    0  0.00000000000E+00  0.00000000000E+00 -0.26706771392E+03  0.23324646841E+04  0.23171245842E+04 0.  0.
        5    1    3    3  502    0 -0.38068794844E+02  0.62057011023E+03  0.85053108085E+03  0.10535566925E+04  0.46999998093E+01 0. -1.
       -5    1    3    3    0  502  0.38068794844E+02 -0.62057011023E+03 -0.11175987948E+04  0.12789079916E+04  0.46999998093E+01 0.  1.
</event>
<event>
 5   0  0.2043885E-05  0.2391193E+04  0.7818609E-02  0.8442808E-01
        1   -1    0    0  501    0  0.00000000000E+00  0.00000000000E+00  0.16850352490E+04  0.16850352490E+04  0.50400001928E-02 0.  1.
       -1   -1    0    0    0  501  0.00000000000E+00  0.00000000000E+00 -0.84832131801E+03  0.84832131803E+03  0.50400001928E-02 0. -1.
    10030    2    1    2    0    0  0.00000000000E+00  0.00000000000E+00  0.83671393096E+03  0.25333565670E+04  0.23911932781E+04 0.  0.
        5    1    3    3  502    0  0.50671347261E+03 -0.91251631240E+03 -0.19939097564E+03  0.10626492436E+04  0.46999998093E+01 0. -1.
       -5    1    3    3    0  502 -0.50671347261E+03  0.91251631240E+03  0.10361049066E+04  0.14707073234E+04  0.46999998093E+01 0.  1.
</event>
<event>
 5   0  0.2031860E-05  0.2292779E+04  0.7818609E-02  0.8480774E-01
        1   -1    0    0  501    0  0.00000000000E+00  0.00000000000E+00  0.10718680768E+04  0.10718680769E+04  0.50400001928E-02 0.  1.
       -1   -1    0    0    0  501  0.00000000000E+00  0.00000000000E+00 -0.12260921053E+04  0.12260921053E+04  0.50400001928E-02 0. -1.
    10030    2    1    2    0    0  0.00000000000E+00  0.00000000000E+00 -0.15422402841E+03  0.22979601821E+04  0.22927790883E+04 0.  0.
        4    1    3    3  502    0  0.24754677078E+03 -0.72603517420E+03 -0.93097667025E+03  0.12062858912E+04  0.12699999809E+01 0. -1.
       -4    1    3    3    0  502 -0.24754677078E+03  0.72603517420E+03  0.77675264184E+03  0.10916742909E+04  0.12699999809E+01 0.  1.
</event>
<event>
 5   0  0.4602447E-05  0.2304476E+04  0.7818609E-02  0.8476158E-01
       -2   -1    0    0    0  501  0.00000000000E+00  0.00000000000E+00  0.16306448888E+04  0.16306448888E+04  0.25500000920E-02 0.  1.
        2   -1    0    0  501    0  0.00000000000E+00  0.00000000000E+00 -0.81418885618E+03  0.81418885618E+03  0.25500000920E-02 0. -1.
    10030    2    1    2    0    0  0.00000000000E+00  0.00000000000E+00  0.81645603263E+03  0.24448337450E+04  0.23044764237E+04 0.  0.
        3    1    3    3  502    0  0.13837148010E+03  0.11093338040E+03  0.16160782047E+04  0.16257803220E+04  0.10100000352E+00 0.  1.
       -3    1    3    3    0  502 -0.13837148010E+03 -0.11093338040E+03 -0.79962217210E+03  0.81905342299E+03  0.10100000352E+00 0. -1.
</event>
<event>
 5   0  0.2042951E-05  0.2304823E+04  0.7818609E-02  0.8476022E-01
        1   -1    0    0  501    0  0.00000000000E+00  0.00000000000E+00  0.13100209535E+04  0.13100209535E+04  0.50400001928E-02 0. -1.
       -1   -1    0    0    0  501  0.00000000000E+00  0.00000000000E+00 -0.10137643987E+04  0.10137643987E+04  0.50400001928E-02 0.  1.
    10030    2    1    2    0    0  0.00000000000E+00  0.00000000000E+00  0.29625655477E+03  0.23237853522E+04  0.23048232941E+04 0.  0.
        2    1    3    3  502    0  0.31314834618E+03 -0.49600809645E+03  0.11482401263E+04  0.12893957135E+04  0.25500000920E-02 0. -1.
       -2    1    3    3    0  502 -0.31314834618E+03  0.49600809645E+03 -0.85198357154E+03  0.10343896387E+04  0.25500000920E-02 0.  1.
</event>
<event>
 5   0  0.4505107E-05  0.2301627E+04  0.7818609E-02  0.8477280E-01
        2   -1    0    0  501    0  0.00000000000E+00  0.00000000000E+00  0.24101168366E+04  0.24101168366E+04  0.25500000920E-02 0.  1.
       -2   -1    0    0    0  501  0.00000000000E+00  0.00000000000E+00 -0.54950536057E+03  0.54950536058E+03  0.25500000920E-02 0. -1.
    10030    2    1    2    0    0  0.00000000000E+00  0.00000000000E+00  0.18606114760E+04  0.29596221972E+04  0.23016273559E+04 0.  0.
        4    1    3    3  502    0  0.45395844363E+03  0.30161245942E+03  0.22336363449E+04  0.22991696932E+04  0.12699999809E+01 0.  1.
       -4    1    3    3    0  502 -0.45395844363E+03 -0.30161245942E+03 -0.37302486888E+03  0.66045250391E+03  0.12699999809E+01 0. -1.
</event>
<event>
 5   0  0.2031860E-05  0.2303287E+04  0.7818609E-02  0.8476626E-01
        1   -1    0    0  501    0  0.00000000000E+00  0.00000000000E+00  0.60263437595E+03  0.60263437597E+03  0.50400001928E-02 0.  1.
       -1   -1    0    0    0  501  0.00000000000E+00  0.00000000000E+00 -0.22008092590E+04  0.22008092590E+04  0.50400001928E-02 0. -1.
    10030    2    1    2    0    0  0.00000000000E+00  0.00000000000E+00 -0.15981748831E+04  0.28034436350E+04  0.23032874892E+04 0.  0.
        4    1    3    3  502    0 -0.43164512560E+03 -0.17504020429E+03  0.48286850923E+03  0.67090997732E+03  0.12699999809E+01 0.  1.
       -4    1    3    3    0  502  0.43164512560E+03  0.17504020429E+03 -0.20810433923E+04  0.21325336577E+04  0.12699999809E+01 0. -1.
</event>
<event>
 5   0  0.2085063E-05  0.2364241E+04  0.7818609E-02  0.8453014E-01
       -1   -1    0    0    0  501  0.00000000000E+00  0.00000000000E+00  0.24639318855E+04  0.24639318855E+04  0.50400001928E-02 0.  1.
        1   -1    0    0  501    0  0.00000000000E+00  0.00000000000E+00 -0.56714576857E+03  0.56714576859E+03  0.50400001928E-02 0. -1.
    10030    2    1    2    0    0  0.00000000000E+00  0.00000000000E+00  0.18967861170E+04  0.30310776541E+04  0.23642407178E+04 0.  0.
        1    1    3    3  502    0  0.49269139621E+03 -0.90311669098E+02  0.23211505630E+04  0.23745822676E+04  0.50400001928E-02 0.  1.
       -1    1    3    3    0  502 -0.49269139621E+03  0.90311669098E+02 -0.42436444602E+03  0.65649538654E+03  0.50400001928E-02 0. -1.
</event>
<event>
 5   0  0.2043885E-05  0.2293267E+04  0.7818609E-02  0.8480581E-01
        1   -1    0    0  501    0  0.00000000000E+00  0.00000000000E+00  0.14728982903E+04  0.14728982903E+04  0.50400001928E-02 0. -1.
       -1   -1    0    0    0  501  0.00000000000E+00  0.00000000000E+00 -0.89264012936E+03  0.89264012937E+03  0.50400001928E-02 0.  1.
    10030    2    1    2    0    0  0.00000000000E+00  0.00000000000E+00  0.58025816090E+03  0.23655384196E+04  0.22932667707E+04 0.  0.
        5    1    3    3  502    0 -0.81765582131E+03 -0.49956349177E+03  0.93975515455E+03  0.13421201753E+04  0.46999998093E+01 0. -1.
       -5    1    3    3    0  502  0.81765582131E+03  0.49956349177E+03 -0.35949699364E+03  0.10234182444E+04  0.46999998093E+01 0.  1.
</event>
<event>
 5   0  0.1968318E-05  0.2294661E+04  0.7818609E-02  0.8480029E-01
        1   -1    0    0  501    0  0.00000000000E+00  0.00000000000E+00  0.77177365762E+03  0.77177365763E+03  0.50400001928E-02 0. -1.
       -1   -1    0    0    0  501  0.00000000000E+00  0.00000000000E+00 -0.17056384608E+04  0.17056384608E+04  0.50400001928E-02 0.  1.
    10030    2    1    2    0    0  0.00000000000E+00  0.00000000000E+00 -0.93386480313E+03  0.24774121184E+04  0.22946606141E+04 0.  0.
        3    1    3    3  502    0 -0.69820751352E+03  0.88934818988E+03 -0.67720745560E+03  0.13179696062E+04  0.10100000352E+00 0. -1.
       -3    1    3    3    0  502  0.69820751352E+03 -0.88934818988E+03 -0.25665734753E+03  0.11594425122E+04  0.10100000352E+00 0.  1.
</event>
<event>
 5   0  0.4798609E-05  0.2211943E+04  0.7818609E-02  0.8513473E-01
        2   -1    0    0  501    0  0.00000000000E+00  0.00000000000E+00  0.14850978521E+04  0.14850978521E+04  0.25500000920E-02 0.  1.
       -2   -1    0    0    0  501  0.00000000000E+00  0.00000000000E+00 -0.82363149189E+03  0.82363149190E+03  0.25500000920E-02 0. -1.
    10030    2    1    2    0    0  0.00000000000E+00  0.00000000000E+00  0.66146636024E+03  0.23087293440E+04  0.22119433624E+04 0.  0.
        2    1    3    3  502    0 -0.14487528034E+03 -0.54357992178E+03  0.13246089824E+04  0.14391167202E+04  0.25500000920E-02 0.  1.
       -2    1    3    3    0  502  0.14487528034E+03  0.54357992178E+03 -0.66314262213E+03  0.86961262382E+03  0.25500000920E-02 0. -1.
</event>
<event>
 5   0  0.2031860E-05  0.2300983E+04  0.7818609E-02  0.8477534E-01
       -1   -1    0    0    0  501  0.00000000000E+00  0.00000000000E+00  0.15722589637E+04  0.15722589637E+04  0.50400001928E-02 0.  1.
        1   -1    0    0  501    0  0.00000000000E+00  0.00000000000E+00 -0.84186562156E+03  0.84186562158E+03  0.50400001928E-02 0. -1.
    10030    2    1    2    0    0  0.00000000000E+00  0.00000000000E+00  0.73039334211E+03  0.24141245853E+04  0.23009830679E+04 0.  0.
        4    1    3    3  502    0  0.15331338934E+03 -0.10269034310E+03 -0.82623792788E+03  0.84659377997E+03  0.12699999809E+01 0. -1.
       -4    1    3    3    0  502 -0.15331338934E+03  0.10269034310E+03  0.15566312700E+04  0.15675308053E+04  0.12699999809E+01 0.  1.
</event>
<event>
 5   0  0.4602447E-05  0.2301663E+04  0.7818609E-02  0.8477266E-01
        2   -1    0    0  501    0  0.00000000000E+00  0.00000000000E+00  0.17870391703E+04  0.17870391703E+04  0.25500000920E-02 0.  1.
       -2   -1    0    0    0  501  0.00000000000E+00  0.00000000000E+00 -0.74112143114E+03  0.74112143114E+03  0.25500000920E-02 0. -1.
    10030    2    1    2    0    0  0.00000000000E+00  0.00000000000E+00  0.10459177391E+04  0.25281606014E+04  0.23016629009E+04 0.  0.
        3    1    3    3  502    0  0.71182967174E+03 -0.89952170319E+03  0.62465633515E+03  0.13061532542E+04  0.10100000352E+00 0.  1.
       -3    1    3    3    0  502 -0.71182967174E+03  0.89952170319E+03  0.42126140397E+03  0.12220073473E+04  0.10100000352E+00 0. -1.
</event>
<event>
 5   0  0.4505107E-05  0.2414205E+04  0.7818609E-02  0.8434204E-01
       -2   -1    0    0    0  501  0.00000000000E+00  0.00000000000E+00  0.16057539165E+04  0.16057539165E+04  0.25500000920E-02 0. -1.
        2   -1    0    0  501    0  0.00000000000E+00  0.00000000000E+00 -0.90742214857E+03  0.90742214857E+03  0.25500000920E-02 0.  1.
    10030    2    1    2    0    0  0.00000000000E+00  0.00000000000E+00  0.69833176795E+03  0.25131760651E+04  0.24142051851E+04 0.  0.
        4    1    3    3  502    0  0.11379470451E+04  0.38407114430E+03  0.47521202914E+03  0.12916122509E+04  0.12699999809E+01 0. -1.
       -4    1    3    3    0  502 -0.11379470451E+04 -0.38407114430E+03  0.22311973881E+03  0.12215638141E+04  0.12699999809E+01 0.  1.
</event>
<event>
 5   0  0.2085063E-05  0.2298630E+04  0.7818609E-02  0.8478461E-01
        1   -1    0    0  501    0  0.00000000000E+00  0.00000000000E+00  0.24347693738E+04  0.24347693738E+04  0.50400001928E-02 0.  1.
       -1   -1    0    0    0  501  0.00000000000E+00  0.00000000000E+00 -0.54252570424E+03  0.54252570426E+03  0.50400001928E-02 0. -1.
    10030    2    1    2    0    0  0.00000000000E+00  0.00000000000E+00  0.18922436696E+04  0.29772950781E+04  0.22986300000E+04 0.  0.
        1    1    3    3  502    0  0.68217128258E+03 -0.70464945246E+03  0.17001396838E+03  0.99538598498E+03  0.50400001928E-02 0. -1.
       -1    1    3    3    0  502 -0.68217128258E+03  0.70464945246E+03  0.17222297012E+04  0.19819090931E+04  0.50400001928E-02 0.  1.
</event>
<event>
 5   0  0.4436695E-05  0.2284542E+04  0.7818609E-02  0.8484041E-01
        2   -1    0    0  501    0  0.00000000000E+00  0.00000000000E+00  0.84193446484E+03  0.84193446484E+03  0.25500000920E-02 0.  1.
       -2   -1    0    0    0  501  0.00000000000E+00  0.00000000000E+00 -0.15497437709E+04  0.15497437709E+04  0.25500000920E-02 0. -1.
    10030    2    1    2    0    0  0.00000000000E+00  0.00000000000E+00 -0.70780930602E+03  0.23916782357E+04  0.22845416979E+04 0.  0.
        5    1    3    3  502    0  0.83861743288E+03 -0.35146714675E+03 -0.10776668851E+04  0.14100341695E+04  0.46999998093E+01 0. -1.
       -5    1    3    3    0  502 -0.83861743288E+03  0.35146714675E+03  0.36985757903E+03  0.98164406622E+03  0.46999998093E+01 0.  1.
</event>
<event>
 5   0  0.4605516E-05  0.2266426E+04  0.7818609E-02  0.8491278E-01
       -2   -1    0    0    0  501  0.00000000000E+00  0.00000000000E+00  0.47794053099E+03  0.47794053099E+03  0.25500000920E-02 0.  1.
        2   -1    0    0  501    0  0.00000000000E+00  0.00000000000E+00 -0.26868867316E+04  0.26868867316E+04  0.25500000920E-02 0. -1.
    10030    2    1    2    0    0  0.00000000000E+00  0.00000000000E+00 -0.22089462007E+04  0.31648272626E+04  0.22664263246E+04 0.  0.
        1    1    3    3  502    0 -0.42784589082E+03 -0.38920238068E+03  0.25630791411E+03  0.63263286848E+03  0.50400001928E-02 0.  1.
       -1    1    3    3    0  502  0.42784589082E+03  0.38920238068E+03 -0.24652541148E+04  0.25321943942E+04  0.50400001928E-02 0. -1.
</event>
<event>
 5   0  0.4602447E-05  0.2298826E+04  0.7818609E-02  0.8478384E-01
       -2   -1    0    0    0  501  0.00000000000E+00  0.00000000000E+00  0.10164124172E+04  0.10164124172E+04  0.25500000920E-02 0.  1.
        2   -1    0    0  501    0  0.00000000000E+00  0.00000000000E+00 -0.12998175447E+04  0.12998175447E+04  0.25500000920E-02 0. -1.
    10030    2    1    2    0    0  0.00000000000E+00  0.00000000000E+00 -0.28340512743E+03  0.23162299619E+04  0.22988263898E+04 0.  0.
        3    1    3    3  502    0  0.98986563411E+03  0.56712623596E+03 -0.28306634394E+03  0.11754117178E+04  0.10100000352E+00 0. -1.
       -3    1    3    3    0  502 -0.98986563411E+03 -0.56712623596E+03 -0.33878348899E+00  0.11408182441E+04  0.10100000352E+00 0.  1.
</event>
<event>
 5   0  0.2085063E-05  0.2116526E+04  0.7818609E-02  0.8553998E-01
       -1   -1    0    0    0  501  0.00000000000E+00  0.00000000000E+00  0.10153259732E+04  0.10153259732E+04  0.50400001928E-02 0. -1.
        1   -1    0    0  501    0  0.00000000000E+00  0.00000000000E+00 -0.11030157661E+04  0.11030157661E+04  0.50400001928E-02 0.  1.
    10030    2    1    2    0    0  0.00000000000E+00  0.00000000000E+00 -0.87689792912E+02  0.21183417393E+04  0.21165259802E+04 0.  0.
        1    1    3    3  502    0 -0.11943213345E+03 -0.10511900699E+04 -0.69478556103E+02  0.10602319875E+04  0.50400001928E-02 0.  1.
       -1    1    3    3    0  502  0.11943213345E+03  0.10511900699E+04 -0.18211236809E+02  0.10581097518E+04  0.50400001928E-02 0. -1.
</event>
<event>
 5   0  0.2042951E-05  0.2286818E+04  0.7818609E-02  0.8483137E-01
       -1   -1    0    0    0  501  0.00000000000E+00  0.00000000000E+00  0.73923608679E+03  0.73923608680E+03  0.50400001928E-02 0. -1.
        1   -1    0    0  501    0  0.00000000000E+00  0.00000000000E+00 -0.17685606175E+04  0.17685606175E+04  0.50400001928E-02 0.  1.
    10030    2    1    2    0    0  0.00000000000E+00  0.00000000000E+00 -0.10293245307E+04  0.25077967043E+04  0.22868177279E+04 0.  0.
        2    1    3    3  502    0  0.52961599184E+03 -0.90736611348E+03 -0.10094576394E+04  0.14569869898E+04  0.25500000920E-02 0. -1.
       -2    1    3    3    0  502 -0.52961599184E+03  0.90736611348E+03 -0.19866891312E+02  0.10508097145E+04  0.25500000920E-02 0.  1.
</event>
<event>
 5   0  0.4605516E-05  0.2309939E+04  0.7818609E-02  0.8474013E-01
        2   -1    0    0  501    0  0.00000000000E+00  0.00000000000E+00  0.13872130325E+04  0.13872130325E+04  0.25500000920E-02 0.  1.
       -2   -1    0    0    0  501  0.00000000000E+00  0.00000000000E+00 -0.96160722061E+03  0.96160722061E+03  0.25500000920E-02 0. -1.
    10030    2    1    2    0    0  0.00000000000E+00  0.00000000000E+00  0.42560581191E+03  0.23488202531E+04  0.23099385867E+04 0.  0.
        1    1    3    3  502    0 -0.31660547985E+03  0.13566344203E+03 -0.90816445874E+03  0.97129103956E+03  0.50400001928E-02 0. -1.
       -1    1    3    3    0  502  0.31660547985E+03 -0.13566344203E+03  0.13337702706E+04  0.13775292136E+04  0.50400001928E-02 0.  1.
</event>
<event>
 5   0  0.4602447E-05  0.2296543E+04  0.7818609E-02  0.8479285E-01
        2   -1    0    0  501    0  0.00000000000E+00  0.00000000000E+00  0.86929876144E+03  0.86929876145E+03  0.25500000920E-02 0. -1.
       -2   -1    0    0    0  501  0.00000000000E+00  0.00000000000E+00 -0.15167713308E+04  0.15167713308E+04  0.25500000920E-02 0.  1.
    10030    2    1    2    0    0  0.00000000000E+00  0.00000000000E+00 -0.64747256932E+03  0.23860700922E+04  0.22965430013E+04 0.  0.
        3    1    3    3  502    0  0.25923045116E+03  0.11136974198E+04 -0.43273084103E+03  0.12226112877E+04  0.10100000352E+00 0.  1.
       -3    1    3    3    0  502 -0.25923045116E+03 -0.11136974198E+04 -0.21474172829E+03  0.11634588045E+04  0.10100000352E+00 0. -1.
</event>
<event>
 5   0  0.2043885E-05  0.2320190E+04  0.7818609E-02  0.8470003E-01
       -1   -1    0    0    0  501  0.00000000000E+00  0.00000000000E+00  0.64112364197E+03  0.64112364199E+03  0.50400001928E-02 0. -1.
        1   -1    0    0  501    0  0.00000000000E+00  0.00000000000E+00 -0.20991589199E+04  0.20991589199E+04  0.50400001928E-02 0.  1.
    10030    2    1    2    0    0  0.00000000000E+00  0.00000000000E+00 -0.14580352779E+04  0.27402825619E+04  0.23201900024E+04 0.  0.
        5    1    3    3  502    0 -0.52823700710E+03  0.99515931739E+03 -0.40251945812E+03  0.11964198288E+04  0.46999998093E+01 0. -1.
       -5    1    3    3    0  502  0.52823700710E+03 -0.99515931739E+03 -0.10555158198E+04  0.15438627330E+04  0.46999998093E+01 0.  1.
</event>
<event>
 5   0  0.4602447E-05  0.2248303E+04  0.7818609E-02  0.8498588E-01
       -2   -1    0    0    0  501  0.00000000000E+00  0.00000000000E+00  0.81797490001E+03  0.81797490001E+03  0.25500000920E-02 0. -1.
        2   -1    0    0  501    0  0.00000000000E+00  0.00000000000E+00 -0.15449332313E+04  0.15449332313E+04  0.25500000920E-02 0.  1.
    10030    2    1    2    0    0  0.00000000000E+00  0.00000000000E+00 -0.72695833125E+03  0.23629081313E+04  0.22483030093E+04 0.  0.
        3    1    3    3  502    0  0.68227172459E+03  0.62438866112E+03  0.30812589340E+03  0.97483202794E+03  0.10100000352E+00 0. -1.
       -3    1    3    3    0  502 -0.68227172459E+03 -0.62438866112E+03 -0.10350842246E+04  0.13880761033E+04  0.10100000352E+00 0.  1.
</event>
<event>
 5   0  0.2031860E-05  0.2313658E+04  0.7818609E-02  0.8472555E-01
       -1   -1    0    0    0  501  0.00000000000E+00  0.00000000000E+00  0.16121797951E+04  0.16121797951E+04  0.50400001928E-02 0.  1.
        1   -1    0    0  501    0  0.00000000000E+00  0.00000000000E+00 -0.83008968508E+03  0.83008968510E+03  0.50400001928E-02 0. -1.
    10030    2    1    2    0    0  0.00000000000E+00  0.00000000000E+00  0.78209010999E+03  0.24422694802E+04  0.23136584177E+04 0.  0.
        4    1    3    3  502    0 -0.58287849017E+03  0.26575205135E+03 -0.62576636707E+03  0.89552032146E+03  0.12699999809E+01 0. -1.
       -4    1    3    3    0  502  0.58287849017E+03 -0.26575205135E+03  0.14078564771E+04  0.15467491587E+04  0.12699999809E+01 0.  1.
</event>
<event>
 5   0  0.2031860E-05  0.2246564E+04  0.7818609E-02  0.8499293E-01
       -1   -1    0    0    0  501  0.00000000000E+00  0.00000000000E+00  0.10494277604E+04  0.10494277604E+04  0.50400001928E-02 0.  1.
        1   -1    0    0  501    0  0.00000000000E+00  0.00000000000E+00 -0.12023338643E+04  0.12023338643E+04  0.50400001928E-02 0. -1.
    10030    2    1    2    0    0  0.00000000000E+00  0.00000000000E+00 -0.15290610392E+03  0.22517616248E+04  0.22465640739E+04 0.  0.
        4    1    3    3  502    0  0.13567686856E+03 -0.66764229565E+03 -0.97160742808E+03  0.11866663620E+04  0.12699999809E+01 0. -1.
       -4    1    3    3    0  502 -0.13567686856E+03  0.66764229565E+03  0.81870132416E+03  0.10650952627E+04  0.12699999809E+01 0.  1.
</event>
<event>
 5   0  0.4602447E-05  0.2331074E+04  0.7818609E-02  0.8465769E-01
        2   -1    0    0  501    0  0.00000000000E+00  0.00000000000E+00  0.88872052625E+03  0.88872052625E+03  0.25500000920E-02 0. -1.
       -2   -1    0    0    0  501  0.00000000000E+00  0.00000000000E+00 -0.15285759758E+04  0.15285759758E+04  0.25500000920E-02 0.  1.
    10030    2    1    2    0    0  0.00000000000E+00  0.00000000000E+00 -0.63985544959E+03  0.24172965021E+04  0.23310742980E+04 0.  0.
        3    1    3    3  502    0  0.45390579191E+02  0.10023056957E+04 -0.93499357697E+03  0.13714554355E+04  0.10100000352E+00 0.  1.
       -3    1    3    3    0  502 -0.45390579191E+02 -0.10023056957E+04  0.29513812738E+03  0.10458410666E+04  0.10100000352E+00 0. -1.
</event>
<event>
 5   0  0.1968318E-05  0.2296799E+04  0.7818609E-02  0.8479184E-01
        1   -1    0    0  501    0  0.00000000000E+00  0.00000000000E+00  0.15020800144E+04  0.15020800144E+04  0.50400001928E-02 0.  1.
       -1   -1    0    0    0  501  0.00000000000E+00  0.00000000000E+00 -0.87799645167E+03  0.87799645168E+03  0.50400001928E-02 0. -1.
    10030    2    1    2    0    0  0.00000000000E+00  0.00000000000E+00  0.62408356273E+03  0.23800764661E+04  0.22967985743E+04 0.  0.
        3    1    3    3  502    0  0.95471907660E+03  0.38209585787E+03 -0.21770327920E+03  0.10511329544E+04  0.10100000352E+00 0. -1.
       -3    1    3    3    0  502 -0.95471907660E+03 -0.38209585787E+03  0.84178684193E+03  0.13289435117E+04  0.10100000352E+00 0.  1.
</event>
<event>
 5   0  0.2085063E-05  0.2312546E+04  0.7818609E-02  0.8472991E-01
       -1   -1    0    0    0  501  0.00000000000E+00  0.00000000000E+00  0.92324840686E+03  0.92324840688E+03  0.50400001928E-02 0. -1.
        1   -1    0    0  501    0  0.00000000000E+00  0.00000000000E+00 -0.14481122130E+04  0.14481122130E+04  0.50400001928E-02 0.  1.
    10030    2    1    2    0    0  0.00000000000E+00  0.00000000000E+00 -0.52486380616E+03  0.23713606199E+04  0.23125460373E+04 0.  0.
        1    1    3    3  502    0 -0.21556559747E+02 -0.86921847142E+03  0.51916175386E+03  0.10126867053E+04  0.50400001928E-02 0. -1.
       -1    1    3    3    0  502  0.21556559747E+02  0.86921847142E+03 -0.10440255600E+04  0.13586739146E+04  0.50400001928E-02 0.  1.
</event>
<event>
 5   0  0.2031860E-05  0.2251793E+04  0.7818609E-02  0.8497175E-01
       -1   -1    0    0    0  501  0.00000000000E+00  0.00000000000E+00  0.17109726801E+04  0.17109726801E+04  0.50400001928E-02 0. -1.
        1   -1    0    0  501    0  0.00000000000E+00  0.00000000000E+00 -0.74089040398E+03  0.74089040400E+03  0.50400001928E-02 0.  1.
    10030    2    1    2    0    0  0.00000000000E+00  0.00000000000E+00  0.97008227613E+03  0.24518630841E+04  0.22517932767E+04 0.  0.
        4    1    3    3  502    0 -0.89645898638E+03  0.10903955395E+03 -0.24709413820E+03  0.93626142963E+03  0.12699999809E+01 0. -1.
       -4    1    3    3    0  502  0.89645898638E+03 -0.10903955395E+03  0.12171764143E+04  0.15156016545E+04  0.12699999809E+01 0.  1.
</event>
<event>
 5   0  0.4798609E-05  0.2293651E+04  0.7818609E-02  0.8480429E-01
       -2   -1    0    0    0  501  0.00000000000E+00  0.00000000000E+00  0.12300291893E+04  0.12300291893E+04  0.25500000920E-02 0.  1.
        2   -1    0    0  501    0  0.00000000000E+00  0.00000000000E+00 -0.10692495852E+04  0.10692495852E+04  0.25500000920E-02 0. -1.
    10030    2    1    2    0    0  0.00000000000E+00  0.00000000000E+00  0.16077960411E+03  0.22992787744E+04  0.22936505404E+04 0.  0.
        2    1    3    3  502    0 -0.28769435412E+03 -0.71147349965E+03  0.93468141576E+03  0.12093766705E+04  0.25500000920E-02 0.  1.
       -2    1    3    3    0  502  0.28769435412E+03  0.71147349965E+03 -0.77390181165E+03  0.10899021039E+04  0.25500000920E-02 0. -1.
</event>
<event>
 5   0  0.4798609E-05  0.2416399E+04  0.7818609E-02  0.8433389E-01
        2   -1    0    0  501    0  0.00000000000E+00  0.00000000000E+00  0.18189347689E+04  0.18189347689E+04  0.25500000920E-02 0.  1.
       -2   -1    0    0    0  501  0.00000000000E+00  0.00000000000E+00 -0.80252814278E+03  0.80252814279E+03  0.25500000920E-02 0. -1.
    10030    2    1    2    0    0  0.00000000000E+00  0.00000000000E+00  0.10164066261E+04  0.26214629117E+04  0.24163992567E+04 0.  0.
        2    1    3    3  502    0 -0.72389835681E+02 -0.11230703321E+04  0.98507334668E+03  0.14956258748E+04  0.25500000920E-02 0.  1.
       -2    1    3    3    0  502  0.72389835681E+02  0.11230703321E+04  0.31333279460E+02  0.11258370369E+04  0.25500000920E-02 0. -1.
</event>
<event>
 5   0  0.4798609E-05  0.2312499E+04  0.7818609E-02  0.8473009E-01
       -2   -1    0    0    0  501  0.00000000000E+00  0.00000000000E+00  0.82113294897E+03  0.82113294897E+03  0.25500000920E-02 0. -1.
        2   -1    0    0  501    0  0.00000000000E+00  0.00000000000E+00 -0.16281320828E+04  0.16281320828E+04  0.25500000920E-02 0.  1.
    10030    2    1    2    0    0  0.00000000000E+00  0.00000000000E+00 -0.80699913385E+03  0.24492650318E+04  0.23124989933E+04 0.  0.
        2    1    3    3  502    0  0.58786544826E+03 -0.81271141324E+03 -0.10126925350E+04  0.14253532183E+04  0.25500000920E-02 0.  1.
       -2    1    3    3    0  502 -0.58786544826E+03  0.81271141324E+03  0.20569340118E+03  0.10239118135E+04  0.25500000920E-02 0. -1.
</event>
<event>
 5   0  0.2042951E-05  0.2346085E+04  0.7818609E-02  0.8459969E-01
       -1   -1    0    0    0  501  0.00000000000E+00  0.00000000000E+00  0.14448970427E+04  0.14448970427E+04  0.50400001928E-02 0. -1.
        1   -1    0    0  501    0  0.00000000000E+00  0.00000000000E+00 -0.95233696380E+03  0.95233696381E+03  0.50400001928E-02 0.  1.
    10030    2    1    2    0    0  0.00000000000E+00  0.00000000000E+00  0.49256007886E+03  0.23972340065E+04  0.23460851328E+04 0.  0.
        2    1    3    3  502    0  0.60639387112E+03 -0.80011750358E+03 -0.37368283723E+03  0.10712331256E+04  0.25500000920E-02 0.  1.
       -2    1    3    3    0  502 -0.60639387112E+03  0.80011750358E+03  0.86624291609E+03  0.13260008809E+04  0.25500000920E-02 0. -1.
</event>
<event>
 5   0  0.2031860E-05  0.2313376E+04  0.7818609E-02  0.8472666E-01
       -1   -1    0    0    0  501  0.00000000000E+00  0.00000000000E+00  0.17634602240E+04  0.17634602240E+04  0.50400001928E-02 0.  1.
        1   -1    0    0  501    0  0.00000000000E+00  0.00000000000E+00 -0.75869418265E+03  0.75869418267E+03  0.50400001928E-02 0. -1.
    10030    2    1    2    0    0  0.00000000000E+00  0.00000000000E+00  0.10047660414E+04  0.25221544067E+04  0.23133758997E+04 0.  0.
        4    1    3    3  502    0  0.22011566391E+03  0.25377344174E+03 -0.70433706840E+03  0.78034875796E+03  0.12699999809E+01 0. -1.
       -4    1    3    3    0  502 -0.22011566391E+03 -0.25377344174E+03  0.17091031098E+04  0.17418056487E+04  0.12699999809E+01 0.  1.
</event>
<event>
 5   0  0.1968318E-05  0.2296566E+04  0.7818609E-02  0.8479276E-01
        1   -1    0    0  501    0  0.00000000000E+00  0.00000000000E+00  0.11917933862E+04  0.11917933862E+04  0.50400001928E-02 0. -1.
       -1   -1    0    0    0  501  0.00000000000E+00  0.00000000000E+00 -0.11063607456E+04  0.11063607456E+04  0.50400001928E-02 0.  1.
    10030    2    1    2    0    0  0.00000000000E+00  0.00000000000E+00  0.85432640642E+02  0.22981541318E+04  0.22965656266E+04 0.  0.
        3    1    3    3  502    0  0.55328818149E+03 -0.56214127130E+03  0.87781304237E+03  0.11801213362E+04  0.10100000352E+00 0. -1.
       -3    1    3    3    0  502 -0.55328818149E+03  0.56214127130E+03 -0.79238040173E+03  0.11180327955E+04  0.10100000352E+00 0.  1.
</event>
<event>
 5   0  0.4436695E-05  0.2167955E+04  0.7818609E-02  0.8531886E-01
        2   -1    0    0  501    0  0.00000000000E+00  0.00000000000E+00  0.12852007807E+04  0.12852007807E+04  0.25500000920E-02 0. -1.
       -2   -1    0    0    0  501  0.00000000000E+00  0.00000000000E+00 -0.91425955375E+03  0.91425955375E+03  0.25500000920E-02 0.  1.
    10030    2    1    2    0    0  0.00000000000E+00  0.00000000000E+00  0.37094122699E+03  0.21994603345E+04  0.21679548817E+04 0.  0.
        5    1    3    3  502    0  0.11356244395E+02 -0.46162417725E+03  0.11804155807E+04  0.12675286500E+04  0.46999998093E+01 0. -1.
       -5    1    3    3    0  502 -0.11356244395E+02  0.46162417725E+03 -0.80947435372E+03  0.93193168453E+03  0.46999998093E+01 0.  1.
</event>
<event>
 5   0  0.2031860E-05  0.2305538E+04  0.7818609E-02  0.8475741E-01
        1   -1    0    0  501    0  0.00000000000E+00  0.00000000000E+00  0.12576453692E+04  0.12576453692E+04  0.50400001928E-02 0. -1.
       -1   -1    0    0    0  501  0.00000000000E+00  0.00000000000E+00 -0.10566381496E+04  0.10566381496E+04  0.50400001928E-02 0.  1.
    10030    2    1    2    0    0  0.00000000000E+00  0.00000000000E+00  0.20100721961E+03  0.23142835188E+04  0.23055377470E+04 0.  0.
        4    1    3    3  502    0 -0.21090861800E+03 -0.41129355201E+03 -0.95954669581E+03  0.10650710330E+04  0.12699999809E+01 0.  1.
       -4    1    3    3    0  502  0.21090861800E+03  0.41129355201E+03  0.11605539154E+04  0.12492124858E+04  0.12699999809E+01 0. -1.
</event>
<event>
 5   0  0.4436695E-05  0.2239839E+04  0.7818609E-02  0.8502027E-01
        2   -1    0    0  501    0  0.00000000000E+00  0.00000000000E+00  0.21311811211E+04  0.21311811211E+04  0.25500000920E-02 0. -1.
       -2   -1    0    0    0  501  0.00000000000E+00  0.00000000000E+00 -0.58850932280E+03  0.58850932281E+03  0.25500000920E-02 0.  1.
    10030    2    1    2    0    0  0.00000000000E+00  0.00000000000E+00  0.15426717983E+04  0.27196904439E+04  0.22398392428E+04 0.  0.
        5    1    3    3  502    0  0.93752058444E+03 -0.32258311105E+02  0.15141185078E+04  0.17811688271E+04  0.46999998093E+01 0. -1.
       -5    1    3    3    0  502 -0.93752058444E+03  0.32258311105E+02  0.28553290508E+02  0.93852161685E+03  0.46999998093E+01 0.  1.
</event>
<event>
 5   0  0.2031860E-05  0.2372524E+04  0.7818609E-02  0.8449862E-01
       -1   -1    0    0    0  501  0.00000000000E+00  0.00000000000E+00  0.83312822097E+03  0.83312822099E+03  0.50400001928E-02 0. -1.
        1   -1    0    0  501    0  0.00000000000E+00  0.00000000000E+00 -0.16890765821E+04  0.16890765821E+04  0.50400001928E-02 0.  1.
    10030    2    1    2    0    0  0.00000000000E+00  0.00000000000E+00 -0.85594836111E+03  0.25222048031E+04  0.23725238612E+04 0.  0.
        4    1    3    3  502    0  0.15477871708E+03 -0.66318194203E+03 -0.14605667066E+04  0.16115282985E+04  0.12699999809E+01 0.  1.
       -4    1    3    3    0  502 -0.15477871708E+03  0.66318194203E+03  0.60461834547E+03  0.91067650462E+03  0.12699999809E+01 0. -1.
</event>
<event>
 5   0  0.2043885E-05  0.2274419E+04  0.7818609E-02  0.8488076E-01
       -1   -1    0    0    0  501  0.00000000000E+00  0.00000000000E+00  0.89994875102E+03  0.89994875104E+03  0.50400001928E-02 0.  1.
        1   -1    0    0  501    0  0.00000000000E+00  0.00000000000E+00 -0.14370212433E+04  0.14370212433E+04  0.50400001928E-02 0. -1.
    10030    2    1    2    0    0  0.00000000000E+00  0.00000000000E+00 -0.53707249228E+03  0.23369699944E+04  0.22744190231E+04 0.  0.
        5    1    3    3  502    0  0.42159843616E+03 -0.97727884879E+03 -0.68005583794E+03  0.12630586773E+04  0.46999998093E+01 0. -1.
       -5    1    3    3    0  502 -0.42159843616E+03  0.97727884879E+03  0.14298334566E+03  0.10739113170E+04  0.46999998093E+01 0.  1.
</event>
<event>
 5   0  0.1968318E-05  0.2301545E+04  0.7818609E-02  0.8477312E-01
       -1   -1    0    0    0  501  0.00000000000E+00  0.00000000000E+00  0.91378005942E+03  0.91378005943E+03  0.50400001928E-02 0.  1.
        1   -1    0    0  501    0  0.00000000000E+00  0.00000000000E+00 -0.14492293495E+04  0.14492293495E+04  0.50400001928E-02 0. -1.
    10030    2    1    2    0    0  0.00000000000E+00  0.00000000000E+00 -0.53544929007E+03  0.23630094089E+04  0.23015445954E+04 0.  0.
        3    1    3    3  502    0  0.51794753402E+03  0.99515073841E+03 -0.45948643708E+01  0.11218804585E+04  0.10100000352E+00 0.  1.
       -3    1    3    3    0  502 -0.51794753402E+03 -0.99515073841E+03 -0.53085442570E+03  0.12411289504E+04  0.10100000352E+00 0. -1.
</event>
<event>
 5   0  0.1968318E-05  0.2281778E+04  0.7818609E-02  0.8485141E-01
       -1   -1    0    0    0  501  0.00000000000E+00  0.00000000000E+00  0.63439947766E+03  0.63439947768E+03  0.50400001928E-02 0. -1.
        1   -1    0    0  501    0  0.00000000000E+00  0.00000000000E+00 -0.20517478034E+04  0.20517478034E+04  0.50400001928E-02 0.  1.
    10030    2    1    2    0    0  0.00000000000E+00  0.00000000000E+00 -0.14173483257E+04  0.26861472811E+04  0.22817780214E+04 0.  0.
        3    1    3    3  502    0 -0.15432718531E+03  0.29789514455E+03 -0.19923637456E+04  0.20204137453E+04  0.10100000352E+00 0.  1.
       -3    1    3    3    0  502  0.15432718531E+03 -0.29789514455E+03  0.57501541990E+03  0.66573353573E+03  0.10100000352E+00 0. -1.
</event>
<event>
 5   0  0.4505107E-05  0.2301000E+04  0.7818609E-02  0.8477527E-01
        2   -1    0    0  501    0  0.00000000000E+00  0.00000000000E+00  0.10331572487E+04  0.10331572487E+04  0.25500000920E-02 0. -1.
       -2   -1    0    0    0  501  0.00000000000E+00  0.00000000000E+00 -0.12811702343E+04  0.12811702343E+04  0.25500000920E-02 0.  1.
    10030    2    1    2    0    0  0.00000000000E+00  0.00000000000E+00 -0.24801298563E+03  0.23143274830E+04  0.23010000560E+04 0.  0.
        4    1    3    3  502    0 -0.10125902705E+03 -0.23043683772E+03 -0.12531370168E+04  0.12781660778E+04  0.12699999809E+01 0.  1.
       -4    1    3    3    0  502  0.10125902705E+03  0.23043683772E+03  0.10051240312E+04  0.10361614052E+04  0.12699999809E+01 0. -1.
</event>
<event>
 5   0  0.4798609E-05  0.2308951E+04  0.7818609E-02  0.8474400E-01
       -2   -1    0    0    0  501  0.00000000000E+00  0.00000000000E+00  0.11421804233E+04  0.11421804233E+04  0.25500000920E-02 0. -1.
        2   -1    0    0  501    0  0.00000000000E+00  0.00000000000E+00 -0.11669031780E+04  0.11669031780E+04  0.25500000920E-02 0.  1.
    10030    2    1    2    0    0  0.00000000000E+00  0.00000000000E+00 -0.24722754673E+02  0.23090836014E+04  0.23089512475E+04 0.  0.
        2    1    3    3  502    0  0.27065346252E+03  0.87736532511E+03 -0.71225201781E+03  0.11620353469E+04  0.25500000920E-02 0.  1.
       -2    1    3    3    0  502 -0.27065346252E+03 -0.87736532511E+03  0.68752926314E+03  0.11470482545E+04  0.25500000920E-02 0. -1.
</event>
<event>
 5   0  0.1968318E-05  0.1874778E+04  0.7818609E-02  0.8667514E-01
       -1   -1    0    0    0  501  0.00000000000E+00  0.00000000000E+00  0.64870288442E+03  0.64870288443E+03  0.50400001928E-02 0. -1.
        1   -1    0    0  501    0  0.00000000000E+00  0.00000000000E+00 -0.13545467752E+04  0.13545467752E+04  0.50400001928E-02 0.  1.
    10030    2    1    2    0    0  0.00000000000E+00  0.00000000000E+00 -0.70584389080E+03  0.20032496597E+04  0.18747782804E+04 0.  0.
        3    1    3    3  502    0 -0.93174168722E+02  0.89282628774E+03 -0.64138084057E+03  0.11032631593E+04  0.10100000352E+00 0. -1.
       -3    1    3    3    0  502  0.93174168722E+02 -0.89282628774E+03 -0.64463050223E+02  0.89998650036E+03  0.10100000352E+00 0.  1.
</event>
<event>
 5   0  0.4602447E-05  0.2304502E+04  0.7818609E-02  0.8476148E-01
        2   -1    0    0  501    0  0.00000000000E+00  0.00000000000E+00  0.82286461681E+03  0.82286461681E+03  0.25500000920E-02 0. -1.
       -2   -1    0    0    0  501  0.00000000000E+00  0.00000000000E+00 -0.16134879575E+04  0.16134879575E+04  0.25500000920E-02 0.  1.
    10030    2    1    2    0    0  0.00000000000E+00  0.00000000000E+00 -0.79062334071E+03  0.24363525743E+04  0.23045018116E+04 0.  0.
        3    1    3    3  502    0  0.72805716687E+03 -0.19801380266E+03  0.52537912561E+03  0.91940194698E+03  0.10100000352E+00 0. -1.
       -3    1    3    3    0  502 -0.72805716687E+03  0.19801380266E+03 -0.13160024663E+04  0.15169506274E+04  0.10100000352E+00 0.  1.
</event>
<event>
 5   0  0.2085063E-05  0.2108619E+04  0.7818609E-02  0.8557456E-01
       -1   -1    0    0    0  501  0.00000000000E+00  0.00000000000E+00  0.81781898417E+03  0.81781898419E+03  0.50400001928E-02 0.  1.
        1   -1    0    0  501    0  0.00000000000E+00  0.00000000000E+00 -0.13591864765E+04  0.13591864765E+04  0.50400001928E-02 0. -1.
    10030    2    1    2    0    0  0.00000000000E+00  0.00000000000E+00 -0.54136749228E+03  0.21770054606E+04  0.21086189826E+04 0.  0.
        1    1    3    3  502    0  0.44859451103E+03  0.61583994226E+03  0.48169820344E+03  0.90140392113E+03  0.50400001928E-02 0.  1.
       -1    1    3    3    0  502 -0.44859451103E+03 -0.61583994226E+03 -0.10230656957E+04  0.12756015395E+04  0.50400001928E-02 0. -1.
</event>
<event>
 5   0  0.2031860E-05  0.2337413E+04  0.7818609E-02  0.8463314E-01
        1   -1    0    0  501    0  0.00000000000E+00  0.00000000000E+00  0.14860506203E+04  0.14860506203E+04  0.50400001928E-02 0. -1.
       -1   -1    0    0    0  501  0.00000000000E+00  0.00000000000E+00 -0.91913066642E+03  0.91913066643E+03  0.50400001928E-02 0.  1.
    10030    2    1    2    0    0  0.00000000000E+00  0.00000000000E+00  0.56691995388E+03  0.24051812867E+04  0.23374128407E+04 0.  0.
        4    1    3    3  502    0 -0.91167082910E+03  0.38069423274E+03 -0.35898216839E+03  0.10511620282E+04  0.12699999809E+01 0.  1.
       -4    1    3    3    0  502  0.91167082910E+03 -0.38069423274E+03  0.92590212227E+03  0.13540192585E+04  0.12699999809E+01 0. -1.
</event>
<event>
 5   0  0.2043885E-05  0.2267335E+04  0.7818609E-02  0.8490913E-01
       -1   -1    0    0    0  501  0.00000000000E+00  0.00000000000E+00  0.61212506910E+03  0.61212506913E+03  0.50400001928E-02 0.  1.
        1   -1    0    0  501    0  0.00000000000E+00  0.00000000000E+00 -0.20995748220E+04  0.20995748220E+04  0.50400001928E-02 0. -1.
    10030    2    1    2    0    0  0.00000000000E+00  0.00000000000E+00 -0.14874497529E+04  0.27116998912E+04  0.22673353374E+04 0.  0.
        5    1    3    3  502    0  0.56876850469E+03  0.68774014746E+02  0.42623543471E+03  0.71409117963E+03  0.46999998093E+01 0. -1.
       -5    1    3    3    0  502 -0.56876850469E+03 -0.68774014746E+02 -0.19136851876E+04  0.19976087115E+04  0.46999998093E+01 0.  1.
</event>
<event>
 5   0  0.4602447E-05  0.2327553E+04  0.7818609E-02  0.8467136E-01
       -2   -1    0    0    0  501  0.00000000000E+00  0.00000000000E+00  0.10122624396E+04  0.10122624396E+04  0.25500000920E-02 0. -1.
        2   -1    0    0  501    0  0.00000000000E+00  0.00000000000E+00 -0.13379692689E+04  0.13379692689E+04  0.25500000920E-02 0.  1.
    10030    2    1    2    0    0  0.00000000000E+00  0.00000000000E+00 -0.32570682930E+03  0.23502317085E+04  0.23275532529E+04 0.  0.
        3    1    3    3  502    0  0.50923083810E+03 -0.10047300099E+04  0.13253337782E+03  0.11341796796E+04  0.10100000352E+00 0. -1.
       -3    1    3    3    0  502 -0.50923083810E+03  0.10047300099E+04 -0.45824020711E+03  0.12160520289E+04  0.10100000352E+00 0.  1.
</event>
<event>
 5   0  0.2085063E-05  0.2286982E+04  0.7818609E-02  0.8483071E-01
        1   -1    0    0  501    0  0.00000000000E+00  0.00000000000E+00  0.10360399539E+04  0.10360399539E+04  0.50400001928E-02 0. -1.
       -1   -1    0    0    0  501  0.00000000000E+00  0.00000000000E+00 -0.12620866368E+04  0.12620866368E+04  0.50400001928E-02 0.  1.
    10030    2    1    2    0    0  0.00000000000E+00  0.00000000000E+00 -0.22604668288E+03  0.22981265907E+04  0.22869824494E+04 0.  0.
        1    1    3    3  502    0 -0.74628005496E+03  0.61216441760E+03  0.50306533587E+03  0.10884640218E+04  0.50400001928E-02 0. -1.
       -1    1    3    3    0  502  0.74628005496E+03 -0.61216441760E+03 -0.72911201875E+03  0.12096625689E+04  0.50400001928E-02 0.  1.
</event>
<event>
 5   0  0.4605516E-05  0.2306694E+04  0.7818609E-02  0.8475287E-01
       -2   -1    0    0    0  501  0.00000000000E+00  0.00000000000E+00  0.77358754072E+03  0.77358754072E+03  0.25500000920E-02 0.  1.
        2   -1    0    0  501    0  0.00000000000E+00  0.00000000000E+00 -0.17195327682E+04  0.17195327682E+04  0.25500000920E-02 0. -1.
    10030    2    1    2    0    0  0.00000000000E+00  0.00000000000E+00 -0.94594522750E+03  0.24931203089E+04  0.23066938465E+04 0.  0.
        1    1    3    3  502    0 -0.51589153459E+03 -0.53281723130E+02  0.64044283350E+03  0.82410560032E+03  0.50400001928E-02 0.  1.
       -1    1    3    3    0  502  0.51589153459E+03  0.53281723130E+02 -0.15863880610E+04  0.16690147086E+04  0.50400001928E-02 0. -1.
</event>
<event>
 5   0  0.2031860E-05  0.2297351E+04  0.7818609E-02  0.8478966E-01
       -1   -1    0    0    0  501  0.00000000000E+00  0.00000000000E+00  0.11507768963E+04  0.11507768963E+04  0.50400001928E-02 0.  1.
        1   -1    0    0  501    0  0.00000000000E+00  0.00000000000E+00 -0.11465774891E+04  0.11465774891E+04  0.50400001928E-02 0. -1.
    10030    2    1    2    0    0  0.00000000000E+00  0.00000000000E+00  0.41994072526E+01  0.22973543854E+04  0.22973505473E+04 0.  0.
        4    1    3    3  502    0  0.14363056784E+03  0.45297301307E+03  0.10478734053E+04  0.11505887958E+04  0.12699999809E+01 0.  1.
       -4    1    3    3    0  502 -0.14363056784E+03 -0.45297301307E+03 -0.10436739980E+04  0.11467655897E+04  0.12699999809E+01 0. -1.
</event>
<event>
 5   0  0.2043885E-05  0.2292026E+04  0.7818609E-02  0.8481072E-01
        1   -1    0    0  501    0  0.00000000000E+00  0.00000000000E+00  0.75927016090E+03  0.75927016092E+03  0.50400001928E-02 0. -1.
       -1   -1    0    0    0  501  0.00000000000E+00  0.00000000000E+00 -0.17297470157E+04  0.17297470157E+04  0.50400001928E-02 0.  1.
    10030    2    1    2    0    0  0.00000000000E+00  0.00000000000E+00 -0.97047685477E+03  0.24890171766E+04  0.22920255626E+04 0.  0.
        5    1    3    3  502    0  0.38627477363E+03 -0.79592297316E+03  0.30580606178E+03  0.93607746333E+03  0.46999998093E+01 0. -1.
       -5    1    3    3    0  502 -0.38627477363E+03  0.79592297316E+03 -0.12762829166E+04  0.15529397133E+04  0.46999998093E+01 0.  1.
</event>
<event>
 5   0  0.2042951E-05  0.2272519E+04  0.7818609E-02  0.8488836E-01
       -1   -1    0    0    0  501  0.00000000000E+00  0.00000000000E+00  0.79135230711E+03  0.79135230713E+03  0.50400001928E-02 0.  1.
        1   -1    0    0  501    0  0.00000000000E+00  0.00000000000E+00 -0.16314933124E+04  0.16314933124E+04  0.50400001928E-02 0. -1.
    10030    2    1    2    0    0  0.00000000000E+00  0.00000000000E+00 -0.84014100529E+03  0.24228456195E+04  0.22725193041E+04 0.  0.
        2    1    3    3  502    0 -0.58693610596E+03 -0.89466913718E+03 -0.12473342204E+02  0.10700852498E+04  0.25500000920E-02 0.  1.
       -2    1    3    3    0  502  0.58693610596E+03  0.89466913718E+03 -0.82766766309E+03  0.13527603698E+04  0.25500000920E-02 0. -1.
</event>
<event>
 5   0  0.2031860E-05  0.2258502E+04  0.7818609E-02  0.8494465E-01
        1   -1    0    0  501    0  0.00000000000E+00  0.00000000000E+00  0.88001424787E+03  0.88001424788E+03  0.50400001928E-02 0. -1.
       -1   -1    0    0    0  501  0.00000000000E+00  0.00000000000E+00 -0.14490763248E+04  0.14490763248E+04  0.50400001928E-02 0.  1.
    10030    2    1    2    0    0  0.00000000000E+00  0.00000000000E+00 -0.56906207696E+03  0.23290905727E+04  0.22585019921E+04 0.  0.
        4    1    3    3  502    0  0.31134506919E+03 -0.10809717724E+04 -0.18259594512E+03  0.11396396873E+04  0.12699999809E+01 0.  1.
       -4    1    3    3    0  502 -0.31134506919E+03  0.10809717724E+04 -0.38646613185E+03  0.11894508854E+04  0.12699999809E+01 0. -1.
</event>
<event>
 5   0  0.2043885E-05  0.2173518E+04  0.7818609E-02  0.8529532E-01
       -1   -1    0    0    0  501  0.00000000000E+00  0.00000000000E+00  0.10183699817E+04  0.10183699817E+04  0.50400001928E-02 0.  1.
        1   -1    0    0  501    0  0.00000000000E+00  0.00000000000E+00 -0.11597409446E+04  0.11597409446E+04  0.50400001928E-02 0. -1.
    10030    2    1    2    0    0  0.00000000000E+00  0.00000000000E+00 -0.14137096287E+03  0.21781109263E+04  0.21735182212E+04 0.  0.
        5    1    3    3  502    0 -0.83252623804E+03  0.45719746426E+03 -0.59990536233E+03  0.11234046431E+04  0.46999998093E+01 0. -1.
       -5    1    3    3    0  502  0.83252623804E+03 -0.45719746426E+03  0.45853439946E+03  0.10547062832E+04  0.46999998093E+01 0.  1.
</event>
<event>
 5   0  0.4798609E-05  0.2358229E+04  0.7818609E-02  0.8455309E-01
       -2   -1    0    0    0  501  0.00000000000E+00  0.00000000000E+00  0.91147551061E+03  0.91147551061E+03  0.25500000920E-02 0. -1.
        2   -1    0    0  501    0  0.00000000000E+00  0.00000000000E+00 -0.15253415683E+04  0.15253415684E+04  0.25500000920E-02 0.  1.
    10030    2    1    2    0    0  0.00000000000E+00  0.00000000000E+00 -0.61386605774E+03  0.24368170790E+04  0.23582294077E+04 0.  0.
        2    1    3    3  502    0 -0.59144881155E+01 -0.96416023239E+03 -0.10082794336E+04  0.13950868615E+04  0.25500000920E-02 0.  1.
       -2    1    3    3    0  502  0.59144881155E+01  0.96416023239E+03  0.39441337587E+03  0.10417302175E+04  0.25500000920E-02 0. -1.
</event>
<event>
 5   0  0.2085063E-05  0.2236492E+04  0.7818609E-02  0.8503391E-01
       -1   -1    0    0    0  501  0.00000000000E+00  0.00000000000E+00  0.12072532147E+04  0.12072532147E+04  0.50400001928E-02 0. -1.
        1   -1    0    0  501    0  0.00000000000E+00  0.00000000000E+00 -0.10358012964E+04  0.10358012964E+04  0.50400001928E-02 0.  1.
    10030    2    1    2    0    0  0.00000000000E+00  0.00000000000E+00  0.17145191826E+03  0.22430545111E+04  0.22364922937E+04 0.  0.
        1    1    3    3  502    0 -0.64267709729E+03  0.85952881624E+03  0.40073480126E+03  0.11456055247E+04  0.50400001928E-02 0. -1.
       -1    1    3    3    0  502  0.64267709729E+03 -0.85952881624E+03 -0.22928288300E+03  0.10974489864E+04  0.50400001928E-02 0.  1.
</event>
<event>
 5   0  0.2085063E-05  0.2309386E+04  0.7818609E-02  0.8474230E-01
        1   -1    0    0  501    0  0.00000000000E+00  0.00000000000E+00  0.77923905220E+03  0.77923905221E+03  0.50400001928E-02 0.  1.
       -1   -1    0    0    0  501  0.00000000000E+00  0.00000000000E+00 -0.17110482378E+04  0.17110482378E+04  0.50400001928E-02 0. -1.
    10030    2    1    2    0    0  0.00000000000E+00  0.00000000000E+00 -0.93180918558E+03  0.24902872900E+04  0.23093857253E+04 0.  0.
        1    1    3    3  502    0 -0.88721058927E+03  0.18743113944E+03 -0.12367752304E+04  0.15335860042E+04  0.50400001928E-02 0. -1.
       -1    1    3    3    0  502  0.88721058927E+03 -0.18743113944E+03  0.30496604480E+03  0.95670128580E+03  0.50400001928E-02 0.  1.
</event>
<event>
 5   0  0.2085063E-05  0.2255426E+04  0.7818609E-02  0.8495706E-01
        1   -1    0    0  501    0  0.00000000000E+00  0.00000000000E+00  0.12324324558E+04  0.12324324558E+04  0.50400001928E-02 0. -1.
       -1   -1    0    0    0  501  0.00000000000E+00  0.00000000000E+00 -0.10318917930E+04  0.10318917930E+04  0.50400001928E-02 0.  1.
    10030    2    1    2    0    0  0.00000000000E+00  0.00000000000E+00  0.20054066277E+03  0.22643242488E+04  0.22554262892E+04 0.  0.
        1    1    3    3  502    0 -0.55834748843E+03  0.80742067303E+03  0.65748871006E+03  0.11815123634E+04  0.50400001928E-02 0. -1.
       -1    1    3    3    0  502  0.55834748843E+03 -0.80742067303E+03 -0.45694804730E+03  0.10828118853E+04  0.50400001928E-02 0.  1.
</event>
<event>
 5   0  0.4505107E-05  0.2292111E+04  0.7818609E-02  0.8481038E-01
        2   -1    0    0  501    0  0.00000000000E+00  0.00000000000E+00  0.11217630342E+04  0.11217630342E+04  0.25500000920E-02 0.  1.
       -2   -1    0    0    0  501  0.00000000000E+00  0.00000000000E+00 -0.11708737859E+04  0.11708737859E+04  0.25500000920E-02 0. -1.
    10030    2    1    2    0    0  0.00000000000E+00  0.00000000000E+00 -0.49110751699E+02  0.22926368200E+04  0.22921107570E+04 0.  0.
        4    1    3    3  502    0 -0.26525540460E+03  0.10976402834E+04 -0.22021902498E+03  0.11505097363E+04  0.12699999809E+01 0. -1.
       -4    1    3    3    0  502  0.26525540460E+03 -0.10976402834E+04  0.17110827328E+03  0.11421270838E+04  0.12699999809E+01 0.  1.
</event>
<event>
 5   0  0.1968318E-05  0.2382494E+04  0.7818609E-02  0.8446087E-01
        1   -1    0    0  501    0  0.00000000000E+00  0.00000000000E+00  0.98088581825E+03  0.98088581827E+03  0.50400001928E-02 0. -1.
       -1   -1    0    0    0  501  0.00000000000E+00  0.00000000000E+00 -0.14467224942E+04  0.14467224942E+04  0.50400001928E-02 0.  1.
    10030    2    1    2    0    0  0.00000000000E+00  0.00000000000E+00 -0.46583667594E+03  0.24276083125E+04  0.23824941364E+04 0.  0.
        3    1    3    3  502    0 -0.10723160369E+03  0.16723387212E+03 -0.14297249053E+04  0.14434608064E+04  0.10100000352E+00 0.  1.
       -3    1    3    3    0  502  0.10723160369E+03 -0.16723387212E+03  0.96388822932E+03  0.98414750603E+03  0.10100000352E+00 0. -1.
</event>
<event>
 5   0  0.4505107E-05  0.2366073E+04  0.7818609E-02  0.8452316E-01
        2   -1    0    0  501    0  0.00000000000E+00  0.00000000000E+00  0.12987181417E+04  0.12987181417E+04  0.25500000920E-02 0.  1.
       -2   -1    0    0    0  501  0.00000000000E+00  0.00000000000E+00 -0.10776586963E+04  0.10776586963E+04  0.25500000920E-02 0. -1.
    10030    2    1    2    0    0  0.00000000000E+00  0.00000000000E+00  0.22105944547E+03  0.23763768380E+04  0.23660726104E+04 0.  0.
        4    1    3    3  502    0  0.44638720668E+02 -0.11203734009E+04 -0.26839854021E+03  0.11529390973E+04  0.12699999809E+01 0. -1.
       -4    1    3    3    0  502 -0.44638720668E+02  0.11203734009E+04  0.48945798568E+03  0.12234377407E+04  0.12699999809E+01 0.  1.
</event>
<event>
 5   0  0.4602447E-05  0.2199582E+04  0.7818609E-02  0.8518602E-01
       -2   -1    0    0    0  501  0.00000000000E+00  0.00000000000E+00  0.91009421363E+03  0.91009421364E+03  0.25500000920E-02 0. -1.
        2   -1    0    0  501    0  0.00000000000E+00  0.00000000000E+00 -0.13290278168E+04  0.13290278168E+04  0.25500000920E-02 0.  1.
    10030    2    1    2    0    0  0.00000000000E+00  0.00000000000E+00 -0.41893360318E+03  0.22391220305E+04  0.21995822566E+04 0.  0.
        3    1    3    3  502    0  0.10083770732E+04  0.42988297094E+03 -0.30004279023E+03  0.11365075348E+04  0.10100000352E+00 0.  1.
       -3    1    3    3    0  502 -0.10083770732E+04 -0.42988297094E+03 -0.11889081296E+03  0.11026144957E+04  0.10100000352E+00 0. -1.
</event>
<event>
 5   0  0.4605516E-05  0.2280931E+04  0.7818609E-02  0.8485478E-01
       -2   -1    0    0    0  501  0.00000000000E+00  0.00000000000E+00  0.84708157517E+03  0.84708157517E+03  0.25500000920E-02 0.  1.
        2   -1    0    0  501    0  0.00000000000E+00  0.00000000000E+00 -0.15354615041E+04  0.15354615041E+04  0.25500000920E-02 0. -1.
    10030    2    1    2    0    0  0.00000000000E+00  0.00000000000E+00 -0.68837992897E+03  0.23825430793E+04  0.22809306430E+04 0.  0.
        1    1    3    3  502    0 -0.10959886631E+04  0.20658745374E+03 -0.59311628853E+03  0.12631929612E+04  0.50400001928E-02 0.  1.
       -1    1    3    3    0  502  0.10959886631E+04 -0.20658745374E+03 -0.95263640445E+02  0.11193501181E+04  0.50400001928E-02 0. -1.
</event>
<event>
 5   0  0.4505107E-05  0.2340945E+04  0.7818609E-02  0.8461950E-01
       -2   -1    0    0    0  501  0.00000000000E+00  0.00000000000E+00  0.12140358780E+04  0.12140358780E+04  0.25500000920E-02 0. -1.
        2   -1    0    0  501    0  0.00000000000E+00  0.00000000000E+00 -0.11284723372E+04  0.11284723372E+04  0.25500000920E-02 0.  1.
    10030    2    1    2    0    0  0.00000000000E+00  0.00000000000E+00  0.85563540809E+02  0.23425082152E+04  0.23409450268E+04 0.  0.
        4    1    3    3  502    0 -0.10843885168E+04  0.27295829197E+03  0.38884446434E+03  0.11838945539E+04  0.12699999809E+01 0. -1.
       -4    1    3    3    0  502  0.10843885168E+04 -0.27295829197E+03 -0.30328092353E+03  0.11586136612E+04  0.12699999809E+01 0.  1.
</event>
<event>
 5   0  0.1968318E-05  0.2313768E+04  0.7818609E-02  0.8472512E-01
        1   -1    0    0  501    0  0.00000000000E+00  0.00000000000E+00  0.89237285303E+03  0.89237285304E+03  0.50400001928E-02 0.  1.
       -1   -1    0    0    0  501  0.00000000000E+00  0.00000000000E+00 -0.14997992525E+04  0.14997992525E+04  0.50400001928E-02 0. -1.
    10030    2    1    2    0    0  0.00000000000E+00  0.00000000000E+00 -0.60742639951E+03  0.23921721056E+04  0.23137676098E+04 0.  0.
        3    1    3    3  502    0  0.54810654587E+02 -0.85547306952E+01  0.89099695273E+03  0.89272222513E+03  0.10100000352E+00 0.  1.
       -3    1    3    3    0  502 -0.54810654587E+02  0.85547306952E+01 -0.14984233522E+04  0.14994498805E+04  0.10100000352E+00 0. -1.
</event>
<event>
 5   0  0.4602447E-05  0.2285418E+04  0.7818609E-02  0.8483693E-01
        2   -1    0    0  501    0  0.00000000000E+00  0.00000000000E+00  0.13731815615E+04  0.13731815615E+04  0.25500000920E-02 0.  1.
       -2   -1    0    0    0  501  0.00000000000E+00  0.00000000000E+00 -0.95091876683E+03  0.95091876683E+03  0.25500000920E-02 0. -1.
    10030    2    1    2    0    0  0.00000000000E+00  0.00000000000E+00  0.42226279472E+03  0.23241003284E+04  0.22854182262E+04 0.  0.
        3    1    3    3  502    0 -0.87184185969E+03 -0.34307756757E+03 -0.45413824563E+03  0.10411781798E+04  0.10100000352E+00 0. -1.
       -3    1    3    3    0  502  0.87184185969E+03  0.34307756757E+03  0.87640104035E+03  0.12829221486E+04  0.10100000352E+00 0.  1.
</event>
<event>
 5   0  0.1968318E-05  0.2305572E+04  0.7818609E-02  0.8475727E-01
        1   -1    0    0  501    0  0.00000000000E+00  0.00000000000E+00  0.17554379505E+04  0.17554379505E+04  0.50400001928E-02 0.  1.
       -1   -1    0    0    0  501  0.00000000000E+00  0.00000000000E+00 -0.75702806795E+03  0.75702806797E+03  0.50400001928E-02 0. -1.
    10030    2    1    2    0    0  0.00000000000E+00  0.00000000000E+00  0.99840988250E+03  0.25124660184E+04  0.23055722067E+04 0.  0.
        3    1    3    3  502    0 -0.10470759322E+04  0.23933591595E+03  0.42989026060E+02  0.10749408146E+04  0.10100000352E+00 0. -1.
       -3    1    3    3    0  502  0.10470759322E+04 -0.23933591595E+03  0.95542085644E+03  0.14375252038E+04  0.10100000352E+00 0.  1.
</event>
<event>
 5   0  0.4505107E-05  0.2259012E+04  0.7818609E-02  0.8494260E-01
        2   -1    0    0  501    0  0.00000000000E+00  0.00000000000E+00  0.87116449378E+03  0.87116449378E+03  0.25500000920E-02 0. -1.
       -2   -1    0    0    0  501  0.00000000000E+00  0.00000000000E+00 -0.14644580382E+04  0.14644580382E+04  0.25500000920E-02 0.  1.
    10030    2    1    2    0    0  0.00000000000E+00  0.00000000000E+00 -0.59329354444E+03  0.23356225320E+04  0.22590120367E+04 0.  0.
        4    1    3    3  502    0 -0.92611243723E+02 -0.37848818851E+03 -0.13927665380E+04  0.14462470030E+04  0.12699999809E+01 0.  1.
       -4    1    3    3    0  502  0.92611243723E+02  0.37848818851E+03  0.79947299357E+03  0.88937552904E+03  0.12699999809E+01 0. -1.
</event>
<event>
 5   0  0.4798609E-05  0.2317204E+04  0.7818609E-02  0.8471169E-01
        2   -1    0    0  501    0  0.00000000000E+00  0.00000000000E+00  0.12084990535E+04  0.12084990535E+04  0.25500000920E-02 0. -1.
       -2   -1    0    0    0  501  0.00000000000E+00  0.00000000000E+00 -0.11107649835E+04  0.11107649835E+04  0.25500000920E-02 0.  1.
    10030    2    1    2    0    0  0.00000000000E+00  0.00000000000E+00  0.97734070004E+02  0.23192640370E+04  0.23172038592E+04 0.  0.
        2    1    3    3  502    0  0.65059631432E+03  0.43053322760E+02  0.10074394019E+04  0.12000263752E+04  0.25500000920E-02 0. -1.
       -2    1    3    3    0  502 -0.65059631432E+03 -0.43053322760E+02 -0.90970533186E+03  0.11192376618E+04  0.25500000920E-02 0.  1.
</event>
<event>
 5   0  0.4605516E-05  0.2350995E+04  0.7818609E-02  0.8458082E-01
        2   -1    0    0  501    0  0.00000000000E+00  0.00000000000E+00  0.21461722425E+04  0.21461722425E+04  0.25500000920E-02 0. -1.
       -2   -1    0    0    0  501  0.00000000000E+00  0.00000000000E+00 -0.64384139854E+03  0.64384139855E+03  0.25500000920E-02 0.  1.
    10030    2    1    2    0    0  0.00000000000E+00  0.00000000000E+00  0.15023308440E+04  0.27900136411E+04  0.23509951409E+04 0.  0.
        1    1    3    3  502    0  0.58012355568E+03  0.10192930945E+04  0.84530582854E+03  0.14456983420E+04  0.50400001928E-02 0.  1.
       -1    1    3    3    0  502 -0.58012355568E+03 -0.10192930945E+04  0.65702501546E+03  0.13443152991E+04  0.50400001928E-02 0. -1.
</event>
<event>
 5   0  0.4602447E-05  0.2299447E+04  0.7818609E-02  0.8478139E-01
        2   -1    0    0  501    0  0.00000000000E+00  0.00000000000E+00  0.95862173989E+03  0.95862173989E+03  0.25500000920E-02 0.  1.
       -2   -1    0    0    0  501  0.00000000000E+00  0.00000000000E+00 -0.13789214503E+04  0.13789214503E+04  0.25500000920E-02 0. -1.
    10030    2    1    2    0    0  0.00000000000E+00  0.00000000000E+00 -0.42029971043E+03  0.23375431902E+04  0.22994469595E+04 0.  0.
        3    1    3    3  502    0 -0.64115138783E+03 -0.38610536974E+03  0.67707057843E+03  0.10092457763E+04  0.10100000352E+00 0.  1.
       -3    1    3    3    0  502  0.64115138783E+03  0.38610536974E+03 -0.10973702889E+04  0.13282974139E+04  0.10100000352E+00 0. -1.
</event>
<event>
 5   0  0.4798609E-05  0.2303570E+04  0.7818609E-02  0.8476515E-01
        2   -1    0    0  501    0  0.00000000000E+00  0.00000000000E+00  0.14053511216E+04  0.14053511216E+04  0.25500000920E-02 0.  1.
       -2   -1    0    0    0  501  0.00000000000E+00  0.00000000000E+00 -0.94396933984E+03  0.94396933985E+03  0.25500000920E-02 0. -1.
    10030    2    1    2    0    0  0.00000000000E+00  0.00000000000E+00  0.46138178178E+03  0.23493204615E+04  0.23035697259E+04 0.  0.
        2    1    3    3  502    0  0.40579485544E+02 -0.68365460741E+03 -0.71375640639E+03  0.98918073402E+03  0.25500000920E-02 0. -1.
       -2    1    3    3    0  502 -0.40579485544E+02  0.68365460741E+03  0.11751381882E+04  0.13601397275E+04  0.25500000920E-02 0.  1.
</event>
<event>
 5   0  0.2042951E-05  0.2274981E+04  0.7818609E-02  0.8487852E-01
        1   -1    0    0  501    0  0.00000000000E+00  0.00000000000E+00  0.13327264675E+04  0.13327264675E+04  0.50400001928E-02 0. -1.
       -1   -1    0    0    0  501  0.00000000000E+00  0.00000000000E+00 -0.97085525653E+03  0.97085525654E+03  0.50400001928E-02 0.  1.
    10030    2    1    2    0    0  0.00000000000E+00  0.00000000000E+00  0.36187121100E+03  0.23035817241E+04  0.22749808760E+04 0.  0.
        2    1    3    3  502    0 -0.46393913502E+03 -0.25969285412E+03 -0.83729322987E+03  0.99183660564E+03  0.25500000920E-02 0.  1.
       -2    1    3    3    0  502  0.46393913502E+03  0.25969285412E+03  0.11991644409E+04  0.13117451184E+04  0.25500000920E-02 0. -1.
</event>
<event>
 5   0  0.2042951E-05  0.2320637E+04  0.7818609E-02  0.8469829E-01
       -1   -1    0    0    0  501  0.00000000000E+00  0.00000000000E+00  0.13377724645E+04  0.13377724645E+04  0.50400001928E-02 0. -1.
        1   -1    0    0  501    0  0.00000000000E+00  0.00000000000E+00 -0.10064033509E+04  0.10064033509E+04  0.50400001928E-02 0.  1.
    10030    2    1    2    0    0  0.00000000000E+00  0.00000000000E+00  0.33136911359E+03  0.23441758153E+04  0.23206367152E+04 0.  0.
        2    1    3    3  502    0 -0.13093297630E+03  0.26987110184E+03  0.12979308516E+04  0.13321405149E+04  0.25500000920E-02 0. -1.
       -2    1    3    3    0  502  0.13093297630E+03 -0.26987110184E+03 -0.96656173802E+03  0.10120353004E+04  0.25500000920E-02 0.  1.
</event>
<event>
 5   0  0.2031860E-05  0.2691859E+04  0.7818609E-02  0.8337651E-01
       -1   -1    0    0    0  501  0.00000000000E+00  0.00000000000E+00  0.75611876151E+03  0.75611876153E+03  0.50400001928E-02 0. -1.
        1   -1    0    0  501    0  0.00000000000E+00  0.00000000000E+00 -0.23958221730E+04  0.23958221730E+04  0.50400001928E-02 0.  1.
    10030    2    1    2    0    0  0.00000000000E+00  0.00000000000E+00 -0.16397034115E+04  0.31519409345E+04  0.26918589073E+04 0.  0.
        4    1    3    3  502    0  0.60707492466E+03  0.99178726823E+03 -0.16134379067E+04  0.19888100566E+04  0.12699999809E+01 0.  1.
       -4    1    3    3    0  502 -0.60707492466E+03 -0.99178726823E+03 -0.26265504809E+02  0.11631308779E+04  0.12699999809E+01 0. -1.
</event>
<event>
 5   0  0.2043885E-05  0.2297353E+04  0.7818609E-02  0.8478965E-01
       -1   -1    0    0    0  501  0.00000000000E+00  0.00000000000E+00  0.10349496975E+04  0.10349496975E+04  0.50400001928E-02 0. -1.
        1   -1    0    0  501    0  0.00000000000E+00  0.00000000000E+00 -0.12749005498E+04  0.12749005498E+04  0.50400001928E-02 0.  1.
    10030    2    1    2    0    0  0.00000000000E+00  0.00000000000E+00 -0.23995085234E+03  0.23098502474E+04  0.22973532061E+04 0.  0.
        5    1    3    3  502    0  0.50739406114E+03 -0.10303964000E+04 -0.10344292691E+03  0.11532077018E+04  0.46999998093E+01 0.  1.
       -5    1    3    3    0  502 -0.50739406114E+03  0.10303964000E+04 -0.13650792543E+03  0.11566425455E+04  0.46999998093E+01 0. -1.
</event>
<event>
 5   0  0.2043885E-05  0.2343350E+04  0.7818609E-02  0.8461022E-01
       -1   -1    0    0    0  501  0.00000000000E+00  0.00000000000E+00  0.89857643466E+03  0.89857643467E+03  0.50400001928E-02 0.  1.
        1   -1    0    0  501    0  0.00000000000E+00  0.00000000000E+00 -0.15277752806E+04  0.15277752807E+04  0.50400001928E-02 0. -1.
    10030    2    1    2    0    0  0.00000000000E+00  0.00000000000E+00 -0.62919884598E+03  0.24263517153E+04  0.23433504771E+04 0.  0.
        5    1    3    3  502    0 -0.10409550975E+04  0.19961389899E+03  0.20245526174E+03  0.10790938081E+04  0.46999998093E+01 0.  1.
       -5    1    3    3    0  502  0.10409550975E+04 -0.19961389899E+03 -0.83165410773E+03  0.13472579072E+04  0.46999998093E+01 0. -1.
</event>
<event>
 5   0  0.4602447E-05  0.2292962E+04  0.7818609E-02  0.8480701E-01
        2   -1    0    0  501    0  0.00000000000E+00  0.00000000000E+00  0.18575106132E+04  0.18575106132E+04  0.25500000920E-02 0.  1.
       -2   -1    0    0    0  501  0.00000000000E+00  0.00000000000E+00 -0.70762355045E+03  0.70762355046E+03  0.25500000920E-02 0. -1.
    10030    2    1    2    0    0  0.00000000000E+00  0.00000000000E+00  0.11498870628E+04  0.25651341637E+04  0.22929616265E+04 0.  0.
        3    1    3    3  502    0 -0.11398852461E+04  0.90897624410E+02  0.48257466139E+03  0.12411603710E+04  0.10100000352E+00 0.  1.
       -3    1    3    3    0  502  0.11398852461E+04 -0.90897624410E+02  0.66731240138E+03  0.13239737927E+04  0.10100000352E+00 0. -1.
</event>
<event>
 5   0  0.4602447E-05  0.2337193E+04  0.7818609E-02  0.8463399E-01
        2   -1    0    0  501    0  0.00000000000E+00  0.00000000000E+00  0.13776656335E+04  0.13776656336E+04  0.25500000920E-02 0.  1.
       -2   -1    0    0    0  501  0.00000000000E+00  0.00000000000E+00 -0.99125474816E+03  0.99125474816E+03  0.25500000920E-02 0. -1.
    10030    2    1    2    0    0  0.00000000000E+00  0.00000000000E+00  0.38641088539E+03  0.23689203817E+04  0.23371928467E+04 0.  0.
        3    1    3    3  502    0  0.58082136117E+03  0.34818976443E+03 -0.77210336550E+03  0.10270020364E+04  0.10100000352E+00 0. -1.
       -3    1    3    3    0  502 -0.58082136117E+03 -0.34818976443E+03  0.11585142509E+04  0.13419183453E+04  0.10100000352E+00 0.  1.
</event>
<event>
 5   0  0.2043885E-05  0.2334822E+04  0.7818609E-02  0.8464316E-01
        1   -1    0    0  501    0  0.00000000000E+00  0.00000000000E+00  0.18180852416E+04  0.18180852416E+04  0.50400001928E-02 0. -1.
       -1   -1    0    0    0  501  0.00000000000E+00  0.00000000000E+00 -0.74960654029E+03  0.74960654031E+03  0.50400001928E-02 0.  1.
    10030    2    1    2    0    0  0.00000000000E+00  0.00000000000E+00  0.10684787013E+04  0.25676917819E+04  0.23348221242E+04 0.  0.
        5    1    3    3  502    0 -0.31565802801E+03  0.41388675652E+03 -0.61491242890E+03  0.80565602032E+03  0.46999998093E+01 0.  1.
       -5    1    3    3    0  502  0.31565802801E+03 -0.41388675652E+03  0.16833911302E+04  0.17620357616E+04  0.46999998093E+01 0. -1.
</event>
<event>
 5   0  0.4605516E-05  0.2395603E+04  0.7818609E-02  0.8441151E-01
       -2   -1    0    0    0  501  0.00000000000E+00  0.00000000000E+00  0.11018355994E+04  0.11018355994E+04  0.25500000920E-02 0. -1.
        2   -1    0    0  501    0  0.00000000000E+00  0.00000000000E+00 -0.13021260366E+04  0.13021260366E+04  0.25500000920E-02 0.  1.
    10030    2    1    2    0    0  0.00000000000E+00  0.00000000000E+00 -0.20029043721E+03  0.24039616360E+04  0.23956033245E+04 0.  0.
        1    1    3    3  502    0  0.94822313697E+02  0.87496931061E+03  0.71519579058E+03  0.11340491985E+04  0.50400001928E-02 0. -1.
       -1    1    3    3    0  502 -0.94822313697E+02 -0.87496931061E+03 -0.91548622779E+03  0.12699124375E+04  0.50400001928E-02 0.  1.
</event>
<event>
 5   0  0.2042951E-05  0.2339206E+04  0.7818609E-02  0.8462621E-01
        1   -1    0    0  501    0  0.00000000000E+00  0.00000000000E+00  0.18628839132E+04  0.18628839132E+04  0.50400001928E-02 0. -1.
       -1   -1    0    0    0  501  0.00000000000E+00  0.00000000000E+00 -0.73432958515E+03  0.73432958517E+03  0.50400001928E-02 0.  1.
    10030    2    1    2    0    0  0.00000000000E+00  0.00000000000E+00  0.11285543281E+04  0.25972134984E+04  0.23392056525E+04 0.  0.
        2    1    3    3  502    0  0.82925777333E+03 -0.61303095714E+03 -0.48397029409E+02  0.10323844640E+04  0.25500000920E-02 0.  1.
       -2    1    3    3    0  502 -0.82925777333E+03  0.61303095714E+03  0.11769513575E+04  0.15648290344E+04  0.25500000920E-02 0. -1.
</event>
<event>
 5   0  0.4602447E-05  0.2323967E+04  0.7818609E-02  0.8468531E-01
       -2   -1    0    0    0  501  0.00000000000E+00  0.00000000000E+00  0.10458795179E+04  0.10458795179E+04  0.25500000920E-02 0. -1.
        2   -1    0    0  501    0  0.00000000000E+00  0.00000000000E+00 -0.12909761185E+04  0.12909761185E+04  0.25500000920E-02 0.  1.
    10030    2    1    2    0    0  0.00000000000E+00  0.00000000000E+00 -0.24509660062E+03  0.23368556365E+04  0.23239668505E+04 0.  0.
        3    1    3    3  502    0  0.31533570282E+03 -0.16500496777E+03  0.98972480438E+03  0.10517691969E+04  0.10100000352E+00 0. -1.
       -3    1    3    3    0  502 -0.31533570282E+03  0.16500496777E+03 -0.12348214050E+04  0.12850864396E+04  0.10100000352E+00 0.  1.
</event>
<event>
 5   0  0.4505107E-05  0.2300852E+04  0.7818609E-02  0.8477585E-01
       -2   -1    0    0    0  501  0.00000000000E+00  0.00000000000E+00  0.12035747285E+04  0.12035747285E+04  0.25500000920E-02 0.  1.
        2   -1    0    0  501    0  0.00000000000E+00  0.00000000000E+00 -0.10996241806E+04  0.10996241806E+04  0.25500000920E-02 0. -1.
    10030    2    1    2    0    0  0.00000000000E+00  0.00000000000E+00  0.10395054787E+03  0.23031989091E+04  0.23008519071E+04 0.  0.
        4    1    3    3  502    0 -0.22791339971E+03 -0.38235177148E+03  0.11138782183E+04  0.11995264453E+04  0.12699999809E+01 0.  1.
       -4    1    3    3    0  502  0.22791339971E+03  0.38235177148E+03 -0.10099276704E+04  0.11036724638E+04  0.12699999809E+01 0. -1.
</event>
<event>
 5   0  0.4436695E-05  0.2240210E+04  0.7818609E-02  0.8501876E-01
       -2   -1    0    0    0  501  0.00000000000E+00  0.00000000000E+00  0.78250379170E+03  0.78250379171E+03  0.25500000920E-02 0. -1.
        2   -1    0    0  501    0  0.00000000000E+00  0.00000000000E+00 -0.16033593723E+04  0.16033593723E+04  0.25500000920E-02 0.  1.
    10030    2    1    2    0    0  0.00000000000E+00  0.00000000000E+00 -0.82085558063E+03  0.23858631640E+04  0.22402096226E+04 0.  0.
        5    1    3    3  502    0  0.88720481190E+03 -0.68365465882E+03 -0.42089684193E+03  0.11965334564E+04  0.46999998093E+01 0. -1.
       -5    1    3    3    0  502 -0.88720481190E+03  0.68365465882E+03 -0.39995873871E+03  0.11893297076E+04  0.46999998093E+01 0.  1.
</event>
<event>
 5   0  0.2085063E-05  0.2300877E+04  0.7818609E-02  0.8477575E-01
        1   -1    0    0  501    0  0.00000000000E+00  0.00000000000E+00  0.28100932739E+04  0.28100932739E+04  0.50400001928E-02 0.  1.
       -1   -1    0    0    0  501  0.00000000000E+00  0.00000000000E+00 -0.47098387284E+03  0.47098387287E+03  0.50400001928E-02 0. -1.
    10030    2    1    2    0    0  0.00000000000E+00  0.00000000000E+00  0.23391094010E+04  0.32810771467E+04  0.23008768878E+04 0.  0.
        1    1    3    3  502    0 -0.46468234527E+03 -0.10490751666E+04  0.12890356343E+04  0.17257176055E+04  0.50400001928E-02 0.  1.
       -1    1    3    3    0  502  0.46468234527E+03  0.10490751666E+04  0.10500737667E+04  0.15553595413E+04  0.50400001928E-02 0. -1.
</event>
<event>
 5   0  0.1968318E-05  0.2335841E+04  0.7818609E-02  0.8463922E-01
       -1   -1    0    0    0  501  0.00000000000E+00  0.00000000000E+00  0.15083056587E+04  0.15083056587E+04  0.50400001928E-02 0.  1.
        1   -1    0    0  501    0  0.00000000000E+00  0.00000000000E+00 -0.90435128332E+03  0.90435128333E+03  0.50400001928E-02 0. -1.
    10030    2    1    2    0    0  0.00000000000E+00  0.00000000000E+00  0.60395437541E+03  0.24126569421E+04  0.23358408834E+04 0.  0.
        3    1    3    3  502    0  0.87940207057E+03 -0.17582551519E+03 -0.47080886396E+03  0.10128788724E+04  0.10100000352E+00 0. -1.
       -3    1    3    3    0  502 -0.87940207057E+03  0.17582551519E+03  0.10747632394E+04  0.13997780697E+04  0.10100000352E+00 0.  1.
</event>
<event>
 5   0  0.2031860E-05  0.2345988E+04  0.7818609E-02  0.8460006E-01
       -1   -1    0    0    0  501  0.00000000000E+00  0.00000000000E+00  0.60770717350E+03  0.60770717352E+03  0.50400001928E-02 0.  1.
        1   -1    0    0  501    0  0.00000000000E+00  0.00000000000E+00 -0.22641086939E+04  0.22641086939E+04  0.50400001928E-02 0. -1.
    10030    2    1    2    0    0  0.00000000000E+00  0.00000000000E+00 -0.16564015204E+04  0.28718158674E+04  0.23459881457E+04 0.  0.
        4    1    3    3  502    0 -0.41911792598E+03 -0.26375019368E+03  0.47347390899E+03  0.68513002849E+03  0.12699999809E+01 0.  1.
       -4    1    3    3    0  502  0.41911792598E+03  0.26375019368E+03 -0.21298754294E+04  0.21866858389E+04  0.12699999809E+01 0. -1.
</event>
<event>
 5   0  0.2043885E-05  0.2304989E+04  0.7818609E-02  0.8475957E-01
       -1   -1    0    0    0  501  0.00000000000E+00  0.00000000000E+00  0.82318435320E+03  0.82318435321E+03  0.50400001928E-02 0. -1.
        1   -1    0    0  501    0  0.00000000000E+00  0.00000000000E+00 -0.16135432638E+04  0.16135432638E+04  0.50400001928E-02 0.  1.
    10030    2    1    2    0    0  0.00000000000E+00  0.00000000000E+00 -0.79035891059E+03  0.24367276170E+04  0.23049889961E+04 0.  0.
        5    1    3    3  502    0 -0.90240636632E+03  0.62736987696E+03 -0.28526511732E+02  0.10994389771E+04  0.46999998093E+01 0. -1.
       -5    1    3    3    0  502  0.90240636632E+03 -0.62736987696E+03 -0.76183239886E+03  0.13372886399E+04  0.46999998093E+01 0.  1.
</event>
<event>
 5   0  0.4602447E-05  0.2297665E+04  0.7818609E-02  0.8478842E-01
       -2   -1    0    0    0  501  0.00000000000E+00  0.00000000000E+00  0.81841875657E+03  0.81841875657E+03  0.25500000920E-02 0.  1.
        2   -1    0    0  501    0  0.00000000000E+00  0.00000000000E+00 -0.16126415269E+04  0.16126415269E+04  0.25500000920E-02 0. -1.
    10030    2    1    2    0    0  0.00000000000E+00  0.00000000000E+00 -0.79422277036E+03  0.24310602835E+04  0.22976649654E+04 0.  0.
        3    1    3    3  502    0 -0.41419790100E+03  0.62492202347E+03 -0.13181246254E+04  0.15164234154E+04  0.10100000352E+00 0. -1.
       -3    1    3    3    0  502  0.41419790100E+03 -0.62492202347E+03  0.52390185500E+03  0.91463686810E+03  0.10100000352E+00 0.  1.
</event>
<event>
 5   0  0.2042951E-05  0.2284193E+04  0.7818609E-02  0.8484180E-01
       -1   -1    0    0    0  501  0.00000000000E+00  0.00000000000E+00  0.59437773110E+03  0.59437773112E+03  0.50400001928E-02 0.  1.
        1   -1    0    0  501    0  0.00000000000E+00  0.00000000000E+00 -0.21945383364E+04  0.21945383364E+04  0.50400001928E-02 0. -1.
    10030    2    1    2    0    0  0.00000000000E+00  0.00000000000E+00 -0.16001606053E+04  0.27889160675E+04  0.22841932644E+04 0.  0.
        2    1    3    3  502    0 -0.53755012514E+03  0.17583189160E+03  0.41138829733E+03  0.69936923176E+03  0.25500000920E-02 0.  1.
       -2    1    3    3    0  502  0.53755012514E+03 -0.17583189160E+03 -0.20115489026E+04  0.20895468358E+04  0.25500000920E-02 0. -1.
</event>
<event>
 5   0  0.2031860E-05  0.2272887E+04  0.7818609E-02  0.8488689E-01
       -1   -1    0    0    0  501  0.00000000000E+00  0.00000000000E+00  0.80835367866E+03  0.80835367868E+03  0.50400001928E-02 0.  1.
        1   -1    0    0  501    0  0.00000000000E+00  0.00000000000E+00 -0.15976963169E+04  0.15976963169E+04  0.50400001928E-02 0. -1.
    10030    2    1    2    0    0  0.00000000000E+00  0.00000000000E+00 -0.78934263821E+03  0.24060499956E+04  0.22728868825E+04 0.  0.
        4    1    3    3  502    0 -0.26781744114E+03  0.39409317173E+03 -0.14868477963E+04  0.15613307119E+04  0.12699999809E+01 0. -1.
       -4    1    3    3    0  502  0.26781744114E+03 -0.39409317173E+03  0.69750515804E+03  0.84471928366E+03  0.12699999809E+01 0.  1.
</event>
<event>
 5   0  0.1968318E-05  0.2359129E+04  0.7818609E-02  0.8454966E-01
       -1   -1    0    0    0  501  0.00000000000E+00  0.00000000000E+00  0.98450228815E+03  0.98450228816E+03  0.50400001928E-02 0.  1.
        1   -1    0    0  501    0  0.00000000000E+00  0.00000000000E+00 -0.14132745057E+04  0.14132745057E+04  0.50400001928E-02 0. -1.
    10030    2    1    2    0    0  0.00000000000E+00  0.00000000000E+00 -0.42877221758E+03  0.23977767939E+04  0.23591286397E+04 0.  0.
        3    1    3    3  502    0 -0.31679931283E+03  0.94216663209E+03  0.43110249822E+03  0.10834616474E+04  0.10100000352E+00 0.  1.
       -3    1    3    3    0  502  0.31679931283E+03 -0.94216663209E+03 -0.85987471580E+03  0.13143151465E+04  0.10100000352E+00 0. -1.
</event>
<event>
 5   0  0.2031860E-05  0.2311999E+04  0.7818609E-02  0.8473205E-01
       -1   -1    0    0    0  501  0.00000000000E+00  0.00000000000E+00  0.66634214957E+03  0.66634214959E+03  0.50400001928E-02 0. -1.
        1   -1    0    0  501    0  0.00000000000E+00  0.00000000000E+00 -0.20054792185E+04  0.20054792185E+04  0.50400001928E-02 0.  1.
    10030    2    1    2    0    0  0.00000000000E+00  0.00000000000E+00 -0.13391370689E+04  0.26718213681E+04  0.23119994234E+04 0.  0.
        4    1    3    3  502    0 -0.49471726892E+03  0.55527224491E+03 -0.16923268659E+04  0.18485248919E+04  0.12699999809E+01 0.  1.
       -4    1    3    3    0  502  0.49471726892E+03 -0.55527224491E+03  0.35318979695E+03  0.82329647619E+03  0.12699999809E+01 0. -1.
</event>
<event>
 5   0  0.4798609E-05  0.2265361E+04  0.7818609E-02  0.8491705E-01
       -2   -1    0    0    0  501  0.00000000000E+00  0.00000000000E+00  0.60992700404E+03  0.60992700404E+03  0.25500000920E-02 0. -1.
        2   -1    0    0  501    0  0.00000000000E+00  0.00000000000E+00 -0.21034730358E+04  0.21034730358E+04  0.25500000920E-02 0.  1.
    10030    2    1    2    0    0  0.00000000000E+00  0.00000000000E+00 -0.14935460318E+04  0.27134000398E+04  0.22653609044E+04 0.  0.
        2    1    3    3  502    0  0.14581667499E+03  0.62192586132E+03 -0.18671348259E+04  0.19733845894E+04  0.25500000920E-02 0.  1.
       -2    1    3    3    0  502 -0.14581667499E+03 -0.62192586132E+03  0.37358879417E+03  0.74001545039E+03  0.25500000920E-02 0. -1.
</event>
<event>
 5   0  0.4436695E-05  0.2202135E+04  0.7818609E-02  0.8517540E-01
        2   -1    0    0  501    0  0.00000000000E+00  0.00000000000E+00  0.13213413453E+04  0.13213413453E+04  0.25500000920E-02 0. -1.
       -2   -1    0    0    0  501  0.00000000000E+00  0.00000000000E+00 -0.91751439629E+03  0.91751439629E+03  0.25500000920E-02 0.  1.
    10030    2    1    2    0    0  0.00000000000E+00  0.00000000000E+00  0.40382694906E+03  0.22388557416E+04  0.22021350610E+04 0.  0.
        5    1    3    3  502    0  0.30536080241E+03  0.10397201850E+04  0.35593306018E+01  0.10836503317E+04  0.46999998093E+01 0.  1.
       -5    1    3    3    0  502 -0.30536080241E+03 -0.10397201850E+04  0.40026761845E+03  0.11552054099E+04  0.46999998093E+01 0. -1.
</event>
<event>
 5   0  0.4602447E-05  0.2117268E+04  0.7818609E-02  0.8553675E-01
       -2   -1    0    0    0  501  0.00000000000E+00  0.00000000000E+00  0.64016958512E+03  0.64016958513E+03  0.25500000920E-02 0. -1.
        2   -1    0    0  501    0  0.00000000000E+00  0.00000000000E+00 -0.17506394293E+04  0.17506394293E+04  0.25500000920E-02 0.  1.
    10030    2    1    2    0    0  0.00000000000E+00  0.00000000000E+00 -0.11104698442E+04  0.23908090144E+04  0.21172681617E+04 0.  0.
        3    1    3    3  502    0  0.39755962414E+03 -0.21032267384E+03 -0.16373885840E+04  0.16980372985E+04  0.10100000352E+00 0.  1.
       -3    1    3    3    0  502 -0.39755962414E+03  0.21032267384E+03  0.52691873980E+03  0.69277171595E+03  0.10100000352E+00 0. -1.
</event>
<event>
 5   0  0.4436695E-05  0.2271572E+04  0.7818609E-02  0.8489215E-01
        2   -1    0    0  501    0  0.00000000000E+00  0.00000000000E+00  0.10759757138E+04  0.10759757138E+04  0.25500000920E-02 0.  1.
       -2   -1    0    0    0  501  0.00000000000E+00  0.00000000000E+00 -0.11989212149E+04  0.11989212149E+04  0.25500000920E-02 0. -1.
    10030    2    1    2    0    0  0.00000000000E+00  0.00000000000E+00 -0.12294550113E+03  0.22748969287E+04  0.22715722396E+04 0.  0.
        5    1    3    3  502    0 -0.21506642806E+03  0.34901072809E+03  0.99928758235E+03  0.10801202799E+04  0.46999998093E+01 0.  1.
       -5    1    3    3    0  502  0.21506642806E+03 -0.34901072809E+03 -0.11222330835E+04  0.11947766488E+04  0.46999998093E+01 0. -1.
</event>
<event>
 5   0  0.2031860E-05  0.2298997E+04  0.7818609E-02  0.8478317E-01
       -1   -1    0    0    0  501  0.00000000000E+00  0.00000000000E+00  0.45053159650E+03  0.45053159652E+03  0.50400001928E-02 0. -1.
        1   -1    0    0  501    0  0.00000000000E+00  0.00000000000E+00 -0.29328617572E+04  0.29328617572E+04  0.50400001928E-02 0.  1.
    10030    2    1    2    0    0  0.00000000000E+00  0.00000000000E+00 -0.24823301607E+04  0.33833933538E+04  0.22989970769E+04 0.  0.
        4    1    3    3  502    0  0.15054629104E+03  0.82707683078E+03 -0.87395230176E+02  0.84519808856E+03  0.12699999809E+01 0. -1.
       -4    1    3    3    0  502 -0.15054629104E+03 -0.82707683078E+03 -0.23949349306E+04  0.25381952652E+04  0.12699999809E+01 0.  1.
</event>
<event>
 5   0  0.1968318E-05  0.2287675E+04  0.7818609E-02  0.8482797E-01
       -1   -1    0    0    0  501  0.00000000000E+00  0.00000000000E+00  0.67184028301E+03  0.67184028303E+03  0.50400001928E-02 0.  1.
        1   -1    0    0  501    0  0.00000000000E+00  0.00000000000E+00 -0.19474333408E+04  0.19474333408E+04  0.50400001928E-02 0. -1.
    10030    2    1    2    0    0  0.00000000000E+00  0.00000000000E+00 -0.12755930578E+04  0.26192736238E+04  0.22876749479E+04 0.  0.
        3    1    3    3  502    0 -0.64316438288E+02 -0.88584843977E+03  0.18744175757E+03  0.90774362304E+03  0.10100000352E+00 0.  1.
       -3    1    3    3    0  502  0.64316438288E+02  0.88584843977E+03 -0.14630348153E+04  0.17115300008E+04  0.10100000352E+00 0. -1.
</event>
<event>
 5   0  0.1968318E-05  0.2238144E+04  0.7818609E-02  0.8502717E-01
       -1   -1    0    0    0  501  0.00000000000E+00  0.00000000000E+00  0.87377430363E+03  0.87377430364E+03  0.50400001928E-02 0. -1.
        1   -1    0    0  501    0  0.00000000000E+00  0.00000000000E+00 -0.14332334603E+04  0.14332334603E+04  0.50400001928E-02 0.  1.
    10030    2    1    2    0    0  0.00000000000E+00  0.00000000000E+00 -0.55945915670E+03  0.23070077640E+04  0.22381443821E+04 0.  0.
        3    1    3    3  502    0 -0.66969276517E+03  0.30718760539E+03 -0.11479459173E+04  0.13640500225E+04  0.10100000352E+00 0.  1.
       -3    1    3    3    0  502  0.66969276517E+03 -0.30718760539E+03  0.58848676060E+03  0.94295774148E+03  0.10100000352E+00 0. -1.
</event>
<event>
 5   0  0.2043885E-05  0.2248805E+04  0.7818609E-02  0.8498385E-01
        1   -1    0    0  501    0  0.00000000000E+00  0.00000000000E+00  0.16007390916E+04  0.16007390916E+04  0.50400001928E-02 0. -1.
       -1   -1    0    0    0  501  0.00000000000E+00  0.00000000000E+00 -0.78981054059E+03  0.78981054061E+03  0.50400001928E-02 0.  1.
    10030    2    1    2    0    0  0.00000000000E+00  0.00000000000E+00  0.81092855103E+03  0.23905496322E+04  0.22488046668E+04 0.  0.
        5    1    3    3  502    0  0.57946756459E+03 -0.76800871673E+03 -0.21314179517E+03  0.98542963332E+03  0.46999998093E+01 0.  1.
       -5    1    3    3    0  502 -0.57946756459E+03  0.76800871673E+03  0.10240703462E+04  0.14051199989E+04  0.46999998093E+01 0. -1.
</event>
<event>
 5   0  0.4798609E-05  0.2305342E+04  0.7818609E-02  0.8475818E-01
        2   -1    0    0  501    0  0.00000000000E+00  0.00000000000E+00  0.11538518935E+04  0.11538518935E+04  0.25500000920E-02 0. -1.
       -2   -1    0    0    0  501  0.00000000000E+00  0.00000000000E+00 -0.11514914317E+04  0.11514914317E+04  0.25500000920E-02 0.  1.
    10030    2    1    2    0    0  0.00000000000E+00  0.00000000000E+00  0.23604618700E+01  0.23053433252E+04  0.23053421168E+04 0.  0.
        2    1    3    3  502    0 -0.89905615246E+03  0.11762943162E+02  0.72243662232E+03  0.11534101636E+04  0.25500000920E-02 0.  1.
       -2    1    3    3    0  502  0.89905615246E+03 -0.11762943162E+02 -0.72007616045E+03  0.11519331617E+04  0.25500000920E-02 0. -1.
</event>
<event>
 5   0  0.4602447E-05  0.2298365E+04  0.7818609E-02  0.8478566E-01
        2   -1    0    0  501    0  0.00000000000E+00  0.00000000000E+00  0.14476457558E+04  0.14476457558E+04  0.25500000920E-02 0. -1.
       -2   -1    0    0    0  501  0.00000000000E+00  0.00000000000E+00 -0.91225396123E+03  0.91225396123E+03  0.25500000920E-02 0.  1.
    10030    2    1    2    0    0  0.00000000000E+00  0.00000000000E+00  0.53539179456E+03  0.23598997170E+04  0.22983651365E+04 0.  0.
        3    1    3    3  502    0  0.87360595902E+02 -0.28178955140E+03 -0.87270820427E+03  0.92122572967E+03  0.10100000352E+00 0.  1.
       -3    1    3    3    0  502 -0.87360595902E+02  0.28178955140E+03  0.14080999988E+04  0.14386739874E+04  0.10100000352E+00 0. -1.
</event>
<event>
 5   0  0.4602447E-05  0.2324193E+04  0.7818609E-02  0.8468443E-01
        2   -1    0    0  501    0  0.00000000000E+00  0.00000000000E+00  0.17426582970E+04  0.17426582970E+04  0.25500000920E-02 0. -1.
       -2   -1    0    0    0  501  0.00000000000E+00  0.00000000000E+00 -0.77494756818E+03  0.77494756818E+03  0.25500000920E-02 0.  1.
    10030    2    1    2    0    0  0.00000000000E+00  0.00000000000E+00  0.96771072881E+03  0.25176058652E+04  0.23241934596E+04 0.  0.
        3    1    3    3  502    0 -0.53539127544E+03 -0.12571162801E+03 -0.62506555697E+03  0.83255882191E+03  0.10100000352E+00 0.  1.
       -3    1    3    3    0  502  0.53539127544E+03  0.12571162801E+03  0.15927762858E+04  0.16850470433E+04  0.10100000352E+00 0. -1.
</event>
<event>
 5   0  0.2042951E-05  0.2322900E+04  0.7818609E-02  0.8468946E-01
       -1   -1    0    0    0  501  0.00000000000E+00  0.00000000000E+00  0.68664694836E+03  0.68664694838E+03  0.50400001928E-02 0. -1.
        1   -1    0    0  501    0  0.00000000000E+00  0.00000000000E+00 -0.19645700996E+04  0.19645700997E+04  0.50400001928E-02 0.  1.
    10030    2    1    2    0    0  0.00000000000E+00  0.00000000000E+00 -0.12779231513E+04  0.26512170480E+04  0.23228999667E+04 0.  0.
        2    1    3    3  502    0 -0.79817701130E+02 -0.57254165223E+02 -0.19598206751E+04  0.19622808116E+04  0.25500000920E-02 0.  1.
       -2    1    3    3    0  502  0.79817701130E+02  0.57254165223E+02  0.68189752385E+03  0.68893623645E+03  0.25500000920E-02 0. -1.
</event>
<event>
 5   0  0.4505107E-05  0.2296650E+04  0.7818609E-02  0.8479243E-01
       -2   -1    0    0    0  501  0.00000000000E+00  0.00000000000E+00  0.96288539092E+03  0.96288539092E+03  0.25500000920E-02 0.  1.
        2   -1    0    0  501    0  0.00000000000E+00  0.00000000000E+00 -0.13694775335E+04  0.13694775335E+04  0.25500000920E-02 0. -1.
    10030    2    1    2    0    0  0.00000000000E+00  0.00000000000E+00 -0.40659214255E+03  0.23323629244E+04  0.22966496556E+04 0.  0.
        4    1    3    3  502    0  0.53931114039E+03  0.22452152404E+03 -0.12072956246E+04  0.13412049653E+04  0.12699999809E+01 0. -1.
       -4    1    3    3    0  502 -0.53931114039E+03 -0.22452152404E+03  0.80070348201E+03  0.99115795911E+03  0.12699999809E+01 0.  1.
</event>
<event>
 5   0  0.4602447E-05  0.2319546E+04  0.7818609E-02  0.8470254E-01
        2   -1    0    0  501    0  0.00000000000E+00  0.00000000000E+00  0.11070452769E+04  0.11070452769E+04  0.25500000920E-02 0. -1.
       -2   -1    0    0    0  501  0.00000000000E+00  0.00000000000E+00 -0.12150119499E+04  0.12150119499E+04  0.25500000920E-02 0.  1.
    10030    2    1    2    0    0  0.00000000000E+00  0.00000000000E+00 -0.10796667302E+03  0.23220572268E+04  0.23195458526E+04 0.  0.
        3    1    3    3  502    0  0.25850713845E+03 -0.90319258588E+03  0.62681947066E+03  0.11293739181E+04  0.10100000352E+00 0. -1.
       -3    1    3    3    0  502 -0.25850713845E+03  0.90319258588E+03 -0.73478614368E+03  0.11926833088E+04  0.10100000352E+00 0.  1.
</event>
<event>
 5   0  0.4602447E-05  0.2296820E+04  0.7818609E-02  0.8479176E-01
        2   -1    0    0  501    0  0.00000000000E+00  0.00000000000E+00  0.16389673500E+04  0.16389673500E+04  0.25500000920E-02 0. -1.
       -2   -1    0    0    0  501  0.00000000000E+00  0.00000000000E+00 -0.80468054310E+03  0.80468054310E+03  0.25500000920E-02 0.  1.
    10030    2    1    2    0    0  0.00000000000E+00  0.00000000000E+00  0.83428680687E+03  0.24436478931E+04  0.22968196597E+04 0.  0.
        3    1    3    3  502    0 -0.87259674374E+03 -0.73901070843E+03  0.53015637966E+03  0.12604077521E+04  0.10100000352E+00 0.  1.
       -3    1    3    3    0  502  0.87259674374E+03  0.73901070843E+03  0.30413042721E+03  0.11832401410E+04  0.10100000352E+00 0. -1.
</event>
<event>
 5   0  0.4602447E-05  0.2302044E+04  0.7818609E-02  0.8477116E-01
        2   -1    0    0  501    0  0.00000000000E+00  0.00000000000E+00  0.21545762247E+04  0.21545762247E+04  0.25500000920E-02 0.  1.
       -2   -1    0    0    0  501  0.00000000000E+00  0.00000000000E+00 -0.61490116641E+03  0.61490116641E+03  0.25500000920E-02 0. -1.
    10030    2    1    2    0    0  0.00000000000E+00  0.00000000000E+00  0.15396750583E+04  0.27694773911E+04  0.23020438169E+04 0.  0.
        3    1    3    3  502    0  0.29491429773E+03 -0.15815528623E+03 -0.55508434661E+03  0.64815598402E+03  0.10100000352E+00 0. -1.
       -3    1    3    3    0  502 -0.29491429773E+03  0.15815528623E+03  0.20947594049E+04  0.21213214071E+04  0.10100000352E+00 0.  1.
</event>
<event>
 5   0  0.4436695E-05  0.2024998E+04  0.7818609E-02  0.8595022E-01
        2   -1    0    0  501    0  0.00000000000E+00  0.00000000000E+00  0.85655975869E+03  0.85655975869E+03  0.25500000920E-02 0.  1.
       -2   -1    0    0    0  501  0.00000000000E+00  0.00000000000E+00 -0.11968274206E+04  0.11968274206E+04  0.25500000920E-02 0. -1.
    10030    2    1    2    0    0  0.00000000000E+00  0.00000000000E+00 -0.34026766192E+03  0.20533871793E+04  0.20249979818E+04 0.  0.
        5    1    3    3  502    0 -0.79749974808E+03  0.60276967319E+03 -0.33299364293E+03  0.10536811583E+04  0.46999998093E+01 0. -1.
       -5    1    3    3    0  502  0.79749974808E+03 -0.60276967319E+03 -0.72740189869E+01  0.99970602101E+03  0.46999998093E+01 0.  1.
</event>
<event>
 5   0  0.1968318E-05  0.2297688E+04  0.7818609E-02  0.8478833E-01
        1   -1    0    0  501    0  0.00000000000E+00  0.00000000000E+00  0.16510684325E+04  0.16510684325E+04  0.50400001928E-02 0. -1.
       -1   -1    0    0    0  501  0.00000000000E+00  0.00000000000E+00 -0.79938727512E+03  0.79938727514E+03  0.50400001928E-02 0.  1.
    10030    2    1    2    0    0  0.00000000000E+00  0.00000000000E+00  0.85168115739E+03  0.24504557077E+04  0.22976884866E+04 0.  0.
        3    1    3    3  502    0 -0.79174066792E+03 -0.31779811599E+02  0.13130015567E+04  0.15335698027E+04  0.10100000352E+00 0. -1.
       -3    1    3    3    0  502  0.79174066792E+03  0.31779811599E+02 -0.46132039932E+03  0.91688590495E+03  0.10100000352E+00 0.  1.
</event>
<event>
 5   0  0.2042951E-05  0.2301641E+04  0.7818609E-02  0.8477274E-01
       -1   -1    0    0    0  501  0.00000000000E+00  0.00000000000E+00  0.11032748799E+04  0.11032748799E+04  0.50400001928E-02 0.  1.
        1   -1    0    0  501    0  0.00000000000E+00  0.00000000000E+00 -0.12004152797E+04  0.12004152797E+04  0.50400001928E-02 0. -1.
    10030    2    1    2    0    0  0.00000000000E+00  0.00000000000E+00 -0.97140399871E+02  0.23036901596E+04  0.23016411741E+04 0.  0.
        2    1    3    3  502    0  0.87844125582E+03 -0.63304870185E+03 -0.43876122481E+03  0.11682983828E+04  0.25500000920E-02 0. -1.
       -2    1    3    3    0  502 -0.87844125582E+03  0.63304870185E+03  0.34162082494E+03  0.11353917768E+04  0.25500000920E-02 0.  1.
</event>
<event>
 5   0  0.2031860E-05  0.2343556E+04  0.7818609E-02  0.8460943E-01
        1   -1    0    0  501    0  0.00000000000E+00  0.00000000000E+00  0.15179443511E+04  0.15179443511E+04  0.50400001928E-02 0.  1.
       -1   -1    0    0    0  501  0.00000000000E+00  0.00000000000E+00 -0.90455463303E+03  0.90455463304E+03  0.50400001928E-02 0. -1.
    10030    2    1    2    0    0  0.00000000000E+00  0.00000000000E+00  0.61338971808E+03  0.24224989842E+04  0.23435559268E+04 0.  0.
        4    1    3    3  502    0  0.58132850107E+03 -0.61608706641E+03 -0.53024286024E+03  0.99933237878E+03  0.12699999809E+01 0. -1.
       -4    1    3    3    0  502 -0.58132850107E+03  0.61608706641E+03  0.11436325783E+04  0.14231666054E+04  0.12699999809E+01 0.  1.
</event>
<event>
 5   0  0.4602447E-05  0.2189871E+04  0.7818609E-02  0.8522656E-01
       -2   -1    0    0    0  501  0.00000000000E+00  0.00000000000E+00  0.87812684360E+03  0.87812684360E+03  0.25500000920E-02 0.  1.
        2   -1    0    0  501    0  0.00000000000E+00  0.00000000000E+00 -0.13652734191E+04  0.13652734191E+04  0.25500000920E-02 0. -1.
    10030    2    1    2    0    0  0.00000000000E+00  0.00000000000E+00 -0.48714657553E+03  0.22434002627E+04  0.21898705333E+04 0.  0.
        3    1    3    3  502    0  0.51018874402E+03  0.16966153503E+03  0.73357986644E+03  0.90951471767E+03  0.10100000352E+00 0.  1.
       -3    1    3    3    0  502 -0.51018874402E+03 -0.16966153503E+03 -0.12207264420E+04  0.13338855451E+04  0.10100000352E+00 0. -1.
</event>
<event>
 5   0  0.4602447E-05  0.2326403E+04  0.7818609E-02  0.8467583E-01
       -2   -1    0    0    0  501  0.00000000000E+00  0.00000000000E+00  0.12041060633E+04  0.12041060633E+04  0.25500000920E-02 0.  1.
        2   -1    0    0  501    0  0.00000000000E+00  0.00000000000E+00 -0.11236865681E+04  0.11236865681E+04  0.25500000920E-02 0. -1.
    10030    2    1    2    0    0  0.00000000000E+00  0.00000000000E+00  0.80419495176E+02  0.23277926314E+04  0.23264030690E+04 0.  0.
        3    1    3    3  502    0 -0.67825207125E+03  0.78491347910E+03 -0.48633908109E+03  0.11457053521E+04  0.10100000352E+00 0. -1.
       -3    1    3    3    0  502  0.67825207125E+03 -0.78491347910E+03  0.56675857627E+03  0.11820872793E+04  0.10100000352E+00 0.  1.
</event>
<event>
 5   0  0.4605516E-05  0.2338968E+04  0.7818609E-02  0.8462713E-01
       -2   -1    0    0    0  501  0.00000000000E+00  0.00000000000E+00  0.80052008464E+03  0.80052008464E+03  0.25500000920E-02 0.  1.
        2   -1    0    0  501    0  0.00000000000E+00  0.00000000000E+00 -0.17085047450E+04  0.17085047450E+04  0.25500000920E-02 0. -1.
    10030    2    1    2    0    0  0.00000000000E+00  0.00000000000E+00 -0.90798466037E+03  0.25090248297E+04  0.23389676040E+04 0.  0.
        1    1    3    3  502    0  0.64057481034E+03  0.96977143385E+03 -0.59344264484E+03  0.13049777371E+04  0.50400001928E-02 0. -1.
       -1    1    3    3    0  502 -0.64057481034E+03 -0.96977143385E+03 -0.31454201553E+03  0.12040470926E+04  0.50400001928E-02 0.  1.
</event>
<event>
 5   0  0.2085063E-05  0.2276076E+04  0.7818609E-02  0.8487414E-01
       -1   -1    0    0    0  501  0.00000000000E+00  0.00000000000E+00  0.81039935960E+03  0.81039935961E+03  0.50400001928E-02 0. -1.
        1   -1    0    0  501    0  0.00000000000E+00  0.00000000000E+00 -0.15981390386E+04  0.15981390387E+04  0.50400001928E-02 0.  1.
    10030    2    1    2    0    0  0.00000000000E+00  0.00000000000E+00 -0.78773967905E+03  0.24085383983E+04  0.22760763199E+04 0.  0.
        1    1    3    3  502    0  0.11094440615E+04  0.11612829607E+03 -0.63232602843E+03  0.12822589882E+04  0.50400001928E-02 0.  1.
       -1    1    3    3    0  502 -0.11094440615E+04 -0.11612829607E+03 -0.15541365061E+03  0.11262794100E+04  0.50400001928E-02 0. -1.
</event>
<event>
 5   0  0.4798609E-05  0.2306064E+04  0.7818609E-02  0.8475534E-01
        2   -1    0    0  501    0  0.00000000000E+00  0.00000000000E+00  0.13014818017E+04  0.13014818017E+04  0.25500000920E-02 0.  1.
       -2   -1    0    0    0  501  0.00000000000E+00  0.00000000000E+00 -0.10215149606E+04  0.10215149606E+04  0.25500000920E-02 0. -1.
    10030    2    1    2    0    0  0.00000000000E+00  0.00000000000E+00  0.27996684115E+03  0.23229967623E+04  0.23060642935E+04 0.  0.
        2    1    3    3  502    0  0.34772226050E+03 -0.75464444442E+03 -0.66531381361E+03  0.10644442111E+04  0.25500000920E-02 0. -1.
       -2    1    3    3    0  502 -0.34772226050E+03  0.75464444442E+03  0.94528065476E+03  0.12585525512E+04  0.25500000920E-02 0.  1.
</event>
<event>
 5   0  0.4602447E-05  0.2302784E+04  0.7818609E-02  0.8476824E-01
        2   -1    0    0  501    0  0.00000000000E+00  0.00000000000E+00  0.10262928146E+04  0.10262928146E+04  0.25500000920E-02 0.  1.
       -2   -1    0    0    0  501  0.00000000000E+00  0.00000000000E+00 -0.12917400772E+04  0.12917400772E+04  0.25500000920E-02 0. -1.
    10030    2    1    2    0    0  0.00000000000E+00  0.00000000000E+00 -0.26544726257E+03  0.23180328919E+04  0.23027840191E+04 0.  0.
        3    1    3    3  502    0 -0.74078121557E+03 -0.13864759983E+03  0.74351377556E+03  0.10586749789E+04  0.10100000352E+00 0.  1.
       -3    1    3    3    0  502  0.74078121557E+03  0.13864759983E+03 -0.10089610381E+04  0.12593579130E+04  0.10100000352E+00 0. -1.
</event>
<event>
 5   0  0.2085063E-05  0.2297646E+04  0.7818609E-02  0.8478850E-01
       -1   -1    0    0    0  501  0.00000000000E+00  0.00000000000E+00  0.14701342379E+04  0.14701342379E+04  0.50400001928E-02 0. -1.
        1   -1    0    0  501    0  0.00000000000E+00  0.00000000000E+00 -0.89773707898E+03  0.89773707900E+03  0.50400001928E-02 0.  1.
    10030    2    1    2    0    0  0.00000000000E+00  0.00000000000E+00  0.57239715896E+03  0.23678713169E+04  0.22976457660E+04 0.  0.
        1    1    3    3  502    0  0.93594359800E+03 -0.62897446929E+03  0.51244136071E+03  0.12386264368E+04  0.50400001928E-02 0. -1.
       -1    1    3    3    0  502 -0.93594359800E+03  0.62897446929E+03  0.59955798245E+02  0.11292448802E+04  0.50400001928E-02 0.  1.
</event>
<event>
 5   0  0.4505107E-05  0.2277657E+04  0.7818609E-02  0.8486783E-01
        2   -1    0    0  501    0  0.00000000000E+00  0.00000000000E+00  0.17310500382E+04  0.17310500382E+04  0.25500000920E-02 0.  1.
       -2   -1    0    0    0  501  0.00000000000E+00  0.00000000000E+00 -0.74921567654E+03  0.74921567654E+03  0.25500000920E-02 0. -1.
    10030    2    1    2    0    0  0.00000000000E+00  0.00000000000E+00  0.98183436164E+03  0.24802657147E+04  0.22776565373E+04 0.  0.
        4    1    3    3  502    0 -0.11103998995E+04 -0.45350279643E+02  0.22002413384E+03  0.11328975316E+04  0.12699999809E+01 0.  1.
       -4    1    3    3    0  502  0.11103998995E+04  0.45350279643E+02  0.76181022780E+03  0.13473681831E+04  0.12699999809E+01 0. -1.
</event>
<event>
 5   0  0.1604500E-05  0.2312111E+04  0.7818609E-02  0.8473161E-01
       -3   -1    0    0    0  501  0.00000000000E+00  0.00000000000E+00  0.16089385807E+04  0.16089385839E+04  0.10100000352E+00 0. -1.
        3   -1    0    0  501    0  0.00000000000E+00  0.00000000000E+00 -0.83064995514E+03  0.83064996128E+03  0.10100000352E+00 0.  1.
    10030    2    1    2    0    0  0.00000000000E+00  0.00000000000E+00  0.77828862558E+03  0.24395885452E+04  0.23121113911E+04 0.  0.
        2    1    3    3  502    0  0.58157140372E+03 -0.45795016384E+03  0.13260901748E+04  0.15187029999E+04  0.25500000920E-02 0. -1.
       -2    1    3    3    0  502 -0.58157140372E+03  0.45795016384E+03 -0.54780154922E+03  0.92088554529E+03  0.25500000920E-02 0.  1.
</event>
<event>
 5   0  0.4436695E-05  0.2314092E+04  0.7818609E-02  0.8472386E-01
       -2   -1    0    0    0  501  0.00000000000E+00  0.00000000000E+00  0.75008652690E+03  0.75008652691E+03  0.25500000920E-02 0.  1.
        2   -1    0    0  501    0  0.00000000000E+00  0.00000000000E+00 -0.17848012920E+04  0.17848012920E+04  0.25500000920E-02 0. -1.
    10030    2    1    2    0    0  0.00000000000E+00  0.00000000000E+00 -0.10347147650E+04  0.25348878189E+04  0.23140919621E+04 0.  0.
        5    1    3    3  502    0 -0.34041451914E+03  0.82055090463E+03 -0.13294035876E+04  0.15989126995E+04  0.46999998093E+01 0. -1.
       -5    1    3    3    0  502  0.34041451914E+03 -0.82055090463E+03  0.29468882254E+03  0.93597511936E+03  0.46999998093E+01 0.  1.
</event>
<event>
 5   0  0.4505107E-05  0.2332388E+04  0.7818609E-02  0.8465259E-01
        2   -1    0    0  501    0  0.00000000000E+00  0.00000000000E+00  0.19460578658E+04  0.19460578658E+04  0.25500000920E-02 0. -1.
       -2   -1    0    0    0  501  0.00000000000E+00  0.00000000000E+00 -0.69885313675E+03  0.69885313676E+03  0.25500000920E-02 0.  1.
    10030    2    1    2    0    0  0.00000000000E+00  0.00000000000E+00  0.12472047290E+04  0.26449110025E+04  0.23323881699E+04 0.  0.
        4    1    3    3  502    0  0.64344109978E+03  0.95686599577E+03  0.82131438876E+03  0.14156863780E+04  0.12699999809E+01 0. -1.
       -4    1    3    3    0  502 -0.64344109978E+03 -0.95686599577E+03  0.42589034027E+03  0.12292246245E+04  0.12699999809E+01 0.  1.
</event>
<event>
 5   0  0.4602447E-05  0.2297467E+04  0.7818609E-02  0.8478921E-01
       -2   -1    0    0    0  501  0.00000000000E+00  0.00000000000E+00  0.92920483627E+03  0.92920483627E+03  0.25500000920E-02 0. -1.
        2   -1    0    0  501    0  0.00000000000E+00  0.00000000000E+00 -0.14201266809E+04  0.14201266809E+04  0.25500000920E-02 0.  1.
    10030    2    1    2    0    0  0.00000000000E+00  0.00000000000E+00 -0.49092184468E+03  0.23493315172E+04  0.22974669356E+04 0.  0.
        3    1    3    3  502    0 -0.32564509961E+03 -0.58746463131E+03 -0.11983936231E+04  0.13737928192E+04  0.10100000352E+00 0.  1.
       -3    1    3    3    0  502  0.32564509961E+03  0.58746463131E+03  0.70747177841E+03  0.97553869805E+03  0.10100000352E+00 0. -1.
</event>
<event>
 5   0  0.4602447E-05  0.2291702E+04  0.7818609E-02  0.8481200E-01
        2   -1    0    0  501    0  0.00000000000E+00  0.00000000000E+00  0.18937752840E+04  0.18937752840E+04  0.25500000920E-02 0.  1.
       -2   -1    0    0    0  501  0.00000000000E+00  0.00000000000E+00 -0.69331075162E+03  0.69331075163E+03  0.25500000920E-02 0. -1.
    10030    2    1    2    0    0  0.00000000000E+00  0.00000000000E+00  0.12004645323E+04  0.25870860356E+04  0.22917022193E+04 0.  0.
        3    1    3    3  502    0 -0.13584688641E+03  0.10740443400E+04  0.17640987905E+03  0.10968801559E+04  0.10100000352E+00 0. -1.
       -3    1    3    3    0  502  0.13584688641E+03 -0.10740443400E+04  0.10240546533E+04  0.14902058797E+04  0.10100000352E+00 0.  1.
</event>
<event>
 5   0  0.4505107E-05  0.2292391E+04  0.7818609E-02  0.8480927E-01
        2   -1    0    0  501    0  0.00000000000E+00  0.00000000000E+00  0.71817281554E+03  0.71817281554E+03  0.25500000920E-02 0. -1.
       -2   -1    0    0    0  501  0.00000000000E+00  0.00000000000E+00 -0.18293154213E+04  0.18293154213E+04  0.25500000920E-02 0.  1.
    10030    2    1    2    0    0  0.00000000000E+00  0.00000000000E+00 -0.11111426057E+04  0.25474882368E+04  0.22923914209E+04 0.  0.
        4    1    3    3  502    0 -0.41930096800E+03 -0.84164902791E+03 -0.12839273394E+04  0.15914325036E+04  0.12699999809E+01 0.  1.
       -4    1    3    3    0  502  0.41930096800E+03  0.84164902791E+03  0.17278473360E+03  0.95605573321E+03  0.12699999809E+01 0. -1.
</event>
<event>
 5   0  0.4602447E-05  0.2310241E+04  0.7818609E-02  0.8473894E-01
        2   -1    0    0  501    0  0.00000000000E+00  0.00000000000E+00  0.15135095239E+04  0.15135095239E+04  0.25500000920E-02 0. -1.
       -2   -1    0    0    0  501  0.00000000000E+00  0.00000000000E+00 -0.88159553593E+03  0.88159553593E+03  0.25500000920E-02 0.  1.
    10030    2    1    2    0    0  0.00000000000E+00  0.00000000000E+00  0.63191398792E+03  0.23951050598E+04  0.23102408877E+04 0.  0.
        3    1    3    3  502    0 -0.68509924330E+03  0.25545492278E+03  0.12430574352E+04  0.14421546339E+04  0.10100000352E+00 0. -1.
       -3    1    3    3    0  502  0.68509924330E+03 -0.25545492278E+03 -0.61114344729E+03  0.95295042584E+03  0.10100000352E+00 0.  1.
</event>
<event>
 5   0  0.2043885E-05  0.2298392E+04  0.7818609E-02  0.8478555E-01
        1   -1    0    0  501    0  0.00000000000E+00  0.00000000000E+00  0.12722103963E+04  0.12722103963E+04  0.50400001928E-02 0.  1.
       -1   -1    0    0    0  501  0.00000000000E+00  0.00000000000E+00 -0.10380763587E+04  0.10380763587E+04  0.50400001928E-02 0. -1.
    10030    2    1    2    0    0  0.00000000000E+00  0.00000000000E+00  0.23413403760E+03  0.23102867550E+04  0.22983920777E+04 0.  0.
        5    1    3    3  502    0  0.85511159448E+03 -0.46739494630E+03 -0.49514622604E+03  0.10930991492E+04  0.46999998093E+01 0.  1.
       -5    1    3    3    0  502 -0.85511159448E+03  0.46739494630E+03  0.72928026364E+03  0.12171876058E+04  0.46999998093E+01 0. -1.
</event>
<event>
 5   0  0.4605516E-05  0.2274919E+04  0.7818609E-02  0.8487876E-01
       -2   -1    0    0    0  501  0.00000000000E+00  0.00000000000E+00  0.13424770723E+04  0.13424770723E+04  0.25500000920E-02 0.  1.
        2   -1    0    0  501    0  0.00000000000E+00  0.00000000000E+00 -0.96375117846E+03  0.96375117846E+03  0.25500000920E-02 0. -1.
    10030    2    1    2    0    0  0.00000000000E+00  0.00000000000E+00  0.37872589387E+03  0.23062282508E+04  0.22749187770E+04 0.  0.
        1    1    3    3  502    0 -0.10634980355E+04 -0.20948662452E+03  0.53892912588E+03  0.12105194423E+04  0.50400001928E-02 0.  1.
       -1    1    3    3    0  502  0.10634980355E+04  0.20948662452E+03 -0.16020323200E+03  0.10957088085E+04  0.50400001928E-02 0. -1.
</event>
<event>
 5   0  0.1968318E-05  0.2252067E+04  0.7818609E-02  0.8497064E-01
       -1   -1    0    0    0  501  0.00000000000E+00  0.00000000000E+00  0.72035449556E+03  0.72035449557E+03  0.50400001928E-02 0. -1.
        1   -1    0    0  501    0  0.00000000000E+00  0.00000000000E+00 -0.17601777631E+04  0.17601777631E+04  0.50400001928E-02 0.  1.
    10030    2    1    2    0    0  0.00000000000E+00  0.00000000000E+00 -0.10398232675E+04  0.24805322586E+04  0.22520674631E+04 0.  0.
        3    1    3    3  502    0  0.37340792877E+03  0.10547362095E+04 -0.65945237366E+03  0.12987607156E+04  0.10100000352E+00 0. -1.
       -3    1    3    3    0  502 -0.37340792877E+03 -0.10547362095E+04 -0.38037089385E+03  0.11817715431E+04  0.10100000352E+00 0.  1.
</event>
<event>
 5   0  0.4505107E-05  0.2259369E+04  0.7818609E-02  0.8494116E-01
       -2   -1    0    0    0  501  0.00000000000E+00  0.00000000000E+00  0.14084871974E+04  0.14084871974E+04  0.25500000920E-02 0.  1.
        2   -1    0    0  501    0  0.00000000000E+00  0.00000000000E+00 -0.90606923519E+03  0.90606923519E+03  0.25500000920E-02 0. -1.
    10030    2    1    2    0    0  0.00000000000E+00  0.00000000000E+00  0.50241796219E+03  0.23145564326E+04  0.22593688656E+04 0.  0.
        4    1    3    3  502    0  0.85081202415E+03 -0.66048298335E+03 -0.97797870676E+02  0.10815197216E+04  0.12699999809E+01 0. -1.
       -4    1    3    3    0  502 -0.85081202415E+03  0.66048298335E+03  0.60021583287E+03  0.12330367110E+04  0.12699999809E+01 0.  1.
</event>
<event>
 5   0  0.4505107E-05  0.2084148E+04  0.7818609E-02  0.8568259E-01
       -2   -1    0    0    0  501  0.00000000000E+00  0.00000000000E+00  0.13016339405E+04  0.13016339405E+04  0.25500000920E-02 0. -1.
        2   -1    0    0  501    0  0.00000000000E+00  0.00000000000E+00 -0.83427304049E+03  0.83427304050E+03  0.25500000920E-02 0.  1.
    10030    2    1    2    0    0  0.00000000000E+00  0.00000000000E+00  0.46736090005E+03  0.21359069810E+04  0.20841478884E+04 0.  0.
        4    1    3    3  502    0 -0.58453885450E+03  0.11476160949E+03 -0.64257451073E+03  0.87621887344E+03  0.12699999809E+01 0.  1.
       -4    1    3    3    0  502  0.58453885450E+03 -0.11476160949E+03  0.11099354108E+04  0.12596881076E+04  0.12699999809E+01 0. -1.
</event>
<event>
 5   0  0.1604500E-05  0.2312726E+04  0.7818609E-02  0.8472920E-01
        3   -1    0    0  501    0  0.00000000000E+00  0.00000000000E+00  0.17991586391E+04  0.17991586420E+04  0.10100000352E+00 0.  1.
       -3   -1    0    0    0  501  0.00000000000E+00  0.00000000000E+00 -0.74322282237E+03  0.74322282923E+03  0.10100000352E+00 0. -1.
    10030    2    1    2    0    0  0.00000000000E+00  0.00000000000E+00  0.10559358168E+04  0.25423814712E+04  0.23127263340E+04 0.  0.
        3    1    3    3  502    0  0.65589532157E+03  0.40132685476E+03  0.14773932156E+04  0.16655187303E+04  0.10100000352E+00 0.  1.
       -3    1    3    3    0  502 -0.65589532157E+03 -0.40132685476E+03 -0.42145739882E+03  0.87686274093E+03  0.10100000352E+00 0. -1.
</event>
<event>
 5   0  0.4505107E-05  0.2275552E+04  0.7818609E-02  0.8487623E-01
        2   -1    0    0  501    0  0.00000000000E+00  0.00000000000E+00  0.19004045558E+04  0.19004045558E+04  0.25500000920E-02 0.  1.
       -2   -1    0    0    0  501  0.00000000000E+00  0.00000000000E+00 -0.68118901728E+03  0.68118901728E+03  0.25500000920E-02 0. -1.
    10030    2    1    2    0    0  0.00000000000E+00  0.00000000000E+00  0.12192155385E+04  0.25815935731E+04  0.22755524268E+04 0.  0.
        4    1    3    3  502    0  0.96318267748E+03  0.37626960067E+03  0.11480231250E+04  0.15450755292E+04  0.12699999809E+01 0. -1.
       -4    1    3    3    0  502 -0.96318267748E+03 -0.37626960067E+03  0.71192413517E+02  0.10365180439E+04  0.12699999809E+01 0.  1.
</event>
<event>
 5   0  0.4605516E-05  0.2305054E+04  0.7818609E-02  0.8475931E-01
       -2   -1    0    0    0  501  0.00000000000E+00  0.00000000000E+00  0.10687450063E+04  0.10687450063E+04  0.25500000920E-02 0.  1.
        2   -1    0    0  501    0  0.00000000000E+00  0.00000000000E+00 -0.12428765246E+04  0.12428765246E+04  0.25500000920E-02 0. -1.
    10030    2    1    2    0    0  0.00000000000E+00  0.00000000000E+00 -0.17413151833E+03  0.23116215309E+04  0.23050536472E+04 0.  0.
        1    1    3    3  502    0 -0.38120569633E+03 -0.15814278324E+03  0.99210039158E+03  0.10745185479E+04  0.50400001928E-02 0.  1.
       -1    1    3    3    0  502  0.38120569633E+03  0.15814278324E+03 -0.11662319099E+04  0.12371029830E+04  0.50400001928E-02 0. -1.
</event>
<event>
 5   0  0.2031860E-05  0.2297105E+04  0.7818609E-02  0.8479063E-01
       -1   -1    0    0    0  501  0.00000000000E+00  0.00000000000E+00  0.89623667532E+03  0.89623667534E+03  0.50400001928E-02 0. -1.
        1   -1    0    0  501    0  0.00000000000E+00  0.00000000000E+00 -0.14719023257E+04  0.14719023257E+04  0.50400001928E-02 0.  1.
    10030    2    1    2    0    0  0.00000000000E+00  0.00000000000E+00 -0.57566565034E+03  0.23681390010E+04  0.22971050013E+04 0.  0.
        4    1    3    3  502    0 -0.51150860020E+03  0.62299740292E+03 -0.11313047495E+04  0.13891072173E+04  0.12699999809E+01 0.  1.
       -4    1    3    3    0  502  0.51150860020E+03 -0.62299740292E+03  0.55563909913E+03  0.97903178370E+03  0.12699999809E+01 0. -1.
</event>
<event>
 5   0  0.2043885E-05  0.2299826E+04  0.7818609E-02  0.8477990E-01
        1   -1    0    0  501    0  0.00000000000E+00  0.00000000000E+00  0.11437062385E+04  0.11437062385E+04  0.50400001928E-02 0. -1.
       -1   -1    0    0    0  501  0.00000000000E+00  0.00000000000E+00 -0.11561537747E+04  0.11561537747E+04  0.50400001928E-02 0.  1.
    10030    2    1    2    0    0  0.00000000000E+00  0.00000000000E+00 -0.12447536197E+02  0.22998600132E+04  0.22998263281E+04 0.  0.
        5    1    3    3  502    0 -0.64770052070E+03  0.92603477913E+03 -0.21888110485E+03  0.11510809723E+04  0.46999998093E+01 0. -1.
       -5    1    3    3    0  502  0.64770052070E+03 -0.92603477913E+03  0.20643356865E+03  0.11487790410E+04  0.46999998093E+01 0.  1.
</event>
<event>
 5   0  0.4505107E-05  0.2294723E+04  0.7818609E-02  0.8480005E-01
        2   -1    0    0  501    0  0.00000000000E+00  0.00000000000E+00  0.18162474157E+04  0.18162474157E+04  0.25500000920E-02 0. -1.
       -2   -1    0    0    0  501  0.00000000000E+00  0.00000000000E+00 -0.72481222819E+03  0.72481222819E+03  0.25500000920E-02 0.  1.
    10030    2    1    2    0    0  0.00000000000E+00  0.00000000000E+00  0.10914351875E+04  0.25410596439E+04  0.22947229343E+04 0.  0.
        4    1    3    3  502    0 -0.48344752386E+03 -0.39086420331E+03  0.16135722805E+04  0.17291944515E+04  0.12699999809E+01 0. -1.
       -4    1    3    3    0  502  0.48344752386E+03  0.39086420331E+03 -0.52213709303E+03  0.81186519237E+03  0.12699999809E+01 0.  1.
</event>
<event>
 5   0  0.4605516E-05  0.2299524E+04  0.7818609E-02  0.8478109E-01
       -2   -1    0    0    0  501  0.00000000000E+00  0.00000000000E+00  0.65527624345E+03  0.65527624345E+03  0.25500000920E-02 0. -1.
        2   -1    0    0  501    0  0.00000000000E+00  0.00000000000E+00 -0.20173980568E+04  0.20173980568E+04  0.25500000920E-02 0.  1.
    10030    2    1    2    0    0  0.00000000000E+00  0.00000000000E+00 -0.13621218133E+04  0.26726743002E+04  0.22995243162E+04 0.  0.
        1    1    3    3  502    0  0.72766817246E+03  0.14529753833E+03  0.33971673352E+03  0.81610036326E+03  0.50400001928E-02 0. -1.
       -1    1    3    3    0  502 -0.72766817246E+03 -0.14529753833E+03 -0.17018385468E+04  0.18565739370E+04  0.50400001928E-02 0.  1.
</event>
<event>
 5   0  0.4505107E-05  0.2305080E+04  0.7818609E-02  0.8475921E-01
       -2   -1    0    0    0  501  0.00000000000E+00  0.00000000000E+00  0.17665772647E+04  0.17665772647E+04  0.25500000920E-02 0. -1.
        2   -1    0    0  501    0  0.00000000000E+00  0.00000000000E+00 -0.75193369797E+03  0.75193369798E+03  0.25500000920E-02 0.  1.
    10030    2    1    2    0    0  0.00000000000E+00  0.00000000000E+00  0.10146435667E+04  0.25185109627E+04  0.23050804545E+04 0.  0.
        4    1    3    3  502    0 -0.35494746687E+03 -0.59912540893E+03 -0.49608427556E+03  0.85500887786E+03  0.12699999809E+01 0.  1.
       -4    1    3    3    0  502  0.35494746687E+03  0.59912540893E+03  0.15107278423E+04  0.16635020848E+04  0.12699999809E+01 0. -1.
</event>
<event>
 5   0  0.4436695E-05  0.2308374E+04  0.7818609E-02  0.8474627E-01
       -2   -1    0    0    0  501  0.00000000000E+00  0.00000000000E+00  0.67300569023E+03  0.67300569024E+03  0.25500000920E-02 0.  1.
        2   -1    0    0  501    0  0.00000000000E+00  0.00000000000E+00 -0.19794006430E+04  0.19794006430E+04  0.25500000920E-02 0. -1.
    10030    2    1    2    0    0  0.00000000000E+00  0.00000000000E+00 -0.13063949527E+04  0.26524063332E+04  0.23083742296E+04 0.  0.
        5    1    3    3  502    0 -0.99981019143E+03  0.14866999608E+03 -0.13025693446E+02  0.10108980885E+04  0.46999998093E+01 0.  1.
       -5    1    3    3    0  502  0.99981019143E+03 -0.14866999608E+03 -0.12933692593E+04  0.16415082447E+04  0.46999998093E+01 0. -1.
</event>
<event>
 5   0  0.4798609E-05  0.2271490E+04  0.7818609E-02  0.8489248E-01
       -2   -1    0    0    0  501  0.00000000000E+00  0.00000000000E+00  0.61661557026E+03  0.61661557026E+03  0.25500000920E-02 0.  1.
        2   -1    0    0  501    0  0.00000000000E+00  0.00000000000E+00 -0.20919301714E+04  0.20919301714E+04  0.25500000920E-02 0. -1.
    10030    2    1    2    0    0  0.00000000000E+00  0.00000000000E+00 -0.14753146012E+04  0.27085457417E+04  0.22714900093E+04 0.  0.
        2    1    3    3  502    0 -0.39092602469E+03 -0.12430425380E+03 -0.20005093607E+04  0.20421342773E+04  0.25500000920E-02 0. -1.
       -2    1    3    3    0  502  0.39092602469E+03  0.12430425380E+03  0.52519475958E+03  0.66641146433E+03  0.25500000920E-02 0.  1.
</event>
<event>
 5   0  0.1968318E-05  0.2318221E+04  0.7818609E-02  0.8470771E-01
       -1   -1    0    0    0  501  0.00000000000E+00  0.00000000000E+00  0.80992702828E+03  0.80992702829E+03  0.50400001928E-02 0. -1.
        1   -1    0    0  501    0  0.00000000000E+00  0.00000000000E+00 -0.16588370347E+04  0.16588370347E+04  0.50400001928E-02 0.  1.
    10030    2    1    2    0    0  0.00000000000E+00  0.00000000000E+00 -0.84891000642E+03  0.24687640630E+04  0.23182208264E+04 0.  0.
        3    1    3    3  502    0 -0.20136049752E+03  0.94013170698E+03 -0.11139101674E+04  0.14714583065E+04  0.10100000352E+00 0.  1.
       -3    1    3    3    0  502  0.20136049752E+03 -0.94013170698E+03  0.26500016100E+03  0.99730575651E+03  0.10100000352E+00 0. -1.
</event>
<event>
 5   0  0.4605516E-05  0.1871530E+04  0.7818609E-02  0.8669159E-01
       -2   -1    0    0    0  501  0.00000000000E+00  0.00000000000E+00  0.63071082653E+03  0.63071082654E+03  0.25500000920E-02 0. -1.
        2   -1    0    0  501    0  0.00000000000E+00  0.00000000000E+00 -0.13883638648E+04  0.13883638648E+04  0.25500000920E-02 0.  1.
    10030    2    1    2    0    0  0.00000000000E+00  0.00000000000E+00 -0.75765303827E+03  0.20190746913E+04  0.18715299845E+04 0.  0.
        1    1    3    3  502    0 -0.20211405985E+03  0.88791043329E+03 -0.14638523709E+03  0.92231430023E+03  0.50400001928E-02 0. -1.
       -1    1    3    3    0  502  0.20211405985E+03 -0.88791043329E+03 -0.61126780118E+03  0.10967603911E+04  0.50400001928E-02 0.  1.
</event>
<event>
 5   0  0.2042951E-05  0.2365559E+04  0.7818609E-02  0.8452512E-01
       -1   -1    0    0    0  501  0.00000000000E+00  0.00000000000E+00  0.72853373790E+03  0.72853373792E+03  0.50400001928E-02 0. -1.
        1   -1    0    0  501    0  0.00000000000E+00  0.00000000000E+00 -0.19202498891E+04  0.19202498891E+04  0.50400001928E-02 0.  1.
    10030    2    1    2    0    0  0.00000000000E+00  0.00000000000E+00 -0.11917161512E+04  0.26487836270E+04  0.23655585636E+04 0.  0.
        2    1    3    3  502    0 -0.91056428129E+03  0.74119907238E+03 -0.43568030284E+03  0.12523261163E+04  0.25500000920E-02 0.  1.
       -2    1    3    3    0  502  0.91056428129E+03 -0.74119907238E+03 -0.75603584833E+03  0.13964575107E+04  0.25500000920E-02 0. -1.
</event>
<event>
 5   0  0.2031860E-05  0.2325323E+04  0.7818609E-02  0.8468003E-01
       -1   -1    0    0    0  501  0.00000000000E+00  0.00000000000E+00  0.55072641429E+03  0.55072641431E+03  0.50400001928E-02 0. -1.
        1   -1    0    0  501    0  0.00000000000E+00  0.00000000000E+00 -0.24545439811E+04  0.24545439811E+04  0.50400001928E-02 0.  1.
    10030    2    1    2    0    0  0.00000000000E+00  0.00000000000E+00 -0.19038175668E+04  0.30052703954E+04  0.23253233801E+04 0.  0.
        4    1    3    3  502    0 -0.12034255413E+03 -0.46701253360E+03 -0.23191765375E+04  0.23687896618E+04  0.12699999809E+01 0.  1.
       -4    1    3    3    0  502  0.12034255413E+03  0.46701253360E+03  0.41535897067E+03  0.63648073363E+03  0.12699999809E+01 0. -1.
</event>
<event>
 5   0  0.4602447E-05  0.2291350E+04  0.7818609E-02  0.8481340E-01
       -2   -1    0    0    0  501  0.00000000000E+00  0.00000000000E+00  0.12535095692E+04  0.12535095692E+04  0.25500000920E-02 0.  1.
        2   -1    0    0  501    0  0.00000000000E+00  0.00000000000E+00 -0.10471166194E+04  0.10471166194E+04  0.25500000920E-02 0. -1.
    10030    2    1    2    0    0  0.00000000000E+00  0.00000000000E+00  0.20639294979E+03  0.23006261886E+04  0.22913495609E+04 0.  0.
        3    1    3    3  502    0 -0.53135514394E+03 -0.57389834755E+03 -0.73737452618E+03  0.10749040908E+04  0.10100000352E+00 0. -1.
       -3    1    3    3    0  502  0.53135514394E+03  0.57389834755E+03  0.94376747596E+03  0.12257220979E+04  0.10100000352E+00 0.  1.
</event>
<event>
 5   0  0.4436695E-05  0.2279819E+04  0.7818609E-02  0.8485921E-01
        2   -1    0    0  501    0  0.00000000000E+00  0.00000000000E+00  0.67510593262E+03  0.67510593262E+03  0.25500000920E-02 0.  1.
       -2   -1    0    0    0  501  0.00000000000E+00  0.00000000000E+00 -0.19247254494E+04  0.19247254494E+04  0.25500000920E-02 0. -1.
    10030    2    1    2    0    0  0.00000000000E+00  0.00000000000E+00 -0.12496195167E+04  0.25998313820E+04  0.22798189134E+04 0.  0.
        5    1    3    3  502    0 -0.26951699448E+03  0.22978994879E+03 -0.18603749934E+04  0.18937951413E+04  0.46999998093E+01 0. -1.
       -5    1    3    3    0  502  0.26951699448E+03 -0.22978994879E+03  0.61075547670E+03  0.70603624071E+03  0.46999998093E+01 0.  1.
</event>
<event>
 5   0  0.1604500E-05  0.2282246E+04  0.7818609E-02  0.8484954E-01
        3   -1    0    0  501    0  0.00000000000E+00  0.00000000000E+00  0.70977509082E+03  0.70977509801E+03  0.10100000352E+00 0.  1.
       -3   -1    0    0    0  501  0.00000000000E+00  0.00000000000E+00 -0.18346122596E+04  0.18346122624E+04  0.10100000352E+00 0. -1.
    10030    2    1    2    0    0  0.00000000000E+00  0.00000000000E+00 -0.11248371688E+04  0.25443873604E+04  0.22822463459E+04 0.  0.
        5    1    3    3  502    0  0.22987833127E+03  0.30181121246E+03 -0.17622317000E+04  0.18026138548E+04  0.46999998093E+01 0. -1.
       -5    1    3    3    0  502 -0.22987833127E+03 -0.30181121246E+03  0.63739453121E+03  0.74177350557E+03  0.46999998093E+01 0.  1.
</event>
<event>
 5   0  0.4436695E-05  0.2299772E+04  0.7818609E-02  0.8478011E-01
       -2   -1    0    0    0  501  0.00000000000E+00  0.00000000000E+00  0.13028509655E+04  0.13028509655E+04  0.25500000920E-02 0. -1.
        2   -1    0    0  501    0  0.00000000000E+00  0.00000000000E+00 -0.10148801128E+04  0.10148801128E+04  0.25500000920E-02 0.  1.
    10030    2    1    2    0    0  0.00000000000E+00  0.00000000000E+00  0.28797085269E+03  0.23177310782E+04  0.22997717580E+04 0.  0.
        5    1    3    3  502    0 -0.31422711928E+03  0.21837445733E+03 -0.94882057285E+03  0.10230878044E+04  0.46999998093E+01 0.  1.
       -5    1    3    3    0  502  0.31422711928E+03 -0.21837445733E+03  0.12367914255E+04  0.12946432738E+04  0.46999998093E+01 0. -1.
</event>
<event>
 5   0  0.4605516E-05  0.2344536E+04  0.7818609E-02  0.8460565E-01
        2   -1    0    0  501    0  0.00000000000E+00  0.00000000000E+00  0.14303474962E+04  0.14303474962E+04  0.25500000920E-02 0.  1.
       -2   -1    0    0    0  501  0.00000000000E+00  0.00000000000E+00 -0.96075392444E+03  0.96075392444E+03  0.25500000920E-02 0. -1.
    10030    2    1    2    0    0  0.00000000000E+00  0.00000000000E+00  0.46959357176E+03  0.23911014206E+04  0.23445357496E+04 0.  0.
        1    1    3    3  502    0 -0.57494392257E+03 -0.46267977591E+03  0.11636989656E+04  0.13779798154E+04  0.50400001928E-02 0.  1.
       -1    1    3    3    0  502  0.57494392257E+03  0.46267977591E+03 -0.69410539386E+03  0.10131216052E+04  0.50400001928E-02 0. -1.
</event>
<event>
 5   0  0.2031860E-05  0.2313886E+04  0.7818609E-02  0.8472466E-01
       -1   -1    0    0    0  501  0.00000000000E+00  0.00000000000E+00  0.82512136313E+03  0.82512136314E+03  0.50400001928E-02 0. -1.
        1   -1    0    0  501    0  0.00000000000E+00  0.00000000000E+00 -0.16222068286E+04  0.16222068286E+04  0.50400001928E-02 0.  1.
    10030    2    1    2    0    0  0.00000000000E+00  0.00000000000E+00 -0.79708546545E+03  0.24473281917E+04  0.23138863496E+04 0.  0.
        4    1    3    3  502    0  0.73643764955E+03 -0.88781386214E+03 -0.49291885507E+03  0.12544020393E+04  0.12699999809E+01 0.  1.
       -4    1    3    3    0  502 -0.73643764955E+03  0.88781386214E+03 -0.30416661038E+03  0.11929261525E+04  0.12699999809E+01 0. -1.
</event>
<event>
 5   0  0.2043885E-05  0.2144229E+04  0.7818609E-02  0.8542007E-01
        1   -1    0    0  501    0  0.00000000000E+00  0.00000000000E+00  0.21155843681E+04  0.21155843681E+04  0.50400001928E-02 0.  1.
       -1   -1    0    0    0  501  0.00000000000E+00  0.00000000000E+00 -0.54331530184E+03  0.54331530186E+03  0.50400001928E-02 0. -1.
    10030    2    1    2    0    0  0.00000000000E+00  0.00000000000E+00  0.15722690663E+04  0.26588996700E+04  0.21442288680E+04 0.  0.
        5    1    3    3  502    0  0.67678328741E+03  0.82247898428E+03  0.63477020563E+03  0.12399445962E+04  0.46999998093E+01 0.  1.
       -5    1    3    3    0  502 -0.67678328741E+03 -0.82247898428E+03  0.93749886062E+03  0.14189550738E+04  0.46999998093E+01 0. -1.
</event>
<event>
 5   0  0.4436695E-05  0.2305942E+04  0.7818609E-02  0.8475582E-01
       -2   -1    0    0    0  501  0.00000000000E+00  0.00000000000E+00  0.76059599739E+03  0.76059599739E+03  0.25500000920E-02 0. -1.
        2   -1    0    0  501    0  0.00000000000E+00  0.00000000000E+00 -0.17477638634E+04  0.17477638634E+04  0.25500000920E-02 0.  1.
    10030    2    1    2    0    0  0.00000000000E+00  0.00000000000E+00 -0.98716786605E+03  0.25083598608E+04  0.23059420625E+04 0.  0.
        5    1    3    3  502    0 -0.69414704058E+02 -0.94472623830E+03  0.22137373762E+03  0.97280752884E+03  0.46999998093E+01 0. -1.
       -5    1    3    3    0  502  0.69414704058E+02  0.94472623830E+03 -0.12085416037E+04  0.15355523320E+04  0.46999998093E+01 0.  1.
</event>
<event>
 5   0  0.4798609E-05  0.2308462E+04  0.7818609E-02  0.8474592E-01
       -2   -1    0    0    0  501  0.00000000000E+00  0.00000000000E+00  0.14582588239E+04  0.14582588239E+04  0.25500000920E-02 0. -1.
        2   -1    0    0  501    0  0.00000000000E+00  0.00000000000E+00 -0.91358886362E+03  0.91358886362E+03  0.25500000920E-02 0.  1.
    10030    2    1    2    0    0  0.00000000000E+00  0.00000000000E+00  0.54466996024E+03  0.23718476875E+04  0.23084618444E+04 0.  0.
        2    1    3    3  502    0  0.17670069841E+03  0.11116584640E+04  0.98976886804E+01  0.11256578706E+04  0.25500000920E-02 0. -1.
       -2    1    3    3    0  502 -0.17670069841E+03 -0.11116584640E+04  0.53477227156E+03  0.12461898169E+04  0.25500000920E-02 0.  1.
</event>
<event>
 5   0  0.4602447E-05  0.2305848E+04  0.7818609E-02  0.8475619E-01
       -2   -1    0    0    0  501  0.00000000000E+00  0.00000000000E+00  0.93402083864E+03  0.93402083864E+03  0.25500000920E-02 0.  1.
        2   -1    0    0  501    0  0.00000000000E+00  0.00000000000E+00 -0.14231310145E+04  0.14231310145E+04  0.25500000920E-02 0. -1.
    10030    2    1    2    0    0  0.00000000000E+00  0.00000000000E+00 -0.48911017585E+03  0.23571518531E+04  0.23058482375E+04 0.  0.
        3    1    3    3  502    0  0.28760512931E+03 -0.79059222112E+02  0.89389612887E+03  0.94234673577E+03  0.10100000352E+00 0.  1.
       -3    1    3    3    0  502 -0.28760512931E+03  0.79059222112E+02 -0.13830063047E+04  0.14148051174E+04  0.10100000352E+00 0. -1.
</event>
<event>
 5   0  0.2085063E-05  0.2131950E+04  0.7818609E-02  0.8547298E-01
       -1   -1    0    0    0  501  0.00000000000E+00  0.00000000000E+00  0.37622789675E+03  0.37622789679E+03  0.50400001928E-02 0. -1.
        1   -1    0    0  501    0  0.00000000000E+00  0.00000000000E+00 -0.30202500294E+04  0.30202500294E+04  0.50400001928E-02 0.  1.
    10030    2    1    2    0    0  0.00000000000E+00  0.00000000000E+00 -0.26440221326E+04  0.33964779262E+04  0.21319496395E+04 0.  0.
        1    1    3    3  502    0 -0.10251799537E+04 -0.29125378025E+03 -0.12871213113E+04  0.16710786851E+04  0.50400001928E-02 0. -1.
       -1    1    3    3    0  502  0.10251799537E+04  0.29125378025E+03 -0.13569008213E+04  0.17253992410E+04  0.50400001928E-02 0.  1.
</event>
<event>
 5   0  0.4602447E-05  0.2435501E+04  0.7818609E-02  0.8426331E-01
       -2   -1    0    0    0  501  0.00000000000E+00  0.00000000000E+00  0.95423261342E+03  0.95423261342E+03  0.25500000920E-02 0. -1.
        2   -1    0    0  501    0  0.00000000000E+00  0.00000000000E+00 -0.15540405641E+04  0.15540405641E+04  0.25500000920E-02 0.  1.
    10030    2    1    2    0    0  0.00000000000E+00  0.00000000000E+00 -0.59980795071E+03  0.25082731776E+04  0.24355009250E+04 0.  0.
        3    1    3    3  502    0 -0.74548499294E+03  0.96205601540E+03 -0.34131138328E+03  0.12640384179E+04  0.10100000352E+00 0. -1.
       -3    1    3    3    0  502  0.74548499294E+03 -0.96205601540E+03 -0.25849656743E+03  0.12442347596E+04  0.10100000352E+00 0.  1.
</event>
<event>
 5   0  0.4436695E-05  0.2238955E+04  0.7818609E-02  0.8502387E-01
        2   -1    0    0  501    0  0.00000000000E+00  0.00000000000E+00  0.17930213507E+04  0.17930213507E+04  0.25500000920E-02 0. -1.
       -2   -1    0    0    0  501  0.00000000000E+00  0.00000000000E+00 -0.69894869161E+03  0.69894869162E+03  0.25500000920E-02 0.  1.
    10030    2    1    2    0    0  0.00000000000E+00  0.00000000000E+00  0.10940726591E+04  0.24919700424E+04  0.22389550484E+04 0.  0.
        5    1    3    3  502    0 -0.43518303891E+03 -0.97350643883E+03  0.16778251188E+03  0.10794777094E+04  0.46999998093E+01 0. -1.
       -5    1    3    3    0  502  0.43518303891E+03  0.97350643883E+03  0.92629014725E+03  0.14124923330E+04  0.46999998093E+01 0.  1.
</event>
<event>
 5   0  0.2085063E-05  0.2268031E+04  0.7818609E-02  0.8490634E-01
        1   -1    0    0  501    0  0.00000000000E+00  0.00000000000E+00  0.13911848147E+04  0.13911848147E+04  0.50400001928E-02 0. -1.
       -1   -1    0    0    0  501  0.00000000000E+00  0.00000000000E+00 -0.92438534591E+03  0.92438534593E+03  0.50400001928E-02 0.  1.
    10030    2    1    2    0    0  0.00000000000E+00  0.00000000000E+00  0.46679946875E+03  0.23155701606E+04  0.22680307371E+04 0.  0.
        1    1    3    3  502    0  0.64462474006E+03  0.58240260122E+03 -0.51075173834E+03  0.10077704023E+04  0.50400001928E-02 0.  1.
       -1    1    3    3    0  502 -0.64462474006E+03 -0.58240260122E+03  0.97755120709E+03  0.13077997583E+04  0.50400001928E-02 0. -1.
</event>
<event>
 5   0  0.2042951E-05  0.2229829E+04  0.7818609E-02  0.8506114E-01
       -1   -1    0    0    0  501  0.00000000000E+00  0.00000000000E+00  0.74054726842E+03  0.74054726844E+03  0.50400001928E-02 0.  1.
        1   -1    0    0  501    0  0.00000000000E+00  0.00000000000E+00 -0.16785345297E+04  0.16785345297E+04  0.50400001928E-02 0. -1.
    10030    2    1    2    0    0  0.00000000000E+00  0.00000000000E+00 -0.93798726129E+03  0.24190817982E+04  0.22298288373E+04 0.  0.
        2    1    3    3  502    0 -0.85026169843E+03 -0.28969537286E+03 -0.11854748792E+04  0.14873530362E+04  0.25500000920E-02 0. -1.
       -2    1    3    3    0  502  0.85026169843E+03  0.28969537286E+03  0.24748761794E+03  0.93172876199E+03  0.25500000920E-02 0.  1.
</event>
<event>
 5   0  0.4505107E-05  0.2368710E+04  0.7818609E-02  0.8451312E-01
       -2   -1    0    0    0  501  0.00000000000E+00  0.00000000000E+00  0.14089848766E+04  0.14089848766E+04  0.25500000920E-02 0. -1.
        2   -1    0    0  501    0  0.00000000000E+00  0.00000000000E+00 -0.99553735402E+03  0.99553735403E+03  0.25500000920E-02 0.  1.
    10030    2    1    2    0    0  0.00000000000E+00  0.00000000000E+00  0.41344752260E+03  0.24045222306E+04  0.23687102617E+04 0.  0.
        4    1    3    3  502    0 -0.11242291097E+04  0.10829325841E+03 -0.15514428282E+03  0.11400394214E+04  0.12699999809E+01 0.  1.
       -4    1    3    3    0  502  0.11242291097E+04 -0.10829325841E+03  0.56859180542E+03  0.12644828093E+04  0.12699999809E+01 0. -1.
</event>
<event>
 5   0  0.4505107E-05  0.2322341E+04  0.7818609E-02  0.8469164E-01
       -2   -1    0    0    0  501  0.00000000000E+00  0.00000000000E+00  0.70624242172E+03  0.70624242172E+03  0.25500000920E-02 0.  1.
        2   -1    0    0  501    0  0.00000000000E+00  0.00000000000E+00 -0.19091415828E+04  0.19091415828E+04  0.25500000920E-02 0. -1.
    10030    2    1    2    0    0  0.00000000000E+00  0.00000000000E+00 -0.12028991611E+04  0.26153840045E+04  0.23223408663E+04 0.  0.
        4    1    3    3  502    0  0.36502933881E+03  0.95961175267E+03  0.94097144634E+01  0.10267381797E+04  0.12699999809E+01 0.  1.
       -4    1    3    3    0  502 -0.36502933881E+03 -0.95961175267E+03 -0.12123088756E+04  0.15886458248E+04  0.12699999809E+01 0. -1.
</event>
<event>
 5   0  0.4798609E-05  0.2306096E+04  0.7818609E-02  0.8475521E-01
       -2   -1    0    0    0  501  0.00000000000E+00  0.00000000000E+00  0.88531485333E+03  0.88531485333E+03  0.25500000920E-02 0. -1.
        2   -1    0    0  501    0  0.00000000000E+00  0.00000000000E+00 -0.15017485093E+04  0.15017485093E+04  0.25500000920E-02 0.  1.
    10030    2    1    2    0    0  0.00000000000E+00  0.00000000000E+00 -0.61643365601E+03  0.23870633627E+04  0.23060964952E+04 0.  0.
        2    1    3    3  502    0  0.90459942193E+03 -0.14735895181E+03  0.41599439929E+03  0.10065118554E+04  0.25500000920E-02 0. -1.
       -2    1    3    3    0  502 -0.90459942193E+03  0.14735895181E+03 -0.10324280553E+04  0.13805515073E+04  0.25500000920E-02 0.  1.
</event>
<event>
 5   0  0.4605516E-05  0.2270123E+04  0.7818609E-02  0.8489795E-01
        2   -1    0    0  501    0  0.00000000000E+00  0.00000000000E+00  0.11771329439E+04  0.11771329439E+04  0.25500000920E-02 0.  1.
       -2   -1    0    0    0  501  0.00000000000E+00  0.00000000000E+00 -0.10944939511E+04  0.10944939511E+04  0.25500000920E-02 0. -1.
    10030    2    1    2    0    0  0.00000000000E+00  0.00000000000E+00  0.82638992786E+02  0.22716268950E+04  0.22701232449E+04 0.  0.
        1    1    3    3  502    0 -0.65013434759E+03  0.91353112294E+03  0.21793315581E+03  0.11422384352E+04  0.50400001928E-02 0.  1.
       -1    1    3    3    0  502  0.65013434759E+03 -0.91353112294E+03 -0.13529416302E+03  0.11293884598E+04  0.50400001928E-02 0. -1.
</event>
<event>
 5   0  0.4505107E-05  0.2309172E+04  0.7818609E-02  0.8474313E-01
        2   -1    0    0  501    0  0.00000000000E+00  0.00000000000E+00  0.90982272290E+03  0.90982272290E+03  0.25500000920E-02 0.  1.
       -2   -1    0    0    0  501  0.00000000000E+00  0.00000000000E+00 -0.14651967261E+04  0.14651967261E+04  0.25500000920E-02 0. -1.
    10030    2    1    2    0    0  0.00000000000E+00  0.00000000000E+00 -0.55537400317E+03  0.23750194490E+04  0.23091723841E+04 0.  0.
        4    1    3    3  502    0  0.61114278567E+03  0.85646251503E+03  0.21131137858E+03  0.10731624554E+04  0.12699999809E+01 0.  1.
       -4    1    3    3    0  502 -0.61114278567E+03 -0.85646251503E+03 -0.76668538175E+03  0.13018569935E+04  0.12699999809E+01 0. -1.
</event>
<event>
 5   0  0.4602447E-05  0.2300874E+04  0.7818609E-02  0.8477577E-01
       -2   -1    0    0    0  501  0.00000000000E+00  0.00000000000E+00  0.16333894207E+04  0.16333894207E+04  0.25500000920E-02 0. -1.
        2   -1    0    0  501    0  0.00000000000E+00  0.00000000000E+00 -0.81028130196E+03  0.81028130196E+03  0.25500000920E-02 0.  1.
    10030    2    1    2    0    0  0.00000000000E+00  0.00000000000E+00  0.82310811877E+03  0.24436707227E+04  0.23008736658E+04 0.  0.
        3    1    3    3  502    0  0.20567885008E+03  0.93663355020E+03 -0.26343524596E+03  0.99447691565E+03  0.10100000352E+00 0.  1.
       -3    1    3    3    0  502 -0.20567885008E+03 -0.93663355020E+03  0.10865433647E+04  0.14491938070E+04  0.10100000352E+00 0. -1.
</event>
<event>
 5   0  0.1968318E-05  0.2335593E+04  0.7818609E-02  0.8464018E-01
       -1   -1    0    0    0  501  0.00000000000E+00  0.00000000000E+00  0.75838656938E+03  0.75838656940E+03  0.50400001928E-02 0. -1.
        1   -1    0    0  501    0  0.00000000000E+00  0.00000000000E+00 -0.17982241574E+04  0.17982241574E+04  0.50400001928E-02 0.  1.
    10030    2    1    2    0    0  0.00000000000E+00  0.00000000000E+00 -0.10398375880E+04  0.25566107268E+04  0.23355933291E+04 0.  0.
        3    1    3    3  502    0 -0.26315181448E+03  0.11338632845E+04 -0.62292001844E+03  0.13201985400E+04  0.10100000352E+00 0.  1.
       -3    1    3    3    0  502  0.26315181448E+03 -0.11338632845E+04 -0.41691756954E+03  0.12364121867E+04  0.10100000352E+00 0. -1.
</event>
<event>
 5   0  0.1968318E-05  0.2302239E+04  0.7818609E-02  0.8477039E-01
        1   -1    0    0  501    0  0.00000000000E+00  0.00000000000E+00  0.11291905585E+04  0.11291905586E+04  0.50400001928E-02 0.  1.
       -1   -1    0    0    0  501  0.00000000000E+00  0.00000000000E+00 -0.11734744249E+04  0.11734744249E+04  0.50400001928E-02 0. -1.
    10030    2    1    2    0    0  0.00000000000E+00  0.00000000000E+00 -0.44283866305E+02  0.23026649834E+04  0.23022391199E+04 0.  0.
        3    1    3    3  502    0  0.51652250734E+03  0.58207739844E+03 -0.87051262353E+03  0.11676479933E+04  0.10100000352E+00 0. -1.
       -3    1    3    3    0  502 -0.51652250734E+03 -0.58207739844E+03  0.82622875723E+03  0.11350169901E+04  0.10100000352E+00 0.  1.
</event>
<event>
 5   0  0.2031860E-05  0.2294040E+04  0.7818609E-02  0.8480275E-01
       -1   -1    0    0    0  501  0.00000000000E+00  0.00000000000E+00  0.75489952322E+03  0.75489952323E+03  0.50400001928E-02 0.  1.
        1   -1    0    0  501    0  0.00000000000E+00  0.00000000000E+00 -0.17428212083E+04  0.17428212083E+04  0.50400001928E-02 0. -1.
    10030    2    1    2    0    0  0.00000000000E+00  0.00000000000E+00 -0.98792168512E+03  0.24977207316E+04  0.22940400164E+04 0.  0.
        4    1    3    3  502    0  0.80547553596E+03 -0.84542973314E+02 -0.13783044618E+04  0.15986441617E+04  0.12699999809E+01 0. -1.
       -4    1    3    3    0  502 -0.80547553596E+03  0.84542973314E+02  0.39038277665E+03  0.89907656992E+03  0.12699999809E+01 0.  1.
</event>
<event>
 5   0  0.2085063E-05  0.2257879E+04  0.7818609E-02  0.8494716E-01
        1   -1    0    0  501    0  0.00000000000E+00  0.00000000000E+00  0.13651390882E+04  0.13651390882E+04  0.50400001928E-02 0.  1.
       -1   -1    0    0    0  501  0.00000000000E+00  0.00000000000E+00 -0.93360781823E+03  0.93360781825E+03  0.50400001928E-02 0. -1.
    10030    2    1    2    0    0  0.00000000000E+00  0.00000000000E+00  0.43153126999E+03  0.22987469065E+04  0.22578791161E+04 0.  0.
        1    1    3    3  502    0 -0.90599218389E+02 -0.48795413793E+03 -0.81658838058E+03  0.95557524163E+03  0.50400001928E-02 0. -1.
       -1    1    3    3    0  502  0.90599218389E+02  0.48795413793E+03  0.12481196506E+04  0.13431716648E+04  0.50400001928E-02 0.  1.
</event>
<event>
 5   0  0.4605516E-05  0.2302777E+04  0.7818609E-02  0.8476827E-01
       -2   -1    0    0    0  501  0.00000000000E+00  0.00000000000E+00  0.83721885676E+03  0.83721885676E+03  0.25500000920E-02 0. -1.
        2   -1    0    0  501    0  0.00000000000E+00  0.00000000000E+00 -0.15834519822E+04  0.15834519822E+04  0.25500000920E-02 0.  1.
    10030    2    1    2    0    0  0.00000000000E+00  0.00000000000E+00 -0.74623312544E+03  0.24206708390E+04  0.23027773303E+04 0.  0.
        1    1    3    3  502    0 -0.10111244563E+03 -0.11078361104E+04 -0.68525508935E+03  0.13065600298E+04  0.50400001928E-02 0. -1.
       -1    1    3    3    0  502  0.10111244563E+03  0.11078361104E+04 -0.60978036087E+02  0.11141108091E+04  0.50400001928E-02 0.  1.
</event>
<event>
 5   0  0.4505107E-05  0.2311994E+04  0.7818609E-02  0.8473207E-01
        2   -1    0    0  501    0  0.00000000000E+00  0.00000000000E+00  0.10477670590E+04  0.10477670590E+04  0.25500000920E-02 0.  1.
       -2   -1    0    0    0  501  0.00000000000E+00  0.00000000000E+00 -0.12754061503E+04  0.12754061503E+04  0.25500000920E-02 0. -1.
    10030    2    1    2    0    0  0.00000000000E+00  0.00000000000E+00 -0.22763909127E+03  0.23231732093E+04  0.23119935563E+04 0.  0.
        4    1    3    3  502    0  0.33265567920E+03  0.97745555126E+03 -0.63618691617E+03  0.12127714380E+04  0.12699999809E+01 0. -1.
       -4    1    3    3    0  502 -0.33265567920E+03 -0.97745555126E+03  0.40854782490E+03  0.11104017713E+04  0.12699999809E+01 0.  1.
</event>
<event>
 5   0  0.4798609E-05  0.2200335E+04  0.7818609E-02  0.8518289E-01
       -2   -1    0    0    0  501  0.00000000000E+00  0.00000000000E+00  0.62482564521E+03  0.62482564522E+03  0.25500000920E-02 0. -1.
        2   -1    0    0  501    0  0.00000000000E+00  0.00000000000E+00 -0.19371291678E+04  0.19371291678E+04  0.25500000920E-02 0.  1.
    10030    2    1    2    0    0  0.00000000000E+00  0.00000000000E+00 -0.13123035226E+04  0.25619548130E+04  0.22003345038E+04 0.  0.
        2    1    3    3  502    0  0.92112322993E+03  0.58185957230E+03 -0.47827150576E+03  0.11898622609E+04  0.25500000920E-02 0. -1.
       -2    1    3    3    0  502 -0.92112322993E+03 -0.58185957230E+03 -0.83403201685E+03  0.13720925522E+04  0.25500000920E-02 0.  1.
</event>
<event>
 5   0  0.2043885E-05  0.2305060E+04  0.7818609E-02  0.8475929E-01
       -1   -1    0    0    0  501  0.00000000000E+00  0.00000000000E+00  0.64327124126E+03  0.64327124128E+03  0.50400001928E-02 0.  1.
        1   -1    0    0  501    0  0.00000000000E+00  0.00000000000E+00 -0.20649530500E+04  0.20649530500E+04  0.50400001928E-02 0. -1.
    10030    2    1    2    0    0  0.00000000000E+00  0.00000000000E+00 -0.14216818087E+04  0.27082242912E+04  0.23050595755E+04 0.  0.
        5    1    3    3  502    0  0.79730506413E+03 -0.30619534418E+03  0.19836485655E+03  0.87682476037E+03  0.46999998093E+01 0.  1.
       -5    1    3    3    0  502 -0.79730506413E+03  0.30619534418E+03 -0.16200466653E+04  0.18313995309E+04  0.46999998093E+01 0. -1.
</event>
<event>
 5   0  0.1968318E-05  0.2299855E+04  0.7818609E-02  0.8477978E-01
       -1   -1    0    0    0  501  0.00000000000E+00  0.00000000000E+00  0.80367123156E+03  0.80367123158E+03  0.50400001928E-02 0. -1.
        1   -1    0    0  501    0  0.00000000000E+00  0.00000000000E+00 -0.16453663953E+04  0.16453663953E+04  0.50400001928E-02 0.  1.
    10030    2    1    2    0    0  0.00000000000E+00  0.00000000000E+00 -0.84169516373E+03  0.24490376269E+04  0.22998553322E+04 0.  0.
        3    1    3    3  502    0  0.67323305293E+02  0.89259947176E+03  0.34782587279E+03  0.96033800945E+03  0.10100000352E+00 0. -1.
       -3    1    3    3    0  502 -0.67323305293E+02 -0.89259947176E+03 -0.11895210365E+04  0.14886996174E+04  0.10100000352E+00 0.  1.
</event>
<event>
 5   0  0.4605516E-05  0.2274279E+04  0.7818609E-02  0.8488132E-01
       -2   -1    0    0    0  501  0.00000000000E+00  0.00000000000E+00  0.79509428790E+03  0.79509428791E+03  0.25500000920E-02 0. -1.
        2   -1    0    0  501    0  0.00000000000E+00  0.00000000000E+00 -0.16263307555E+04  0.16263307555E+04  0.25500000920E-02 0.  1.
    10030    2    1    2    0    0  0.00000000000E+00  0.00000000000E+00 -0.83123646758E+03  0.24214250434E+04  0.22742790453E+04 0.  0.
        1    1    3    3  502    0 -0.15936255402E+02  0.59814268583E+02  0.79329914775E+03  0.79571053079E+03  0.50400001928E-02 0. -1.
       -1    1    3    3    0  502  0.15936255402E+02 -0.59814268583E+02 -0.16245356153E+04  0.16257145126E+04  0.50400001928E-02 0.  1.
</event>
<event>
 5   0  0.2031860E-05  0.2308774E+04  0.7818609E-02  0.8474470E-01
        1   -1    0    0  501    0  0.00000000000E+00  0.00000000000E+00  0.17176628895E+04  0.17176628895E+04  0.50400001928E-02 0.  1.
       -1   -1    0    0    0  501  0.00000000000E+00  0.00000000000E+00 -0.77582696585E+03  0.77582696586E+03  0.50400001928E-02 0. -1.
    10030    2    1    2    0    0  0.00000000000E+00  0.00000000000E+00  0.94183592360E+03  0.24934898553E+04  0.23087738632E+04 0.  0.
        4    1    3    3  502    0  0.15457070480E+03  0.30638979983E+03  0.16612986874E+04  0.16963731175E+04  0.12699999809E+01 0.  1.
       -4    1    3    3    0  502 -0.15457070480E+03 -0.30638979983E+03 -0.71946276382E+03  0.79711673777E+03  0.12699999809E+01 0. -1.
</event>
<event>
 5   0  0.1968318E-05  0.2312878E+04  0.7818609E-02  0.8472861E-01
        1   -1    0    0  501    0  0.00000000000E+00  0.00000000000E+00  0.10709193087E+04  0.10709193087E+04  0.50400001928E-02 0.  1.
       -1   -1    0    0    0  501  0.00000000000E+00  0.00000000000E+00 -0.12487879578E+04  0.12487879578E+04  0.50400001928E-02 0. -1.
    10030    2    1    2    0    0  0.00000000000E+00  0.00000000000E+00 -0.17786864911E+03  0.23197072665E+04  0.23128779790E+04 0.  0.
        3    1    3    3  502    0 -0.85065511416E+03 -0.10888516240E+01  0.69679180568E+03  0.10996063566E+04  0.10100000352E+00 0.  1.
       -3    1    3    3    0  502  0.85065511416E+03  0.10888516240E+01 -0.87466045479E+03  0.12201009099E+04  0.10100000352E+00 0. -1.
</event>
<event>
 5   0  0.2085063E-05  0.2301297E+04  0.7818609E-02  0.8477410E-01
        1   -1    0    0  501    0  0.00000000000E+00  0.00000000000E+00  0.18885717722E+04  0.18885717722E+04  0.50400001928E-02 0. -1.
       -1   -1    0    0    0  501  0.00000000000E+00  0.00000000000E+00 -0.70105480358E+03  0.70105480360E+03  0.50400001928E-02 0.  1.
    10030    2    1    2    0    0  0.00000000000E+00  0.00000000000E+00  0.11875169686E+04  0.25896265758E+04  0.23012972975E+04 0.  0.
        1    1    3    3  502    0  0.20535341454E+03 -0.89524428436E+03 -0.18615748973E+03  0.93716965622E+03  0.50400001928E-02 0.  1.
       -1    1    3    3    0  502 -0.20535341454E+03  0.89524428436E+03  0.13736744584E+04  0.16524569196E+04  0.50400001928E-02 0. -1.
</event>
<event>
 5   0  0.2043885E-05  0.2308939E+04  0.7818609E-02  0.8474405E-01
        1   -1    0    0  501    0  0.00000000000E+00  0.00000000000E+00  0.15325952875E+04  0.15325952875E+04  0.50400001928E-02 0.  1.
       -1   -1    0    0    0  501  0.00000000000E+00  0.00000000000E+00 -0.86963600215E+03  0.86963600217E+03  0.50400001928E-02 0. -1.
    10030    2    1    2    0    0  0.00000000000E+00  0.00000000000E+00  0.66295928538E+03  0.24022312897E+04  0.23089391840E+04 0.  0.
        5    1    3    3  502    0  0.13609692614E+03 -0.10195800885E+04  0.87678674673E+03  0.13516075686E+04  0.46999998093E+01 0.  1.
       -5    1    3    3    0  502 -0.13609692614E+03  0.10195800885E+04 -0.21382746135E+03  0.10506237211E+04  0.46999998093E+01 0. -1.
</event>
<event>
 5   0  0.1968318E-05  0.2317034E+04  0.7818609E-02  0.8471235E-01
        1   -1    0    0  501    0  0.00000000000E+00  0.00000000000E+00  0.11298990445E+04  0.11298990445E+04  0.50400001928E-02 0.  1.
       -1   -1    0    0    0  501  0.00000000000E+00  0.00000000000E+00 -0.11878595426E+04  0.11878595426E+04  0.50400001928E-02 0. -1.
    10030    2    1    2    0    0  0.00000000000E+00  0.00000000000E+00 -0.57960498081E+02  0.23177585871E+04  0.23170337608E+04 0.  0.
        3    1    3    3  502    0  0.33714133744E+03 -0.55685657274E+03 -0.98761600879E+03  0.11828520258E+04  0.10100000352E+00 0. -1.
       -3    1    3    3    0  502 -0.33714133744E+03  0.55685657274E+03  0.92965551071E+03  0.11349065613E+04  0.10100000352E+00 0.  1.
</event>
<event>
 5   0  0.4505107E-05  0.2308049E+04  0.7818609E-02  0.8474754E-01
        2   -1    0    0  501    0  0.00000000000E+00  0.00000000000E+00  0.20975913139E+04  0.20975913139E+04  0.25500000920E-02 0.  1.
       -2   -1    0    0    0  501  0.00000000000E+00  0.00000000000E+00 -0.63490572288E+03  0.63490572289E+03  0.25500000920E-02 0. -1.
    10030    2    1    2    0    0  0.00000000000E+00  0.00000000000E+00  0.14626855910E+04  0.27324970368E+04  0.23080491585E+04 0.  0.
        4    1    3    3  502    0  0.97995496807E+02 -0.90245706616E+03 -0.11225417358E+03  0.91467725786E+03  0.12699999809E+01 0. -1.
       -4    1    3    3    0  502 -0.97995496807E+02  0.90245706616E+03  0.15749397646E+04  0.18178197790E+04  0.12699999809E+01 0.  1.
</event>
<event>
 5   0  0.4605516E-05  0.2274536E+04  0.7818609E-02  0.8488030E-01
       -2   -1    0    0    0  501  0.00000000000E+00  0.00000000000E+00  0.58443951618E+03  0.58443951619E+03  0.25500000920E-02 0. -1.
        2   -1    0    0  501    0  0.00000000000E+00  0.00000000000E+00 -0.22130230573E+04  0.22130230573E+04  0.25500000920E-02 0.  1.
    10030    2    1    2    0    0  0.00000000000E+00  0.00000000000E+00 -0.16285835411E+04  0.27974625735E+04  0.22745356668E+04 0.  0.
        1    1    3    3  502    0  0.31380445931E+03  0.22254291010E+03 -0.21305655920E+04  0.21650192441E+04  0.50400001928E-02 0.  1.
       -1    1    3    3    0  502 -0.31380445931E+03 -0.22254291010E+03  0.50198205085E+03  0.63244332941E+03  0.50400001928E-02 0. -1.
</event>
<event>
 5   0  0.2031860E-05  0.2288210E+04  0.7818609E-02  0.8482584E-01
       -1   -1    0    0    0  501  0.00000000000E+00  0.00000000000E+00  0.13640039311E+04  0.13640039311E+04  0.50400001928E-02 0.  1.
        1   -1    0    0  501    0  0.00000000000E+00  0.00000000000E+00 -0.95965721919E+03  0.95965721920E+03  0.50400001928E-02 0. -1.
    10030    2    1    2    0    0  0.00000000000E+00  0.00000000000E+00  0.40434671190E+03  0.23236611503E+04  0.22882099724E+04 0.  0.
        4    1    3    3  502    0  0.76834288430E+03 -0.66887093055E+03  0.73104488226E+03  0.12538609741E+04  0.12699999809E+01 0.  1.
       -4    1    3    3    0  502 -0.76834288430E+03  0.66887093055E+03 -0.32669817036E+03  0.10698001762E+04  0.12699999809E+01 0. -1.
</event>
<event>
 5   0  0.4436695E-05  0.2311460E+04  0.7818609E-02  0.8473416E-01
       -2   -1    0    0    0  501  0.00000000000E+00  0.00000000000E+00  0.77290481747E+03  0.77290481747E+03  0.25500000920E-02 0.  1.
        2   -1    0    0  501    0  0.00000000000E+00  0.00000000000E+00 -0.17281709527E+04  0.17281709527E+04  0.25500000920E-02 0. -1.
    10030    2    1    2    0    0  0.00000000000E+00  0.00000000000E+00 -0.95526613520E+03  0.25010757701E+04  0.23114598458E+04 0.  0.
        5    1    3    3  502    0  0.15655390680E+03 -0.49576544290E+03 -0.15944866548E+04  0.16771112910E+04  0.46999998093E+01 0. -1.
       -5    1    3    3    0  502 -0.15655390680E+03  0.49576544290E+03  0.63922051963E+03  0.82396447910E+03  0.46999998093E+01 0.  1.
</event>
<event>
 5   0  0.2031860E-05  0.2307011E+04  0.7818609E-02  0.8475162E-01
       -1   -1    0    0    0  501  0.00000000000E+00  0.00000000000E+00  0.83645445248E+03  0.83645445250E+03  0.50400001928E-02 0.  1.
        1   -1    0    0  501    0  0.00000000000E+00  0.00000000000E+00 -0.15907323883E+04  0.15907323884E+04  0.50400001928E-02 0. -1.
    10030    2    1    2    0    0  0.00000000000E+00  0.00000000000E+00 -0.75427793586E+03  0.24271868409E+04  0.23070112171E+04 0.  0.
        4    1    3    3  502    0 -0.93370510944E+03 -0.52429768385E+03 -0.82828909594E+03  0.13537938292E+04  0.12699999809E+01 0. -1.
       -4    1    3    3    0  502  0.93370510944E+03  0.52429768385E+03  0.74011160085E+02  0.10733930116E+04  0.12699999809E+01 0.  1.
</event>
<event>
 5   0  0.2085063E-05  0.2204281E+04  0.7818609E-02  0.8516648E-01
       -1   -1    0    0    0  501  0.00000000000E+00  0.00000000000E+00  0.89487999200E+03  0.89487999202E+03  0.50400001928E-02 0.  1.
        1   -1    0    0  501    0  0.00000000000E+00  0.00000000000E+00 -0.13574043655E+04  0.13574043655E+04  0.50400001928E-02 0. -1.
    10030    2    1    2    0    0  0.00000000000E+00  0.00000000000E+00 -0.46252437351E+03  0.22522843575E+04  0.22042812958E+04 0.  0.
        1    1    3    3  502    0  0.48453571577E+02 -0.69204996459E+03 -0.11063194213E+04  0.13058420900E+04  0.50400001928E-02 0. -1.
       -1    1    3    3    0  502 -0.48453571577E+02  0.69204996459E+03  0.64379504782E+03  0.94644226750E+03  0.50400001928E-02 0.  1.
</event>
<event>
 5   0  0.2085063E-05  0.2299522E+04  0.7818609E-02  0.8478110E-01
       -1   -1    0    0    0  501  0.00000000000E+00  0.00000000000E+00  0.13614664924E+04  0.13614664924E+04  0.50400001928E-02 0.  1.
        1   -1    0    0  501    0  0.00000000000E+00  0.00000000000E+00 -0.97097524950E+03  0.97097524952E+03  0.50400001928E-02 0. -1.
    10030    2    1    2    0    0  0.00000000000E+00  0.00000000000E+00  0.39049124290E+03  0.23324417419E+04  0.22995219218E+04 0.  0.
        1    1    3    3  502    0 -0.86925356707E+03 -0.74545663398E+03  0.90604243810E+02  0.11487020876E+04  0.50400001928E-02 0. -1.
       -1    1    3    3    0  502  0.86925356707E+03  0.74545663398E+03  0.29988699909E+03  0.11837396543E+04  0.50400001928E-02 0.  1.
</event>
<event>
 5   0  0.1968318E-05  0.2500843E+04  0.7818609E-02  0.8402685E-01
       -1   -1    0    0    0  501  0.00000000000E+00  0.00000000000E+00  0.94788626621E+03  0.94788626622E+03  0.50400001928E-02 0.  1.
        1   -1    0    0  501    0  0.00000000000E+00  0.00000000000E+00 -0.16495161409E+04  0.16495161409E+04  0.50400001928E-02 0. -1.
    10030    2    1    2    0    0  0.00000000000E+00  0.00000000000E+00 -0.70162987473E+03  0.25974024072E+04  0.25008428147E+04 0.  0.
        3    1    3    3  502    0  0.10509069531E+04  0.20121123899E+03  0.32120904162E+03  0.11171690317E+04  0.10100000352E+00 0.  1.
       -3    1    3    3    0  502 -0.10509069531E+04 -0.20121123899E+03 -0.10228389164E+04  0.14802333755E+04  0.10100000352E+00 0. -1.
</event>
<event>
 5   0  0.4436695E-05  0.2328411E+04  0.7818609E-02  0.8466803E-01
       -2   -1    0    0    0  501  0.00000000000E+00  0.00000000000E+00  0.83856582911E+03  0.83856582912E+03  0.25500000920E-02 0. -1.
        2   -1    0    0  501    0  0.00000000000E+00  0.00000000000E+00 -0.16163006732E+04  0.16163006732E+04  0.25500000920E-02 0.  1.
    10030    2    1    2    0    0  0.00000000000E+00  0.00000000000E+00 -0.77773484407E+03  0.24548665023E+04  0.23284110583E+04 0.  0.
        5    1    3    3  502    0  0.36120887527E+03 -0.36923372423E+03 -0.14888652436E+04  0.15759274090E+04  0.46999998093E+01 0.  1.
       -5    1    3    3    0  502 -0.36120887527E+03  0.36923372423E+03  0.71113039953E+03  0.87893909335E+03  0.46999998093E+01 0. -1.
</event>
<event>
 5   0  0.4605516E-05  0.2293813E+04  0.7818609E-02  0.8480365E-01
       -2   -1    0    0    0  501  0.00000000000E+00  0.00000000000E+00  0.83478259263E+03  0.83478259263E+03  0.25500000920E-02 0.  1.
        2   -1    0    0  501    0  0.00000000000E+00  0.00000000000E+00 -0.15757332011E+04  0.15757332011E+04  0.25500000920E-02 0. -1.
    10030    2    1    2    0    0  0.00000000000E+00  0.00000000000E+00 -0.74095060850E+03  0.24105157938E+04  0.22938131109E+04 0.  0.
        1    1    3    3  502    0  0.35606345159E+03 -0.89812241491E+03 -0.10199731519E+04  0.14049022330E+04  0.50400001928E-02 0. -1.
       -1    1    3    3    0  502 -0.35606345159E+03  0.89812241491E+03  0.27902254343E+03  0.10056135607E+04  0.50400001928E-02 0.  1.
</event>
<event>
 5   0  0.2031860E-05  0.2279639E+04  0.7818609E-02  0.8485993E-01
       -1   -1    0    0    0  501  0.00000000000E+00  0.00000000000E+00  0.11003412976E+04  0.11003412977E+04  0.50400001928E-02 0.  1.
        1   -1    0    0  501    0  0.00000000000E+00  0.00000000000E+00 -0.11807142288E+04  0.11807142289E+04  0.50400001928E-02 0. -1.
    10030    2    1    2    0    0  0.00000000000E+00  0.00000000000E+00 -0.80372931199E+02  0.22810555265E+04  0.22796391177E+04 0.  0.
        4    1    3    3  502    0  0.11145638563E+04 -0.23641172246E+03 -0.78566157541E+01  0.11393886218E+04  0.12699999809E+01 0.  1.
       -4    1    3    3    0  502 -0.11145638563E+04  0.23641172246E+03 -0.72516315444E+02  0.11416669047E+04  0.12699999809E+01 0. -1.
</event>
<event>
 5   0  0.1968318E-05  0.2100251E+04  0.7818609E-02  0.8561133E-01
        1   -1    0    0  501    0  0.00000000000E+00  0.00000000000E+00  0.17201996100E+04  0.17201996100E+04  0.50400001928E-02 0. -1.
       -1   -1    0    0    0  501  0.00000000000E+00  0.00000000000E+00 -0.64106742200E+03  0.64106742201E+03  0.50400001928E-02 0.  1.
    10030    2    1    2    0    0  0.00000000000E+00  0.00000000000E+00  0.10791321880E+04  0.23612670320E+04  0.21002513462E+04 0.  0.
        3    1    3    3  502    0  0.85911229317E+02 -0.33072688816E+03 -0.57681617221E+03  0.67043114531E+03  0.10100000352E+00 0.  1.
       -3    1    3    3    0  502 -0.85911229317E+02  0.33072688816E+03  0.16559483602E+04  0.16908358867E+04  0.10100000352E+00 0. -1.
</event>
<event>
 5   0  0.4436695E-05  0.2278925E+04  0.7818609E-02  0.8486277E-01
       -2   -1    0    0    0  501  0.00000000000E+00  0.00000000000E+00  0.90876071944E+03  0.90876071944E+03  0.25500000920E-02 0. -1.
        2   -1    0    0  501    0  0.00000000000E+00  0.00000000000E+00 -0.14287310608E+04  0.14287310608E+04  0.25500000920E-02 0.  1.
    10030    2    1    2    0    0  0.00000000000E+00  0.00000000000E+00 -0.51997034134E+03  0.23374917802E+04  0.22789248927E+04 0.  0.
        5    1    3    3  502    0  0.51019803910E+01 -0.24035014951E+03 -0.14024127494E+04  0.14228766054E+04  0.46999998093E+01 0.  1.
       -5    1    3    3    0  502 -0.51019803910E+01  0.24035014951E+03  0.88244240802E+03  0.91461517484E+03  0.46999998093E+01 0. -1.
</event>
<event>
 5   0  0.1968318E-05  0.2326977E+04  0.7818609E-02  0.8467360E-01
        1   -1    0    0  501    0  0.00000000000E+00  0.00000000000E+00  0.11733652213E+04  0.11733652213E+04  0.50400001928E-02 0.  1.
       -1   -1    0    0    0  501  0.00000000000E+00  0.00000000000E+00 -0.11536949985E+04  0.11536949985E+04  0.50400001928E-02 0. -1.
    10030    2    1    2    0    0  0.00000000000E+00  0.00000000000E+00  0.19670222838E+02  0.23270602198E+04  0.23269770839E+04 0.  0.
        3    1    3    3  502    0 -0.72006118794E+03 -0.59629944773E+03 -0.68275329766E+03  0.11576757842E+04  0.10100000352E+00 0. -1.
       -3    1    3    3    0  502  0.72006118794E+03  0.59629944773E+03  0.70242352050E+03  0.11693844355E+04  0.10100000352E+00 0.  1.
</event>
<event>
 5   0  0.1968318E-05  0.2401052E+04  0.7818609E-02  0.8439110E-01
        1   -1    0    0  501    0  0.00000000000E+00  0.00000000000E+00  0.32009408259E+04  0.32009408259E+04  0.50400001928E-02 0.  1.
       -1   -1    0    0    0  501  0.00000000000E+00  0.00000000000E+00 -0.45026233191E+03  0.45026233194E+03  0.50400001928E-02 0. -1.
    10030    2    1    2    0    0  0.00000000000E+00  0.00000000000E+00  0.27506784940E+04  0.36512031579E+04  0.24010523365E+04 0.  0.
        3    1    3    3  502    0 -0.34641376106E+03  0.58914095069E+03  0.28762419206E+04  0.29563249398E+04  0.10100000352E+00 0.  1.
       -3    1    3    3    0  502  0.34641376106E+03 -0.58914095069E+03 -0.12556342660E+03  0.69487821806E+03  0.10100000352E+00 0. -1.
</event>
<event>
 5   0  0.4505107E-05  0.2276319E+04  0.7818609E-02  0.8487317E-01
       -2   -1    0    0    0  501  0.00000000000E+00  0.00000000000E+00  0.93114700206E+03  0.93114700206E+03  0.25500000920E-02 0. -1.
        2   -1    0    0  501    0  0.00000000000E+00  0.00000000000E+00 -0.13911945555E+04  0.13911945555E+04  0.25500000920E-02 0.  1.
    10030    2    1    2    0    0  0.00000000000E+00  0.00000000000E+00 -0.46004755345E+03  0.23223415576E+04  0.22763186417E+04 0.  0.
        4    1    3    3  502    0  0.73899179300E+03 -0.76973084435E+02  0.64959792177E+03  0.98692086751E+03  0.12699999809E+01 0. -1.
       -4    1    3    3    0  502 -0.73899179300E+03  0.76973084435E+02 -0.11096454752E+04  0.13354206901E+04  0.12699999809E+01 0.  1.
</event>
<event>
 5   0  0.4798609E-05  0.2248885E+04  0.7818609E-02  0.8498352E-01
        2   -1    0    0  501    0  0.00000000000E+00  0.00000000000E+00  0.83802365977E+03  0.83802365977E+03  0.25500000920E-02 0. -1.
       -2   -1    0    0    0  501  0.00000000000E+00  0.00000000000E+00 -0.15087532469E+04  0.15087532469E+04  0.25500000920E-02 0.  1.
    10030    2    1    2    0    0  0.00000000000E+00  0.00000000000E+00 -0.67072958711E+03  0.23467769066E+04  0.22488849838E+04 0.  0.
        2    1    3    3  502    0  0.69114140871E+03  0.82725809862E+03 -0.66919382630E+03  0.12687997422E+04  0.25500000920E-02 0.  1.
       -2    1    3    3    0  502 -0.69114140871E+03 -0.82725809862E+03 -0.15357608106E+01  0.10779771645E+04  0.25500000920E-02 0. -1.
</event>
<event>
 5   0  0.2042951E-05  0.2312579E+04  0.7818609E-02  0.8472978E-01
        1   -1    0    0  501    0  0.00000000000E+00  0.00000000000E+00  0.18160852122E+04  0.18160852122E+04  0.50400001928E-02 0.  1.
       -1   -1    0    0    0  501  0.00000000000E+00  0.00000000000E+00 -0.73620160637E+03  0.73620160639E+03  0.50400001928E-02 0. -1.
    10030    2    1    2    0    0  0.00000000000E+00  0.00000000000E+00  0.10798836059E+04  0.25522868186E+04  0.23125785181E+04 0.  0.
        2    1    3    3  502    0  0.10922250316E+04 -0.23688394549E+03  0.21266540802E+03  0.11376713493E+04  0.25500000920E-02 0. -1.
       -2    1    3    3    0  502 -0.10922250316E+04  0.23688394549E+03  0.86721819784E+03  0.14146154693E+04  0.25500000920E-02 0.  1.
</event>
<event>
 5   0  0.4798609E-05  0.2298932E+04  0.7818609E-02  0.8478342E-01
       -2   -1    0    0    0  501  0.00000000000E+00  0.00000000000E+00  0.11521920508E+04  0.11521920508E+04  0.25500000920E-02 0. -1.
        2   -1    0    0  501    0  0.00000000000E+00  0.00000000000E+00 -0.11467468043E+04  0.11467468043E+04  0.25500000920E-02 0.  1.
    10030    2    1    2    0    0  0.00000000000E+00  0.00000000000E+00  0.54452465035E+01  0.22989388550E+04  0.22989324062E+04 0.  0.
        2    1    3    3  502    0  0.74721281290E+03  0.86064704643E+03  0.15182778929E+03  0.11498225967E+04  0.25500000920E-02 0. -1.
       -2    1    3    3    0  502 -0.74721281290E+03 -0.86064704643E+03 -0.14638254278E+03  0.11491162583E+04  0.25500000920E-02 0.  1.
</event>
<event>
 5   0  0.2042951E-05  0.2218074E+04  0.7818609E-02  0.8510943E-01
       -1   -1    0    0    0  501  0.00000000000E+00  0.00000000000E+00  0.46563319284E+03  0.46563319286E+03  0.50400001928E-02 0. -1.
        1   -1    0    0  501    0  0.00000000000E+00  0.00000000000E+00 -0.26414856617E+04  0.26414856617E+04  0.50400001928E-02 0.  1.
    10030    2    1    2    0    0  0.00000000000E+00  0.00000000000E+00 -0.21758524689E+04  0.31071188546E+04  0.22180743022E+04 0.  0.
        2    1    3    3  502    0  0.76717923872E+03 -0.31566805946E+03 -0.56869706125E+02  0.83153140143E+03  0.25500000920E-02 0. -1.
       -2    1    3    3    0  502 -0.76717923872E+03  0.31566805946E+03 -0.21189827628E+04  0.22755874532E+04  0.25500000920E-02 0.  1.
</event>
<event>
 5   0  0.1604500E-05  0.2314869E+04  0.7818609E-02  0.8472081E-01
        3   -1    0    0  501    0  0.00000000000E+00  0.00000000000E+00  0.81649376524E+03  0.81649377148E+03  0.10100000352E+00 0.  1.
       -3   -1    0    0    0  501  0.00000000000E+00  0.00000000000E+00 -0.16407408063E+04  0.16407408094E+04  0.10100000352E+00 0. -1.
    10030    2    1    2    0    0  0.00000000000E+00  0.00000000000E+00 -0.82424704108E+03  0.24572345809E+04  0.23148690246E+04 0.  0.
        3    1    3    3  502    0 -0.39585401794E+03  0.67881992446E+03 -0.13141851962E+04  0.15312020224E+04  0.10100000352E+00 0. -1.
       -3    1    3    3    0  502  0.39585401794E+03 -0.67881992446E+03  0.48993815510E+03  0.92603255850E+03  0.10100000352E+00 0.  1.
</event>
<event>
 5   0  0.2085063E-05  0.2301584E+04  0.7818609E-02  0.8477297E-01
        1   -1    0    0  501    0  0.00000000000E+00  0.00000000000E+00  0.11973760219E+04  0.11973760220E+04  0.50400001928E-02 0. -1.
       -1   -1    0    0    0  501  0.00000000000E+00  0.00000000000E+00 -0.11060199760E+04  0.11060199760E+04  0.50400001928E-02 0.  1.
    10030    2    1    2    0    0  0.00000000000E+00  0.00000000000E+00  0.91356045957E+02  0.23033959980E+04  0.23015836279E+04 0.  0.
        1    1    3    3  502    0 -0.32927608308E+03 -0.97180521733E+03  0.56713887543E+03  0.11723798972E+04  0.50400001928E-02 0. -1.
       -1    1    3    3    0  502  0.32927608308E+03  0.97180521733E+03 -0.47578282948E+03  0.11310161008E+04  0.50400001928E-02 0.  1.
</event>
<event>
 5   0  0.4798609E-05  0.2326705E+04  0.7818609E-02  0.8467465E-01
       -2   -1    0    0    0  501  0.00000000000E+00  0.00000000000E+00  0.11864315680E+04  0.11864315680E+04  0.25500000920E-02 0.  1.
        2   -1    0    0  501    0  0.00000000000E+00  0.00000000000E+00 -0.11407227702E+04  0.11407227702E+04  0.25500000920E-02 0. -1.
    10030    2    1    2    0    0  0.00000000000E+00  0.00000000000E+00  0.45708797780E+02  0.23271543382E+04  0.23267054002E+04 0.  0.
        2    1    3    3  502    0 -0.44690521637E+03 -0.32501216418E+03 -0.10010776303E+04  0.11434656100E+04  0.25500000920E-02 0. -1.
       -2    1    3    3    0  502  0.44690521637E+03  0.32501216418E+03  0.10467864281E+04  0.11836887282E+04  0.25500000920E-02 0.  1.
</event>
<event>
 5   0  0.4505107E-05  0.2296537E+04  0.7818609E-02  0.8479288E-01
       -2   -1    0    0    0  501  0.00000000000E+00  0.00000000000E+00  0.14745203960E+04  0.14745203960E+04  0.25500000920E-02 0. -1.
        2   -1    0    0  501    0  0.00000000000E+00  0.00000000000E+00 -0.89420309810E+03  0.89420309810E+03  0.25500000920E-02 0.  1.
    10030    2    1    2    0    0  0.00000000000E+00  0.00000000000E+00  0.58031729791E+03  0.23687234941E+04  0.22965371378E+04 0.  0.
        4    1    3    3  502    0  0.49922836889E+03 -0.32523182975E+03  0.13026002838E+04  0.14324014171E+04  0.12699999809E+01 0. -1.
       -4    1    3    3    0  502 -0.49922836889E+03  0.32523182975E+03 -0.72228298588E+03  0.93632207705E+03  0.12699999809E+01 0.  1.
</event>
<event>
 5   0  0.4605516E-05  0.2303380E+04  0.7818609E-02  0.8476589E-01
       -2   -1    0    0    0  501  0.00000000000E+00  0.00000000000E+00  0.97835881067E+03  0.97835881068E+03  0.25500000920E-02 0. -1.
        2   -1    0    0  501    0  0.00000000000E+00  0.00000000000E+00 -0.13557298938E+04  0.13557298938E+04  0.25500000920E-02 0.  1.
    10030    2    1    2    0    0  0.00000000000E+00  0.00000000000E+00 -0.37737108310E+03  0.23340887045E+04  0.23033803737E+04 0.  0.
        1    1    3    3  502    0  0.10788637149E+03 -0.99776972624E+03  0.38383026773E+03  0.10744810702E+04  0.50400001928E-02 0.  1.
       -1    1    3    3    0  502 -0.10788637149E+03  0.99776972624E+03 -0.76120135083E+03  0.12596076343E+04  0.50400001928E-02 0. -1.
</event>
<event>
 5   0  0.4605516E-05  0.2297910E+04  0.7818609E-02  0.8478745E-01
        2   -1    0    0  501    0  0.00000000000E+00  0.00000000000E+00  0.18226684018E+04  0.18226684018E+04  0.25500000920E-02 0.  1.
       -2   -1    0    0    0  501  0.00000000000E+00  0.00000000000E+00 -0.72426676396E+03  0.72426676397E+03  0.25500000920E-02 0. -1.
    10030    2    1    2    0    0  0.00000000000E+00  0.00000000000E+00  0.10984016378E+04  0.25469351657E+04  0.22979104814E+04 0.  0.
        1    1    3    3  502    0  0.58376315138E+03 -0.97905400058E+03  0.70894456270E+03  0.13423593207E+04  0.50400001928E-02 0.  1.
       -1    1    3    3    0  502 -0.58376315138E+03  0.97905400058E+03  0.38945707509E+03  0.12045758450E+04  0.50400001928E-02 0. -1.
</event>
<event>
 5   0  0.2042951E-05  0.1928415E+04  0.7818609E-02  0.8640840E-01
       -1   -1    0    0    0  501  0.00000000000E+00  0.00000000000E+00  0.10401404983E+04  0.10401404983E+04  0.50400001928E-02 0.  1.
        1   -1    0    0  501    0  0.00000000000E+00  0.00000000000E+00 -0.89381795798E+03  0.89381795800E+03  0.50400001928E-02 0. -1.
    10030    2    1    2    0    0  0.00000000000E+00  0.00000000000E+00  0.14632254031E+03  0.19339584563E+04  0.19284151589E+04 0.  0.
        2    1    3    3  502    0  0.81253533740E+03  0.41725914198E+03 -0.23655878018E+03  0.94354593030E+03  0.25500000920E-02 0. -1.
       -2    1    3    3    0  502 -0.81253533740E+03 -0.41725914198E+03  0.38288132049E+03  0.99041252601E+03  0.25500000920E-02 0.  1.
</event>
<event>
 5   0  0.1604500E-05  0.2237678E+04  0.7818609E-02  0.8502907E-01
       -4   -1    0    0    0  501  0.00000000000E+00  0.00000000000E+00  0.13169893415E+04  0.13169899538E+04  0.12699999809E+01 0. -1.
        4   -1    0    0  501    0  0.00000000000E+00  0.00000000000E+00 -0.95050093779E+03  0.95050178624E+03  0.12699999809E+01 0.  1.
    10030    2    1    2    0    0  0.00000000000E+00  0.00000000000E+00  0.36648840368E+03  0.22674917401E+04  0.22376784937E+04 0.  0.
        1    1    3    3  502    0 -0.60561836578E+03  0.39138433574E+03  0.10501219691E+04  0.12738569203E+04  0.50400001928E-02 0. -1.
       -1    1    3    3    0  502  0.60561836578E+03 -0.39138433574E+03 -0.68363356546E+03  0.99363481978E+03  0.50400001928E-02 0.  1.
</event>
<event>
 5   0  0.4605516E-05  0.2346603E+04  0.7818609E-02  0.8459770E-01
       -2   -1    0    0    0  501  0.00000000000E+00  0.00000000000E+00  0.11227119683E+04  0.11227119683E+04  0.25500000920E-02 0. -1.
        2   -1    0    0  501    0  0.00000000000E+00  0.00000000000E+00 -0.12261702188E+04  0.12261702188E+04  0.25500000920E-02 0.  1.
    10030    2    1    2    0    0  0.00000000000E+00  0.00000000000E+00 -0.10345825050E+03  0.23488821872E+04  0.23466026335E+04 0.  0.
        1    1    3    3  502    0 -0.57305354936E+03 -0.46589502651E+02  0.97204252230E+03  0.11293483153E+04  0.50400001928E-02 0. -1.
       -1    1    3    3    0  502  0.57305354936E+03  0.46589502651E+02 -0.10755007728E+04  0.12195338718E+04  0.50400001928E-02 0.  1.
</event>
<event>
 5   0  0.4436695E-05  0.2308874E+04  0.7818609E-02  0.8474431E-01
        2   -1    0    0  501    0  0.00000000000E+00  0.00000000000E+00  0.10068026936E+04  0.10068026936E+04  0.25500000920E-02 0. -1.
       -2   -1    0    0    0  501  0.00000000000E+00  0.00000000000E+00 -0.13237196810E+04  0.13237196810E+04  0.25500000920E-02 0.  1.
    10030    2    1    2    0    0  0.00000000000E+00  0.00000000000E+00 -0.31691698745E+03  0.23305223746E+04  0.23088737864E+04 0.  0.
        5    1    3    3  502    0 -0.57415930173E+03 -0.74965571728E+03 -0.82880885466E+03  0.12564190407E+04  0.46999998093E+01 0.  1.
       -5    1    3    3    0  502  0.57415930173E+03  0.74965571728E+03  0.51189186722E+03  0.10741033339E+04  0.46999998093E+01 0. -1.
</event>
<event>
 5   0  0.4505107E-05  0.2286661E+04  0.7818609E-02  0.8483199E-01
       -2   -1    0    0    0  501  0.00000000000E+00  0.00000000000E+00  0.80174445340E+03  0.80174445341E+03  0.25500000920E-02 0. -1.
        2   -1    0    0  501    0  0.00000000000E+00  0.00000000000E+00 -0.16304506996E+04  0.16304506996E+04  0.25500000920E-02 0.  1.
    10030    2    1    2    0    0  0.00000000000E+00  0.00000000000E+00 -0.82870624617E+03  0.24321951530E+04  0.22866611511E+04 0.  0.
        4    1    3    3  502    0 -0.60773215549E+03 -0.52822274274E+03  0.44899990142E+03  0.92193284091E+03  0.12699999809E+01 0. -1.
       -4    1    3    3    0  502  0.60773215549E+03  0.52822274274E+03 -0.12777061476E+04  0.15102623121E+04  0.12699999809E+01 0.  1.
</event>
<event>
 5   0  0.2085063E-05  0.2237174E+04  0.7818609E-02  0.8503113E-01
        1   -1    0    0  501    0  0.00000000000E+00  0.00000000000E+00  0.21306967209E+04  0.21306967209E+04  0.50400001928E-02 0. -1.
       -1   -1    0    0    0  501  0.00000000000E+00  0.00000000000E+00 -0.58724322949E+03  0.58724322952E+03  0.50400001928E-02 0.  1.
    10030    2    1    2    0    0  0.00000000000E+00  0.00000000000E+00  0.15434534914E+04  0.27179399504E+04  0.22371743101E+04 0.  0.
        1    1    3    3  502    0 -0.11000457979E+03 -0.16355832338E+03 -0.56597807262E+03  0.59931920663E+03  0.50400001928E-02 0.  1.
       -1    1    3    3    0  502  0.11000457979E+03  0.16355832338E+03  0.21094315640E+04  0.21186207438E+04  0.50400001928E-02 0. -1.
</event>
<event>
 5   0  0.4602447E-05  0.2306837E+04  0.7818609E-02  0.8475230E-01
       -2   -1    0    0    0  501  0.00000000000E+00  0.00000000000E+00  0.95659893072E+03  0.95659893072E+03  0.25500000920E-02 0.  1.
        2   -1    0    0  501    0  0.00000000000E+00  0.00000000000E+00 -0.13907339006E+04  0.13907339006E+04  0.25500000920E-02 0. -1.
    10030    2    1    2    0    0  0.00000000000E+00  0.00000000000E+00 -0.43413496984E+03  0.23473328313E+04  0.23068372827E+04 0.  0.
        3    1    3    3  502    0  0.68349061884E+03 -0.44473226778E+03 -0.10471253263E+04  0.13271841150E+04  0.10100000352E+00 0. -1.
       -3    1    3    3    0  502 -0.68349061884E+03  0.44473226778E+03  0.61299035641E+03  0.10201487163E+04  0.10100000352E+00 0.  1.
</event>
<event>
 5   0  0.4605516E-05  0.2158899E+04  0.7818609E-02  0.8535733E-01
        2   -1    0    0  501    0  0.00000000000E+00  0.00000000000E+00  0.13942079867E+04  0.13942079867E+04  0.25500000920E-02 0.  1.
       -2   -1    0    0    0  501  0.00000000000E+00  0.00000000000E+00 -0.83575142000E+03  0.83575142000E+03  0.25500000920E-02 0. -1.
    10030    2    1    2    0    0  0.00000000000E+00  0.00000000000E+00  0.55845656666E+03  0.22299594067E+04  0.21588990756E+04 0.  0.
        1    1    3    3  502    0  0.10663685755E+04 -0.16566777427E+03  0.25343528847E+03  0.11085202730E+04  0.50400001928E-02 0.  1.
       -1    1    3    3    0  502 -0.10663685755E+04  0.16566777427E+03  0.30502127819E+03  0.11214391336E+04  0.50400001928E-02 0. -1.
</event>
<event>
 5   0  0.2031860E-05  0.2287308E+04  0.7818609E-02  0.8482942E-01
        1   -1    0    0  501    0  0.00000000000E+00  0.00000000000E+00  0.17838117379E+04  0.17838117379E+04  0.50400001928E-02 0. -1.
       -1   -1    0    0    0  501  0.00000000000E+00  0.00000000000E+00 -0.73322986464E+03  0.73322986465E+03  0.50400001928E-02 0.  1.
    10030    2    1    2    0    0  0.00000000000E+00  0.00000000000E+00  0.10505818732E+04  0.25170416025E+04  0.22873076217E+04 0.  0.
        4    1    3    3  502    0 -0.71528214573E+03 -0.62849687612E+03  0.12224042908E+04  0.15494872488E+04  0.12699999809E+01 0.  1.
       -4    1    3    3    0  502  0.71528214573E+03  0.62849687612E+03 -0.17182241754E+03  0.96755435370E+03  0.12699999809E+01 0. -1.
</event>
<event>
 5   0  0.4602447E-05  0.2289156E+04  0.7818609E-02  0.8482209E-01
       -2   -1    0    0    0  501  0.00000000000E+00  0.00000000000E+00  0.40155299525E+03  0.40155299526E+03  0.25500000920E-02 0. -1.
        2   -1    0    0  501    0  0.00000000000E+00  0.00000000000E+00 -0.32624813471E+04  0.32624813471E+04  0.25500000920E-02 0.  1.
    10030    2    1    2    0    0  0.00000000000E+00  0.00000000000E+00 -0.28609283518E+04  0.36640343423E+04  0.22891563135E+04 0.  0.
        3    1    3    3  502    0  0.85066733243E+03 -0.44461288190E+03 -0.43249822408E+03  0.10527916457E+04  0.10100000352E+00 0. -1.
       -3    1    3    3    0  502 -0.85066733243E+03  0.44461288190E+03 -0.24284301277E+04  0.26112426966E+04  0.10100000352E+00 0.  1.
</event>
<event>
 5   0  0.4605516E-05  0.2285118E+04  0.7818609E-02  0.8483812E-01
       -2   -1    0    0    0  501  0.00000000000E+00  0.00000000000E+00  0.94479812978E+03  0.94479812978E+03  0.25500000920E-02 0.  1.
        2   -1    0    0  501    0  0.00000000000E+00  0.00000000000E+00 -0.13817139655E+04  0.13817139655E+04  0.25500000920E-02 0. -1.
    10030    2    1    2    0    0  0.00000000000E+00  0.00000000000E+00 -0.43691583574E+03  0.23265120953E+04  0.22851177392E+04 0.  0.
        1    1    3    3  502    0 -0.28892642650E+03 -0.83482534727E+03 -0.95617246974E+03  0.13017978462E+04  0.50400001928E-02 0. -1.
       -1    1    3    3    0  502  0.28892642650E+03  0.83482534727E+03  0.51925663400E+03  0.10247142491E+04  0.50400001928E-02 0.  1.
</event>
<event>
 5   0  0.2042951E-05  0.2328463E+04  0.7818609E-02  0.8466782E-01
       -1   -1    0    0    0  501  0.00000000000E+00  0.00000000000E+00  0.16656440272E+04  0.16656440272E+04  0.50400001928E-02 0.  1.
        1   -1    0    0  501    0  0.00000000000E+00  0.00000000000E+00 -0.81376035569E+03  0.81376035570E+03  0.50400001928E-02 0. -1.
    10030    2    1    2    0    0  0.00000000000E+00  0.00000000000E+00  0.85188367151E+03  0.24794043829E+04  0.23284630777E+04 0.  0.
        2    1    3    3  502    0 -0.42776979819E+02  0.15566388471E+03 -0.80178455889E+03  0.81787504785E+03  0.25500000920E-02 0. -1.
       -2    1    3    3    0  502  0.42776979819E+02 -0.15566388471E+03  0.16536682304E+04  0.16615293351E+04  0.25500000920E-02 0.  1.
</event>
<event>
 5   0  0.4436695E-05  0.2474863E+04  0.7818609E-02  0.8411996E-01
       -2   -1    0    0    0  501  0.00000000000E+00  0.00000000000E+00  0.12509230979E+04  0.12509230979E+04  0.25500000920E-02 0.  1.
        2   -1    0    0  501    0  0.00000000000E+00  0.00000000000E+00 -0.12240851300E+04  0.12240851300E+04  0.25500000920E-02 0. -1.
    10030    2    1    2    0    0  0.00000000000E+00  0.00000000000E+00  0.26837967955E+02  0.24750082279E+04  0.24748627137E+04 0.  0.
        5    1    3    3  502    0  0.80304188063E+02  0.12186921717E+04 -0.18547684947E+03  0.12353473696E+04  0.46999998093E+01 0. -1.
       -5    1    3    3    0  502 -0.80304188063E+02 -0.12186921717E+04  0.21231481742E+03  0.12396608583E+04  0.46999998093E+01 0.  1.
</event>
<event>
 5   0  0.2085063E-05  0.2311937E+04  0.7818609E-02  0.8473229E-01
        1   -1    0    0  501    0  0.00000000000E+00  0.00000000000E+00  0.10488023540E+04  0.10488023540E+04  0.50400001928E-02 0. -1.
       -1   -1    0    0    0  501  0.00000000000E+00  0.00000000000E+00 -0.12740845652E+04  0.12740845652E+04  0.50400001928E-02 0.  1.
    10030    2    1    2    0    0  0.00000000000E+00  0.00000000000E+00 -0.22528221116E+03  0.23228869192E+04  0.23119367562E+04 0.  0.
        1    1    3    3  502    0 -0.33089824490E+03 -0.54151107626E+03 -0.10834135059E+04  0.12555925768E+04  0.50400001928E-02 0.  1.
       -1    1    3    3    0  502  0.33089824490E+03  0.54151107626E+03  0.85813129475E+03  0.10672943424E+04  0.50400001928E-02 0. -1.
</event>
<event>
 5   0  0.4605516E-05  0.2317646E+04  0.7818609E-02  0.8470996E-01
       -2   -1    0    0    0  501  0.00000000000E+00  0.00000000000E+00  0.72839726415E+03  0.72839726415E+03  0.25500000920E-02 0. -1.
        2   -1    0    0  501    0  0.00000000000E+00  0.00000000000E+00 -0.18435966159E+04  0.18435966159E+04  0.25500000920E-02 0.  1.
    10030    2    1    2    0    0  0.00000000000E+00  0.00000000000E+00 -0.11151993517E+04  0.25719938800E+04  0.23176459878E+04 0.  0.
        1    1    3    3  502    0 -0.15381283152E+02  0.94874339109E+03 -0.12958256888E+04  0.16060868039E+04  0.50400001928E-02 0.  1.
       -1    1    3    3    0  502  0.15381283152E+02 -0.94874339109E+03  0.18062633705E+03  0.96590707611E+03  0.50400001928E-02 0. -1.
</event>
<event>
 5   0  0.4798609E-05  0.2299872E+04  0.7818609E-02  0.8477972E-01
        2   -1    0    0  501    0  0.00000000000E+00  0.00000000000E+00  0.20522342762E+04  0.20522342762E+04  0.25500000920E-02 0. -1.
       -2   -1    0    0    0  501  0.00000000000E+00  0.00000000000E+00 -0.64434769107E+03  0.64434769108E+03  0.25500000920E-02 0.  1.
    10030    2    1    2    0    0  0.00000000000E+00  0.00000000000E+00  0.14078865851E+04  0.26965819673E+04  0.22998716637E+04 0.  0.
        2    1    3    3  502    0 -0.11373612065E+04 -0.94178573495E+02  0.86931169052E+03  0.14346298941E+04  0.25500000920E-02 0.  1.
       -2    1    3    3    0  502  0.11373612065E+04  0.94178573495E+02  0.53857489459E+03  0.12619520731E+04  0.25500000920E-02 0. -1.
</event>
<event>
 5   0  0.2043885E-05  0.2304443E+04  0.7818609E-02  0.8476171E-01
        1   -1    0    0  501    0  0.00000000000E+00  0.00000000000E+00  0.14561994214E+04  0.14561994214E+04  0.50400001928E-02 0. -1.
       -1   -1    0    0    0  501  0.00000000000E+00  0.00000000000E+00 -0.91169852752E+03  0.91169852753E+03  0.50400001928E-02 0.  1.
    10030    2    1    2    0    0  0.00000000000E+00  0.00000000000E+00  0.54450089390E+03  0.23678979490E+04  0.23044434194E+04 0.  0.
        5    1    3    3  502    0 -0.38555223424E+03  0.10270479220E+04  0.63425059714E+03  0.12671913310E+04  0.46999998093E+01 0. -1.
       -5    1    3    3    0  502  0.38555223424E+03 -0.10270479220E+04 -0.89749703240E+02  0.11007066179E+04  0.46999998093E+01 0.  1.
</event>
<event>
 5   0  0.1968318E-05  0.2294290E+04  0.7818609E-02  0.8480176E-01
        1   -1    0    0  501    0  0.00000000000E+00  0.00000000000E+00  0.18050497654E+04  0.18050497654E+04  0.50400001928E-02 0. -1.
       -1   -1    0    0    0  501  0.00000000000E+00  0.00000000000E+00 -0.72903363690E+03  0.72903363692E+03  0.50400001928E-02 0.  1.
    10030    2    1    2    0    0  0.00000000000E+00  0.00000000000E+00  0.10760161285E+04  0.25340834023E+04  0.22942903001E+04 0.  0.
        3    1    3    3  502    0  0.69066701173E+03  0.88291700900E+03  0.80715384900E+03  0.13813257082E+04  0.10100000352E+00 0.  1.
       -3    1    3    3    0  502 -0.69066701173E+03 -0.88291700900E+03  0.26886227948E+03  0.11527576941E+04  0.10100000352E+00 0. -1.
</event>
<event>
 5   0  0.4602447E-05  0.2294735E+04  0.7818609E-02  0.8480000E-01
        2   -1    0    0  501    0  0.00000000000E+00  0.00000000000E+00  0.85033325231E+03  0.85033325231E+03  0.25500000920E-02 0. -1.
       -2   -1    0    0    0  501  0.00000000000E+00  0.00000000000E+00 -0.15481600767E+04  0.15481600767E+04  0.25500000920E-02 0.  1.
    10030    2    1    2    0    0  0.00000000000E+00  0.00000000000E+00 -0.69782682443E+03  0.23984933290E+04  0.22947348371E+04 0.  0.
        3    1    3    3  502    0 -0.19025802894E+03  0.10724048734E+04 -0.72606353630E+03  0.13089761644E+04  0.10100000352E+00 0.  1.
       -3    1    3    3    0  502  0.19025802894E+03 -0.10724048734E+04  0.28236711866E+02  0.10895171647E+04  0.10100000352E+00 0. -1.
</event>
<event>
 5   0  0.4436695E-05  0.2284431E+04  0.7818609E-02  0.8484085E-01
       -2   -1    0    0    0  501  0.00000000000E+00  0.00000000000E+00  0.12283403122E+04  0.12283403122E+04  0.25500000920E-02 0.  1.
        2   -1    0    0  501    0  0.00000000000E+00  0.00000000000E+00 -0.10621289674E+04  0.10621289674E+04  0.25500000920E-02 0. -1.
    10030    2    1    2    0    0  0.00000000000E+00  0.00000000000E+00  0.16621134488E+03  0.22904692796E+04  0.22844306314E+04 0.  0.
        5    1    3    3  502    0 -0.48627179810E+02 -0.91803528400E+03 -0.59653595162E+03  0.10959154241E+04  0.46999998093E+01 0. -1.
       -5    1    3    3    0  502  0.48627179810E+02  0.91803528400E+03  0.76274729650E+03  0.11945538555E+04  0.46999998093E+01 0.  1.
</event>
<event>
 5   0  0.2043885E-05  0.2292955E+04  0.7818609E-02  0.8480704E-01
       -1   -1    0    0    0  501  0.00000000000E+00  0.00000000000E+00  0.55010673442E+03  0.55010673445E+03  0.50400001928E-02 0.  1.
        1   -1    0    0  501    0  0.00000000000E+00  0.00000000000E+00 -0.23893748121E+04  0.23893748122E+04  0.50400001928E-02 0. -1.
    10030    2    1    2    0    0  0.00000000000E+00  0.00000000000E+00 -0.18392680777E+04  0.29394815466E+04  0.22929554512E+04 0.  0.
        5    1    3    3  502    0  0.30653531217E+03  0.29993560121E+03  0.44338981175E+03  0.61688076453E+03  0.46999998093E+01 0.  1.
       -5    1    3    3    0  502 -0.30653531217E+03 -0.29993560121E+03 -0.22826578895E+04  0.23226007821E+04  0.46999998093E+01 0. -1.
</event>
<event>
 5   0  0.4605516E-05  0.2297279E+04  0.7818609E-02  0.8478995E-01
       -2   -1    0    0    0  501  0.00000000000E+00  0.00000000000E+00  0.64605586930E+03  0.64605586930E+03  0.25500000920E-02 0.  1.
        2   -1    0    0  501    0  0.00000000000E+00  0.00000000000E+00 -0.20421965339E+04  0.20421965339E+04  0.25500000920E-02 0. -1.
    10030    2    1    2    0    0  0.00000000000E+00  0.00000000000E+00 -0.13961406646E+04  0.26882524032E+04  0.22972793099E+04 0.  0.
        1    1    3    3  502    0  0.16312848020E+03  0.44378458915E+03  0.52689933958E+03  0.70793967024E+03  0.50400001928E-02 0.  1.
       -1    1    3    3    0  502 -0.16312848020E+03 -0.44378458915E+03 -0.19230400041E+04  0.19803127329E+04  0.50400001928E-02 0. -1.
</event>
<event>
 5   0  0.2085063E-05  0.2280377E+04  0.7818609E-02  0.8485698E-01
        1   -1    0    0  501    0  0.00000000000E+00  0.00000000000E+00  0.10718912311E+04  0.10718912311E+04  0.50400001928E-02 0.  1.
       -1   -1    0    0    0  501  0.00000000000E+00  0.00000000000E+00 -0.12128377103E+04  0.12128377103E+04  0.50400001928E-02 0. -1.
    10030    2    1    2    0    0  0.00000000000E+00  0.00000000000E+00 -0.14094647917E+03  0.22847289414E+04  0.22803772551E+04 0.  0.
        1    1    3    3  502    0  0.83929870014E+03 -0.74043390652E+03  0.14757807900E+03  0.11289127368E+04  0.50400001928E-02 0. -1.
       -1    1    3    3    0  502 -0.83929870014E+03  0.74043390652E+03 -0.28852455817E+03  0.11558162045E+04  0.50400001928E-02 0.  1.
</event>
<event>
 5   0  0.4602447E-05  0.2303304E+04  0.7818609E-02  0.8476620E-01
       -2   -1    0    0    0  501  0.00000000000E+00  0.00000000000E+00  0.79446679453E+03  0.79446679453E+03  0.25500000920E-02 0. -1.
        2   -1    0    0  501    0  0.00000000000E+00  0.00000000000E+00 -0.16694244966E+04  0.16694244966E+04  0.25500000920E-02 0.  1.
    10030    2    1    2    0    0  0.00000000000E+00  0.00000000000E+00 -0.87495770206E+03  0.24638912911E+04  0.23033039995E+04 0.  0.
        3    1    3    3  502    0  0.68330872087E+03 -0.49235414469E+03  0.40276518586E+03  0.93356478991E+03  0.10100000352E+00 0. -1.
       -3    1    3    3    0  502 -0.68330872087E+03  0.49235414469E+03 -0.12777228879E+04  0.15303265012E+04  0.10100000352E+00 0.  1.
</event>
<event>
 5   0  0.4505107E-05  0.2281280E+04  0.7818609E-02  0.8485339E-01
       -2   -1    0    0    0  501  0.00000000000E+00  0.00000000000E+00  0.99104151328E+03  0.99104151328E+03  0.25500000920E-02 0. -1.
        2   -1    0    0  501    0  0.00000000000E+00  0.00000000000E+00 -0.13128206678E+04  0.13128206678E+04  0.25500000920E-02 0.  1.
    10030    2    1    2    0    0  0.00000000000E+00  0.00000000000E+00 -0.32177915453E+03  0.23038621811E+04  0.22812801505E+04 0.  0.
        4    1    3    3  502    0 -0.57278977180E+02 -0.56601857193E+03 -0.11593114803E+04  0.12913801246E+04  0.12699999809E+01 0.  1.
       -4    1    3    3    0  502  0.57278977180E+02  0.56601857193E+03  0.83753232579E+03  0.10124820565E+04  0.12699999809E+01 0. -1.
</event>
<event>
 5   0  0.4798609E-05  0.2316422E+04  0.7818609E-02  0.8471474E-01
       -2   -1    0    0    0  501  0.00000000000E+00  0.00000000000E+00  0.58984756055E+03  0.58984756055E+03  0.25500000920E-02 0. -1.
        2   -1    0    0  501    0  0.00000000000E+00  0.00000000000E+00 -0.22742358554E+04  0.22742358554E+04  0.25500000920E-02 0.  1.
    10030    2    1    2    0    0  0.00000000000E+00  0.00000000000E+00 -0.16843882949E+04  0.28640834160E+04  0.23164217849E+04 0.  0.
        2    1    3    3  502    0 -0.35982241448E+03 -0.10309980686E+04 -0.13194981615E+04  0.17127476713E+04  0.25500000920E-02 0.  1.
       -2    1    3    3    0  502  0.35982241448E+03  0.10309980686E+04 -0.36489013339E+03  0.11513357447E+04  0.25500000920E-02 0. -1.
</event>
<event>
 5   0  0.4505107E-05  0.2313571E+04  0.7818609E-02  0.8472589E-01
        2   -1    0    0  501    0  0.00000000000E+00  0.00000000000E+00  0.11108711790E+04  0.11108711790E+04  0.25500000920E-02 0.  1.
       -2   -1    0    0    0  501  0.00000000000E+00  0.00000000000E+00 -0.12045977371E+04  0.12045977371E+04  0.25500000920E-02 0. -1.
    10030    2    1    2    0    0  0.00000000000E+00  0.00000000000E+00 -0.93726558147E+02  0.23154689161E+04  0.23135711862E+04 0.  0.
        4    1    3    3  502    0  0.95800547064E+03 -0.16570314198E+03  0.58048362559E+03  0.11323404371E+04  0.12699999809E+01 0. -1.
       -4    1    3    3    0  502 -0.95800547064E+03  0.16570314198E+03 -0.67421018374E+03  0.11831284790E+04  0.12699999809E+01 0.  1.
</event>
<event>
 5   0  0.4605516E-05  0.2305604E+04  0.7818609E-02  0.8475715E-01
       -2   -1    0    0    0  501  0.00000000000E+00  0.00000000000E+00  0.12361501499E+04  0.12361501499E+04  0.25500000920E-02 0.  1.
        2   -1    0    0  501    0  0.00000000000E+00  0.00000000000E+00 -0.10750733716E+04  0.10750733716E+04  0.25500000920E-02 0. -1.
    10030    2    1    2    0    0  0.00000000000E+00  0.00000000000E+00  0.16107677828E+03  0.23112235215E+04  0.23056037035E+04 0.  0.
        1    1    3    3  502    0  0.79287802114E+03  0.18209591800E+03  0.89931420489E+03  0.12126749436E+04  0.50400001928E-02 0.  1.
       -1    1    3    3    0  502 -0.79287802114E+03 -0.18209591800E+03 -0.73823742661E+03  0.10985485778E+04  0.50400001928E-02 0. -1.
</event>
<event>
 5   0  0.2043885E-05  0.2144947E+04  0.7818609E-02  0.8541698E-01
       -1   -1    0    0    0  501  0.00000000000E+00  0.00000000000E+00  0.13042865393E+04  0.13042865393E+04  0.50400001928E-02 0.  1.
        1   -1    0    0  501    0  0.00000000000E+00  0.00000000000E+00 -0.88186058932E+03  0.88186058934E+03  0.50400001928E-02 0. -1.
    10030    2    1    2    0    0  0.00000000000E+00  0.00000000000E+00  0.42242594997E+03  0.21861471286E+04  0.21449465226E+04 0.  0.
        5    1    3    3  502    0 -0.81994422569E+03 -0.65019406345E+03  0.45049031811E+03  0.11393087686E+04  0.46999998093E+01 0.  1.
       -5    1    3    3    0  502  0.81994422569E+03  0.65019406345E+03 -0.28064368139E+02  0.10468383601E+04  0.46999998093E+01 0. -1.
</event>
<event>
 5   0  0.2085063E-05  0.2276322E+04  0.7818609E-02  0.8487316E-01
        1   -1    0    0  501    0  0.00000000000E+00  0.00000000000E+00  0.80496642741E+03  0.80496642742E+03  0.50400001928E-02 0.  1.
       -1   -1    0    0    0  501  0.00000000000E+00  0.00000000000E+00 -0.16092727943E+04  0.16092727943E+04  0.50400001928E-02 0. -1.
    10030    2    1    2    0    0  0.00000000000E+00  0.00000000000E+00 -0.80430636689E+03  0.24142392217E+04  0.22763220967E+04 0.  0.
        1    1    3    3  502    0  0.72485236527E+03  0.23202658188E+03  0.49538433861E+03  0.90810402989E+03  0.50400001928E-02 0.  1.
       -1    1    3    3    0  502 -0.72485236527E+03 -0.23202658188E+03 -0.12996907055E+04  0.15061351918E+04  0.50400001928E-02 0. -1.
</event>
<event>
 5   0  0.4605516E-05  0.2290158E+04  0.7818609E-02  0.8481812E-01
        2   -1    0    0  501    0  0.00000000000E+00  0.00000000000E+00  0.13600317688E+04  0.13600317688E+04  0.25500000920E-02 0. -1.
       -2   -1    0    0    0  501  0.00000000000E+00  0.00000000000E+00 -0.96409945703E+03  0.96409945703E+03  0.25500000920E-02 0.  1.
    10030    2    1    2    0    0  0.00000000000E+00  0.00000000000E+00  0.39593231173E+03  0.23241312258E+04  0.22901579769E+04 0.  0.
        1    1    3    3  502    0 -0.75098758724E+03 -0.51545526789E+03  0.90218332419E+03  0.12820340245E+04  0.50400001928E-02 0. -1.
       -1    1    3    3    0  502  0.75098758724E+03  0.51545526789E+03 -0.50625101246E+03  0.10420972013E+04  0.50400001928E-02 0.  1.
</event>
<event>
 5   0  0.2042951E-05  0.2297268E+04  0.7818609E-02  0.8478999E-01
       -1   -1    0    0    0  501  0.00000000000E+00  0.00000000000E+00  0.13447114996E+04  0.13447114997E+04  0.50400001928E-02 0.  1.
        1   -1    0    0  501    0  0.00000000000E+00  0.00000000000E+00 -0.98114757104E+03  0.98114757105E+03  0.50400001928E-02 0. -1.
    10030    2    1    2    0    0  0.00000000000E+00  0.00000000000E+00  0.36356392861E+03  0.23258590707E+04  0.22972683097E+04 0.  0.
        2    1    3    3  502    0 -0.88736078004E+03  0.66058595575E+03 -0.13122170107E+03  0.11140027351E+04  0.25500000920E-02 0.  1.
       -2    1    3    3    0  502  0.88736078004E+03 -0.66058595575E+03  0.49478562967E+03  0.12118563356E+04  0.25500000920E-02 0. -1.
</event>
<event>
 5   0  0.1968318E-05  0.2308353E+04  0.7818609E-02  0.8474635E-01
       -1   -1    0    0    0  501  0.00000000000E+00  0.00000000000E+00  0.69230920408E+03  0.69230920410E+03  0.50400001928E-02 0.  1.
        1   -1    0    0  501    0  0.00000000000E+00  0.00000000000E+00 -0.19241746298E+04  0.19241746298E+04  0.50400001928E-02 0. -1.
    10030    2    1    2    0    0  0.00000000000E+00  0.00000000000E+00 -0.12318654257E+04  0.26164838339E+04  0.23083533581E+04 0.  0.
        3    1    3    3  502    0 -0.16047124629E+03 -0.72625565096E+03 -0.16163097804E+04  0.17792289363E+04  0.10100000352E+00 0. -1.
       -3    1    3    3    0  502  0.16047124629E+03  0.72625565096E+03  0.38444435470E+03  0.83725489756E+03  0.10100000352E+00 0.  1.
</event>
<event>
 5   0  0.2031860E-05  0.2169058E+04  0.7818609E-02  0.8531418E-01
       -1   -1    0    0    0  501  0.00000000000E+00  0.00000000000E+00  0.88069528113E+03  0.88069528114E+03  0.50400001928E-02 0.  1.
        1   -1    0    0  501    0  0.00000000000E+00  0.00000000000E+00 -0.13355390697E+04  0.13355390697E+04  0.50400001928E-02 0. -1.
    10030    2    1    2    0    0  0.00000000000E+00  0.00000000000E+00 -0.45484378860E+03  0.22162343509E+04  0.21690578199E+04 0.  0.
        4    1    3    3  502    0  0.61943576470E+03 -0.23051155095E+03  0.65114336665E+03  0.92780684334E+03  0.12699999809E+01 0.  1.
       -4    1    3    3    0  502 -0.61943576470E+03  0.23051155095E+03 -0.11059871552E+04  0.12884275075E+04  0.12699999809E+01 0. -1.
</event>
<event>
 5   0  0.4605516E-05  0.2304205E+04  0.7818609E-02  0.8476265E-01
        2   -1    0    0  501    0  0.00000000000E+00  0.00000000000E+00  0.16720118424E+04  0.16720118424E+04  0.25500000920E-02 0. -1.
       -2   -1    0    0    0  501  0.00000000000E+00  0.00000000000E+00 -0.79385805391E+03  0.79385805391E+03  0.25500000920E-02 0.  1.
    10030    2    1    2    0    0  0.00000000000E+00  0.00000000000E+00  0.87815378849E+03  0.24658698963E+04  0.23042049104E+04 0.  0.
        1    1    3    3  502    0 -0.23010101093E+03  0.97760009213E+02 -0.76447901148E+03  0.80432061621E+03  0.50400001928E-02 0.  1.
       -1    1    3    3    0  502  0.23010101093E+03 -0.97760009213E+02  0.16426328000E+04  0.16615492801E+04  0.50400001928E-02 0. -1.
</event>
<event>
 5   0  0.2042951E-05  0.2300749E+04  0.7818609E-02  0.8477626E-01
       -1   -1    0    0    0  501  0.00000000000E+00  0.00000000000E+00  0.98294131992E+03  0.98294131993E+03  0.50400001928E-02 0. -1.
        1   -1    0    0  501    0  0.00000000000E+00  0.00000000000E+00 -0.13463283962E+04  0.13463283962E+04  0.50400001928E-02 0.  1.
    10030    2    1    2    0    0  0.00000000000E+00  0.00000000000E+00 -0.36338707626E+03  0.23292697161E+04  0.23007492787E+04 0.  0.
        2    1    3    3  502    0  0.23867701804E+03  0.11101523113E+04  0.48648342177E+01  0.11355300700E+04  0.25500000920E-02 0. -1.
       -2    1    3    3    0  502 -0.23867701804E+03 -0.11101523113E+04 -0.36825191048E+03  0.11937396461E+04  0.25500000920E-02 0.  1.
</event>
<event>
 5   0  0.2043885E-05  0.2283499E+04  0.7818609E-02  0.8484456E-01
        1   -1    0    0  501    0  0.00000000000E+00  0.00000000000E+00  0.15949932134E+04  0.15949932134E+04  0.50400001928E-02 0.  1.
       -1   -1    0    0    0  501  0.00000000000E+00  0.00000000000E+00 -0.81730229020E+03  0.81730229021E+03  0.50400001928E-02 0. -1.
    10030    2    1    2    0    0  0.00000000000E+00  0.00000000000E+00  0.77769092315E+03  0.24122955036E+04  0.22834987245E+04 0.  0.
        5    1    3    3  502    0 -0.87451474652E+02  0.59715057266E+03 -0.63501202966E+03  0.87607016537E+03  0.46999998093E+01 0. -1.
       -5    1    3    3    0  502  0.87451474652E+02 -0.59715057266E+03  0.14127029528E+04  0.15362253382E+04  0.46999998093E+01 0.  1.
</event>
<event>
 5   0  0.2043885E-05  0.2198525E+04  0.7818609E-02  0.8519042E-01
       -1   -1    0    0    0  501  0.00000000000E+00  0.00000000000E+00  0.63421035630E+03  0.63421035632E+03  0.50400001928E-02 0.  1.
        1   -1    0    0  501    0  0.00000000000E+00  0.00000000000E+00 -0.19053270610E+04  0.19053270611E+04  0.50400001928E-02 0. -1.
    10030    2    1    2    0    0  0.00000000000E+00  0.00000000000E+00 -0.12711167047E+04  0.25395374174E+04  0.21985251004E+04 0.  0.
        5    1    3    3  502    0 -0.78448293287E+03  0.30962479465E+03  0.17883493029E+03  0.86213978433E+03  0.46999998093E+01 0.  1.
       -5    1    3    3    0  502  0.78448293287E+03 -0.30962479465E+03 -0.14499516350E+04  0.16773976330E+04  0.46999998093E+01 0. -1.
</event>
<event>
 5   0  0.4605516E-05  0.2364236E+04  0.7818609E-02  0.8453016E-01
       -2   -1    0    0    0  501  0.00000000000E+00  0.00000000000E+00  0.55830518932E+03  0.55830518933E+03  0.25500000920E-02 0.  1.
        2   -1    0    0  501    0  0.00000000000E+00  0.00000000000E+00 -0.25029377948E+04  0.25029377948E+04  0.25500000920E-02 0. -1.
    10030    2    1    2    0    0  0.00000000000E+00  0.00000000000E+00 -0.19446326055E+04  0.30612429841E+04  0.23642361637E+04 0.  0.
        1    1    3    3  502    0 -0.10034057203E+04  0.24579407779E+03 -0.17163159342E+04  0.20032419111E+04  0.50400001928E-02 0. -1.
       -1    1    3    3    0  502  0.10034057203E+04 -0.24579407779E+03 -0.22831667122E+03  0.10580010730E+04  0.50400001928E-02 0.  1.
</event>
<event>
 5   0  0.2043885E-05  0.2291013E+04  0.7818609E-02  0.8481473E-01
        1   -1    0    0  501    0  0.00000000000E+00  0.00000000000E+00  0.11528409492E+04  0.11528409493E+04  0.50400001928E-02 0. -1.
       -1   -1    0    0    0  501  0.00000000000E+00  0.00000000000E+00 -0.11382191718E+04  0.11382191718E+04  0.50400001928E-02 0.  1.
    10030    2    1    2    0    0  0.00000000000E+00  0.00000000000E+00  0.14621777425E+02  0.22910601211E+04  0.22910134618E+04 0.  0.
        5    1    3    3  502    0 -0.82082183006E+03 -0.79895963213E+03 -0.15555228997E+01  0.11454734742E+04  0.46999998093E+01 0. -1.
       -5    1    3    3    0  502  0.82082183006E+03  0.79895963213E+03  0.16177300325E+02  0.11455866469E+04  0.46999998093E+01 0.  1.
</event>
<event>
 5   0  0.4798609E-05  0.2294281E+04  0.7818609E-02  0.8480179E-01
       -2   -1    0    0    0  501  0.00000000000E+00  0.00000000000E+00  0.67833276594E+03  0.67833276595E+03  0.25500000920E-02 0. -1.
        2   -1    0    0  501    0  0.00000000000E+00  0.00000000000E+00 -0.19399499700E+04  0.19399499700E+04  0.25500000920E-02 0.  1.
    10030    2    1    2    0    0  0.00000000000E+00  0.00000000000E+00 -0.12616172040E+04  0.26182827359E+04  0.22942812634E+04 0.  0.
        2    1    3    3  502    0  0.63045373092E+03 -0.84604358189E+03 -0.11445736976E+04  0.15566986216E+04  0.25500000920E-02 0.  1.
       -2    1    3    3    0  502 -0.63045373092E+03  0.84604358189E+03 -0.11704350639E+03  0.10615841143E+04  0.25500000920E-02 0. -1.
</event>
<event>
 5   0  0.2042951E-05  0.2270255E+04  0.7818609E-02  0.8489742E-01
        1   -1    0    0  501    0  0.00000000000E+00  0.00000000000E+00  0.73305289322E+03  0.73305289323E+03  0.50400001928E-02 0.  1.
       -1   -1    0    0    0  501  0.00000000000E+00  0.00000000000E+00 -0.17577379859E+04  0.17577379859E+04  0.50400001928E-02 0. -1.
    10030    2    1    2    0    0  0.00000000000E+00  0.00000000000E+00 -0.10246850926E+04  0.24907908791E+04  0.22702554183E+04 0.  0.
        2    1    3    3  502    0 -0.52481006573E+03 -0.53618394853E+02 -0.16150728736E+04  0.16990470636E+04  0.25500000920E-02 0. -1.
       -2    1    3    3    0  502  0.52481006573E+03  0.53618394853E+02  0.59038778099E+03  0.79174381545E+03  0.25500000920E-02 0.  1.
</event>
<event>
 5   0  0.4436695E-05  0.2346541E+04  0.7818609E-02  0.8459794E-01
       -2   -1    0    0    0  501  0.00000000000E+00  0.00000000000E+00  0.11473236287E+04  0.11473236287E+04  0.25500000920E-02 0. -1.
        2   -1    0    0  501    0  0.00000000000E+00  0.00000000000E+00 -0.11998039056E+04  0.11998039056E+04  0.25500000920E-02 0.  1.
    10030    2    1    2    0    0  0.00000000000E+00  0.00000000000E+00 -0.52480276940E+02  0.23471275344E+04  0.23465407482E+04 0.  0.
        5    1    3    3  502    0 -0.72807309869E+03 -0.73876612001E+02  0.89104593864E+03  0.11530538347E+04  0.46999998093E+01 0. -1.
       -5    1    3    3    0  502  0.72807309869E+03  0.73876612001E+02 -0.94352621558E+03  0.11940736997E+04  0.46999998093E+01 0.  1.
</event>
<event>
 5   0  0.4505107E-05  0.2301777E+04  0.7818609E-02  0.8477221E-01
        2   -1    0    0  501    0  0.00000000000E+00  0.00000000000E+00  0.94138136516E+03  0.94138136516E+03  0.25500000920E-02 0.  1.
       -2   -1    0    0    0  501  0.00000000000E+00  0.00000000000E+00 -0.14070225959E+04  0.14070225959E+04  0.25500000920E-02 0. -1.
    10030    2    1    2    0    0  0.00000000000E+00  0.00000000000E+00 -0.46564123070E+03  0.23484039610E+04  0.23017774455E+04 0.  0.
        4    1    3    3  502    0  0.34407942149E+03 -0.25176859770E+03  0.85783583070E+03  0.95794676283E+03  0.12699999809E+01 0.  1.
       -4    1    3    3    0  502 -0.34407942149E+03  0.25176859770E+03 -0.13234770614E+04  0.13904571982E+04  0.12699999809E+01 0. -1.
</event>
<event>
 5   0  0.4505107E-05  0.2298584E+04  0.7818609E-02  0.8478480E-01
       -2   -1    0    0    0  501  0.00000000000E+00  0.00000000000E+00  0.59103425951E+03  0.59103425952E+03  0.25500000920E-02 0.  1.
        2   -1    0    0  501    0  0.00000000000E+00  0.00000000000E+00 -0.22348478604E+04  0.22348478604E+04  0.25500000920E-02 0. -1.
    10030    2    1    2    0    0  0.00000000000E+00  0.00000000000E+00 -0.16438136009E+04  0.28258821200E+04  0.22985836076E+04 0.  0.
        4    1    3    3  502    0 -0.84164043341E+03 -0.80785351758E+01  0.14020976606E+03  0.85327854378E+03  0.12699999809E+01 0.  1.
       -4    1    3    3    0  502  0.84164043341E+03  0.80785351758E+01 -0.17840233670E+04  0.19726035762E+04  0.12699999809E+01 0. -1.
</event>
<event>
 5   0  0.2043885E-05  0.2040813E+04  0.7818609E-02  0.8587773E-01
       -1   -1    0    0    0  501  0.00000000000E+00  0.00000000000E+00  0.82539452122E+03  0.82539452123E+03  0.50400001928E-02 0. -1.
        1   -1    0    0  501    0  0.00000000000E+00  0.00000000000E+00 -0.12614931945E+04  0.12614931945E+04  0.50400001928E-02 0.  1.
    10030    2    1    2    0    0  0.00000000000E+00  0.00000000000E+00 -0.43609867326E+03  0.20868877157E+04  0.20408131431E+04 0.  0.
        5    1    3    3  502    0 -0.54712059424E+01  0.81983598158E+03  0.40315773609E+03  0.91362969575E+03  0.46999998093E+01 0.  1.
       -5    1    3    3    0  502  0.54712059424E+01 -0.81983598158E+03 -0.83925640935E+03  0.11732580200E+04  0.46999998093E+01 0. -1.
</event>
<event>
 5   0  0.1604500E-05  0.2292777E+04  0.7818609E-02  0.8480774E-01
        3   -1    0    0  501    0  0.00000000000E+00  0.00000000000E+00  0.17984605426E+04  0.17984605454E+04  0.10100000352E+00 0. -1.
       -3   -1    0    0    0  501  0.00000000000E+00  0.00000000000E+00 -0.73073986632E+03  0.73073987330E+03  0.10100000352E+00 0.  1.
    10030    2    1    2    0    0  0.00000000000E+00  0.00000000000E+00  0.10677206762E+04  0.25292004187E+04  0.22927772058E+04 0.  0.
        2    1    3    3  502    0  0.10056960601E+02 -0.10393078529E+03  0.17932040173E+04  0.17962414643E+04  0.25500000920E-02 0. -1.
       -2    1    3    3    0  502 -0.10056960601E+02  0.10393078529E+03 -0.72548334106E+03  0.73295895435E+03  0.25500000920E-02 0.  1.
</event>
<event>
 5   0  0.2043885E-05  0.2303059E+04  0.7818609E-02  0.8476716E-01
       -1   -1    0    0    0  501  0.00000000000E+00  0.00000000000E+00  0.12440396380E+04  0.12440396380E+04  0.50400001928E-02 0.  1.
        1   -1    0    0  501    0  0.00000000000E+00  0.00000000000E+00 -0.10658989950E+04  0.10658989950E+04  0.50400001928E-02 0. -1.
    10030    2    1    2    0    0  0.00000000000E+00  0.00000000000E+00  0.17814064299E+03  0.23099386330E+04  0.23030593565E+04 0.  0.
        5    1    3    3  502    0  0.31253000052E+03 -0.51793455419E+03 -0.89368669129E+03  0.10791798719E+04  0.46999998093E+01 0. -1.
       -5    1    3    3    0  502 -0.31253000052E+03  0.51793455419E+03  0.10718273343E+04  0.12307587612E+04  0.46999998093E+01 0.  1.
</event>
<event>
 5   0  0.4505107E-05  0.2281107E+04  0.7818609E-02  0.8485408E-01
        2   -1    0    0  501    0  0.00000000000E+00  0.00000000000E+00  0.16808978399E+04  0.16808978399E+04  0.25500000920E-02 0. -1.
       -2   -1    0    0    0  501  0.00000000000E+00  0.00000000000E+00 -0.77390904625E+03  0.77390904625E+03  0.25500000920E-02 0.  1.
    10030    2    1    2    0    0  0.00000000000E+00  0.00000000000E+00  0.90698879365E+03  0.24548068862E+04  0.22811067876E+04 0.  0.
        4    1    3    3  502    0 -0.11170565594E+04  0.24137941360E+02  0.20700630943E+03  0.11363323555E+04  0.12699999809E+01 0.  1.
       -4    1    3    3    0  502  0.11170565594E+04 -0.24137941360E+02  0.69998248422E+03  0.13184745307E+04  0.12699999809E+01 0. -1.
</event>
<event>
 5   0  0.4436695E-05  0.2287285E+04  0.7818609E-02  0.8482951E-01
        2   -1    0    0  501    0  0.00000000000E+00  0.00000000000E+00  0.97087894571E+03  0.97087894571E+03  0.25500000920E-02 0.  1.
       -2   -1    0    0    0  501  0.00000000000E+00  0.00000000000E+00 -0.13471483514E+04  0.13471483514E+04  0.25500000920E-02 0. -1.
    10030    2    1    2    0    0  0.00000000000E+00  0.00000000000E+00 -0.37626940572E+03  0.23180272971E+04  0.22872848280E+04 0.  0.
        5    1    3    3  502    0  0.43663539472E+03  0.50436250983E+03  0.75325499097E+03  0.10062043434E+04  0.46999998093E+01 0.  1.
       -5    1    3    3    0  502 -0.43663539472E+03 -0.50436250983E+03 -0.11295243967E+04  0.13118229537E+04  0.46999998093E+01 0. -1.
</event>
<event>
 5   0  0.1968318E-05  0.2134098E+04  0.7818609E-02  0.8546370E-01
       -1   -1    0    0    0  501  0.00000000000E+00  0.00000000000E+00  0.12655649443E+04  0.12655649443E+04  0.50400001928E-02 0. -1.
        1   -1    0    0  501    0  0.00000000000E+00  0.00000000000E+00 -0.89967242365E+03  0.89967242366E+03  0.50400001928E-02 0.  1.
    10030    2    1    2    0    0  0.00000000000E+00  0.00000000000E+00  0.36589252061E+03  0.21652373679E+04  0.21340982927E+04 0.  0.
        3    1    3    3  502    0  0.26983658205E+03  0.10301270593E+04  0.25191108622E+03  0.10942727014E+04  0.10100000352E+00 0. -1.
       -3    1    3    3    0  502 -0.26983658205E+03 -0.10301270593E+04  0.11398143439E+03  0.10709646666E+04  0.10100000352E+00 0.  1.
</event>
<event>
 5   0  0.4505107E-05  0.2270630E+04  0.7818609E-02  0.8489592E-01
        2   -1    0    0  501    0  0.00000000000E+00  0.00000000000E+00  0.13157196997E+04  0.13157196997E+04  0.25500000920E-02 0. -1.
       -2   -1    0    0    0  501  0.00000000000E+00  0.00000000000E+00 -0.97964622608E+03  0.97964622608E+03  0.25500000920E-02 0.  1.
    10030    2    1    2    0    0  0.00000000000E+00  0.00000000000E+00  0.33607347367E+03  0.22953659258E+04  0.22706297263E+04 0.  0.
        4    1    3    3  502    0 -0.38910729367E+03 -0.84824031208E+03  0.82162649633E+03  0.12433775876E+04  0.12699999809E+01 0. -1.
       -4    1    3    3    0  502  0.38910729367E+03  0.84824031208E+03 -0.48555302266E+03  0.10519883382E+04  0.12699999809E+01 0.  1.
</event>
<event>
 5   0  0.4605516E-05  0.2296284E+04  0.7818609E-02  0.8479388E-01
        2   -1    0    0  501    0  0.00000000000E+00  0.00000000000E+00  0.11571785986E+04  0.11571785986E+04  0.25500000920E-02 0.  1.
       -2   -1    0    0    0  501  0.00000000000E+00  0.00000000000E+00 -0.11391763229E+04  0.11391763229E+04  0.25500000920E-02 0. -1.
    10030    2    1    2    0    0  0.00000000000E+00  0.00000000000E+00  0.18002275635E+02  0.22963549215E+04  0.22962843560E+04 0.  0.
        1    1    3    3  502    0  0.76159431952E+03  0.65652879441E+03  0.56325141964E+03  0.11525225061E+04  0.50400001928E-02 0.  1.
       -1    1    3    3    0  502 -0.76159431952E+03 -0.65652879441E+03 -0.54524914400E+03  0.11438324154E+04  0.50400001928E-02 0. -1.
</event>
<event>
 5   0  0.1968318E-05  0.2331377E+04  0.7818609E-02  0.8465652E-01
        1   -1    0    0  501    0  0.00000000000E+00  0.00000000000E+00  0.10527484958E+04  0.10527484958E+04  0.50400001928E-02 0. -1.
       -1   -1    0    0    0  501  0.00000000000E+00  0.00000000000E+00 -0.12907443578E+04  0.12907443578E+04  0.50400001928E-02 0.  1.
    10030    2    1    2    0    0  0.00000000000E+00  0.00000000000E+00 -0.23799586201E+03  0.23434928537E+04  0.23313765730E+04 0.  0.
        3    1    3    3  502    0 -0.42710306287E+03 -0.52561128275E+03  0.83469249724E+03  0.10748934003E+04  0.10100000352E+00 0. -1.
       -3    1    3    3    0  502  0.42710306287E+03  0.52561128275E+03 -0.10726883592E+04  0.12685994534E+04  0.10100000352E+00 0.  1.
</event>
<event>
 5   0  0.4602447E-05  0.2288199E+04  0.7818609E-02  0.8482588E-01
       -2   -1    0    0    0  501  0.00000000000E+00  0.00000000000E+00  0.55432953878E+03  0.55432953879E+03  0.25500000920E-02 0.  1.
        2   -1    0    0  501    0  0.00000000000E+00  0.00000000000E+00 -0.23613464567E+04  0.23613464567E+04  0.25500000920E-02 0. -1.
    10030    2    1    2    0    0  0.00000000000E+00  0.00000000000E+00 -0.18070169179E+04  0.29156759955E+04  0.22881993727E+04 0.  0.
        3    1    3    3  502    0 -0.71761933975E+03  0.33171747042E+03  0.15029010670E+03  0.80473667951E+03  0.10100000352E+00 0.  1.
       -3    1    3    3    0  502  0.71761933975E+03 -0.33171747042E+03 -0.19573070246E+04  0.21109393160E+04  0.10100000352E+00 0. -1.
</event>
<event>
 5   0  0.1968318E-05  0.2298905E+04  0.7818609E-02  0.8478353E-01
        1   -1    0    0  501    0  0.00000000000E+00  0.00000000000E+00  0.21540381330E+04  0.21540381330E+04  0.50400001928E-02 0. -1.
       -1   -1    0    0    0  501  0.00000000000E+00  0.00000000000E+00 -0.61337869230E+03  0.61337869232E+03  0.50400001928E-02 0.  1.
    10030    2    1    2    0    0  0.00000000000E+00  0.00000000000E+00  0.15406594407E+04  0.27674168253E+04  0.22989050378E+04 0.  0.
        3    1    3    3  502    0  0.95387037666E+03 -0.62533189544E+03  0.59867808164E+03  0.12881475578E+04  0.10100000352E+00 0.  1.
       -3    1    3    3    0  502 -0.95387037666E+03  0.62533189544E+03  0.94198135904E+03  0.14792692675E+04  0.10100000352E+00 0. -1.
</event>
<event>
 5   0  0.2043885E-05  0.2294265E+04  0.7818609E-02  0.8480186E-01
       -1   -1    0    0    0  501  0.00000000000E+00  0.00000000000E+00  0.15807138275E+04  0.15807138276E+04  0.50400001928E-02 0. -1.
        1   -1    0    0  501    0  0.00000000000E+00  0.00000000000E+00 -0.83248015840E+03  0.83248015841E+03  0.50400001928E-02 0.  1.
    10030    2    1    2    0    0  0.00000000000E+00  0.00000000000E+00  0.74823366915E+03  0.24131939860E+04  0.22942649346E+04 0.  0.
        5    1    3    3  502    0  0.78766522927E+03 -0.12537853967E+03 -0.49309404493E+03  0.93771003981E+03  0.46999998093E+01 0.  1.
       -5    1    3    3    0  502 -0.78766522927E+03  0.12537853967E+03  0.12413277141E+04  0.14754839462E+04  0.46999998093E+01 0. -1.
</event>
<event>
 5   0  0.2085063E-05  0.2321946E+04  0.7818609E-02  0.8469318E-01
        1   -1    0    0  501    0  0.00000000000E+00  0.00000000000E+00  0.17471778225E+04  0.17471778225E+04  0.50400001928E-02 0.  1.
       -1   -1    0    0    0  501  0.00000000000E+00  0.00000000000E+00 -0.77144916163E+03  0.77144916165E+03  0.50400001928E-02 0. -1.
    10030    2    1    2    0    0  0.00000000000E+00  0.00000000000E+00  0.97572866090E+03  0.25186269842E+04  0.23219464821E+04 0.  0.
        1    1    3    3  502    0  0.10733517114E+04  0.11271628307E+03  0.95197360634E+03  0.14391117413E+04  0.50400001928E-02 0.  1.
       -1    1    3    3    0  502 -0.10733517114E+04 -0.11271628307E+03  0.23755054551E+02  0.10795152428E+04  0.50400001928E-02 0. -1.
</event>
<event>
 5   0  0.2085063E-05  0.2292958E+04  0.7818609E-02  0.8480703E-01
       -1   -1    0    0    0  501  0.00000000000E+00  0.00000000000E+00  0.76742726576E+03  0.76742726578E+03  0.50400001928E-02 0. -1.
        1   -1    0    0  501    0  0.00000000000E+00  0.00000000000E+00 -0.17127539261E+04  0.17127539261E+04  0.50400001928E-02 0.  1.
    10030    2    1    2    0    0  0.00000000000E+00  0.00000000000E+00 -0.94532666030E+03  0.24801811918E+04  0.22929579695E+04 0.  0.
        1    1    3    3  502    0 -0.36715087692E+03 -0.96664932290E+03  0.62948972775E+02  0.10359407575E+04  0.50400001928E-02 0. -1.
       -1    1    3    3    0  502  0.36715087692E+03  0.96664932290E+03 -0.10082756331E+04  0.14442404343E+04  0.50400001928E-02 0.  1.
</event>
<event>
 5   0  0.4602447E-05  0.2256160E+04  0.7818609E-02  0.8495410E-01
       -2   -1    0    0    0  501  0.00000000000E+00  0.00000000000E+00  0.10638830194E+04  0.10638830195E+04  0.25500000920E-02 0. -1.
        2   -1    0    0  501    0  0.00000000000E+00  0.00000000000E+00 -0.11961512440E+04  0.11961512440E+04  0.25500000920E-02 0.  1.
    10030    2    1    2    0    0  0.00000000000E+00  0.00000000000E+00 -0.13226822459E+03  0.22600342635E+04  0.22561604528E+04 0.  0.
        3    1    3    3  502    0  0.38649188698E+03  0.18284341019E+03 -0.11118409157E+04  0.11912169925E+04  0.10100000352E+00 0.  1.
       -3    1    3    3    0  502 -0.38649188698E+03 -0.18284341019E+03  0.97957269109E+03  0.10688172709E+04  0.10100000352E+00 0. -1.
</event>
<event>
 5   0  0.2085063E-05  0.2303430E+04  0.7818609E-02  0.8476570E-01
        1   -1    0    0  501    0  0.00000000000E+00  0.00000000000E+00  0.13008998310E+04  0.13008998310E+04  0.50400001928E-02 0.  1.
       -1   -1    0    0    0  501  0.00000000000E+00  0.00000000000E+00 -0.10196381635E+04  0.10196381635E+04  0.50400001928E-02 0. -1.
    10030    2    1    2    0    0  0.00000000000E+00  0.00000000000E+00  0.28126166749E+03  0.23205379945E+04  0.23034297164E+04 0.  0.
        1    1    3    3  502    0 -0.63982094072E+03 -0.81282360363E+03  0.65074537602E+03  0.12220976194E+04  0.50400001928E-02 0.  1.
       -1    1    3    3    0  502  0.63982094072E+03  0.81282360363E+03 -0.36948370853E+03  0.10984403751E+04  0.50400001928E-02 0. -1.
</event>
<event>
 5   0  0.2042951E-05  0.2302963E+04  0.7818609E-02  0.8476754E-01
        1   -1    0    0  501    0  0.00000000000E+00  0.00000000000E+00  0.20007925787E+04  0.20007925787E+04  0.50400001928E-02 0. -1.
       -1   -1    0    0    0  501  0.00000000000E+00  0.00000000000E+00 -0.66269218249E+03  0.66269218251E+03  0.50400001928E-02 0.  1.
    10030    2    1    2    0    0  0.00000000000E+00  0.00000000000E+00  0.13381003962E+04  0.26634847612E+04  0.23029629617E+04 0.  0.
        2    1    3    3  502    0  0.16532742531E+03 -0.11359858279E+04  0.56487977773E+03  0.12794085048E+04  0.25500000920E-02 0.  1.
       -2    1    3    3    0  502 -0.16532742531E+03  0.11359858279E+04  0.77322061851E+03  0.13840762565E+04  0.25500000920E-02 0. -1.
</event>
<event>
 5   0  0.2043885E-05  0.2300663E+04  0.7818609E-02  0.8477660E-01
       -1   -1    0    0    0  501  0.00000000000E+00  0.00000000000E+00  0.13296645339E+04  0.13296645339E+04  0.50400001928E-02 0.  1.
        1   -1    0    0  501    0  0.00000000000E+00  0.00000000000E+00 -0.99518551890E+03  0.99518551891E+03  0.50400001928E-02 0. -1.
    10030    2    1    2    0    0  0.00000000000E+00  0.00000000000E+00  0.33447901496E+03  0.23248500528E+04  0.23006632862E+04 0.  0.
        5    1    3    3  502    0 -0.48766920486E+03 -0.58992139879E+03  0.10349943991E+04  0.12872699819E+04  0.46999998093E+01 0.  1.
       -5    1    3    3    0  502  0.48766920486E+03  0.58992139879E+03 -0.70051538413E+03  0.10375800709E+04  0.46999998093E+01 0. -1.
</event>
<event>
 5   0  0.4605516E-05  0.2291360E+04  0.7818609E-02  0.8481336E-01
        2   -1    0    0  501    0  0.00000000000E+00  0.00000000000E+00  0.21890436530E+04  0.21890436530E+04  0.25500000920E-02 0.  1.
       -2   -1    0    0    0  501  0.00000000000E+00  0.00000000000E+00 -0.59961460174E+03  0.59961460174E+03  0.25500000920E-02 0. -1.
    10030    2    1    2    0    0  0.00000000000E+00  0.00000000000E+00  0.15894290512E+04  0.27886582547E+04  0.22913598916E+04 0.  0.
        1    1    3    3  502    0 -0.11268205012E+03  0.10102636321E+04  0.14378473404E+04  0.17608903501E+04  0.50400001928E-02 0.  1.
       -1    1    3    3    0  502  0.11268205012E+03 -0.10102636321E+04  0.15158171080E+03  0.10277679046E+04  0.50400001928E-02 0. -1.
</event>
<event>
 5   0  0.4602447E-05  0.2352273E+04  0.7818609E-02  0.8457591E-01
       -2   -1    0    0    0  501  0.00000000000E+00  0.00000000000E+00  0.56740469536E+03  0.56740469537E+03  0.25500000920E-02 0.  1.
        2   -1    0    0  501    0  0.00000000000E+00  0.00000000000E+00 -0.24379364432E+04  0.24379364432E+04  0.25500000920E-02 0. -1.
    10030    2    1    2    0    0  0.00000000000E+00  0.00000000000E+00 -0.18705317478E+04  0.30053411385E+04  0.23522725904E+04 0.  0.
        3    1    3    3  502    0 -0.32029204094E+03 -0.10333605761E+03  0.50457112910E+03  0.60651246221E+03  0.10100000352E+00 0.  1.
       -3    1    3    3    0  502  0.32029204094E+03  0.10333605761E+03 -0.23751028769E+04  0.23988286763E+04  0.10100000352E+00 0. -1.
</event>
<event>
 5   0  0.2031860E-05  0.2337140E+04  0.7818609E-02  0.8463420E-01
        1   -1    0    0  501    0  0.00000000000E+00  0.00000000000E+00  0.16753085535E+04  0.16753085535E+04  0.50400001928E-02 0. -1.
       -1   -1    0    0    0  501  0.00000000000E+00  0.00000000000E+00 -0.81510720553E+03  0.81510720555E+03  0.50400001928E-02 0.  1.
    10030    2    1    2    0    0  0.00000000000E+00  0.00000000000E+00  0.86020134796E+03  0.24904157590E+04  0.23371401956E+04 0.  0.
        4    1    3    3  502    0 -0.36635110526E+03  0.96939240267E+03  0.10055346740E+04  0.14439654969E+04  0.12699999809E+01 0. -1.
       -4    1    3    3    0  502  0.36635110526E+03 -0.96939240267E+03 -0.14533332601E+03  0.10464502622E+04  0.12699999809E+01 0.  1.
</event>
<event>
 5   0  0.2042951E-05  0.2294444E+04  0.7818609E-02  0.8480115E-01
        1   -1    0    0  501    0  0.00000000000E+00  0.00000000000E+00  0.11607600352E+04  0.11607600352E+04  0.50400001928E-02 0.  1.
       -1   -1    0    0    0  501  0.00000000000E+00  0.00000000000E+00 -0.11338416979E+04  0.11338416979E+04  0.50400001928E-02 0. -1.
    10030    2    1    2    0    0  0.00000000000E+00  0.00000000000E+00  0.26918337325E+02  0.22946017331E+04  0.22944438360E+04 0.  0.
        2    1    3    3  502    0  0.34868563812E+03 -0.84381825479E+03  0.70813435870E+03  0.11554502115E+04  0.25500000920E-02 0.  1.
       -2    1    3    3    0  502 -0.34868563812E+03  0.84381825479E+03 -0.68121602137E+03  0.11391515216E+04  0.25500000920E-02 0. -1.
</event>
<event>
 5   0  0.2031860E-05  0.2303854E+04  0.7818609E-02  0.8476403E-01
        1   -1    0    0  501    0  0.00000000000E+00  0.00000000000E+00  0.90004633143E+03  0.90004633145E+03  0.50400001928E-02 0.  1.
       -1   -1    0    0    0  501  0.00000000000E+00  0.00000000000E+00 -0.14742970291E+04  0.14742970292E+04  0.50400001928E-02 0. -1.
    10030    2    1    2    0    0  0.00000000000E+00  0.00000000000E+00 -0.57425069771E+03  0.23743433606E+04  0.23038538431E+04 0.  0.
        4    1    3    3  502    0  0.66735488036E+03  0.92332004696E+03 -0.11146512374E+03  0.11446870892E+04  0.12699999809E+01 0. -1.
       -4    1    3    3    0  502 -0.66735488036E+03 -0.92332004696E+03 -0.46278557397E+03  0.12296562714E+04  0.12699999809E+01 0.  1.
</event>
<event>
 5   0  0.2085063E-05  0.2301081E+04  0.7818609E-02  0.8477495E-01
        1   -1    0    0  501    0  0.00000000000E+00  0.00000000000E+00  0.14591440212E+04  0.14591440212E+04  0.50400001928E-02 0.  1.
       -1   -1    0    0    0  501  0.00000000000E+00  0.00000000000E+00 -0.90720539804E+03  0.90720539806E+03  0.50400001928E-02 0. -1.
    10030    2    1    2    0    0  0.00000000000E+00  0.00000000000E+00  0.55193862320E+03  0.23663494193E+04  0.23010809048E+04 0.  0.
        1    1    3    3  502    0 -0.16075808943E+03  0.90022822114E+03 -0.44203910907E+03  0.10157030016E+04  0.50400001928E-02 0. -1.
       -1    1    3    3    0  502  0.16075808943E+03 -0.90022822114E+03  0.99397773226E+03  0.13506464177E+04  0.50400001928E-02 0.  1.
</event>
<event>
 5   0  0.1604500E-05  0.2306593E+04  0.7818609E-02  0.8475326E-01
       -3   -1    0    0    0  501  0.00000000000E+00  0.00000000000E+00  0.90501001206E+03  0.90501001770E+03  0.10100000352E+00 0. -1.
        3   -1    0    0  501    0  0.00000000000E+00  0.00000000000E+00 -0.14696997604E+04  0.14696997639E+04  0.10100000352E+00 0.  1.
    10030    2    1    2    0    0  0.00000000000E+00  0.00000000000E+00 -0.56468974833E+03  0.23747097816E+04  0.23065931663E+04 0.  0.
        5    1    3    3  502    0 -0.10787464240E+04  0.70065136315E+02 -0.69604219004E+03  0.12857292837E+04  0.46999998093E+01 0. -1.
       -5    1    3    3    0  502  0.10787464240E+04 -0.70065136315E+02  0.13135244171E+03  0.10889804978E+04  0.46999998093E+01 0.  1.
</event>
<event>
 5   0  0.2085063E-05  0.2321891E+04  0.7818609E-02  0.8469339E-01
        1   -1    0    0  501    0  0.00000000000E+00  0.00000000000E+00  0.58593945936E+03  0.58593945938E+03  0.50400001928E-02 0.  1.
       -1   -1    0    0    0  501  0.00000000000E+00  0.00000000000E+00 -0.23002285316E+04  0.23002285316E+04  0.50400001928E-02 0. -1.
    10030    2    1    2    0    0  0.00000000000E+00  0.00000000000E+00 -0.17142890722E+04  0.28861679910E+04  0.23218911794E+04 0.  0.
        1    1    3    3  502    0  0.36515104794E+03  0.22550401307E+03 -0.21980030855E+04  0.22395099713E+04  0.50400001928E-02 0. -1.
       -1    1    3    3    0  502 -0.36515104794E+03 -0.22550401307E+03  0.48371401328E+03  0.64665801966E+03  0.50400001928E-02 0.  1.
</event>
<event>
 5   0  0.4505107E-05  0.2327517E+04  0.7818609E-02  0.8467150E-01
        2   -1    0    0  501    0  0.00000000000E+00  0.00000000000E+00  0.14080146108E+04  0.14080146108E+04  0.25500000920E-02 0.  1.
       -2   -1    0    0    0  501  0.00000000000E+00  0.00000000000E+00 -0.96187455852E+03  0.96187455852E+03  0.25500000920E-02 0. -1.
    10030    2    1    2    0    0  0.00000000000E+00  0.00000000000E+00  0.44614005223E+03  0.23698891693E+04  0.23275166441E+04 0.  0.
        4    1    3    3  502    0  0.89271507367E+03  0.67778147058E+03 -0.95684902169E+02  0.11249378374E+04  0.12699999809E+01 0. -1.
       -4    1    3    3    0  502 -0.89271507367E+03 -0.67778147058E+03  0.54182495440E+03  0.12449513319E+04  0.12699999809E+01 0.  1.
</event>
<event>
 5   0  0.4505107E-05  0.2288050E+04  0.7818609E-02  0.8482648E-01
       -2   -1    0    0    0  501  0.00000000000E+00  0.00000000000E+00  0.10620926626E+04  0.10620926626E+04  0.25500000920E-02 0. -1.
        2   -1    0    0  501    0  0.00000000000E+00  0.00000000000E+00 -0.12322773558E+04  0.12322773558E+04  0.25500000920E-02 0.  1.
    10030    2    1    2    0    0  0.00000000000E+00  0.00000000000E+00 -0.17018469326E+03  0.22943700184E+04  0.22880495955E+04 0.  0.
        4    1    3    3  502    0  0.11121002421E+04 -0.19772371664E+03 -0.26705851448E+03  0.11606823336E+04  0.12699999809E+01 0. -1.
       -4    1    3    3    0  502 -0.11121002421E+04  0.19772371664E+03  0.96873821226E+02  0.11336876848E+04  0.12699999809E+01 0.  1.
</event>
<event>
 5   0  0.2085063E-05  0.2277477E+04  0.7818609E-02  0.8486855E-01
       -1   -1    0    0    0  501  0.00000000000E+00  0.00000000000E+00  0.82083697255E+03  0.82083697257E+03  0.50400001928E-02 0.  1.
        1   -1    0    0  501    0  0.00000000000E+00  0.00000000000E+00 -0.15797604987E+04  0.15797604987E+04  0.50400001928E-02 0. -1.
    10030    2    1    2    0    0  0.00000000000E+00  0.00000000000E+00 -0.75892352615E+03  0.24005974713E+04  0.22774773985E+04 0.  0.
        1    1    3    3  502    0 -0.76237454249E+03 -0.62050438857E+03  0.22649448368E+03  0.10087320707E+04  0.50400001928E-02 0.  1.
       -1    1    3    3    0  502  0.76237454249E+03  0.62050438857E+03 -0.98541800983E+03  0.13918654006E+04  0.50400001928E-02 0. -1.
</event>
<event>
 5   0  0.2031860E-05  0.2304914E+04  0.7818609E-02  0.8475986E-01
       -1   -1    0    0    0  501  0.00000000000E+00  0.00000000000E+00  0.10270040528E+04  0.10270040528E+04  0.50400001928E-02 0.  1.
        1   -1    0    0  501    0  0.00000000000E+00  0.00000000000E+00 -0.12932346347E+04  0.12932346347E+04  0.50400001928E-02 0. -1.
    10030    2    1    2    0    0  0.00000000000E+00  0.00000000000E+00 -0.26623058184E+03  0.23202386875E+04  0.23049140644E+04 0.  0.
        4    1    3    3  502    0 -0.17568668567E+03 -0.49113690971E+03 -0.11676026010E+04  0.12788192689E+04  0.12699999809E+01 0. -1.
       -4    1    3    3    0  502  0.17568668567E+03  0.49113690971E+03  0.90137201919E+03  0.10414194186E+04  0.12699999809E+01 0.  1.
</event>
<event>
 5   0  0.4505107E-05  0.2308388E+04  0.7818609E-02  0.8474621E-01
        2   -1    0    0  501    0  0.00000000000E+00  0.00000000000E+00  0.22106763496E+04  0.22106763496E+04  0.25500000920E-02 0.  1.
       -2   -1    0    0    0  501  0.00000000000E+00  0.00000000000E+00 -0.60260449331E+03  0.60260449331E+03  0.25500000920E-02 0. -1.
    10030    2    1    2    0    0  0.00000000000E+00  0.00000000000E+00  0.16080718563E+04  0.28132808429E+04  0.23083877504E+04 0.  0.
        4    1    3    3  502    0  0.15418236016E+03  0.74233726523E+03  0.18646209648E+04  0.20128710269E+04  0.12699999809E+01 0.  1.
       -4    1    3    3    0  502 -0.15418236016E+03 -0.74233726523E+03 -0.25654910857E+03  0.80040981599E+03  0.12699999809E+01 0. -1.
</event>
<event>
 5   0  0.4505107E-05  0.2292883E+04  0.7818609E-02  0.8480733E-01
        2   -1    0    0  501    0  0.00000000000E+00  0.00000000000E+00  0.71848622526E+03  0.71848622526E+03  0.25500000920E-02 0.  1.
       -2   -1    0    0    0  501  0.00000000000E+00  0.00000000000E+00 -0.18293013009E+04  0.18293013009E+04  0.25500000920E-02 0. -1.
    10030    2    1    2    0    0  0.00000000000E+00  0.00000000000E+00 -0.11108150756E+04  0.25477875262E+04  0.22928827153E+04 0.  0.
        4    1    3    3  502    0 -0.33552040462E+03  0.10549800779E+04 -0.22434298474E+03  0.11295522539E+04  0.12699999809E+01 0.  1.
       -4    1    3    3    0  502  0.33552040462E+03 -0.10549800779E+04 -0.88647209089E+03  0.14182352722E+04  0.12699999809E+01 0. -1.
</event>
<event>
 5   0  0.4436695E-05  0.2175471E+04  0.7818609E-02  0.8528708E-01
        2   -1    0    0  501    0  0.00000000000E+00  0.00000000000E+00  0.13513527061E+04  0.13513527061E+04  0.25500000920E-02 0.  1.
       -2   -1    0    0    0  501  0.00000000000E+00  0.00000000000E+00 -0.87554344910E+03  0.87554344910E+03  0.25500000920E-02 0. -1.
    10030    2    1    2    0    0  0.00000000000E+00  0.00000000000E+00  0.47580925700E+03  0.22268961552E+04  0.21754705323E+04 0.  0.
        5    1    3    3  502    0 -0.45626514052E+03  0.37293739363E+03 -0.69797548482E+03  0.91348346752E+03  0.46999998093E+01 0. -1.
       -5    1    3    3    0  502  0.45626514052E+03 -0.37293739363E+03  0.11737847418E+04  0.13134126877E+04  0.46999998093E+01 0.  1.
</event>
<event>
 5   0  0.4605516E-05  0.1872302E+04  0.7818609E-02  0.8668767E-01
       -2   -1    0    0    0  501  0.00000000000E+00  0.00000000000E+00  0.77834854741E+03  0.77834854742E+03  0.25500000920E-02 0. -1.
        2   -1    0    0  501    0  0.00000000000E+00  0.00000000000E+00 -0.11259467924E+04  0.11259467924E+04  0.25500000920E-02 0.  1.
    10030    2    1    2    0    0  0.00000000000E+00  0.00000000000E+00 -0.34759824500E+03  0.19042953398E+04  0.18723023798E+04 0.  0.
        1    1    3    3  502    0 -0.65413940643E+03 -0.15940221891E+03 -0.83535306506E+03  0.10729036181E+04  0.50400001928E-02 0.  1.
       -1    1    3    3    0  502  0.65413940643E+03  0.15940221891E+03  0.48775482006E+03  0.83139172172E+03  0.50400001928E-02 0. -1.
</event>
<event>
 5   0  0.2043885E-05  0.2287194E+04  0.7818609E-02  0.8482988E-01
        1   -1    0    0  501    0  0.00000000000E+00  0.00000000000E+00  0.77148678273E+03  0.77148678275E+03  0.50400001928E-02 0. -1.
       -1   -1    0    0    0  501  0.00000000000E+00  0.00000000000E+00 -0.16951861765E+04  0.16951861765E+04  0.50400001928E-02 0.  1.
    10030    2    1    2    0    0  0.00000000000E+00  0.00000000000E+00 -0.92369939377E+03  0.24666729593E+04  0.22871936774E+04 0.  0.
        5    1    3    3  502    0 -0.10608581493E+04  0.11939833852E+03 -0.19655824290E+02  0.10677473566E+04  0.46999998093E+01 0. -1.
       -5    1    3    3    0  502  0.10608581493E+04 -0.11939833852E+03 -0.90404356948E+03  0.13989256026E+04  0.46999998093E+01 0.  1.
</event>
<event>
 5   0  0.4436695E-05  0.2294003E+04  0.7818609E-02  0.8480289E-01
        2   -1    0    0  501    0  0.00000000000E+00  0.00000000000E+00  0.79537620045E+03  0.79537620045E+03  0.25500000920E-02 0. -1.
       -2   -1    0    0    0  501  0.00000000000E+00  0.00000000000E+00 -0.16540757185E+04  0.16540757185E+04  0.25500000920E-02 0.  1.
    10030    2    1    2    0    0  0.00000000000E+00  0.00000000000E+00 -0.85869951802E+03  0.24494519189E+04  0.22940030167E+04 0.  0.
        5    1    3    3  502    0  0.49885367766E+03 -0.39403824992E+03 -0.14487528398E+04  0.15820960827E+04  0.46999998093E+01 0.  1.
       -5    1    3    3    0  502 -0.49885367766E+03  0.39403824992E+03  0.59005332176E+03  0.86735583622E+03  0.46999998093E+01 0. -1.
</event>
<event>
 5   0  0.2042951E-05  0.2305854E+04  0.7818609E-02  0.8475617E-01
        1   -1    0    0  501    0  0.00000000000E+00  0.00000000000E+00  0.10460706993E+04  0.10460706993E+04  0.50400001928E-02 0. -1.
       -1   -1    0    0    0  501  0.00000000000E+00  0.00000000000E+00 -0.12706983520E+04  0.12706983520E+04  0.50400001928E-02 0.  1.
    10030    2    1    2    0    0  0.00000000000E+00  0.00000000000E+00 -0.22462765273E+03  0.23167690513E+04  0.23058536932E+04 0.  0.
        2    1    3    3  502    0  0.16366311733E+03 -0.42843589730E+03 -0.11751005574E+04  0.12614294487E+04  0.25500000920E-02 0.  1.
       -2    1    3    3    0  502 -0.16366311733E+03  0.42843589730E+03  0.95047290470E+03  0.10553396025E+04  0.25500000920E-02 0. -1.
</event>
<event>
 5   0  0.4436695E-05  0.2166561E+04  0.7818609E-02  0.8532477E-01
        2   -1    0    0  501    0  0.00000000000E+00  0.00000000000E+00  0.10547622534E+04  0.10547622534E+04  0.25500000920E-02 0.  1.
       -2   -1    0    0    0  501  0.00000000000E+00  0.00000000000E+00 -0.11125695808E+04  0.11125695808E+04  0.25500000920E-02 0. -1.
    10030    2    1    2    0    0  0.00000000000E+00  0.00000000000E+00 -0.57807327377E+02  0.21673318342E+04  0.21665607752E+04 0.  0.
        5    1    3    3  502    0  0.23442250140E+03  0.10340053054E+04  0.19333171264E+03  0.10777384292E+04  0.46999998093E+01 0. -1.
       -5    1    3    3    0  502 -0.23442250140E+03 -0.10340053054E+04 -0.25113904001E+03  0.10895934050E+04  0.46999998093E+01 0.  1.
</event>
<event>
 5   0  0.1968318E-05  0.2231493E+04  0.7818609E-02  0.8505433E-01
       -1   -1    0    0    0  501  0.00000000000E+00  0.00000000000E+00  0.67871830477E+03  0.67871830479E+03  0.50400001928E-02 0. -1.
        1   -1    0    0  501    0  0.00000000000E+00  0.00000000000E+00 -0.18341779905E+04  0.18341779905E+04  0.50400001928E-02 0.  1.
    10030    2    1    2    0    0  0.00000000000E+00  0.00000000000E+00 -0.11554596857E+04  0.25128962953E+04  0.22314929320E+04 0.  0.
        3    1    3    3  502    0  0.39561831013E+03  0.81091587298E+03  0.16138640134E+03  0.91659368376E+03  0.10100000352E+00 0. -1.
       -3    1    3    3    0  502 -0.39561831013E+03 -0.81091587298E+03 -0.13168460870E+04  0.15963026115E+04  0.10100000352E+00 0.  1.
</event>
<event>
 5   0  0.2031860E-05  0.2291586E+04  0.7818609E-02  0.8481246E-01
       -1   -1    0    0    0  501  0.00000000000E+00  0.00000000000E+00  0.66336776466E+03  0.66336776468E+03  0.50400001928E-02 0. -1.
        1   -1    0    0  501    0  0.00000000000E+00  0.00000000000E+00 -0.19790556137E+04  0.19790556137E+04  0.50400001928E-02 0.  1.
    10030    2    1    2    0    0  0.00000000000E+00  0.00000000000E+00 -0.13156878491E+04  0.26424233784E+04  0.22915860871E+04 0.  0.
        4    1    3    3  502    0  0.39221223189E+03  0.65157204401E+03 -0.16460586971E+04  0.18132532671E+04  0.12699999809E+01 0. -1.
       -4    1    3    3    0  502 -0.39221223189E+03 -0.65157204401E+03  0.33037084804E+03  0.82917011132E+03  0.12699999809E+01 0.  1.
</event>
<event>
 5   0  0.1968318E-05  0.2313237E+04  0.7818609E-02  0.8472720E-01
       -1   -1    0    0    0  501  0.00000000000E+00  0.00000000000E+00  0.12834532047E+04  0.12834532047E+04  0.50400001928E-02 0. -1.
        1   -1    0    0  501    0  0.00000000000E+00  0.00000000000E+00 -0.10423180454E+04  0.10423180454E+04  0.50400001928E-02 0.  1.
    10030    2    1    2    0    0  0.00000000000E+00  0.00000000000E+00  0.24113515926E+03  0.23257712501E+04  0.23132370702E+04 0.  0.
        3    1    3    3  502    0 -0.17485371172E+03  0.10573541091E+03 -0.10240264360E+04  0.10442145132E+04  0.10100000352E+00 0.  1.
       -3    1    3    3    0  502  0.17485371172E+03 -0.10573541091E+03  0.12651615953E+04  0.12815567370E+04  0.10100000352E+00 0. -1.
</event>
<event>
 5   0  0.1968318E-05  0.2297623E+04  0.7818609E-02  0.8478859E-01
       -1   -1    0    0    0  501  0.00000000000E+00  0.00000000000E+00  0.86623845240E+03  0.86623845241E+03  0.50400001928E-02 0. -1.
        1   -1    0    0  501    0  0.00000000000E+00  0.00000000000E+00 -0.15235620801E+04  0.15235620801E+04  0.50400001928E-02 0.  1.
    10030    2    1    2    0    0  0.00000000000E+00  0.00000000000E+00 -0.65732362773E+03  0.23898005326E+04  0.22976231705E+04 0.  0.
        3    1    3    3  502    0 -0.63228690529E+03  0.32285612715E+02  0.66840941104E+03  0.92065207454E+03  0.10100000352E+00 0. -1.
       -3    1    3    3    0  502  0.63228690529E+03 -0.32285612715E+02 -0.13257330388E+04  0.14691484580E+04  0.10100000352E+00 0.  1.
</event>
<event>
 5   0  0.4798609E-05  0.2392897E+04  0.7818609E-02  0.8442168E-01
       -2   -1    0    0    0  501  0.00000000000E+00  0.00000000000E+00  0.11570245969E+04  0.11570245969E+04  0.25500000920E-02 0.  1.
        2   -1    0    0  501    0  0.00000000000E+00  0.00000000000E+00 -0.12372155330E+04  0.12372155331E+04  0.25500000920E-02 0. -1.
    10030    2    1    2    0    0  0.00000000000E+00  0.00000000000E+00 -0.80190936120E+02  0.23942401300E+04  0.23928968247E+04 0.  0.
        2    1    3    3  502    0 -0.11144016378E+04  0.43541339046E+03 -0.43699231457E+02  0.11972407668E+04  0.25500000920E-02 0.  1.
       -2    1    3    3    0  502  0.11144016378E+04 -0.43541339046E+03 -0.36491704662E+02  0.11969993632E+04  0.25500000920E-02 0. -1.
</event>
<event>
 5   0  0.2043885E-05  0.2317472E+04  0.7818609E-02  0.8471064E-01
       -1   -1    0    0    0  501  0.00000000000E+00  0.00000000000E+00  0.96408718370E+03  0.96408718371E+03  0.50400001928E-02 0. -1.
        1   -1    0    0  501    0  0.00000000000E+00  0.00000000000E+00 -0.13926840129E+04  0.13926840129E+04  0.50400001928E-02 0.  1.
    10030    2    1    2    0    0  0.00000000000E+00  0.00000000000E+00 -0.42859682923E+03  0.23567711966E+04  0.23174717326E+04 0.  0.
        5    1    3    3  502    0 -0.69344958844E+03 -0.92054418538E+03 -0.92378822974E+02  0.11562135901E+04  0.46999998093E+01 0. -1.
       -5    1    3    3    0  502  0.69344958844E+03  0.92054418538E+03 -0.33621800626E+03  0.12005576066E+04  0.46999998093E+01 0.  1.
</event>
<event>
 5   0  0.2042951E-05  0.2273471E+04  0.7818609E-02  0.8488455E-01
        1   -1    0    0  501    0  0.00000000000E+00  0.00000000000E+00  0.19883262842E+04  0.19883262843E+04  0.50400001928E-02 0. -1.
       -1   -1    0    0    0  501  0.00000000000E+00  0.00000000000E+00 -0.64987683213E+03  0.64987683215E+03  0.50400001928E-02 0.  1.
    10030    2    1    2    0    0  0.00000000000E+00  0.00000000000E+00  0.13384494521E+04  0.26382031164E+04  0.22734706392E+04 0.  0.
        2    1    3    3  502    0 -0.54448893544E+03 -0.38078159437E+03  0.17395313405E+04  0.18621042151E+04  0.25500000920E-02 0. -1.
       -2    1    3    3    0  502  0.54448893544E+03  0.38078159437E+03 -0.40108188835E+03  0.77609890130E+03  0.25500000920E-02 0.  1.
</event>
<event>
 5   0  0.1968318E-05  0.2401596E+04  0.7818609E-02  0.8438906E-01
       -1   -1    0    0    0  501  0.00000000000E+00  0.00000000000E+00  0.10399729905E+04  0.10399729905E+04  0.50400001928E-02 0.  1.
        1   -1    0    0  501    0  0.00000000000E+00  0.00000000000E+00 -0.13864932231E+04  0.13864932231E+04  0.50400001928E-02 0. -1.
    10030    2    1    2    0    0  0.00000000000E+00  0.00000000000E+00 -0.34652023259E+03  0.24264662137E+04  0.24015957225E+04 0.  0.
        3    1    3    3  502    0  0.36760126314E+03  0.18433232257E+03  0.96661040492E+03  0.10504497984E+04  0.10100000352E+00 0.  1.
       -3    1    3    3    0  502 -0.36760126314E+03 -0.18433232257E+03 -0.13131306375E+04  0.13760164153E+04  0.10100000352E+00 0. -1.
</event>
<event>
 5   0  0.4605516E-05  0.2308913E+04  0.7818609E-02  0.8474415E-01
        2   -1    0    0  501    0  0.00000000000E+00  0.00000000000E+00  0.13573538781E+04  0.13573538781E+04  0.25500000920E-02 0.  1.
       -2   -1    0    0    0  501  0.00000000000E+00  0.00000000000E+00 -0.98188784703E+03  0.98188784703E+03  0.25500000920E-02 0. -1.
    10030    2    1    2    0    0  0.00000000000E+00  0.00000000000E+00  0.37546603110E+03  0.23392417252E+04  0.23089125380E+04 0.  0.
        1    1    3    3  502    0  0.14102443324E+01 -0.27812129449E+03  0.13229043631E+04  0.13518244698E+04  0.50400001928E-02 0.  1.
       -1    1    3    3    0  502 -0.14102443324E+01  0.27812129449E+03 -0.94743833199E+03  0.98741725537E+03  0.50400001928E-02 0. -1.
</event>
<event>
 5   0  0.4798609E-05  0.2137852E+04  0.7818609E-02  0.8544750E-01
       -2   -1    0    0    0  501  0.00000000000E+00  0.00000000000E+00  0.11764021704E+04  0.11764021704E+04  0.25500000920E-02 0. -1.
        2   -1    0    0  501    0  0.00000000000E+00  0.00000000000E+00 -0.97126918846E+03  0.97126918846E+03  0.25500000920E-02 0.  1.
    10030    2    1    2    0    0  0.00000000000E+00  0.00000000000E+00  0.20513298193E+03  0.21476713589E+04  0.21378523629E+04 0.  0.
        2    1    3    3  502    0  0.31501697817E+03  0.29462786458E+03 -0.87996540136E+03  0.97998999113E+03  0.25500000920E-02 0.  1.
       -2    1    3    3    0  502 -0.31501697817E+03 -0.29462786458E+03  0.10850983833E+04  0.11676813677E+04  0.25500000920E-02 0. -1.
</event>
<event>
 5   0  0.1968318E-05  0.2311675E+04  0.7818609E-02  0.8473332E-01
       -1   -1    0    0    0  501  0.00000000000E+00  0.00000000000E+00  0.83596828875E+03  0.83596828877E+03  0.50400001928E-02 0. -1.
        1   -1    0    0  501    0  0.00000000000E+00  0.00000000000E+00 -0.15980997560E+04  0.15980997560E+04  0.50400001928E-02 0.  1.
    10030    2    1    2    0    0  0.00000000000E+00  0.00000000000E+00 -0.76213146724E+03  0.24340680448E+04  0.23116753391E+04 0.  0.
        3    1    3    3  502    0 -0.61431988420E+03 -0.64132155916E+02  0.64762417748E+03  0.89494074608E+03  0.10100000352E+00 0. -1.
       -3    1    3    3    0  502  0.61431988420E+03  0.64132155916E+02 -0.14097556447E+04  0.15391272987E+04  0.10100000352E+00 0.  1.
</event>
<event>
 5   0  0.4605516E-05  0.2314305E+04  0.7818609E-02  0.8472302E-01
       -2   -1    0    0    0  501  0.00000000000E+00  0.00000000000E+00  0.10868356523E+04  0.10868356523E+04  0.25500000920E-02 0. -1.
        2   -1    0    0  501    0  0.00000000000E+00  0.00000000000E+00 -0.12320192825E+04  0.12320192825E+04  0.25500000920E-02 0.  1.
    10030    2    1    2    0    0  0.00000000000E+00  0.00000000000E+00 -0.14518363013E+03  0.23188549348E+04  0.23143054946E+04 0.  0.
        1    1    3    3  502    0 -0.77866692031E+03  0.64539229395E+03 -0.63596849391E+03  0.11947005111E+04  0.50400001928E-02 0.  1.
       -1    1    3    3    0  502  0.77866692031E+03 -0.64539229395E+03  0.49078486378E+03  0.11241544237E+04  0.50400001928E-02 0. -1.
</event>
<event>
 5   0  0.2085063E-05  0.2324456E+04  0.7818609E-02  0.8468340E-01
        1   -1    0    0  501    0  0.00000000000E+00  0.00000000000E+00  0.16696850423E+04  0.16696850423E+04  0.50400001928E-02 0. -1.
       -1   -1    0    0    0  501  0.00000000000E+00  0.00000000000E+00 -0.80899915150E+03  0.80899915152E+03  0.50400001928E-02 0.  1.
    10030    2    1    2    0    0  0.00000000000E+00  0.00000000000E+00  0.86068589076E+03  0.24786841938E+04  0.23244558783E+04 0.  0.
        1    1    3    3  502    0 -0.19865250523E+03  0.10906777972E+03 -0.78520994121E+03  0.81725959781E+03  0.50400001928E-02 0.  1.
       -1    1    3    3    0  502  0.19865250523E+03 -0.10906777972E+03  0.16458958320E+04  0.16614245960E+04  0.50400001928E-02 0. -1.
</event>
<event>
 5   0  0.1968318E-05  0.2276939E+04  0.7818609E-02  0.8487070E-01
        1   -1    0    0  501    0  0.00000000000E+00  0.00000000000E+00  0.19396535509E+04  0.19396535509E+04  0.50400001928E-02 0. -1.
       -1   -1    0    0    0  501  0.00000000000E+00  0.00000000000E+00 -0.66821845323E+03  0.66821845325E+03  0.50400001928E-02 0.  1.
    10030    2    1    2    0    0  0.00000000000E+00  0.00000000000E+00  0.12714350977E+04  0.26078720042E+04  0.22769385548E+04 0.  0.
        3    1    3    3  502    0  0.13851003605E+03  0.10716872987E+04  0.22528626733E+03  0.11038354083E+04  0.10100000352E+00 0.  1.
       -3    1    3    3    0  502 -0.13851003605E+03 -0.10716872987E+04  0.10461488304E+04  0.15040365959E+04  0.10100000352E+00 0. -1.
</event>
<event>
 5   0  0.4505107E-05  0.2342935E+04  0.7818609E-02  0.8461182E-01
        2   -1    0    0  501    0  0.00000000000E+00  0.00000000000E+00  0.15231858637E+04  0.15231858637E+04  0.25500000920E-02 0.  1.
       -2   -1    0    0    0  501  0.00000000000E+00  0.00000000000E+00 -0.90096434225E+03  0.90096434226E+03  0.25500000920E-02 0. -1.
    10030    2    1    2    0    0  0.00000000000E+00  0.00000000000E+00  0.62222152140E+03  0.24241502059E+04  0.23429350395E+04 0.  0.
        4    1    3    3  502    0 -0.48787383382E+03 -0.55095270567E+03 -0.63194704864E+03  0.97001466319E+03  0.12699999809E+01 0. -1.
       -4    1    3    3    0  502  0.48787383382E+03  0.55095270567E+03  0.12541685700E+04  0.14541355427E+04  0.12699999809E+01 0.  1.
</event>
<event>
 5   0  0.4436695E-05  0.2273462E+04  0.7818609E-02  0.8488459E-01
        2   -1    0    0  501    0  0.00000000000E+00  0.00000000000E+00  0.73932083933E+03  0.73932083933E+03  0.25500000920E-02 0.  1.
       -2   -1    0    0    0  501  0.00000000000E+00  0.00000000000E+00 -0.17477629188E+04  0.17477629188E+04  0.25500000920E-02 0. -1.
    10030    2    1    2    0    0  0.00000000000E+00  0.00000000000E+00 -0.10084420795E+04  0.24870837582E+04  0.22734621599E+04 0.  0.
        5    1    3    3  502    0  0.96052764106E+03  0.76787387693E+02  0.15545396627E+03  0.97606233293E+03  0.46999998093E+01 0.  1.
       -5    1    3    3    0  502 -0.96052764106E+03 -0.76787387693E+02 -0.11638960458E+04  0.15110214252E+04  0.46999998093E+01 0. -1.
</event>
<event>
 5   0  0.4605516E-05  0.2170486E+04  0.7818609E-02  0.8530814E-01
        2   -1    0    0  501    0  0.00000000000E+00  0.00000000000E+00  0.20285438574E+04  0.20285438574E+04  0.25500000920E-02 0.  1.
       -2   -1    0    0    0  501  0.00000000000E+00  0.00000000000E+00 -0.58059008176E+03  0.58059008176E+03  0.25500000920E-02 0. -1.
    10030    2    1    2    0    0  0.00000000000E+00  0.00000000000E+00  0.14479537756E+04  0.26091339391E+04  0.21704860691E+04 0.  0.
        1    1    3    3  502    0  0.15463113899E+03  0.39272665709E+03 -0.47788374107E+03  0.63758755190E+03  0.50400001928E-02 0. -1.
       -1    1    3    3    0  502 -0.15463113899E+03 -0.39272665709E+03  0.19258375167E+04  0.19715463872E+04  0.50400001928E-02 0.  1.
</event>
<event>
 5   0  0.4436695E-05  0.2289377E+04  0.7818609E-02  0.8482121E-01
       -2   -1    0    0    0  501  0.00000000000E+00  0.00000000000E+00  0.13973153330E+04  0.13973153330E+04  0.25500000920E-02 0.  1.
        2   -1    0    0  501    0  0.00000000000E+00  0.00000000000E+00 -0.93773545361E+03  0.93773545362E+03  0.25500000920E-02 0. -1.
    10030    2    1    2    0    0  0.00000000000E+00  0.00000000000E+00  0.45957987937E+03  0.23350507866E+04  0.22893773194E+04 0.  0.
        5    1    3    3  502    0  0.99087489259E+03  0.55028230316E+03  0.39312970257E+03  0.11996735885E+04  0.46999998093E+01 0. -1.
       -5    1    3    3    0  502 -0.99087489259E+03 -0.55028230316E+03  0.66450176801E+02  0.11353771981E+04  0.46999998093E+01 0.  1.
</event>
<event>
 5   0  0.4505107E-05  0.2284157E+04  0.7818609E-02  0.8484194E-01
       -2   -1    0    0    0  501  0.00000000000E+00  0.00000000000E+00  0.71078930970E+03  0.71078930970E+03  0.25500000920E-02 0. -1.
        2   -1    0    0  501    0  0.00000000000E+00  0.00000000000E+00 -0.18350628782E+04  0.18350628782E+04  0.25500000920E-02 0.  1.
    10030    2    1    2    0    0  0.00000000000E+00  0.00000000000E+00 -0.11242735685E+04  0.25458521879E+04  0.22841568041E+04 0.  0.
        4    1    3    3  502    0 -0.69877305891E+03  0.67037125523E+03 -0.12370362289E+04  0.15709683804E+04  0.12699999809E+01 0.  1.
       -4    1    3    3    0  502  0.69877305891E+03 -0.67037125523E+03  0.11276266037E+03  0.97488380752E+03  0.12699999809E+01 0. -1.
</event>
<event>
 5   0  0.1968318E-05  0.2308127E+04  0.7818609E-02  0.8474724E-01
       -1   -1    0    0    0  501  0.00000000000E+00  0.00000000000E+00  0.13037218083E+04  0.13037218083E+04  0.50400001928E-02 0. -1.
        1   -1    0    0  501    0  0.00000000000E+00  0.00000000000E+00 -0.10215848943E+04  0.10215848943E+04  0.50400001928E-02 0.  1.
    10030    2    1    2    0    0  0.00000000000E+00  0.00000000000E+00  0.28213691398E+03  0.23253067027E+04  0.23081269513E+04 0.  0.
        3    1    3    3  502    0  0.60953398126E+03 -0.54522826944E+03 -0.67927547293E+03  0.10631183934E+04  0.10100000352E+00 0.  1.
       -3    1    3    3    0  502 -0.60953398126E+03  0.54522826944E+03  0.96141238690E+03  0.12621883092E+04  0.10100000352E+00 0. -1.
</event>
<event>
 5   0  0.1968318E-05  0.2342169E+04  0.7818609E-02  0.8461478E-01
        1   -1    0    0  501    0  0.00000000000E+00  0.00000000000E+00  0.27292460991E+04  0.27292460991E+04  0.50400001928E-02 0. -1.
       -1   -1    0    0    0  501  0.00000000000E+00  0.00000000000E+00 -0.50249732935E+03  0.50249732937E+03  0.50400001928E-02 0.  1.
    10030    2    1    2    0    0  0.00000000000E+00  0.00000000000E+00  0.22267487698E+04  0.32317434285E+04  0.23421689742E+04 0.  0.
        3    1    3    3  502    0 -0.92810263454E+03  0.13385381273E+03  0.14539456774E+03  0.94891039301E+03  0.10100000352E+00 0.  1.
       -3    1    3    3    0  502  0.92810263454E+03 -0.13385381273E+03  0.20813542020E+04  0.22828330355E+04  0.10100000352E+00 0. -1.
</event>
<event>
 5   0  0.4602447E-05  0.2304946E+04  0.7818609E-02  0.8475974E-01
       -2   -1    0    0    0  501  0.00000000000E+00  0.00000000000E+00  0.68862320755E+03  0.68862320755E+03  0.25500000920E-02 0.  1.
        2   -1    0    0  501    0  0.00000000000E+00  0.00000000000E+00 -0.19287667132E+04  0.19287667132E+04  0.25500000920E-02 0. -1.
    10030    2    1    2    0    0  0.00000000000E+00  0.00000000000E+00 -0.12401435057E+04  0.26173899208E+04  0.23049455704E+04 0.  0.
        3    1    3    3  502    0 -0.52221282185E+03  0.10273597422E+04 -0.61509092407E+03  0.13063349977E+04  0.10100000352E+00 0. -1.
       -3    1    3    3    0  502  0.52221282185E+03 -0.10273597422E+04 -0.62505258159E+03  0.13110549230E+04  0.10100000352E+00 0.  1.
</event>
<event>
 5   0  0.4505107E-05  0.2286075E+04  0.7818609E-02  0.8483432E-01
       -2   -1    0    0    0  501  0.00000000000E+00  0.00000000000E+00  0.84720303108E+03  0.84720303108E+03  0.25500000920E-02 0.  1.
        2   -1    0    0  501    0  0.00000000000E+00  0.00000000000E+00 -0.15421742873E+04  0.15421742873E+04  0.25500000920E-02 0. -1.
    10030    2    1    2    0    0  0.00000000000E+00  0.00000000000E+00 -0.69497125625E+03  0.23893773184E+04  0.22860750037E+04 0.  0.
        4    1    3    3  502    0 -0.67671001358E+03  0.77207721026E+03 -0.87267910788E+03  0.13474457686E+04  0.12699999809E+01 0. -1.
       -4    1    3    3    0  502  0.67671001358E+03 -0.77207721026E+03  0.17770785162E+03  0.10419315498E+04  0.12699999809E+01 0.  1.
</event>
<event>
 5   0  0.2042951E-05  0.2376160E+04  0.7818609E-02  0.8448483E-01
        1   -1    0    0  501    0  0.00000000000E+00  0.00000000000E+00  0.23485756796E+04  0.23485756797E+04  0.50400001928E-02 0. -1.
       -1   -1    0    0    0  501  0.00000000000E+00  0.00000000000E+00 -0.60101722383E+03  0.60101722385E+03  0.50400001928E-02 0.  1.
    10030    2    1    2    0    0  0.00000000000E+00  0.00000000000E+00  0.17475584558E+04  0.29495929035E+04  0.23761602934E+04 0.  0.
        2    1    3    3  502    0 -0.19372669804E+03  0.10947794239E+04  0.35380909820E+03  0.11667274312E+04  0.25500000920E-02 0.  1.
       -2    1    3    3    0  502  0.19372669804E+03 -0.10947794239E+04  0.13937493576E+04  0.17828654724E+04  0.25500000920E-02 0. -1.
</event>
<event>
 5   0  0.2085063E-05  0.2355919E+04  0.7818609E-02  0.8456194E-01
        1   -1    0    0  501    0  0.00000000000E+00  0.00000000000E+00  0.16138522755E+04  0.16138522755E+04  0.50400001928E-02 0.  1.
       -1   -1    0    0    0  501  0.00000000000E+00  0.00000000000E+00 -0.85979914162E+03  0.85979914163E+03  0.50400001928E-02 0. -1.
    10030    2    1    2    0    0  0.00000000000E+00  0.00000000000E+00  0.75405313386E+03  0.24736514171E+04  0.23559191847E+04 0.  0.
        1    1    3    3  502    0 -0.68103813097E+03 -0.80848530094E+03  0.92273720097E+03  0.14031768811E+04  0.50400001928E-02 0.  1.
       -1    1    3    3    0  502  0.68103813097E+03  0.80848530094E+03 -0.16868406712E+03  0.10704745360E+04  0.50400001928E-02 0. -1.
</event>
<event>
 5   0  0.2042951E-05  0.2307927E+04  0.7818609E-02  0.8474802E-01
        1   -1    0    0  501    0  0.00000000000E+00  0.00000000000E+00  0.13726346365E+04  0.13726346365E+04  0.50400001928E-02 0.  1.
       -1   -1    0    0    0  501  0.00000000000E+00  0.00000000000E+00 -0.97012861921E+03  0.97012861922E+03  0.50400001928E-02 0. -1.
    10030    2    1    2    0    0  0.00000000000E+00  0.00000000000E+00  0.40250601731E+03  0.23427632558E+04  0.23079273339E+04 0.  0.
        2    1    3    3  502    0 -0.95736472891E+03 -0.30082529751E+03 -0.37707365094E+03  0.10720203459E+04  0.25500000920E-02 0. -1.
       -2    1    3    3    0  502  0.95736472891E+03  0.30082529751E+03  0.77957966825E+03  0.12707429099E+04  0.25500000920E-02 0.  1.
</event>
<event>
 5   0  0.4505107E-05  0.2298778E+04  0.7818609E-02  0.8478403E-01
        2   -1    0    0  501    0  0.00000000000E+00  0.00000000000E+00  0.10804356394E+04  0.10804356394E+04  0.25500000920E-02 0. -1.
       -2   -1    0    0    0  501  0.00000000000E+00  0.00000000000E+00 -0.12227433056E+04  0.12227433056E+04  0.25500000920E-02 0.  1.
    10030    2    1    2    0    0  0.00000000000E+00  0.00000000000E+00 -0.14230766615E+03  0.23031789450E+04  0.22987783236E+04 0.  0.
        4    1    3    3  502    0 -0.27527081596E+03 -0.21779069116E+03 -0.11677292834E+04  0.12193441268E+04  0.12699999809E+01 0.  1.
       -4    1    3    3    0  502  0.27527081596E+03  0.21779069116E+03  0.10254216172E+04  0.10838348183E+04  0.12699999809E+01 0. -1.
</event>
<event>
 5   0  0.4505107E-05  0.2360144E+04  0.7818609E-02  0.8454577E-01
       -2   -1    0    0    0  501  0.00000000000E+00  0.00000000000E+00  0.10932676657E+04  0.10932676657E+04  0.25500000920E-02 0.  1.
        2   -1    0    0  501    0  0.00000000000E+00  0.00000000000E+00 -0.12737689845E+04  0.12737689845E+04  0.25500000920E-02 0. -1.
    10030    2    1    2    0    0  0.00000000000E+00  0.00000000000E+00 -0.18050131878E+03  0.23670366501E+04  0.23601444399E+04 0.  0.
        4    1    3    3  502    0  0.28369871324E+03 -0.12811852175E+03  0.10513481849E+04  0.10964642877E+04  0.12699999809E+01 0.  1.
       -4    1    3    3    0  502 -0.28369871324E+03  0.12811852175E+03 -0.12318495037E+04  0.12705723624E+04  0.12699999809E+01 0. -1.
</event>
<event>
 5   0  0.4436695E-05  0.2309167E+04  0.7818609E-02  0.8474316E-01
       -2   -1    0    0    0  501  0.00000000000E+00  0.00000000000E+00  0.12271346630E+04  0.12271346630E+04  0.25500000920E-02 0. -1.
        2   -1    0    0  501    0  0.00000000000E+00  0.00000000000E+00 -0.10863214540E+04  0.10863214540E+04  0.25500000920E-02 0.  1.
    10030    2    1    2    0    0  0.00000000000E+00  0.00000000000E+00  0.14081320906E+03  0.23134561170E+04  0.23091666993E+04 0.  0.
        5    1    3    3  502    0 -0.45935665944E+03 -0.70162694718E+03 -0.72463646660E+03  0.11083361459E+04  0.46999998093E+01 0.  1.
       -5    1    3    3    0  502  0.45935665944E+03  0.70162694718E+03  0.86544967566E+03  0.12051199711E+04  0.46999998093E+01 0. -1.
</event>
<event>
 5   0  0.1968318E-05  0.2291214E+04  0.7818609E-02  0.8481393E-01
        1   -1    0    0  501    0  0.00000000000E+00  0.00000000000E+00  0.18150165866E+04  0.18150165866E+04  0.50400001928E-02 0. -1.
       -1   -1    0    0    0  501  0.00000000000E+00  0.00000000000E+00 -0.72308736335E+03  0.72308736337E+03  0.50400001928E-02 0.  1.
    10030    2    1    2    0    0  0.00000000000E+00  0.00000000000E+00  0.10919292232E+04  0.25381039499E+04  0.22912141393E+04 0.  0.
        3    1    3    3  502    0  0.20623614569E+03 -0.78117689789E+03  0.14456668764E+04  0.16561169709E+04  0.10100000352E+00 0. -1.
       -3    1    3    3    0  502 -0.20623614569E+03  0.78117689789E+03 -0.35373765324E+03  0.88198697899E+03  0.10100000352E+00 0.  1.
</event>
<event>
 5   0  0.2042951E-05  0.2329983E+04  0.7818609E-02  0.8466192E-01
        1   -1    0    0  501    0  0.00000000000E+00  0.00000000000E+00  0.14066407957E+04  0.14066407957E+04  0.50400001928E-02 0. -1.
       -1   -1    0    0    0  501  0.00000000000E+00  0.00000000000E+00 -0.96485574029E+03  0.96485574030E+03  0.50400001928E-02 0.  1.
    10030    2    1    2    0    0  0.00000000000E+00  0.00000000000E+00  0.44178505537E+03  0.23714965360E+04  0.23299832156E+04 0.  0.
        2    1    3    3  502    0  0.39605375984E+03 -0.49315504041E+03  0.12166614390E+04  0.13712496242E+04  0.25500000920E-02 0. -1.
       -2    1    3    3    0  502 -0.39605375984E+03  0.49315504041E+03 -0.77487638367E+03  0.10002469118E+04  0.25500000920E-02 0.  1.
</event>
<event>
 5   0  0.4605516E-05  0.2079823E+04  0.7818609E-02  0.8570184E-01
       -2   -1    0    0    0  501  0.00000000000E+00  0.00000000000E+00  0.11466605940E+04  0.11466605940E+04  0.25500000920E-02 0. -1.
        2   -1    0    0  501    0  0.00000000000E+00  0.00000000000E+00 -0.94310030761E+03  0.94310030762E+03  0.25500000920E-02 0.  1.
    10030    2    1    2    0    0  0.00000000000E+00  0.00000000000E+00  0.20356028635E+03  0.20897609016E+04  0.20798230299E+04 0.  0.
        1    1    3    3  502    0  0.99297084535E+02  0.72172939692E+03 -0.64383214460E+03  0.97225154349E+03  0.50400001928E-02 0.  1.
       -1    1    3    3    0  502 -0.99297084535E+02 -0.72172939692E+03  0.84739243095E+03  0.11175093581E+04  0.50400001928E-02 0. -1.
</event>
<event>
 5   0  0.2031860E-05  0.2313639E+04  0.7818609E-02  0.8472563E-01
        1   -1    0    0  501    0  0.00000000000E+00  0.00000000000E+00  0.16686403278E+04  0.16686403278E+04  0.50400001928E-02 0.  1.
       -1   -1    0    0    0  501  0.00000000000E+00  0.00000000000E+00 -0.80198937686E+03  0.80198937688E+03  0.50400001928E-02 0. -1.
    10030    2    1    2    0    0  0.00000000000E+00  0.00000000000E+00  0.86665095095E+03  0.24706297047E+04  0.23136393986E+04 0.  0.
        4    1    3    3  502    0  0.65325886631E+03  0.18240865097E+03  0.14340423232E+04  0.15863477109E+04  0.12699999809E+01 0.  1.
       -4    1    3    3    0  502 -0.65325886631E+03 -0.18240865097E+03 -0.56739137223E+03  0.88428199379E+03  0.12699999809E+01 0. -1.
</event>
<event>
 5   0  0.4505107E-05  0.2325933E+04  0.7818609E-02  0.8467766E-01
       -2   -1    0    0    0  501  0.00000000000E+00  0.00000000000E+00  0.11224361093E+04  0.11224361093E+04  0.25500000920E-02 0.  1.
        2   -1    0    0  501    0  0.00000000000E+00  0.00000000000E+00 -0.12049605925E+04  0.12049605925E+04  0.25500000920E-02 0. -1.
    10030    2    1    2    0    0  0.00000000000E+00  0.00000000000E+00 -0.82524483203E+02  0.23273967018E+04  0.23259331713E+04 0.  0.
        4    1    3    3  502    0 -0.12912137144E+03 -0.51996300025E+03  0.99159644018E+03  0.11270754027E+04  0.12699999809E+01 0.  1.
       -4    1    3    3    0  502  0.12912137144E+03  0.51996300025E+03 -0.10741209234E+04  0.12003212991E+04  0.12699999809E+01 0. -1.
</event>
<event>
 5   0  0.1604500E-05  0.2395017E+04  0.7818609E-02  0.8441372E-01
       -3   -1    0    0    0  501  0.00000000000E+00  0.00000000000E+00  0.11588238868E+04  0.11588238912E+04  0.10100000352E+00 0. -1.
        3   -1    0    0  501    0  0.00000000000E+00  0.00000000000E+00 -0.12374842710E+04  0.12374842751E+04  0.10100000352E+00 0.  1.
    10030    2    1    2    0    0  0.00000000000E+00  0.00000000000E+00 -0.78660384140E+02  0.23963081663E+04  0.23950167791E+04 0.  0.
        5    1    3    3  502    0 -0.77853591462E+03 -0.73971261113E+03 -0.56943785561E+03  0.12155552142E+04  0.46999998093E+01 0.  1.
       -5    1    3    3    0  502  0.77853591462E+03  0.73971261113E+03  0.49077747147E+03  0.11807529521E+04  0.46999998093E+01 0. -1.
</event>
<event>
 5   0  0.4798609E-05  0.2232904E+04  0.7818609E-02  0.8504856E-01
        2   -1    0    0  501    0  0.00000000000E+00  0.00000000000E+00  0.11837733617E+04  0.11837733617E+04  0.25500000920E-02 0. -1.
       -2   -1    0    0    0  501  0.00000000000E+00  0.00000000000E+00 -0.10529592120E+04  0.10529592120E+04  0.25500000920E-02 0.  1.
    10030    2    1    2    0    0  0.00000000000E+00  0.00000000000E+00  0.13081414973E+03  0.22367325737E+04  0.22329039981E+04 0.  0.
        2    1    3    3  502    0  0.15000740420E+03  0.80823671515E+03 -0.69134589331E+03  0.10741079802E+04  0.25500000920E-02 0.  1.
       -2    1    3    3    0  502 -0.15000740420E+03 -0.80823671515E+03  0.82216004303E+03  0.11626245935E+04  0.25500000920E-02 0. -1.
</event>
<event>
 5   0  0.2031860E-05  0.2282987E+04  0.7818609E-02  0.8484660E-01
       -1   -1    0    0    0  501  0.00000000000E+00  0.00000000000E+00  0.10418943317E+04  0.10418943318E+04  0.50400001928E-02 0.  1.
        1   -1    0    0  501    0  0.00000000000E+00  0.00000000000E+00 -0.12506132911E+04  0.12506132912E+04  0.50400001928E-02 0. -1.
    10030    2    1    2    0    0  0.00000000000E+00  0.00000000000E+00 -0.20871895941E+03  0.22925076229E+04  0.22829865521E+04 0.  0.
        4    1    3    3  502    0  0.93087886710E+03  0.39553186963E+03 -0.63573964894E+03  0.11946327633E+04  0.12699999809E+01 0. -1.
       -4    1    3    3    0  502 -0.93087886710E+03 -0.39553186963E+03  0.42702068954E+03  0.10978748596E+04  0.12699999809E+01 0.  1.
</event>
<event>
 5   0  0.4505107E-05  0.2353167E+04  0.7818609E-02  0.8457248E-01
       -2   -1    0    0    0  501  0.00000000000E+00  0.00000000000E+00  0.12462886318E+04  0.12462886318E+04  0.25500000920E-02 0.  1.
        2   -1    0    0  501    0  0.00000000000E+00  0.00000000000E+00 -0.11107766955E+04  0.11107766955E+04  0.25500000920E-02 0. -1.
    10030    2    1    2    0    0  0.00000000000E+00  0.00000000000E+00  0.13551193630E+03  0.23570653274E+04  0.23531666904E+04 0.  0.
        4    1    3    3  502    0 -0.77594747490E+02 -0.11444641742E+04  0.32996737191E+03  0.11936076702E+04  0.12699999809E+01 0. -1.
       -4    1    3    3    0  502  0.77594747490E+02  0.11444641742E+04 -0.19445543562E+03  0.11634576572E+04  0.12699999809E+01 0.  1.
</event>
<event>
 5   0  0.1968318E-05  0.2321368E+04  0.7818609E-02  0.8469543E-01
       -1   -1    0    0    0  501  0.00000000000E+00  0.00000000000E+00  0.82350373452E+03  0.82350373453E+03  0.50400001928E-02 0. -1.
        1   -1    0    0  501    0  0.00000000000E+00  0.00000000000E+00 -0.16359214262E+04  0.16359214262E+04  0.50400001928E-02 0.  1.
    10030    2    1    2    0    0  0.00000000000E+00  0.00000000000E+00 -0.81241769170E+03  0.24594251608E+04  0.23213680483E+04 0.  0.
        3    1    3    3  502    0 -0.84829936527E+03  0.49376978555E+03  0.25012290036E+03  0.10129076413E+04  0.10100000352E+00 0.  1.
       -3    1    3    3    0  502  0.84829936527E+03 -0.49376978555E+03 -0.10625405921E+04  0.14465175195E+04  0.10100000352E+00 0. -1.
</event>
<event>
 5   0  0.4436695E-05  0.2311790E+04  0.7818609E-02  0.8473287E-01
       -2   -1    0    0    0  501  0.00000000000E+00  0.00000000000E+00  0.14039592944E+04  0.14039592944E+04  0.25500000920E-02 0.  1.
        2   -1    0    0  501    0  0.00000000000E+00  0.00000000000E+00 -0.95166093699E+03  0.95166093699E+03  0.25500000920E-02 0. -1.
    10030    2    1    2    0    0  0.00000000000E+00  0.00000000000E+00  0.45229835745E+03  0.23556202314E+04  0.23117899711E+04 0.  0.
        5    1    3    3  502    0  0.32727034629E+03  0.29800416684E+03 -0.86187755212E+03  0.96890008147E+03  0.46999998093E+01 0. -1.
       -5    1    3    3    0  502 -0.32727034629E+03 -0.29800416684E+03  0.13141759096E+04  0.13867201500E+04  0.46999998093E+01 0.  1.
</event>
<event>
 5   0  0.4436695E-05  0.2349142E+04  0.7818609E-02  0.8458793E-01
        2   -1    0    0  501    0  0.00000000000E+00  0.00000000000E+00  0.22239117024E+04  0.22239117024E+04  0.25500000920E-02 0. -1.
       -2   -1    0    0    0  501  0.00000000000E+00  0.00000000000E+00 -0.62035596975E+03  0.62035596975E+03  0.25500000920E-02 0.  1.
    10030    2    1    2    0    0  0.00000000000E+00  0.00000000000E+00  0.16035557326E+04  0.28442676721E+04  0.23491418865E+04 0.  0.
        5    1    3    3  502    0 -0.31150038212E+03  0.30359543874E+03  0.21227882775E+04  0.21668998222E+04  0.46999998093E+01 0. -1.
       -5    1    3    3    0  502  0.31150038212E+03 -0.30359543874E+03 -0.51923254485E+03  0.67736784993E+03  0.46999998093E+01 0.  1.
</event>
<event>
 5   0  0.4605516E-05  0.1907086E+04  0.7818609E-02  0.8651337E-01
       -2   -1    0    0    0  501  0.00000000000E+00  0.00000000000E+00  0.12704259478E+04  0.12704259478E+04  0.25500000920E-02 0.  1.
        2   -1    0    0  501    0  0.00000000000E+00  0.00000000000E+00 -0.71570005832E+03  0.71570005833E+03  0.25500000920E-02 0. -1.
    10030    2    1    2    0    0  0.00000000000E+00  0.00000000000E+00  0.55472588948E+03  0.19861260061E+04  0.19070856561E+04 0.  0.
        1    1    3    3  502    0 -0.71442607915E+03 -0.31240494055E+03 -0.29424030318E+03  0.83341395806E+03  0.50400001928E-02 0. -1.
       -1    1    3    3    0  502  0.71442607915E+03  0.31240494055E+03  0.84896619266E+03  0.11527120481E+04  0.50400001928E-02 0.  1.
</event>
<event>
 5   0  0.2031860E-05  0.2287701E+04  0.7818609E-02  0.8482786E-01
        1   -1    0    0  501    0  0.00000000000E+00  0.00000000000E+00  0.18908544407E+04  0.18908544407E+04  0.50400001928E-02 0. -1.
       -1   -1    0    0    0  501  0.00000000000E+00  0.00000000000E+00 -0.69195904963E+03  0.69195904965E+03  0.50400001928E-02 0.  1.
    10030    2    1    2    0    0  0.00000000000E+00  0.00000000000E+00  0.11988953911E+04  0.25828134904E+04  0.22877008911E+04 0.  0.
        4    1    3    3  502    0 -0.87846470334E+02  0.96537030932E+03 -0.86121376470E+02  0.97317795950E+03  0.12699999809E+01 0.  1.
       -4    1    3    3    0  502  0.87846470334E+02 -0.96537030932E+03  0.12850167676E+04  0.16096355309E+04  0.12699999809E+01 0. -1.
</event>
<event>
 5   0  0.1968318E-05  0.2297011E+04  0.7818609E-02  0.8479100E-01
        1   -1    0    0  501    0  0.00000000000E+00  0.00000000000E+00  0.94820213521E+03  0.94820213522E+03  0.50400001928E-02 0. -1.
       -1   -1    0    0    0  501  0.00000000000E+00  0.00000000000E+00 -0.13911225605E+04  0.13911225605E+04  0.50400001928E-02 0.  1.
    10030    2    1    2    0    0  0.00000000000E+00  0.00000000000E+00 -0.44292042529E+03  0.23393246957E+04  0.22970114342E+04 0.  0.
        3    1    3    3  502    0  0.13686605595E+03 -0.95635310446E+03 -0.85396590406E+03  0.12894189983E+04  0.10100000352E+00 0.  1.
       -3    1    3    3    0  502 -0.13686605595E+03  0.95635310446E+03  0.41104547877E+03  0.10499056974E+04  0.10100000352E+00 0. -1.
</event>
<event>
 5   0  0.1968318E-05  0.2293819E+04  0.7818609E-02  0.8480362E-01
       -1   -1    0    0    0  501  0.00000000000E+00  0.00000000000E+00  0.74434979531E+03  0.74434979533E+03  0.50400001928E-02 0.  1.
        1   -1    0    0  501    0  0.00000000000E+00  0.00000000000E+00 -0.17671815719E+04  0.17671815719E+04  0.50400001928E-02 0. -1.
    10030    2    1    2    0    0  0.00000000000E+00  0.00000000000E+00 -0.10228317765E+04  0.25115313672E+04  0.22938188606E+04 0.  0.
        3    1    3    3  502    0 -0.81502203456E+03 -0.27653041939E+02 -0.13944177411E+04  0.16153719245E+04  0.10100000352E+00 0. -1.
       -3    1    3    3    0  502  0.81502203456E+03  0.27653041939E+02  0.37158596453E+03  0.89615944272E+03  0.10100000352E+00 0.  1.
</event>
<event>
 5   0  0.4505107E-05  0.2334793E+04  0.7818609E-02  0.8464328E-01
        2   -1    0    0  501    0  0.00000000000E+00  0.00000000000E+00  0.13750656119E+04  0.13750656119E+04  0.25500000920E-02 0.  1.
       -2   -1    0    0    0  501  0.00000000000E+00  0.00000000000E+00 -0.99109089055E+03  0.99109089055E+03  0.25500000920E-02 0. -1.
    10030    2    1    2    0    0  0.00000000000E+00  0.00000000000E+00  0.38397472138E+03  0.23661565025E+04  0.23347933544E+04 0.  0.
        4    1    3    3  502    0 -0.30456876432E+03  0.50739927223E+03 -0.82780883273E+03  0.10175879471E+04  0.12699999809E+01 0. -1.
       -4    1    3    3    0  502  0.30456876432E+03 -0.50739927223E+03  0.12117835541E+04  0.13485685554E+04  0.12699999809E+01 0.  1.
</event>
<event>
 5   0  0.2043885E-05  0.2312388E+04  0.7818609E-02  0.8473053E-01
        1   -1    0    0  501    0  0.00000000000E+00  0.00000000000E+00  0.17353712684E+04  0.17353712684E+04  0.50400001928E-02 0.  1.
       -1   -1    0    0    0  501  0.00000000000E+00  0.00000000000E+00 -0.77031624285E+03  0.77031624287E+03  0.50400001928E-02 0. -1.
    10030    2    1    2    0    0  0.00000000000E+00  0.00000000000E+00  0.96505502556E+03  0.25056875113E+04  0.23123880950E+04 0.  0.
        5    1    3    3  502    0 -0.50759460060E+03  0.63821743540E+03  0.13706698375E+04  0.15949080434E+04  0.46999998093E+01 0.  1.
       -5    1    3    3    0  502  0.50759460060E+03 -0.63821743540E+03 -0.40561481198E+03  0.91077946787E+03  0.46999998093E+01 0. -1.
</event>
<event>
 5   0  0.2031860E-05  0.2291266E+04  0.7818609E-02  0.8481373E-01
       -1   -1    0    0    0  501  0.00000000000E+00  0.00000000000E+00  0.66319214031E+03  0.66319214033E+03  0.50400001928E-02 0. -1.
        1   -1    0    0  501    0  0.00000000000E+00  0.00000000000E+00 -0.19790273595E+04  0.19790273595E+04  0.50400001928E-02 0.  1.
    10030    2    1    2    0    0  0.00000000000E+00  0.00000000000E+00 -0.13158352192E+04  0.26422194999E+04  0.22912663663E+04 0.  0.
        4    1    3    3  502    0 -0.49742776495E+03 -0.21804034407E+03 -0.18211327697E+04  0.19003952617E+04  0.12699999809E+01 0.  1.
       -4    1    3    3    0  502  0.49742776495E+03  0.21804034407E+03  0.50529755044E+03  0.74182423819E+03  0.12699999809E+01 0. -1.
</event>
<event>
 5   0  0.2042951E-05  0.2258337E+04  0.7818609E-02  0.8494532E-01
       -1   -1    0    0    0  501  0.00000000000E+00  0.00000000000E+00  0.11430216810E+04  0.11430216811E+04  0.50400001928E-02 0.  1.
        1   -1    0    0  501    0  0.00000000000E+00  0.00000000000E+00 -0.11154833524E+04  0.11154833524E+04  0.50400001928E-02 0. -1.
    10030    2    1    2    0    0  0.00000000000E+00  0.00000000000E+00  0.27538328663E+02  0.22585050334E+04  0.22583371375E+04 0.  0.
        2    1    3    3  502    0 -0.39934455354E+03  0.10561360406E+04  0.24826560680E+02  0.11293873414E+04  0.25500000920E-02 0.  1.
       -2    1    3    3    0  502  0.39934455354E+03 -0.10561360406E+04  0.27117679831E+01  0.11291176920E+04  0.25500000920E-02 0. -1.
</event>
<event>
 5   0  0.4602447E-05  0.2295345E+04  0.7818609E-02  0.8479759E-01
       -2   -1    0    0    0  501  0.00000000000E+00  0.00000000000E+00  0.12550040120E+04  0.12550040120E+04  0.25500000920E-02 0. -1.
        2   -1    0    0  501    0  0.00000000000E+00  0.00000000000E+00 -0.10495200527E+04  0.10495200527E+04  0.25500000920E-02 0.  1.
    10030    2    1    2    0    0  0.00000000000E+00  0.00000000000E+00  0.20548395928E+03  0.23045240647E+04  0.22953447469E+04 0.  0.
        3    1    3    3  502    0 -0.74945711026E+03  0.84521159860E+03  0.30624261709E+03  0.11704072613E+04  0.10100000352E+00 0. -1.
       -3    1    3    3    0  502  0.74945711026E+03 -0.84521159860E+03 -0.10075865781E+03  0.11341168034E+04  0.10100000352E+00 0.  1.
</event>
<event>
 5   0  0.4505107E-05  0.2299760E+04  0.7818609E-02  0.8478016E-01
       -2   -1    0    0    0  501  0.00000000000E+00  0.00000000000E+00  0.81688456851E+03  0.81688456852E+03  0.25500000920E-02 0.  1.
        2   -1    0    0  501    0  0.00000000000E+00  0.00000000000E+00 -0.16186174545E+04  0.16186174545E+04  0.25500000920E-02 0. -1.
    10030    2    1    2    0    0  0.00000000000E+00  0.00000000000E+00 -0.80173288598E+03  0.24355020230E+04  0.22997596578E+04 0.  0.
        4    1    3    3  502    0  0.29731698670E+03 -0.10965848407E+04 -0.58830573151E+03  0.12794533794E+04  0.12699999809E+01 0.  1.
       -4    1    3    3    0  502 -0.29731698670E+03  0.10965848407E+04 -0.21342715448E+03  0.11560486437E+04  0.12699999809E+01 0. -1.
</event>
<event>
 5   0  0.4605516E-05  0.2237223E+04  0.7818609E-02  0.8503093E-01
        2   -1    0    0  501    0  0.00000000000E+00  0.00000000000E+00  0.17806789994E+04  0.17806789994E+04  0.25500000920E-02 0. -1.
       -2   -1    0    0    0  501  0.00000000000E+00  0.00000000000E+00 -0.70270474823E+03  0.70270474823E+03  0.25500000920E-02 0.  1.
    10030    2    1    2    0    0  0.00000000000E+00  0.00000000000E+00  0.10779742512E+04  0.24833837477E+04  0.22372229106E+04 0.  0.
        1    1    3    3  502    0 -0.87423979368E+03 -0.27888803120E+03  0.12490746038E+04  0.15499229389E+04  0.50400001928E-02 0. -1.
       -1    1    3    3    0  502  0.87423979368E+03  0.27888803120E+03 -0.17110035255E+03  0.93346080875E+03  0.50400001928E-02 0.  1.
</event>
<event>
 5   0  0.4602447E-05  0.2312574E+04  0.7818609E-02  0.8472980E-01
       -2   -1    0    0    0  501  0.00000000000E+00  0.00000000000E+00  0.17716497374E+04  0.17716497374E+04  0.25500000920E-02 0.  1.
        2   -1    0    0  501    0  0.00000000000E+00  0.00000000000E+00 -0.75466357014E+03  0.75466357014E+03  0.25500000920E-02 0. -1.
    10030    2    1    2    0    0  0.00000000000E+00  0.00000000000E+00  0.10169861672E+04  0.25263133075E+04  0.23125739044E+04 0.  0.
        3    1    3    3  502    0 -0.73997021464E+03 -0.15786490175E+03  0.14636762422E+04  0.16476727217E+04  0.10100000352E+00 0.  1.
       -3    1    3    3    0  502  0.73997021464E+03  0.15786490175E+03 -0.44669007495E+03  0.87864058580E+03  0.10100000352E+00 0. -1.
</event>
<event>
 5   0  0.2043885E-05  0.2270612E+04  0.7818609E-02  0.8489599E-01
       -1   -1    0    0    0  501  0.00000000000E+00  0.00000000000E+00  0.10440075679E+04  0.10440075679E+04  0.50400001928E-02 0.  1.
        1   -1    0    0  501    0  0.00000000000E+00  0.00000000000E+00 -0.12345886880E+04  0.12345886880E+04  0.50400001928E-02 0. -1.
    10030    2    1    2    0    0  0.00000000000E+00  0.00000000000E+00 -0.19058112009E+03  0.22785962559E+04  0.22706121936E+04 0.  0.
        5    1    3    3  502    0  0.12504837308E+03  0.60482662515E+02 -0.12260189969E+04  0.12338719215E+04  0.46999998093E+01 0. -1.
       -5    1    3    3    0  502 -0.12504837308E+03 -0.60482662515E+02  0.10354378768E+04  0.10447243343E+04  0.46999998093E+01 0.  1.
</event>
<event>
 5   0  0.2031860E-05  0.2295789E+04  0.7818609E-02  0.8479583E-01
        1   -1    0    0  501    0  0.00000000000E+00  0.00000000000E+00  0.13333295805E+04  0.13333295805E+04  0.50400001928E-02 0. -1.
       -1   -1    0    0    0  501  0.00000000000E+00  0.00000000000E+00 -0.98824873466E+03  0.98824873467E+03  0.50400001928E-02 0.  1.
    10030    2    1    2    0    0  0.00000000000E+00  0.00000000000E+00  0.34508084582E+03  0.23215783152E+04  0.22957885537E+04 0.  0.
        4    1    3    3  502    0 -0.48419622952E+03 -0.26630458563E+03 -0.84489092237E+03  0.10095575291E+04  0.12699999809E+01 0.  1.
       -4    1    3    3    0  502  0.48419622952E+03  0.26630458563E+03  0.11899717682E+04  0.13120207860E+04  0.12699999809E+01 0. -1.
</event>
<event>
 5   0  0.2043885E-05  0.2276476E+04  0.7818609E-02  0.8487255E-01
        1   -1    0    0  501    0  0.00000000000E+00  0.00000000000E+00  0.74181787981E+03  0.74181787983E+03  0.50400001928E-02 0. -1.
       -1   -1    0    0    0  501  0.00000000000E+00  0.00000000000E+00 -0.17465004555E+04  0.17465004555E+04  0.50400001928E-02 0.  1.
    10030    2    1    2    0    0  0.00000000000E+00  0.00000000000E+00 -0.10046825757E+04  0.24883183353E+04  0.22764755786E+04 0.  0.
        5    1    3    3  502    0 -0.59386420473E+03  0.65171196584E+03  0.28447779415E+03  0.92647335928E+03  0.46999998093E+01 0. -1.
       -5    1    3    3    0  502  0.59386420473E+03 -0.65171196584E+03 -0.12891603698E+04  0.15618449761E+04  0.46999998093E+01 0.  1.
</event>
<event>
 5   0  0.2085063E-05  0.2357468E+04  0.7818609E-02  0.8455601E-01
        1   -1    0    0  501    0  0.00000000000E+00  0.00000000000E+00  0.17836052519E+04  0.17836052519E+04  0.50400001928E-02 0.  1.
       -1   -1    0    0    0  501  0.00000000000E+00  0.00000000000E+00 -0.77899196691E+03  0.77899196692E+03  0.50400001928E-02 0. -1.
    10030    2    1    2    0    0  0.00000000000E+00  0.00000000000E+00  0.10046132850E+04  0.25625972188E+04  0.23574682720E+04 0.  0.
        1    1    3    3  502    0 -0.32084038918E+03  0.36266381008E+03 -0.66589064242E+03  0.82333100401E+03  0.50400001928E-02 0. -1.
       -1    1    3    3    0  502  0.32084038918E+03 -0.36266381008E+03  0.16705039274E+04  0.17392662148E+04  0.50400001928E-02 0.  1.
</event>
<event>
 5   0  0.4505107E-05  0.2301262E+04  0.7818609E-02  0.8477424E-01
        2   -1    0    0  501    0  0.00000000000E+00  0.00000000000E+00  0.13808752203E+04  0.13808752203E+04  0.25500000920E-02 0. -1.
       -2   -1    0    0    0  501  0.00000000000E+00  0.00000000000E+00 -0.95877751314E+03  0.95877751315E+03  0.25500000920E-02 0.  1.
    10030    2    1    2    0    0  0.00000000000E+00  0.00000000000E+00  0.42209770718E+03  0.23396527335E+04  0.23012623577E+04 0.  0.
        4    1    3    3  502    0  0.66133818223E+03  0.37913315659E+03  0.10873089039E+04  0.13279128010E+04  0.12699999809E+01 0. -1.
       -4    1    3    3    0  502 -0.66133818223E+03 -0.37913315659E+03 -0.66521119675E+03  0.10117399324E+04  0.12699999809E+01 0.  1.
</event>
<event>
 5   0  0.4605516E-05  0.2332108E+04  0.7818609E-02  0.8465368E-01
        2   -1    0    0  501    0  0.00000000000E+00  0.00000000000E+00  0.16460296875E+04  0.16460296875E+04  0.25500000920E-02 0. -1.
       -2   -1    0    0    0  501  0.00000000000E+00  0.00000000000E+00 -0.82603727992E+03  0.82603727993E+03  0.25500000920E-02 0.  1.
    10030    2    1    2    0    0  0.00000000000E+00  0.00000000000E+00  0.81999240757E+03  0.24720669674E+04  0.23321079613E+04 0.  0.
        1    1    3    3  502    0 -0.62071898439E+03  0.69757337222E+03 -0.33033169714E+03  0.99046438471E+03  0.50400001928E-02 0.  1.
       -1    1    3    3    0  502  0.62071898439E+03 -0.69757337222E+03  0.11503241047E+04  0.14816025827E+04  0.50400001928E-02 0. -1.
</event>
<event>
 5   0  0.4798609E-05  0.2291976E+04  0.7818609E-02  0.8481091E-01
        2   -1    0    0  501    0  0.00000000000E+00  0.00000000000E+00  0.13750355665E+04  0.13750355665E+04  0.25500000920E-02 0.  1.
       -2   -1    0    0    0  501  0.00000000000E+00  0.00000000000E+00 -0.95509441866E+03  0.95509441866E+03  0.25500000920E-02 0. -1.
    10030    2    1    2    0    0  0.00000000000E+00  0.00000000000E+00  0.41994114787E+03  0.23301299852E+04  0.22919762608E+04 0.  0.
        2    1    3    3  502    0 -0.51982487038E+03  0.79018924735E+02  0.12451679522E+04  0.13516305396E+04  0.25500000920E-02 0.  1.
       -2    1    3    3    0  502  0.51982487038E+03 -0.79018924735E+02 -0.82522680438E+03  0.97849944558E+03  0.25500000920E-02 0. -1.
</event>
<event>
 5   0  0.1968318E-05  0.2264671E+04  0.7818609E-02  0.8491982E-01
       -1   -1    0    0    0  501  0.00000000000E+00  0.00000000000E+00  0.60168082158E+03  0.60168082160E+03  0.50400001928E-02 0.  1.
        1   -1    0    0  501    0  0.00000000000E+00  0.00000000000E+00 -0.21310037559E+04  0.21310037559E+04  0.50400001928E-02 0. -1.
    10030    2    1    2    0    0  0.00000000000E+00  0.00000000000E+00 -0.15293229343E+04  0.27326845775E+04  0.22646713586E+04 0.  0.
        3    1    3    3  502    0  0.98218986380E+03  0.66492831192E+02 -0.89508516533E+02  0.98849886691E+03  0.10100000352E+00 0.  1.
       -3    1    3    3    0  502 -0.98218986380E+03 -0.66492831192E+02 -0.14398144178E+04  0.17441857106E+04  0.10100000352E+00 0. -1.
</event>
<event>
 5   0  0.4602447E-05  0.2292546E+04  0.7818609E-02  0.8480866E-01
       -2   -1    0    0    0  501  0.00000000000E+00  0.00000000000E+00  0.91082386007E+03  0.91082386008E+03  0.25500000920E-02 0. -1.
        2   -1    0    0  501    0  0.00000000000E+00  0.00000000000E+00 -0.14425855935E+04  0.14425855935E+04  0.25500000920E-02 0.  1.
    10030    2    1    2    0    0  0.00000000000E+00  0.00000000000E+00 -0.53176173345E+03  0.23534094536E+04  0.22925456408E+04 0.  0.
        3    1    3    3  502    0  0.14615910603E+03  0.41075929266E+02  0.90045706326E+03  0.91316627688E+03  0.10100000352E+00 0. -1.
       -3    1    3    3    0  502 -0.14615910603E+03 -0.41075929266E+02 -0.14322187967E+04  0.14402431767E+04  0.10100000352E+00 0.  1.
</event>
<event>
 5   0  0.4436695E-05  0.2300376E+04  0.7818609E-02  0.8477773E-01
        2   -1    0    0  501    0  0.00000000000E+00  0.00000000000E+00  0.15395723260E+04  0.15395723260E+04  0.25500000920E-02 0. -1.
       -2   -1    0    0    0  501  0.00000000000E+00  0.00000000000E+00 -0.85928581619E+03  0.85928581619E+03  0.25500000920E-02 0.  1.
    10030    2    1    2    0    0  0.00000000000E+00  0.00000000000E+00  0.68028650982E+03  0.23988581422E+04  0.23003761977E+04 0.  0.
        5    1    3    3  502    0  0.35631216373E+03  0.16941331209E+03  0.14667903276E+04  0.15189322511E+04  0.46999998093E+01 0. -1.
       -5    1    3    3    0  502 -0.35631216373E+03 -0.16941331209E+03 -0.78650381781E+03  0.87992589106E+03  0.46999998093E+01 0.  1.
</event>
<event>
 5   0  0.4605516E-05  0.2300600E+04  0.7818609E-02  0.8477685E-01
       -2   -1    0    0    0  501  0.00000000000E+00  0.00000000000E+00  0.85523865094E+03  0.85523865095E+03  0.25500000920E-02 0. -1.
        2   -1    0    0  501    0  0.00000000000E+00  0.00000000000E+00 -0.15471586432E+04  0.15471586432E+04  0.25500000920E-02 0.  1.
    10030    2    1    2    0    0  0.00000000000E+00  0.00000000000E+00 -0.69191999230E+03  0.24023972942E+04  0.23005998095E+04 0.  0.
        1    1    3    3  502    0  0.42894702367E+03  0.35919288141E+03  0.70358730156E+03  0.89891610627E+03  0.50400001928E-02 0. -1.
       -1    1    3    3    0  502 -0.42894702367E+03 -0.35919288141E+03 -0.13955072939E+04  0.15034811879E+04  0.50400001928E-02 0.  1.
</event>
<event>
 5   0  0.1968318E-05  0.2305135E+04  0.7818609E-02  0.8475899E-01
        1   -1    0    0  501    0  0.00000000000E+00  0.00000000000E+00  0.70192903267E+03  0.70192903268E+03  0.50400001928E-02 0. -1.
       -1   -1    0    0    0  501  0.00000000000E+00  0.00000000000E+00 -0.18925154028E+04  0.18925154028E+04  0.50400001928E-02 0.  1.
    10030    2    1    2    0    0  0.00000000000E+00  0.00000000000E+00 -0.11905863701E+04  0.25944444355E+04  0.23051347084E+04 0.  0.
        3    1    3    3  502    0  0.98184609037E+03  0.34422970279E+03 -0.11534079319E+04  0.15533401756E+04  0.10100000352E+00 0.  1.
       -3    1    3    3    0  502 -0.98184609037E+03 -0.34422970279E+03 -0.37178438180E+02  0.10411042599E+04  0.10100000352E+00 0. -1.
</event>
<event>
 5   0  0.2031860E-05  0.2319425E+04  0.7818609E-02  0.8470301E-01
       -1   -1    0    0    0  501  0.00000000000E+00  0.00000000000E+00  0.13672038701E+04  0.13672038701E+04  0.50400001928E-02 0. -1.
        1   -1    0    0  501    0  0.00000000000E+00  0.00000000000E+00 -0.98371106549E+03  0.98371106550E+03  0.50400001928E-02 0.  1.
    10030    2    1    2    0    0  0.00000000000E+00  0.00000000000E+00  0.38349280459E+03  0.23509149356E+04  0.23194254252E+04 0.  0.
        4    1    3    3  502    0  0.51459484006E+03  0.53954124778E+03 -0.70858071304E+03  0.10285916815E+04  0.12699999809E+01 0.  1.
       -4    1    3    3    0  502 -0.51459484006E+03 -0.53954124778E+03  0.10920735176E+04  0.13223232541E+04  0.12699999809E+01 0. -1.
</event>
<event>
 5   0  0.1968318E-05  0.2205083E+04  0.7818609E-02  0.8516315E-01
       -1   -1    0    0    0  501  0.00000000000E+00  0.00000000000E+00  0.74678520321E+03  0.74678520322E+03  0.50400001928E-02 0.  1.
        1   -1    0    0  501    0  0.00000000000E+00  0.00000000000E+00 -0.16277748741E+04  0.16277748741E+04  0.50400001928E-02 0. -1.
    10030    2    1    2    0    0  0.00000000000E+00  0.00000000000E+00 -0.88098967091E+03  0.23745600773E+04  0.22050833909E+04 0.  0.
        3    1    3    3  502    0 -0.77715870607E+03  0.33060985951E+03  0.32272249953E+03  0.90411744565E+03  0.10100000352E+00 0.  1.
       -3    1    3    3    0  502  0.77715870607E+03 -0.33060985951E+03 -0.12037121704E+04  0.14704426317E+04  0.10100000352E+00 0. -1.
</event>
<event>
 5   0  0.4505107E-05  0.2304653E+04  0.7818609E-02  0.8476089E-01
       -2   -1    0    0    0  501  0.00000000000E+00  0.00000000000E+00  0.10299764627E+04  0.10299764627E+04  0.25500000920E-02 0. -1.
        2   -1    0    0  501    0  0.00000000000E+00  0.00000000000E+00 -0.12892109389E+04  0.12892109389E+04  0.25500000920E-02 0.  1.
    10030    2    1    2    0    0  0.00000000000E+00  0.00000000000E+00 -0.25923447626E+03  0.23191874016E+04  0.23046534859E+04 0.  0.
        4    1    3    3  502    0 -0.13945348644E+03 -0.57824671900E+03 -0.11227751976E+04  0.12706070597E+04  0.12699999809E+01 0.  1.
       -4    1    3    3    0  502  0.13945348644E+03  0.57824671900E+03  0.86354072139E+03  0.10485803418E+04  0.12699999809E+01 0. -1.
</event>
<event>
 5   0  0.4436695E-05  0.2296410E+04  0.7818609E-02  0.8479338E-01
        2   -1    0    0  501    0  0.00000000000E+00  0.00000000000E+00  0.14918933269E+04  0.14918933269E+04  0.25500000920E-02 0.  1.
       -2   -1    0    0    0  501  0.00000000000E+00  0.00000000000E+00 -0.88369209712E+03  0.88369209713E+03  0.25500000920E-02 0. -1.
    10030    2    1    2    0    0  0.00000000000E+00  0.00000000000E+00  0.60820122973E+03  0.23755854240E+04  0.22964096696E+04 0.  0.
        5    1    3    3  502    0  0.14070935750E+03 -0.45904701971E+03  0.13830512966E+04  0.14640274139E+04  0.46999998093E+01 0.  1.
       -5    1    3    3    0  502 -0.14070935750E+03  0.45904701971E+03 -0.77485006688E+03  0.91155801008E+03  0.46999998093E+01 0. -1.
</event>
<event>
 5   0  0.4798609E-05  0.2290906E+04  0.7818609E-02  0.8481515E-01
        2   -1    0    0  501    0  0.00000000000E+00  0.00000000000E+00  0.23450836436E+04  0.23450836436E+04  0.25500000920E-02 0. -1.
       -2   -1    0    0    0  501  0.00000000000E+00  0.00000000000E+00 -0.55949494502E+03  0.55949494502E+03  0.25500000920E-02 0.  1.
    10030    2    1    2    0    0  0.00000000000E+00  0.00000000000E+00  0.17855886986E+04  0.29045785886E+04  0.22909058857E+04 0.  0.
        2    1    3    3  502    0  0.85891781146E+03 -0.53285995417E+03  0.15760156654E+04  0.18722993658E+04  0.25500000920E-02 0. -1.
       -2    1    3    3    0  502 -0.85891781146E+03  0.53285995417E+03  0.20957303316E+03  0.10322792228E+04  0.25500000920E-02 0.  1.
</event>
<event>
 5   0  0.4602447E-05  0.2341833E+04  0.7818609E-02  0.8461607E-01
       -2   -1    0    0    0  501  0.00000000000E+00  0.00000000000E+00  0.12655175604E+04  0.12655175604E+04  0.25500000920E-02 0.  1.
        2   -1    0    0  501    0  0.00000000000E+00  0.00000000000E+00 -0.10833875791E+04  0.10833875791E+04  0.25500000920E-02 0. -1.
    10030    2    1    2    0    0  0.00000000000E+00  0.00000000000E+00  0.18212998139E+03  0.23489051395E+04  0.23418334749E+04 0.  0.
        3    1    3    3  502    0  0.41401336369E+03  0.10189719919E+04 -0.31181321954E+03  0.11432141005E+04  0.10100000352E+00 0. -1.
       -3    1    3    3    0  502 -0.41401336369E+03 -0.10189719919E+04  0.49394320093E+03  0.12056910390E+04  0.10100000352E+00 0.  1.
</event>
<event>
 5   0  0.4798609E-05  0.2297449E+04  0.7818609E-02  0.8478927E-01
        2   -1    0    0  501    0  0.00000000000E+00  0.00000000000E+00  0.59015053406E+03  0.59015053407E+03  0.25500000920E-02 0.  1.
       -2   -1    0    0    0  501  0.00000000000E+00  0.00000000000E+00 -0.22359861995E+04  0.22359861995E+04  0.25500000920E-02 0. -1.
    10030    2    1    2    0    0  0.00000000000E+00  0.00000000000E+00 -0.16458356654E+04  0.28261367335E+04  0.22974494117E+04 0.  0.
        2    1    3    3  502    0  0.69012682260E+03  0.57715908717E+03  0.55718728227E+02  0.90138350321E+03  0.25500000920E-02 0.  1.
       -2    1    3    3    0  502 -0.69012682260E+03 -0.57715908717E+03 -0.17015543936E+04  0.19247532303E+04  0.25500000920E-02 0. -1.
</event>
<event>
 5   0  0.4602447E-05  0.2320397E+04  0.7818609E-02  0.8469922E-01
       -2   -1    0    0    0  501  0.00000000000E+00  0.00000000000E+00  0.24074313582E+04  0.24074313582E+04  0.25500000920E-02 0.  1.
        2   -1    0    0  501    0  0.00000000000E+00  0.00000000000E+00 -0.55912745607E+03  0.55912745608E+03  0.25500000920E-02 0. -1.
    10030    2    1    2    0    0  0.00000000000E+00  0.00000000000E+00  0.18483039021E+04  0.29665588142E+04  0.23203973547E+04 0.  0.
        3    1    3    3  502    0  0.82790920662E+03 -0.13275178716E+03 -0.10102192210E+03  0.84454847721E+03  0.10100000352E+00 0. -1.
       -3    1    3    3    0  502 -0.82790920662E+03  0.13275178716E+03  0.19493258242E+04  0.21220103370E+04  0.10100000352E+00 0.  1.
</event>
<event>
 5   0  0.4602447E-05  0.2290733E+04  0.7818609E-02  0.8481584E-01
       -2   -1    0    0    0  501  0.00000000000E+00  0.00000000000E+00  0.54313936858E+03  0.54313936858E+03  0.25500000920E-02 0. -1.
        2   -1    0    0  501    0  0.00000000000E+00  0.00000000000E+00 -0.24153361617E+04  0.24153361617E+04  0.25500000920E-02 0.  1.
    10030    2    1    2    0    0  0.00000000000E+00  0.00000000000E+00 -0.18721967931E+04  0.29584755303E+04  0.22907327716E+04 0.  0.
        3    1    3    3  502    0  0.68047621994E+03 -0.52766558631E+03 -0.19114870770E+04  0.20964879471E+04  0.10100000352E+00 0.  1.
       -3    1    3    3    0  502 -0.68047621994E+03  0.52766558631E+03  0.39290283855E+02  0.86198758314E+03  0.10100000352E+00 0. -1.
</event>
<event>
 5   0  0.4505107E-05  0.2275954E+04  0.7818609E-02  0.8487463E-01
        2   -1    0    0  501    0  0.00000000000E+00  0.00000000000E+00  0.19696107028E+04  0.19696107028E+04  0.25500000920E-02 0.  1.
       -2   -1    0    0    0  501  0.00000000000E+00  0.00000000000E+00 -0.65748612955E+03  0.65748612955E+03  0.25500000920E-02 0. -1.
    10030    2    1    2    0    0  0.00000000000E+00  0.00000000000E+00  0.13121245732E+04  0.26270968323E+04  0.22759540573E+04 0.  0.
        4    1    3    3  502    0 -0.12003799921E+03 -0.46949815131E+03  0.18445556319E+04  0.19071509451E+04  0.12699999809E+01 0.  1.
       -4    1    3    3    0  502  0.12003799921E+03  0.46949815131E+03 -0.53243105870E+03  0.71994588720E+03  0.12699999809E+01 0. -1.
</event>
<event>
 5   0  0.2043885E-05  0.2322972E+04  0.7818609E-02  0.8468918E-01
       -1   -1    0    0    0  501  0.00000000000E+00  0.00000000000E+00  0.13151730028E+04  0.13151730028E+04  0.50400001928E-02 0. -1.
        1   -1    0    0  501    0  0.00000000000E+00  0.00000000000E+00 -0.10257584102E+04  0.10257584102E+04  0.50400001928E-02 0.  1.
    10030    2    1    2    0    0  0.00000000000E+00  0.00000000000E+00  0.28941459256E+03  0.23409314130E+04  0.23229720347E+04 0.  0.
        5    1    3    3  502    0  0.11524421383E+04 -0.13871604358E+03  0.10361637692E+03  0.11653855441E+04  0.46999998093E+01 0.  1.
       -5    1    3    3    0  502 -0.11524421383E+04  0.13871604358E+03  0.18579821564E+03  0.11755458689E+04  0.46999998093E+01 0. -1.
</event>
<event>
 5   0  0.2042951E-05  0.2316146E+04  0.7818609E-02  0.8471582E-01
        1   -1    0    0  501    0  0.00000000000E+00  0.00000000000E+00  0.20431490932E+04  0.20431490932E+04  0.50400001928E-02 0.  1.
       -1   -1    0    0    0  501  0.00000000000E+00  0.00000000000E+00 -0.65640472699E+03  0.65640472701E+03  0.50400001928E-02 0. -1.
    10030    2    1    2    0    0  0.00000000000E+00  0.00000000000E+00  0.13867443662E+04  0.26995538202E+04  0.23161456973E+04 0.  0.
        2    1    3    3  502    0 -0.11405590184E+04 -0.92703465784E+01  0.92697998872E+03  0.14697798180E+04  0.25500000920E-02 0.  1.
       -2    1    3    3    0  502  0.11405590184E+04  0.92703465784E+01  0.45976437749E+03  0.12297740023E+04  0.25500000920E-02 0. -1.
</event>
<event>
 5   0  0.2042951E-05  0.2306666E+04  0.7818609E-02  0.8475298E-01
       -1   -1    0    0    0  501  0.00000000000E+00  0.00000000000E+00  0.10090939330E+04  0.10090939330E+04  0.50400001928E-02 0. -1.
        1   -1    0    0  501    0  0.00000000000E+00  0.00000000000E+00 -0.13181890843E+04  0.13181890843E+04  0.50400001928E-02 0.  1.
    10030    2    1    2    0    0  0.00000000000E+00  0.00000000000E+00 -0.30909515132E+03  0.23272830173E+04  0.23066656519E+04 0.  0.
        2    1    3    3  502    0 -0.80550822254E+03 -0.40181480835E+03 -0.88201786201E+03  0.12602595549E+04  0.25500000920E-02 0.  1.
       -2    1    3    3    0  502  0.80550822254E+03  0.40181480835E+03  0.57292271069E+03  0.10670234624E+04  0.25500000920E-02 0. -1.
</event>
<event>
 5   0  0.1968318E-05  0.2265787E+04  0.7818609E-02  0.8491534E-01
        1   -1    0    0  501    0  0.00000000000E+00  0.00000000000E+00  0.23342422604E+04  0.23342422604E+04  0.50400001928E-02 0.  1.
       -1   -1    0    0    0  501  0.00000000000E+00  0.00000000000E+00 -0.54983495968E+03  0.54983495970E+03  0.50400001928E-02 0. -1.
    10030    2    1    2    0    0  0.00000000000E+00  0.00000000000E+00  0.17844073007E+04  0.28840772201E+04  0.22657872797E+04 0.  0.
        3    1    3    3  502    0  0.71209274650E+03  0.38792253270E+03  0.18992189497E+04  0.20650890054E+04  0.10100000352E+00 0.  1.
       -3    1    3    3    0  502 -0.71209274650E+03 -0.38792253270E+03 -0.11481164895E+03  0.81898821476E+03  0.10100000352E+00 0. -1.
</event>
<event>
 5   0  0.4605516E-05  0.2303126E+04  0.7818609E-02  0.8476690E-01
        2   -1    0    0  501    0  0.00000000000E+00  0.00000000000E+00  0.18540210241E+04  0.18540210241E+04  0.25500000920E-02 0. -1.
       -2   -1    0    0    0  501  0.00000000000E+00  0.00000000000E+00 -0.71525447897E+03  0.71525447898E+03  0.25500000920E-02 0.  1.
    10030    2    1    2    0    0  0.00000000000E+00  0.00000000000E+00  0.11387665452E+04  0.25692755031E+04  0.23031255646E+04 0.  0.
        1    1    3    3  502    0  0.32394858904E+03  0.77855096733E+01 -0.66334548298E+03  0.73826183181E+03  0.50400001928E-02 0.  1.
       -1    1    3    3    0  502 -0.32394858904E+03 -0.77855096733E+01  0.18021120281E+04  0.18310136713E+04  0.50400001928E-02 0. -1.
</event>
<event>
 5   0  0.1968318E-05  0.2316873E+04  0.7818609E-02  0.8471298E-01
        1   -1    0    0  501    0  0.00000000000E+00  0.00000000000E+00  0.10886130615E+04  0.10886130615E+04  0.50400001928E-02 0.  1.
       -1   -1    0    0    0  501  0.00000000000E+00  0.00000000000E+00 -0.12327379876E+04  0.12327379876E+04  0.50400001928E-02 0. -1.
    10030    2    1    2    0    0  0.00000000000E+00  0.00000000000E+00 -0.14412492609E+03  0.23213510492E+04  0.23168726118E+04 0.  0.
        3    1    3    3  502    0 -0.54932193573E+03 -0.69923281842E+03  0.67186418993E+03  0.11144876057E+04  0.10100000352E+00 0.  1.
       -3    1    3    3    0  502  0.54932193573E+03  0.69923281842E+03 -0.81598911602E+03  0.12068634434E+04  0.10100000352E+00 0. -1.
</event>
<event>
 5   0  0.4602447E-05  0.2270375E+04  0.7818609E-02  0.8489694E-01
        2   -1    0    0  501    0  0.00000000000E+00  0.00000000000E+00  0.10195948305E+04  0.10195948305E+04  0.25500000920E-02 0.  1.
       -2   -1    0    0    0  501  0.00000000000E+00  0.00000000000E+00 -0.12638850977E+04  0.12638850977E+04  0.25500000920E-02 0. -1.
    10030    2    1    2    0    0  0.00000000000E+00  0.00000000000E+00 -0.24429026715E+03  0.22834799282E+04  0.22703750456E+04 0.  0.
        3    1    3    3  502    0  0.44299894325E+03  0.15166881710E+03 -0.11622317856E+04  0.12530100668E+04  0.10100000352E+00 0. -1.
       -3    1    3    3    0  502 -0.44299894325E+03 -0.15166881710E+03  0.91794151843E+03  0.10304698614E+04  0.10100000352E+00 0.  1.
</event>
<event>
 5   0  0.2085063E-05  0.2260017E+04  0.7818609E-02  0.8493855E-01
        1   -1    0    0  501    0  0.00000000000E+00  0.00000000000E+00  0.68950546263E+03  0.68950546264E+03  0.50400001928E-02 0.  1.
       -1   -1    0    0    0  501  0.00000000000E+00  0.00000000000E+00 -0.18519356799E+04  0.18519356799E+04  0.50400001928E-02 0. -1.
    10030    2    1    2    0    0  0.00000000000E+00  0.00000000000E+00 -0.11624302173E+04  0.25414411426E+04  0.22600174935E+04 0.  0.
        1    1    3    3  502    0  0.77760092633E+03  0.63637941934E+03 -0.11625812044E+04  0.15366317135E+04  0.50400001928E-02 0.  1.
       -1    1    3    3    0  502 -0.77760092633E+03 -0.63637941934E+03  0.15098710415E+00  0.10048094291E+04  0.50400001928E-02 0. -1.
</event>
<event>
 5   0  0.4505107E-05  0.2283608E+04  0.7818609E-02  0.8484412E-01
        2   -1    0    0  501    0  0.00000000000E+00  0.00000000000E+00  0.21446605799E+04  0.21446605799E+04  0.25500000920E-02 0. -1.
       -2   -1    0    0    0  501  0.00000000000E+00  0.00000000000E+00 -0.60788958271E+03  0.60788958271E+03  0.25500000920E-02 0.  1.
    10030    2    1    2    0    0  0.00000000000E+00  0.00000000000E+00  0.15367709972E+04  0.27525501626E+04  0.22836083946E+04 0.  0.
        4    1    3    3  502    0  0.86331902410E+02 -0.80695380453E+03 -0.19972058454E+03  0.83577363251E+03  0.12699999809E+01 0.  1.
       -4    1    3    3    0  502 -0.86331902410E+02  0.80695380453E+03  0.17364915818E+04  0.19167765301E+04  0.12699999809E+01 0. -1.
</event>
<event>
 5   0  0.4505107E-05  0.2306626E+04  0.7818609E-02  0.8475313E-01
        2   -1    0    0  501    0  0.00000000000E+00  0.00000000000E+00  0.23668797327E+04  0.23668797327E+04  0.25500000920E-02 0.  1.
       -2   -1    0    0    0  501  0.00000000000E+00  0.00000000000E+00 -0.56197657973E+03  0.56197657974E+03  0.25500000920E-02 0. -1.
    10030    2    1    2    0    0  0.00000000000E+00  0.00000000000E+00  0.18049031529E+04  0.29288563124E+04  0.23066260874E+04 0.  0.
        4    1    3    3  502    0 -0.50567267176E+03 -0.91484439924E+03  0.15212344172E+04  0.18457521206E+04  0.12699999809E+01 0.  1.
       -4    1    3    3    0  502  0.50567267176E+03  0.91484439924E+03  0.28366873576E+03  0.10831041918E+04  0.12699999809E+01 0. -1.
</event>
<event>
 5   0  0.2043885E-05  0.2314369E+04  0.7818609E-02  0.8472277E-01
       -1   -1    0    0    0  501  0.00000000000E+00  0.00000000000E+00  0.96291686173E+03  0.96291686174E+03  0.50400001928E-02 0. -1.
        1   -1    0    0  501    0  0.00000000000E+00  0.00000000000E+00 -0.13906452685E+04  0.13906452685E+04  0.50400001928E-02 0.  1.
    10030    2    1    2    0    0  0.00000000000E+00  0.00000000000E+00 -0.42772840673E+03  0.23535621302E+04  0.23143688364E+04 0.  0.
        5    1    3    3  502    0 -0.58716718914E+03 -0.43972151308E+03  0.69624035391E+03  0.10113817467E+04  0.46999998093E+01 0. -1.
       -5    1    3    3    0  502  0.58716718914E+03  0.43972151308E+03 -0.11239687606E+04  0.13421803835E+04  0.46999998093E+01 0.  1.
</event>
<event>
 5   0  0.1968318E-05  0.2300893E+04  0.7818609E-02  0.8477569E-01
        1   -1    0    0  501    0  0.00000000000E+00  0.00000000000E+00  0.12152718414E+04  0.12152718414E+04  0.50400001928E-02 0.  1.
       -1   -1    0    0    0  501  0.00000000000E+00  0.00000000000E+00 -0.10890786995E+04  0.10890786995E+04  0.50400001928E-02 0. -1.
    10030    2    1    2    0    0  0.00000000000E+00  0.00000000000E+00  0.12619314198E+03  0.23043505409E+04  0.23008925890E+04 0.  0.
        3    1    3    3  502    0  0.31139735422E+03 -0.41930770307E+03  0.10896929063E+04  0.12083947626E+04  0.10100000352E+00 0.  1.
       -3    1    3    3    0  502 -0.31139735422E+03  0.41930770307E+03 -0.96349976428E+03  0.10959557783E+04  0.10100000352E+00 0. -1.
</event>
<event>
 5   0  0.2042951E-05  0.2298003E+04  0.7818609E-02  0.8478709E-01
        1   -1    0    0  501    0  0.00000000000E+00  0.00000000000E+00  0.17355014343E+04  0.17355014343E+04  0.50400001928E-02 0. -1.
       -1   -1    0    0    0  501  0.00000000000E+00  0.00000000000E+00 -0.76070517264E+03  0.76070517266E+03  0.50400001928E-02 0.  1.
    10030    2    1    2    0    0  0.00000000000E+00  0.00000000000E+00  0.97479626167E+03  0.24962066070E+04  0.22980034101E+04 0.  0.
        2    1    3    3  502    0  0.97083026205E+03  0.58234043358E+03  0.70073816289E+03  0.13314149433E+04  0.25500000920E-02 0. -1.
       -2    1    3    3    0  502 -0.97083026205E+03 -0.58234043358E+03  0.27405809878E+03  0.11647916637E+04  0.25500000920E-02 0.  1.
</event>
<event>
 5   0  0.4505107E-05  0.2373483E+04  0.7818609E-02  0.8449498E-01
       -2   -1    0    0    0  501  0.00000000000E+00  0.00000000000E+00  0.53376713595E+03  0.53376713595E+03  0.25500000920E-02 0. -1.
        2   -1    0    0  501    0  0.00000000000E+00  0.00000000000E+00 -0.26385196503E+04  0.26385196503E+04  0.25500000920E-02 0.  1.
    10030    2    1    2    0    0  0.00000000000E+00  0.00000000000E+00 -0.21047525143E+04  0.31722867862E+04  0.23734827380E+04 0.  0.
        4    1    3    3  502    0  0.22190216239E+03  0.11218280044E+04 -0.62842361302E+03  0.13048588013E+04  0.12699999809E+01 0.  1.
       -4    1    3    3    0  502 -0.22190216239E+03 -0.11218280044E+04 -0.14763289013E+04  0.18674279849E+04  0.12699999809E+01 0. -1.
</event>
<event>
 5   0  0.1968318E-05  0.2096878E+04  0.7818609E-02  0.8562620E-01
        1   -1    0    0  501    0  0.00000000000E+00  0.00000000000E+00  0.21937791048E+04  0.21937791048E+04  0.50400001928E-02 0.  1.
       -1   -1    0    0    0  501  0.00000000000E+00  0.00000000000E+00 -0.50106416155E+03  0.50106416157E+03  0.50400001928E-02 0. -1.
    10030    2    1    2    0    0  0.00000000000E+00  0.00000000000E+00  0.16927149432E+04  0.26948432663E+04  0.20968777626E+04 0.  0.
        3    1    3    3  502    0 -0.74315500824E+03 -0.73938267843E+03  0.86699899571E+03  0.13603872170E+04  0.10100000352E+00 0. -1.
       -3    1    3    3    0  502  0.74315500824E+03  0.73938267843E+03  0.82571594750E+03  0.13344560493E+04  0.10100000352E+00 0.  1.
</event>
<event>
 5   0  0.4798609E-05  0.2294244E+04  0.7818609E-02  0.8480194E-01
        2   -1    0    0  501    0  0.00000000000E+00  0.00000000000E+00  0.15296273268E+04  0.15296273268E+04  0.25500000920E-02 0. -1.
       -2   -1    0    0    0  501  0.00000000000E+00  0.00000000000E+00 -0.86026787149E+03  0.86026787149E+03  0.25500000920E-02 0.  1.
    10030    2    1    2    0    0  0.00000000000E+00  0.00000000000E+00  0.66935945535E+03  0.23898951983E+04  0.22942443154E+04 0.  0.
        2    1    3    3  502    0  0.55769942826E+03 -0.33559076160E+03  0.13186452903E+04  0.14705356892E+04  0.25500000920E-02 0. -1.
       -2    1    3    3    0  502 -0.55769942826E+03  0.33559076160E+03 -0.64928583496E+03  0.91935950913E+03  0.25500000920E-02 0.  1.
</event>
<event>
 5   0  0.4505107E-05  0.2300019E+04  0.7818609E-02  0.8477914E-01
       -2   -1    0    0    0  501  0.00000000000E+00  0.00000000000E+00  0.16187919889E+04  0.16187919889E+04  0.25500000920E-02 0. -1.
        2   -1    0    0  501    0  0.00000000000E+00  0.00000000000E+00 -0.81698040851E+03  0.81698040851E+03  0.25500000920E-02 0.  1.
    10030    2    1    2    0    0  0.00000000000E+00  0.00000000000E+00  0.80181158041E+03  0.24357723974E+04  0.23000185568E+04 0.  0.
        4    1    3    3  502    0 -0.30753968833E+03 -0.67742129313E+03 -0.52780325769E+03  0.91217222059E+03  0.12699999809E+01 0.  1.
       -4    1    3    3    0  502  0.30753968833E+03  0.67742129313E+03  0.13296148381E+04  0.15236001768E+04  0.12699999809E+01 0. -1.
</event>
<event>
 5   0  0.2043885E-05  0.2386725E+04  0.7818609E-02  0.8444490E-01
        1   -1    0    0  501    0  0.00000000000E+00  0.00000000000E+00  0.51853996019E+03  0.51853996021E+03  0.50400001928E-02 0.  1.
       -1   -1    0    0    0  501  0.00000000000E+00  0.00000000000E+00 -0.27463926995E+04  0.27463926995E+04  0.50400001928E-02 0. -1.
    10030    2    1    2    0    0  0.00000000000E+00  0.00000000000E+00 -0.22278527393E+04  0.32649326597E+04  0.23867252553E+04 0.  0.
        5    1    3    3  502    0  0.10764526759E+04  0.46539125498E+03 -0.81188114733E+03  0.14263633727E+04  0.46999998093E+01 0.  1.
       -5    1    3    3    0  502 -0.10764526759E+04 -0.46539125498E+03 -0.14159715920E+04  0.18385692870E+04  0.46999998093E+01 0. -1.
</event>
<event>
 5   0  0.2042951E-05  0.2310619E+04  0.7818609E-02  0.8473746E-01
       -1   -1    0    0    0  501  0.00000000000E+00  0.00000000000E+00  0.69661960090E+03  0.69661960091E+03  0.50400001928E-02 0.  1.
        1   -1    0    0  501    0  0.00000000000E+00  0.00000000000E+00 -0.19160237179E+04  0.19160237179E+04  0.50400001928E-02 0. -1.
    10030    2    1    2    0    0  0.00000000000E+00  0.00000000000E+00 -0.12194041170E+04  0.26126433188E+04  0.23106186857E+04 0.  0.
        2    1    3    3  502    0 -0.10170295205E+04 -0.19547563646E+03 -0.30738078128E+02  0.10361006705E+04  0.25500000920E-02 0.  1.
       -2    1    3    3    0  502  0.10170295205E+04  0.19547563646E+03 -0.11886660388E+04  0.15765426483E+04  0.25500000920E-02 0. -1.
</event>
<event>
 5   0  0.4798609E-05  0.2295097E+04  0.7818609E-02  0.8479857E-01
        2   -1    0    0  501    0  0.00000000000E+00  0.00000000000E+00  0.20721644799E+04  0.20721644799E+04  0.25500000920E-02 0.  1.
       -2   -1    0    0    0  501  0.00000000000E+00  0.00000000000E+00 -0.63550353060E+03  0.63550353060E+03  0.25500000920E-02 0. -1.
    10030    2    1    2    0    0  0.00000000000E+00  0.00000000000E+00  0.14366609493E+04  0.27076680105E+04  0.22950972467E+04 0.  0.
        2    1    3    3  502    0 -0.66652985409E+03  0.19166073324E+03  0.17969398737E+04  0.19261331191E+04  0.25500000920E-02 0.  1.
       -2    1    3    3    0  502  0.66652985409E+03 -0.19166073324E+03 -0.36027892437E+03  0.78153489136E+03  0.25500000920E-02 0. -1.
</event>
<event>
 5   0  0.4602447E-05  0.2287340E+04  0.7818609E-02  0.8482929E-01
       -2   -1    0    0    0  501  0.00000000000E+00  0.00000000000E+00  0.57706181212E+03  0.57706181213E+03  0.25500000920E-02 0.  1.
        2   -1    0    0  501    0  0.00000000000E+00  0.00000000000E+00 -0.22666227207E+04  0.22666227207E+04  0.25500000920E-02 0. -1.
    10030    2    1    2    0    0  0.00000000000E+00  0.00000000000E+00 -0.16895609086E+04  0.28436845329E+04  0.22873403023E+04 0.  0.
        3    1    3    3  502    0  0.78175666573E+03  0.83459010270E+03 -0.82334494378E+03  0.14091064653E+04  0.10100000352E+00 0. -1.
       -3    1    3    3    0  502 -0.78175666573E+03 -0.83459010270E+03 -0.86621596482E+03  0.14345780675E+04  0.10100000352E+00 0.  1.
</event>
<event>
 5   0  0.4436695E-05  0.2329308E+04  0.7818609E-02  0.8466454E-01
       -2   -1    0    0    0  501  0.00000000000E+00  0.00000000000E+00  0.61071049352E+03  0.61071049353E+03  0.25500000920E-02 0. -1.
        2   -1    0    0  501    0  0.00000000000E+00  0.00000000000E+00 -0.22210507175E+04  0.22210507175E+04  0.25500000920E-02 0.  1.
    10030    2    1    2    0    0  0.00000000000E+00  0.00000000000E+00 -0.16103402240E+04  0.28317612110E+04  0.23293080344E+04 0.  0.
        5    1    3    3  502    0  0.11078200134E+04 -0.34872026252E+03 -0.69970507084E+03  0.13559057046E+04  0.46999998093E+01 0.  1.
       -5    1    3    3    0  502 -0.11078200134E+04  0.34872026252E+03 -0.91063515312E+03  0.14758555064E+04  0.46999998093E+01 0. -1.
</event>
<event>
 5   0  0.2042951E-05  0.2296108E+04  0.7818609E-02  0.8479457E-01
        1   -1    0    0  501    0  0.00000000000E+00  0.00000000000E+00  0.19487254805E+04  0.19487254805E+04  0.50400001928E-02 0.  1.
       -1   -1    0    0    0  501  0.00000000000E+00  0.00000000000E+00 -0.67635401797E+03  0.67635401799E+03  0.50400001928E-02 0. -1.
    10030    2    1    2    0    0  0.00000000000E+00  0.00000000000E+00  0.12723714626E+04  0.26250794985E+04  0.22961082803E+04 0.  0.
        2    1    3    3  502    0 -0.13263811622E+03  0.80429793458E+02  0.19366894840E+04  0.19428916540E+04  0.25500000920E-02 0.  1.
       -2    1    3    3    0  502  0.13263811622E+03 -0.80429793458E+02 -0.66431802148E+03  0.68218784453E+03  0.25500000920E-02 0. -1.
</event>
<event>
 5   0  0.4798609E-05  0.2098602E+04  0.7818609E-02  0.8561860E-01
        2   -1    0    0  501    0  0.00000000000E+00  0.00000000000E+00  0.12533212852E+04  0.12533212852E+04  0.25500000920E-02 0.  1.
       -2   -1    0    0    0  501  0.00000000000E+00  0.00000000000E+00 -0.87849153743E+03  0.87849153744E+03  0.25500000920E-02 0. -1.
    10030    2    1    2    0    0  0.00000000000E+00  0.00000000000E+00  0.37482974777E+03  0.21318128226E+04  0.20986015751E+04 0.  0.
        2    1    3    3  502    0  0.12388099714E+02  0.55191816747E+03  0.10938733051E+04  0.12252860630E+04  0.25500000920E-02 0.  1.
       -2    1    3    3    0  502 -0.12388099714E+02 -0.55191816747E+03 -0.71904355732E+03  0.90652675963E+03  0.25500000920E-02 0. -1.
</event>
<event>
 5   0  0.2042951E-05  0.2299495E+04  0.7818609E-02  0.8478120E-01
       -1   -1    0    0    0  501  0.00000000000E+00  0.00000000000E+00  0.13973869665E+04  0.13973869665E+04  0.50400001928E-02 0. -1.
        1   -1    0    0  501    0  0.00000000000E+00  0.00000000000E+00 -0.94599378843E+03  0.94599378844E+03  0.50400001928E-02 0.  1.
    10030    2    1    2    0    0  0.00000000000E+00  0.00000000000E+00  0.45139317806E+03  0.23433807549E+04  0.22994950666E+04 0.  0.
        2    1    3    3  502    0  0.10422865224E+04  0.36597447758E+03 -0.99167604858E+02  0.11091134870E+04  0.25500000920E-02 0. -1.
       -2    1    3    3    0  502 -0.10422865224E+04 -0.36597447758E+03  0.55056078292E+03  0.12342672680E+04  0.25500000920E-02 0.  1.
</event>
<event>
 5   0  0.4436695E-05  0.2320518E+04  0.7818609E-02  0.8469875E-01
        2   -1    0    0  501    0  0.00000000000E+00  0.00000000000E+00  0.15522375402E+04  0.15522375402E+04  0.25500000920E-02 0. -1.
       -2   -1    0    0    0  501  0.00000000000E+00  0.00000000000E+00 -0.86726468903E+03  0.86726468903E+03  0.25500000920E-02 0.  1.
    10030    2    1    2    0    0  0.00000000000E+00  0.00000000000E+00  0.68497285120E+03  0.24195022293E+04  0.23205178798E+04 0.  0.
        5    1    3    3  502    0  0.71587788785E+03 -0.32360282765E+03 -0.54773604016E+03  0.95772480393E+03  0.46999998093E+01 0.  1.
       -5    1    3    3    0  502 -0.71587788785E+03  0.32360282765E+03  0.12327088914E+04  0.14617774253E+04  0.46999998093E+01 0. -1.
</event>
<event>
 5   0  0.2085063E-05  0.2310187E+04  0.7818609E-02  0.8473915E-01
       -1   -1    0    0    0  501  0.00000000000E+00  0.00000000000E+00  0.11012091384E+04  0.11012091384E+04  0.50400001928E-02 0. -1.
        1   -1    0    0  501    0  0.00000000000E+00  0.00000000000E+00 -0.12116145275E+04  0.12116145275E+04  0.50400001928E-02 0.  1.
    10030    2    1    2    0    0  0.00000000000E+00  0.00000000000E+00 -0.11040538913E+03  0.23128236659E+04  0.23101869966E+04 0.  0.
        1    1    3    3  502    0 -0.29870509057E+03 -0.29766687595E+03  0.10213900195E+04  0.11050193990E+04  0.50400001928E-02 0. -1.
       -1    1    3    3    0  502  0.29870509057E+03  0.29766687595E+03 -0.11317954086E+04  0.12078042669E+04  0.50400001928E-02 0.  1.
</event>
<event>
 5   0  0.2042951E-05  0.2315959E+04  0.7818609E-02  0.8471655E-01
        1   -1    0    0  501    0  0.00000000000E+00  0.00000000000E+00  0.69011599292E+03  0.69011599294E+03  0.50400001928E-02 0. -1.
       -1   -1    0    0    0  501  0.00000000000E+00  0.00000000000E+00 -0.19430298697E+04  0.19430298697E+04  0.50400001928E-02 0.  1.
    10030    2    1    2    0    0  0.00000000000E+00  0.00000000000E+00 -0.12529138768E+04  0.26331458626E+04  0.23159585383E+04 0.  0.
        2    1    3    3  502    0 -0.66473435022E+03 -0.84959481773E+03 -0.14780890246E+03  0.10888207301E+04  0.25500000920E-02 0. -1.
       -2    1    3    3    0  502  0.66473435022E+03  0.84959481773E+03 -0.11051049743E+04  0.15443251325E+04  0.25500000920E-02 0.  1.
</event>
<event>
 5   0  0.2085063E-05  0.2307749E+04  0.7818609E-02  0.8474872E-01
       -1   -1    0    0    0  501  0.00000000000E+00  0.00000000000E+00  0.15473854606E+04  0.15473854606E+04  0.50400001928E-02 0. -1.
        1   -1    0    0  501    0  0.00000000000E+00  0.00000000000E+00 -0.86043634999E+03  0.86043635000E+03  0.50400001928E-02 0.  1.
    10030    2    1    2    0    0  0.00000000000E+00  0.00000000000E+00  0.68694911057E+03  0.24078218106E+04  0.23077492912E+04 0.  0.
        1    1    3    3  502    0 -0.64125817324E+03 -0.60261290756E+03  0.11222128183E+04  0.14260841387E+04  0.50400001928E-02 0. -1.
       -1    1    3    3    0  502  0.64125817324E+03  0.60261290756E+03 -0.43526370770E+03  0.98173767187E+03  0.50400001928E-02 0.  1.
</event>
<event>
 5   0  0.4436695E-05  0.2310160E+04  0.7818609E-02  0.8473926E-01
       -2   -1    0    0    0  501  0.00000000000E+00  0.00000000000E+00  0.64223916641E+03  0.64223916641E+03  0.25500000920E-02 0. -1.
        2   -1    0    0  501    0  0.00000000000E+00  0.00000000000E+00 -0.20774346009E+04  0.20774346009E+04  0.25500000920E-02 0.  1.
    10030    2    1    2    0    0  0.00000000000E+00  0.00000000000E+00 -0.14351954345E+04  0.27196737673E+04  0.23101600519E+04 0.  0.
        5    1    3    3  502    0  0.25604455948E+03 -0.70128134773E+03 -0.17552185826E+04  0.19073984135E+04  0.46999998093E+01 0.  1.
       -5    1    3    3    0  502 -0.25604455948E+03  0.70128134773E+03  0.32002314810E+03  0.81227535383E+03  0.46999998093E+01 0. -1.
</event>
<event>
 5   0  0.2043885E-05  0.2221286E+04  0.7818609E-02  0.8509621E-01
        1   -1    0    0  501    0  0.00000000000E+00  0.00000000000E+00  0.17031903851E+04  0.17031903852E+04  0.50400001928E-02 0. -1.
       -1   -1    0    0    0  501  0.00000000000E+00  0.00000000000E+00 -0.72424511701E+03  0.72424511703E+03  0.50400001928E-02 0.  1.
    10030    2    1    2    0    0  0.00000000000E+00  0.00000000000E+00  0.97894526814E+03  0.24274355022E+04  0.22212855015E+04 0.  0.
        5    1    3    3  502    0 -0.46593967268E+02  0.11058867438E+04  0.58932395949E+03  0.12539861671E+04  0.46999998093E+01 0. -1.
       -5    1    3    3    0  502  0.46593967268E+02 -0.11058867438E+04  0.38962130864E+03  0.11734493351E+04  0.46999998093E+01 0.  1.
</event>
<event>
 5   0  0.1968318E-05  0.1997789E+04  0.7818609E-02  0.8607655E-01
       -1   -1    0    0    0  501  0.00000000000E+00  0.00000000000E+00  0.78077589364E+03  0.78077589366E+03  0.50400001928E-02 0. -1.
        1   -1    0    0  501    0  0.00000000000E+00  0.00000000000E+00 -0.12779467271E+04  0.12779467271E+04  0.50400001928E-02 0.  1.
    10030    2    1    2    0    0  0.00000000000E+00  0.00000000000E+00 -0.49717083349E+03  0.20587226208E+04  0.19977887755E+04 0.  0.
        3    1    3    3  502    0  0.36195258399E+03 -0.88912728331E+03 -0.53310996413E+03  0.10980725126E+04  0.10100000352E+00 0.  1.
       -3    1    3    3    0  502 -0.36195258399E+03  0.88912728331E+03  0.35939130633E+02  0.96065010815E+03  0.10100000352E+00 0. -1.
</event>
<event>
 5   0  0.4605516E-05  0.2332738E+04  0.7818609E-02  0.8465124E-01
        2   -1    0    0  501    0  0.00000000000E+00  0.00000000000E+00  0.10512401922E+04  0.10512401922E+04  0.25500000920E-02 0.  1.
       -2   -1    0    0    0  501  0.00000000000E+00  0.00000000000E+00 -0.12941065632E+04  0.12941065632E+04  0.25500000920E-02 0. -1.
    10030    2    1    2    0    0  0.00000000000E+00  0.00000000000E+00 -0.24286637099E+03  0.23453467554E+04  0.23327381612E+04 0.  0.
        1    1    3    3  502    0  0.11553551664E+03 -0.18786849297E+03  0.10300843203E+04  0.10534309343E+04  0.50400001928E-02 0.  1.
       -1    1    3    3    0  502 -0.11553551664E+03  0.18786849297E+03 -0.12729506913E+04  0.12919158211E+04  0.50400001928E-02 0. -1.
</event>
<event>
 5   0  0.1968318E-05  0.2317238E+04  0.7818609E-02  0.8471155E-01
        1   -1    0    0  501    0  0.00000000000E+00  0.00000000000E+00  0.28457242042E+04  0.28457242042E+04  0.50400001928E-02 0.  1.
       -1   -1    0    0    0  501  0.00000000000E+00  0.00000000000E+00 -0.47172462251E+03  0.47172462253E+03  0.50400001928E-02 0. -1.
    10030    2    1    2    0    0  0.00000000000E+00  0.00000000000E+00  0.23739995817E+04  0.33174488267E+04  0.23172381630E+04 0.  0.
        3    1    3    3  502    0 -0.46362364710E+03  0.10206561492E+04  0.16061359667E+04  0.19586624556E+04  0.10100000352E+00 0. -1.
       -3    1    3    3    0  502  0.46362364710E+03 -0.10206561492E+04  0.76786361498E+03  0.13587863712E+04  0.10100000352E+00 0.  1.
</event>
<event>
 5   0  0.4602447E-05  0.2312121E+04  0.7818609E-02  0.8473157E-01
        2   -1    0    0  501    0  0.00000000000E+00  0.00000000000E+00  0.13898007025E+04  0.13898007025E+04  0.25500000920E-02 0.  1.
       -2   -1    0    0    0  501  0.00000000000E+00  0.00000000000E+00 -0.96163168338E+03  0.96163168338E+03  0.25500000920E-02 0. -1.
    10030    2    1    2    0    0  0.00000000000E+00  0.00000000000E+00  0.42816901910E+03  0.23514323859E+04  0.23121214407E+04 0.  0.
        3    1    3    3  502    0 -0.30694141488E+03 -0.11046433855E+04  0.63148453033E+02  0.11482324585E+04  0.10100000352E+00 0.  1.
       -3    1    3    3    0  502  0.30694141488E+03  0.11046433855E+04  0.36502056607E+03  0.12031999274E+04  0.10100000352E+00 0. -1.
</event>
<event>
 5   0  0.2085063E-05  0.2296010E+04  0.7818609E-02  0.8479496E-01
        1   -1    0    0  501    0  0.00000000000E+00  0.00000000000E+00  0.20098054423E+04  0.20098054423E+04  0.50400001928E-02 0. -1.
       -1   -1    0    0    0  501  0.00000000000E+00  0.00000000000E+00 -0.65574263439E+03  0.65574263441E+03  0.50400001928E-02 0.  1.
    10030    2    1    2    0    0  0.00000000000E+00  0.00000000000E+00  0.13540628079E+04  0.26655480767E+04  0.22960096824E+04 0.  0.
        1    1    3    3  502    0 -0.81685799284E+03 -0.52727906551E+02  0.16114885481E+04  0.18074657821E+04  0.50400001928E-02 0. -1.
       -1    1    3    3    0  502  0.81685799284E+03  0.52727906551E+02 -0.25742574024E+03  0.85808229463E+03  0.50400001928E-02 0.  1.
</event>
<event>
 5   0  0.2085063E-05  0.2232634E+04  0.7818609E-02  0.8504967E-01
        1   -1    0    0  501    0  0.00000000000E+00  0.00000000000E+00  0.25052410177E+04  0.25052410177E+04  0.50400001928E-02 0.  1.
       -1   -1    0    0    0  501  0.00000000000E+00  0.00000000000E+00 -0.49742253147E+03  0.49742253149E+03  0.50400001928E-02 0. -1.
    10030    2    1    2    0    0  0.00000000000E+00  0.00000000000E+00  0.20078184862E+04  0.30026635492E+04  0.22326337174E+04 0.  0.
        1    1    3    3  502    0 -0.10320825680E+04 -0.42499655613E+03  0.97886275124E+03  0.14845837079E+04  0.50400001928E-02 0. -1.
       -1    1    3    3    0  502  0.10320825680E+04  0.42499655613E+03  0.10289557350E+04  0.15180798413E+04  0.50400001928E-02 0.  1.
</event>
<event>
 5   0  0.4605516E-05  0.2312582E+04  0.7818609E-02  0.8472977E-01
       -2   -1    0    0    0  501  0.00000000000E+00  0.00000000000E+00  0.13343468326E+04  0.13343468326E+04  0.25500000920E-02 0. -1.
        2   -1    0    0  501    0  0.00000000000E+00  0.00000000000E+00 -0.10019950771E+04  0.10019950771E+04  0.25500000920E-02 0.  1.
    10030    2    1    2    0    0  0.00000000000E+00  0.00000000000E+00  0.33235175549E+03  0.23363419097E+04  0.23125820698E+04 0.  0.
        1    1    3    3  502    0 -0.82567879779E+02 -0.11458048147E+04  0.33207412353E+02  0.11492557855E+04  0.50400001928E-02 0. -1.
       -1    1    3    3    0  502  0.82567879779E+02  0.11458048147E+04  0.29914434314E+03  0.11870861242E+04  0.50400001928E-02 0.  1.
</event>
<event>
 5   0  0.1968318E-05  0.2351526E+04  0.7818609E-02  0.8457878E-01
       -1   -1    0    0    0  501  0.00000000000E+00  0.00000000000E+00  0.98361476114E+03  0.98361476115E+03  0.50400001928E-02 0.  1.
        1   -1    0    0  501    0  0.00000000000E+00  0.00000000000E+00 -0.14054468311E+04  0.14054468311E+04  0.50400001928E-02 0. -1.
    10030    2    1    2    0    0  0.00000000000E+00  0.00000000000E+00 -0.42183206996E+03  0.23890615923E+04  0.23515256742E+04 0.  0.
        3    1    3    3  502    0 -0.55216299915E+03  0.28397123834E+03 -0.12252996901E+04  0.13736385924E+04  0.10100000352E+00 0. -1.
       -3    1    3    3    0  502  0.55216299915E+03 -0.28397123834E+03  0.80346762013E+03  0.10154229999E+04  0.10100000352E+00 0.  1.
</event>
<event>
 5   0  0.2085063E-05  0.2286650E+04  0.7818609E-02  0.8483204E-01
        1   -1    0    0  501    0  0.00000000000E+00  0.00000000000E+00  0.95557140674E+03  0.95557140675E+03  0.50400001928E-02 0. -1.
       -1   -1    0    0    0  501  0.00000000000E+00  0.00000000000E+00 -0.13679688299E+04  0.13679688299E+04  0.50400001928E-02 0.  1.
    10030    2    1    2    0    0  0.00000000000E+00  0.00000000000E+00 -0.41239742312E+03  0.23235402366E+04  0.22866498631E+04 0.  0.
        1    1    3    3  502    0  0.23320787778E+03 -0.30712148736E+03  0.88749381312E+03  0.96765427226E+03  0.50400001928E-02 0. -1.
       -1    1    3    3    0  502 -0.23320787778E+03  0.30712148736E+03 -0.12998912362E+04  0.13558859644E+04  0.50400001928E-02 0.  1.
</event>
<event>
 5   0  0.4602447E-05  0.2292177E+04  0.7818609E-02  0.8481012E-01
       -2   -1    0    0    0  501  0.00000000000E+00  0.00000000000E+00  0.68050528539E+03  0.68050528539E+03  0.25500000920E-02 0.  1.
        2   -1    0    0  501    0  0.00000000000E+00  0.00000000000E+00 -0.19302113889E+04  0.19302113889E+04  0.25500000920E-02 0. -1.
    10030    2    1    2    0    0  0.00000000000E+00  0.00000000000E+00 -0.12497061036E+04  0.26107166743E+04  0.22921771765E+04 0.  0.
        3    1    3    3  502    0 -0.96895889727E+03  0.55093078126E+03 -0.32112425309E+03  0.11599684765E+04  0.10100000352E+00 0.  1.
       -3    1    3    3    0  502  0.96895889727E+03 -0.55093078126E+03 -0.92858185047E+03  0.14507481978E+04  0.10100000352E+00 0. -1.
</event>
<event>
 5   0  0.4436695E-05  0.2307210E+04  0.7818609E-02  0.8475084E-01
        2   -1    0    0  501    0  0.00000000000E+00  0.00000000000E+00  0.68574967147E+03  0.68574967148E+03  0.25500000920E-02 0. -1.
       -2   -1    0    0    0  501  0.00000000000E+00  0.00000000000E+00 -0.19406567556E+04  0.19406567556E+04  0.25500000920E-02 0.  1.
    10030    2    1    2    0    0  0.00000000000E+00  0.00000000000E+00 -0.12549070841E+04  0.26264064271E+04  0.23072102051E+04 0.  0.
        5    1    3    3  502    0 -0.67242208740E+03 -0.29290568400E+03 -0.16410541062E+04  0.17975054583E+04  0.46999998093E+01 0.  1.
       -5    1    3    3    0  502  0.67242208740E+03  0.29290568400E+03  0.38614702205E+03  0.82890096874E+03  0.46999998093E+01 0. -1.
</event>
<event>
 5   0  0.4798609E-05  0.2339438E+04  0.7818609E-02  0.8462532E-01
        2   -1    0    0  501    0  0.00000000000E+00  0.00000000000E+00  0.21191431565E+04  0.21191431565E+04  0.25500000920E-02 0.  1.
       -2   -1    0    0    0  501  0.00000000000E+00  0.00000000000E+00 -0.64565820959E+03  0.64565820959E+03  0.25500000920E-02 0. -1.
    10030    2    1    2    0    0  0.00000000000E+00  0.00000000000E+00  0.14734849469E+04  0.27648013661E+04  0.23394376899E+04 0.  0.
        2    1    3    3  502    0  0.32957280568E+03  0.94471257822E+03  0.20649291285E+02  0.10007629504E+04  0.25500000920E-02 0. -1.
       -2    1    3    3    0  502 -0.32957280568E+03 -0.94471257822E+03  0.14528356556E+04  0.17640384156E+04  0.25500000920E-02 0.  1.
</event>
<event>
 5   0  0.4798609E-05  0.2299624E+04  0.7818609E-02  0.8478069E-01
        2   -1    0    0  501    0  0.00000000000E+00  0.00000000000E+00  0.16559448724E+04  0.16559448724E+04  0.25500000920E-02 0.  1.
       -2   -1    0    0    0  501  0.00000000000E+00  0.00000000000E+00 -0.79837674113E+03  0.79837674113E+03  0.25500000920E-02 0. -1.
    10030    2    1    2    0    0  0.00000000000E+00  0.00000000000E+00  0.85756813124E+03  0.24543216135E+04  0.22996242047E+04 0.  0.
        2    1    3    3  502    0 -0.59367204902E+03 -0.93689560151E+03  0.10533235333E+03  0.11141430674E+04  0.25500000920E-02 0. -1.
       -2    1    3    3    0  502  0.59367204902E+03  0.93689560151E+03  0.75223577791E+03  0.13401785461E+04  0.25500000920E-02 0.  1.
</event>
<event>
 5   0  0.4602447E-05  0.2320617E+04  0.7818609E-02  0.8469836E-01
        2   -1    0    0  501    0  0.00000000000E+00  0.00000000000E+00  0.20306161119E+04  0.20306161119E+04  0.25500000920E-02 0.  1.
       -2   -1    0    0    0  501  0.00000000000E+00  0.00000000000E+00 -0.66300873298E+03  0.66300873299E+03  0.25500000920E-02 0. -1.
    10030    2    1    2    0    0  0.00000000000E+00  0.00000000000E+00  0.13676073789E+04  0.26936248449E+04  0.23206173450E+04 0.  0.
        3    1    3    3  502    0 -0.93844535022E+03  0.67646852624E+03  0.57981011654E+03  0.12940127989E+04  0.10100000352E+00 0. -1.
       -3    1    3    3    0  502  0.93844535022E+03 -0.67646852624E+03  0.78779726234E+03  0.13996120459E+04  0.10100000352E+00 0.  1.
</event>
<event>
 5   0  0.2042951E-05  0.2372932E+04  0.7818609E-02  0.8449707E-01
       -1   -1    0    0    0  501  0.00000000000E+00  0.00000000000E+00  0.59736258772E+03  0.59736258774E+03  0.50400001928E-02 0.  1.
        1   -1    0    0  501    0  0.00000000000E+00  0.00000000000E+00 -0.23565277352E+04  0.23565277352E+04  0.50400001928E-02 0. -1.
    10030    2    1    2    0    0  0.00000000000E+00  0.00000000000E+00 -0.17591651475E+04  0.29538903230E+04  0.23729319468E+04 0.  0.
        2    1    3    3  502    0  0.46371885021E+03  0.10143387936E+02 -0.22389905989E+04  0.22865294580E+04  0.25500000920E-02 0. -1.
       -2    1    3    3    0  502 -0.46371885021E+03 -0.10143387936E+02  0.47982545136E+03  0.66736086500E+03  0.25500000920E-02 0.  1.
</event>
<event>
 5   0  0.4605516E-05  0.2251723E+04  0.7818609E-02  0.8497203E-01
        2   -1    0    0  501    0  0.00000000000E+00  0.00000000000E+00  0.14173967213E+04  0.14173967213E+04  0.25500000920E-02 0. -1.
       -2   -1    0    0    0  501  0.00000000000E+00  0.00000000000E+00 -0.89429039184E+03  0.89429039185E+03  0.25500000920E-02 0.  1.
    10030    2    1    2    0    0  0.00000000000E+00  0.00000000000E+00  0.52310632946E+03  0.23116871132E+04  0.22517231351E+04 0.  0.
        1    1    3    3  502    0 -0.90573453339E+03 -0.71613698392E+02 -0.42104456712E+03  0.10013800948E+04  0.50400001928E-02 0.  1.
       -1    1    3    3    0  502  0.90573453339E+03  0.71613698392E+02  0.94415089658E+03  0.13103070183E+04  0.50400001928E-02 0. -1.
</event>
<event>
 5   0  0.1968318E-05  0.2039685E+04  0.7818609E-02  0.8588288E-01
       -1   -1    0    0    0  501  0.00000000000E+00  0.00000000000E+00  0.75864717619E+03  0.75864717620E+03  0.50400001928E-02 0.  1.
        1   -1    0    0  501    0  0.00000000000E+00  0.00000000000E+00 -0.13709647483E+04  0.13709647483E+04  0.50400001928E-02 0. -1.
    10030    2    1    2    0    0  0.00000000000E+00  0.00000000000E+00 -0.61231757208E+03  0.21296119245E+04  0.20396848138E+04 0.  0.
        3    1    3    3  502    0 -0.18341857745E+03  0.41801613877E+03 -0.12583417518E+04  0.13385827734E+04  0.10100000352E+00 0. -1.
       -3    1    3    3    0  502  0.18341857745E+03 -0.41801613877E+03  0.64602417971E+03  0.79102915104E+03  0.10100000352E+00 0.  1.
</event>
<event>
 5   0  0.1968318E-05  0.2320506E+04  0.7818609E-02  0.8469880E-01
        1   -1    0    0  501    0  0.00000000000E+00  0.00000000000E+00  0.74515198938E+03  0.74515198940E+03  0.50400001928E-02 0.  1.
       -1   -1    0    0    0  501  0.00000000000E+00  0.00000000000E+00 -0.18065938788E+04  0.18065938788E+04  0.50400001928E-02 0. -1.
    10030    2    1    2    0    0  0.00000000000E+00  0.00000000000E+00 -0.10614418894E+04  0.25517458682E+04  0.23205059990E+04 0.  0.
        3    1    3    3  502    0 -0.67456799510E+03  0.12226256394E+03 -0.15600531960E+04  0.17040411084E+04  0.10100000352E+00 0. -1.
       -3    1    3    3    0  502  0.67456799510E+03 -0.12226256394E+03  0.49861130658E+03  0.84770475981E+03  0.10100000352E+00 0.  1.
</event>
<event>
 5   0  0.2031860E-05  0.2313634E+04  0.7818609E-02  0.8472565E-01
        1   -1    0    0  501    0  0.00000000000E+00  0.00000000000E+00  0.15489876888E+04  0.15489876888E+04  0.50400001928E-02 0. -1.
       -1   -1    0    0    0  501  0.00000000000E+00  0.00000000000E+00 -0.86393583302E+03  0.86393583304E+03  0.50400001928E-02 0.  1.
    10030    2    1    2    0    0  0.00000000000E+00  0.00000000000E+00  0.68505185579E+03  0.24129235219E+04  0.23136343439E+04 0.  0.
        4    1    3    3  502    0  0.88369849695E+03  0.27313142961E+03  0.10671082418E+04  0.14121775469E+04  0.12699999809E+01 0. -1.
       -4    1    3    3    0  502 -0.88369849695E+03 -0.27313142961E+03 -0.38205638603E+03  0.10007459749E+04  0.12699999809E+01 0.  1.
</event>
<event>
 5   0  0.4505107E-05  0.2043227E+04  0.7818609E-02  0.8586673E-01
        2   -1    0    0  501    0  0.00000000000E+00  0.00000000000E+00  0.15538077049E+04  0.15538077049E+04  0.25500000920E-02 0.  1.
       -2   -1    0    0    0  501  0.00000000000E+00  0.00000000000E+00 -0.67170077204E+03  0.67170077204E+03  0.25500000920E-02 0. -1.
    10030    2    1    2    0    0  0.00000000000E+00  0.00000000000E+00  0.88210693287E+03  0.22255084770E+04  0.20432266981E+04 0.  0.
        4    1    3    3  502    0 -0.82766899096E+03 -0.47600918783E+03  0.45215651521E+02  0.95585918081E+03  0.12699999809E+01 0. -1.
       -4    1    3    3    0  502  0.82766899096E+03  0.47600918783E+03  0.83689128134E+03  0.12696492961E+04  0.12699999809E+01 0.  1.
</event>
<event>
 5   0  0.1968318E-05  0.2312280E+04  0.7818609E-02  0.8473095E-01
       -1   -1    0    0    0  501  0.00000000000E+00  0.00000000000E+00  0.68194345664E+03  0.68194345666E+03  0.50400001928E-02 0.  1.
        1   -1    0    0  501    0  0.00000000000E+00  0.00000000000E+00 -0.19600742457E+04  0.19600742457E+04  0.50400001928E-02 0. -1.
    10030    2    1    2    0    0  0.00000000000E+00  0.00000000000E+00 -0.12781307891E+04  0.26420177024E+04  0.23122800924E+04 0.  0.
        3    1    3    3  502    0  0.95474889662E+03 -0.53353764384E+03 -0.21085310393E+03  0.11138522858E+04  0.10100000352E+00 0.  1.
       -3    1    3    3    0  502 -0.95474889662E+03  0.53353764384E+03 -0.10672776851E+04  0.15281654166E+04  0.10100000352E+00 0. -1.
</event>
<event>
 5   0  0.4436695E-05  0.2328506E+04  0.7818609E-02  0.8466766E-01
       -2   -1    0    0    0  501  0.00000000000E+00  0.00000000000E+00  0.19129247000E+04  0.19129247000E+04  0.25500000920E-02 0.  1.
        2   -1    0    0  501    0  0.00000000000E+00  0.00000000000E+00 -0.70859286568E+03  0.70859286569E+03  0.25500000920E-02 0. -1.
    10030    2    1    2    0    0  0.00000000000E+00  0.00000000000E+00  0.12043318343E+04  0.26215175657E+04  0.23285057827E+04 0.  0.
        5    1    3    3  502    0  0.38172607737E+03  0.10925333007E+04  0.74510239189E+03  0.13764241627E+04  0.46999998093E+01 0. -1.
       -5    1    3    3    0  502 -0.38172607737E+03 -0.10925333007E+04  0.45922944240E+03  0.12450934029E+04  0.46999998093E+01 0.  1.
</event>
<event>
 5   0  0.1968318E-05  0.2268633E+04  0.7818609E-02  0.8490392E-01
        1   -1    0    0  501    0  0.00000000000E+00  0.00000000000E+00  0.12389503942E+04  0.12389503942E+04  0.50400001928E-02 0. -1.
       -1   -1    0    0    0  501  0.00000000000E+00  0.00000000000E+00 -0.10385190285E+04  0.10385190285E+04  0.50400001928E-02 0.  1.
    10030    2    1    2    0    0  0.00000000000E+00  0.00000000000E+00  0.20043136569E+03  0.22774694228E+04  0.22686326806E+04 0.  0.
        3    1    3    3  502    0  0.97310522082E+03  0.50147960061E+03 -0.19802396973E+03  0.11124877812E+04  0.10100000352E+00 0.  1.
       -3    1    3    3    0  502 -0.97310522082E+03 -0.50147960061E+03  0.39845533542E+03  0.11649816415E+04  0.10100000352E+00 0. -1.
</event>
<event>
 5   0  0.4605516E-05  0.2449398E+04  0.7818609E-02  0.8421238E-01
        2   -1    0    0  501    0  0.00000000000E+00  0.00000000000E+00  0.97700036943E+03  0.97700036943E+03  0.25500000920E-02 0. -1.
       -2   -1    0    0    0  501  0.00000000000E+00  0.00000000000E+00 -0.15351962244E+04  0.15351962244E+04  0.25500000920E-02 0.  1.
    10030    2    1    2    0    0  0.00000000000E+00  0.00000000000E+00 -0.55819585502E+03  0.25121965939E+04  0.24493977043E+04 0.  0.
        1    1    3    3  502    0  0.39354993779E+02  0.11407623259E+04 -0.73432406010E+03  0.13572469654E+04  0.50400001928E-02 0.  1.
       -1    1    3    3    0  502 -0.39354993779E+02 -0.11407623259E+04  0.17612820508E+03  0.11549496285E+04  0.50400001928E-02 0. -1.
</event>
<event>
 5   0  0.1968318E-05  0.2333130E+04  0.7818609E-02  0.8464972E-01
        1   -1    0    0  501    0  0.00000000000E+00  0.00000000000E+00  0.21354477520E+04  0.21354477520E+04  0.50400001928E-02 0.  1.
       -1   -1    0    0    0  501  0.00000000000E+00  0.00000000000E+00 -0.63727790526E+03  0.63727790528E+03  0.50400001928E-02 0. -1.
    10030    2    1    2    0    0  0.00000000000E+00  0.00000000000E+00  0.14981698467E+04  0.27727256572E+04  0.23331298037E+04 0.  0.
        3    1    3    3  502    0 -0.99033598871E+03  0.27890903501E+03  0.14025163698E+04  0.17394274340E+04  0.10100000352E+00 0.  1.
       -3    1    3    3    0  502  0.99033598871E+03 -0.27890903501E+03  0.95653476913E+02  0.10332982233E+04  0.10100000352E+00 0. -1.
</event>
<event>
 5   0  0.4436695E-05  0.2348412E+04  0.7818609E-02  0.8459074E-01
       -2   -1    0    0    0  501  0.00000000000E+00  0.00000000000E+00  0.10513462198E+04  0.10513462198E+04  0.25500000920E-02 0.  1.
        2   -1    0    0  501    0  0.00000000000E+00  0.00000000000E+00 -0.13114233977E+04  0.13114233977E+04  0.25500000920E-02 0. -1.
    10030    2    1    2    0    0  0.00000000000E+00  0.00000000000E+00 -0.26007717794E+03  0.23627696175E+04  0.23484122566E+04 0.  0.
        5    1    3    3  502    0  0.11361263596E+04 -0.29491632124E+03 -0.16152207271E+03  0.11848502908E+04  0.46999998093E+01 0. -1.
       -5    1    3    3    0  502 -0.11361263596E+04  0.29491632124E+03 -0.98555105228E+02  0.11779193267E+04  0.46999998093E+01 0.  1.
</event>
<event>
 5   0  0.4602447E-05  0.2027406E+04  0.7818609E-02  0.8593914E-01
        2   -1    0    0  501    0  0.00000000000E+00  0.00000000000E+00  0.21816823406E+04  0.21816823406E+04  0.25500000920E-02 0. -1.
       -2   -1    0    0    0  501  0.00000000000E+00  0.00000000000E+00 -0.47100982341E+03  0.47100982342E+03  0.25500000920E-02 0.  1.
    10030    2    1    2    0    0  0.00000000000E+00  0.00000000000E+00  0.17106725172E+04  0.26526921640E+04  0.20274060412E+04 0.  0.
        3    1    3    3  502    0  0.70212587435E+03  0.35729056132E+03  0.20656040045E+02  0.78807611994E+03  0.10100000352E+00 0. -1.
       -3    1    3    3    0  502 -0.70212587435E+03 -0.35729056132E+03  0.16900164771E+04  0.18646160441E+04  0.10100000352E+00 0.  1.
</event>
<event>
 5   0  0.4602447E-05  0.2178208E+04  0.7818609E-02  0.8527554E-01
       -2   -1    0    0    0  501  0.00000000000E+00  0.00000000000E+00  0.99429317466E+03  0.99429317466E+03  0.25500000920E-02 0. -1.
        2   -1    0    0  501    0  0.00000000000E+00  0.00000000000E+00 -0.11929549875E+04  0.11929549875E+04  0.25500000920E-02 0.  1.
    10030    2    1    2    0    0  0.00000000000E+00  0.00000000000E+00 -0.19866181289E+03  0.21872481622E+04  0.21782075216E+04 0.  0.
        3    1    3    3  502    0  0.34484117388E+03  0.10324853374E+04 -0.13419654614E+03  0.10967908325E+04  0.10100000352E+00 0.  1.
       -3    1    3    3    0  502 -0.34484117388E+03 -0.10324853374E+04 -0.64465266746E+02  0.10904573297E+04  0.10100000352E+00 0. -1.
</event>
<event>
 5   0  0.2085063E-05  0.2287447E+04  0.7818609E-02  0.8482887E-01
       -1   -1    0    0    0  501  0.00000000000E+00  0.00000000000E+00  0.12286574914E+04  0.12286574914E+04  0.50400001928E-02 0. -1.
        1   -1    0    0  501    0  0.00000000000E+00  0.00000000000E+00 -0.10646604207E+04  0.10646604208E+04  0.50400001928E-02 0.  1.
    10030    2    1    2    0    0  0.00000000000E+00  0.00000000000E+00  0.16399707067E+03  0.22933179122E+04  0.22874466130E+04 0.  0.
        1    1    3    3  502    0  0.61336073601E+03 -0.96518102415E+03  0.99854356268E+02  0.11479358407E+04  0.50400001928E-02 0. -1.
       -1    1    3    3    0  502 -0.61336073601E+03  0.96518102415E+03  0.64142714403E+02  0.11453820715E+04  0.50400001928E-02 0.  1.
</event>
<event>
 5   0  0.2031860E-05  0.2208590E+04  0.7818609E-02  0.8514861E-01
       -1   -1    0    0    0  501  0.00000000000E+00  0.00000000000E+00  0.77496580106E+03  0.77496580108E+03  0.50400001928E-02 0.  1.
        1   -1    0    0  501    0  0.00000000000E+00  0.00000000000E+00 -0.15735765300E+04  0.15735765300E+04  0.50400001928E-02 0. -1.
    10030    2    1    2    0    0  0.00000000000E+00  0.00000000000E+00 -0.79861072891E+03  0.23485423311E+04  0.22085904972E+04 0.  0.
        4    1    3    3  502    0  0.33422504404E+03  0.59582729632E+03  0.52328417907E+03  0.86054894809E+03  0.12699999809E+01 0.  1.
       -4    1    3    3    0  502 -0.33422504404E+03 -0.59582729632E+03 -0.13218949080E+04  0.14879933830E+04  0.12699999809E+01 0. -1.
</event>
<event>
 5   0  0.2085063E-05  0.2292662E+04  0.7818609E-02  0.8480820E-01
        1   -1    0    0  501    0  0.00000000000E+00  0.00000000000E+00  0.20378450721E+04  0.20378450721E+04  0.50400001928E-02 0.  1.
       -1   -1    0    0    0  501  0.00000000000E+00  0.00000000000E+00 -0.64483545224E+03  0.64483545226E+03  0.50400001928E-02 0. -1.
    10030    2    1    2    0    0  0.00000000000E+00  0.00000000000E+00  0.13930096199E+04  0.26826805244E+04  0.22926619888E+04 0.  0.
        1    1    3    3  502    0 -0.10368213047E+04 -0.21356760868E+03  0.12111765972E+04  0.16085889130E+04  0.50400001928E-02 0.  1.
       -1    1    3    3    0  502  0.10368213047E+04  0.21356760868E+03  0.18183302264E+03  0.10740916113E+04  0.50400001928E-02 0. -1.
</event>
<event>
 5   0  0.1604500E-05  0.2288081E+04  0.7818609E-02  0.8482635E-01
        3   -1    0    0  501    0  0.00000000000E+00  0.00000000000E+00  0.79862775522E+03  0.79862776160E+03  0.10100000352E+00 0.  1.
       -3   -1    0    0    0  501  0.00000000000E+00  0.00000000000E+00 -0.16388472740E+04  0.16388472771E+04  0.10100000352E+00 0. -1.
    10030    2    1    2    0    0  0.00000000000E+00  0.00000000000E+00 -0.84021951882E+03  0.24374750388E+04  0.22880812321E+04 0.  0.
        2    1    3    3  502    0  0.10545806396E+04  0.39312250002E+03 -0.20141768855E+03  0.11433524001E+04  0.25500000920E-02 0.  1.
       -2    1    3    3    0  502 -0.10545806396E+04 -0.39312250002E+03 -0.63880183026E+03  0.12941226387E+04  0.25500000920E-02 0. -1.
</event>
<event>
 5   0  0.1968318E-05  0.2315305E+04  0.7818609E-02  0.8471911E-01
       -1   -1    0    0    0  501  0.00000000000E+00  0.00000000000E+00  0.11703673632E+04  0.11703673632E+04  0.50400001928E-02 0. -1.
        1   -1    0    0  501    0  0.00000000000E+00  0.00000000000E+00 -0.11450758493E+04  0.11450758493E+04  0.50400001928E-02 0.  1.
    10030    2    1    2    0    0  0.00000000000E+00  0.00000000000E+00  0.25291513915E+02  0.23154432125E+04  0.23153050792E+04 0.  0.
        3    1    3    3  502    0 -0.90815987045E+03 -0.38249482215E+03  0.62022027610E+03  0.11643581238E+04  0.10100000352E+00 0. -1.
       -3    1    3    3    0  502  0.90815987045E+03  0.38249482215E+03 -0.59492876219E+03  0.11510850888E+04  0.10100000352E+00 0.  1.
</event>
<event>
 5   0  0.2031860E-05  0.2067139E+04  0.7818609E-02  0.8575858E-01
       -1   -1    0    0    0  501  0.00000000000E+00  0.00000000000E+00  0.73301385245E+03  0.73301385246E+03  0.50400001928E-02 0. -1.
        1   -1    0    0  501    0  0.00000000000E+00  0.00000000000E+00 -0.14573616735E+04  0.14573616735E+04  0.50400001928E-02 0.  1.
    10030    2    1    2    0    0  0.00000000000E+00  0.00000000000E+00 -0.72434782101E+03  0.21903755259E+04  0.20671393709E+04 0.  0.
        4    1    3    3  502    0  0.70211319954E+03  0.43100693208E+03  0.29916173158E+03  0.87648689381E+03  0.12699999809E+01 0. -1.
       -4    1    3    3    0  502 -0.70211319954E+03 -0.43100693208E+03 -0.10235095526E+04  0.13138886321E+04  0.12699999809E+01 0.  1.
</event>
<event>
 5   0  0.2042951E-05  0.2336323E+04  0.7818609E-02  0.8463736E-01
        1   -1    0    0  501    0  0.00000000000E+00  0.00000000000E+00  0.16224955600E+04  0.16224955601E+04  0.50400001928E-02 0.  1.
       -1   -1    0    0    0  501  0.00000000000E+00  0.00000000000E+00 -0.84105104658E+03  0.84105104659E+03  0.50400001928E-02 0. -1.
    10030    2    1    2    0    0  0.00000000000E+00  0.00000000000E+00  0.78144451347E+03  0.24635466066E+04  0.23363232558E+04 0.  0.
        2    1    3    3  502    0  0.34581084934E+03  0.13545239028E+03 -0.77713983811E+03  0.86132387726E+03  0.25500000920E-02 0. -1.
       -2    1    3    3    0  502 -0.34581084934E+03 -0.13545239028E+03  0.15585843516E+04  0.16022227294E+04  0.25500000920E-02 0.  1.
</event>
<event>
 5   0  0.4798609E-05  0.2272470E+04  0.7818609E-02  0.8488855E-01
        2   -1    0    0  501    0  0.00000000000E+00  0.00000000000E+00  0.14358271156E+04  0.14358271156E+04  0.25500000920E-02 0.  1.
       -2   -1    0    0    0  501  0.00000000000E+00  0.00000000000E+00 -0.89915449160E+03  0.89915449160E+03  0.25500000920E-02 0. -1.
    10030    2    1    2    0    0  0.00000000000E+00  0.00000000000E+00  0.53667262397E+03  0.23349816072E+04  0.22724703740E+04 0.  0.
        2    1    3    3  502    0  0.10373809705E+04  0.33350851917E+03  0.59912878524E+03  0.12435202096E+04  0.25500000920E-02 0.  1.
       -2    1    3    3    0  502 -0.10373809705E+04 -0.33350851917E+03 -0.62456161279E+02  0.10914613976E+04  0.25500000920E-02 0. -1.
</event>
<event>
 5   0  0.2043885E-05  0.2229558E+04  0.7818609E-02  0.8506225E-01
        1   -1    0    0  501    0  0.00000000000E+00  0.00000000000E+00  0.26339505017E+04  0.26339505017E+04  0.50400001928E-02 0.  1.
       -1   -1    0    0    0  501  0.00000000000E+00  0.00000000000E+00 -0.47181310357E+03  0.47181310360E+03  0.50400001928E-02 0. -1.
    10030    2    1    2    0    0  0.00000000000E+00  0.00000000000E+00  0.21621373981E+04  0.31057636053E+04  0.22295581274E+04 0.  0.
        5    1    3    3  502    0  0.86581400360E+03  0.59505695100E+03  0.16003843202E+04  0.19144134157E+04  0.46999998093E+01 0.  1.
       -5    1    3    3    0  502 -0.86581400360E+03 -0.59505695100E+03  0.56175307792E+03  0.11913501896E+04  0.46999998093E+01 0. -1.
</event>
<event>
 5   0  0.1968318E-05  0.2167699E+04  0.7818609E-02  0.8531994E-01
       -1   -1    0    0    0  501  0.00000000000E+00  0.00000000000E+00  0.11366219963E+04  0.11366219964E+04  0.50400001928E-02 0. -1.
        1   -1    0    0  501    0  0.00000000000E+00  0.00000000000E+00 -0.10335274630E+04  0.10335274630E+04  0.50400001928E-02 0.  1.
    10030    2    1    2    0    0  0.00000000000E+00  0.00000000000E+00  0.10309453338E+03  0.21701494593E+04  0.21676992857E+04 0.  0.
        3    1    3    3  502    0  0.82161669883E+02  0.43080260361E+03  0.10438227721E+04  0.11322135015E+04  0.10100000352E+00 0. -1.
       -3    1    3    3    0  502 -0.82161669883E+02 -0.43080260361E+03 -0.94072823870E+03  0.10379359578E+04  0.10100000352E+00 0.  1.
</event>
<event>
 5   0  0.4798609E-05  0.2148718E+04  0.7818609E-02  0.8540081E-01
        2   -1    0    0  501    0  0.00000000000E+00  0.00000000000E+00  0.17035941743E+04  0.17035941743E+04  0.25500000920E-02 0. -1.
       -2   -1    0    0    0  501  0.00000000000E+00  0.00000000000E+00 -0.67753649458E+03  0.67753649459E+03  0.25500000920E-02 0.  1.
    10030    2    1    2    0    0  0.00000000000E+00  0.00000000000E+00  0.10260576797E+04  0.23811306688E+04  0.21487179666E+04 0.  0.
        2    1    3    3  502    0 -0.97549725310E+03 -0.43752333318E+03  0.39561754070E+03  0.11399714016E+04  0.25500000920E-02 0.  1.
       -2    1    3    3    0  502  0.97549725310E+03  0.43752333318E+03  0.63044013898E+03  0.12411592673E+04  0.25500000920E-02 0. -1.
</event>
<event>
 5   0  0.2042951E-05  0.2308690E+04  0.7818609E-02  0.8474503E-01
       -1   -1    0    0    0  501  0.00000000000E+00  0.00000000000E+00  0.12236827358E+04  0.12236827358E+04  0.50400001928E-02 0. -1.
        1   -1    0    0  501    0  0.00000000000E+00  0.00000000000E+00 -0.10889360514E+04  0.10889360514E+04  0.50400001928E-02 0.  1.
    10030    2    1    2    0    0  0.00000000000E+00  0.00000000000E+00  0.13474668442E+03  0.23126187872E+04  0.23086898852E+04 0.  0.
        2    1    3    3  502    0 -0.17420687316E+03 -0.81602119697E+03  0.86639841501E+03  0.12028652635E+04  0.25500000920E-02 0. -1.
       -2    1    3    3    0  502  0.17420687316E+03  0.81602119697E+03 -0.73165173059E+03  0.11097535237E+04  0.25500000920E-02 0.  1.
</event>
<event>
 5   0  0.2043885E-05  0.2314920E+04  0.7818609E-02  0.8472062E-01
        1   -1    0    0  501    0  0.00000000000E+00  0.00000000000E+00  0.19341913613E+04  0.19341913613E+04  0.50400001928E-02 0. -1.
       -1   -1    0    0    0  501  0.00000000000E+00  0.00000000000E+00 -0.69264785761E+03  0.69264785763E+03  0.50400001928E-02 0.  1.
    10030    2    1    2    0    0  0.00000000000E+00  0.00000000000E+00  0.12415435037E+04  0.26268392190E+04  0.23149198713E+04 0.  0.
        5    1    3    3  502    0 -0.25915275245E+03  0.20957949024E+03 -0.63700668605E+03  0.71894597843E+03  0.46999998093E+01 0.  1.
       -5    1    3    3    0  502  0.25915275245E+03 -0.20957949024E+03  0.18785501898E+04  0.19078932405E+04  0.46999998093E+01 0. -1.
</event>
<event>
 5   0  0.4605516E-05  0.2288962E+04  0.7818609E-02  0.8482286E-01
       -2   -1    0    0    0  501  0.00000000000E+00  0.00000000000E+00  0.84920022699E+03  0.84920022700E+03  0.25500000920E-02 0.  1.
        2   -1    0    0  501    0  0.00000000000E+00  0.00000000000E+00 -0.15424356724E+04  0.15424356724E+04  0.25500000920E-02 0. -1.
    10030    2    1    2    0    0  0.00000000000E+00  0.00000000000E+00 -0.69323544543E+03  0.23916358994E+04  0.22889619684E+04 0.  0.
        1    1    3    3  502    0 -0.48277484500E+02 -0.91385436810E+03 -0.10647434596E+04  0.14039726338E+04  0.50400001928E-02 0. -1.
       -1    1    3    3    0  502  0.48277484500E+02  0.91385436810E+03  0.37150801421E+03  0.98766326562E+03  0.50400001928E-02 0.  1.
</event>
<event>
 5   0  0.4798609E-05  0.2237705E+04  0.7818609E-02  0.8502896E-01
        2   -1    0    0  501    0  0.00000000000E+00  0.00000000000E+00  0.12996722579E+04  0.12996722579E+04  0.25500000920E-02 0. -1.
       -2   -1    0    0    0  501  0.00000000000E+00  0.00000000000E+00 -0.96318958073E+03  0.96318958073E+03  0.25500000920E-02 0.  1.
    10030    2    1    2    0    0  0.00000000000E+00  0.00000000000E+00  0.33648267714E+03  0.22628618386E+04  0.22377048752E+04 0.  0.
        2    1    3    3  502    0 -0.47575726654E+03 -0.67667647394E+03  0.93010001053E+03  0.12447176614E+04  0.25500000920E-02 0. -1.
       -2    1    3    3    0  502  0.47575726654E+03  0.67667647394E+03 -0.59361733339E+03  0.10181441772E+04  0.25500000920E-02 0.  1.
</event>
<event>
 5   0  0.4505107E-05  0.2314207E+04  0.7818609E-02  0.8472340E-01
       -2   -1    0    0    0  501  0.00000000000E+00  0.00000000000E+00  0.80040696998E+03  0.80040696998E+03  0.25500000920E-02 0.  1.
        2   -1    0    0  501    0  0.00000000000E+00  0.00000000000E+00 -0.16727603904E+04  0.16727603904E+04  0.25500000920E-02 0. -1.
    10030    2    1    2    0    0  0.00000000000E+00  0.00000000000E+00 -0.87235342041E+03  0.24731673604E+04  0.23142074890E+04 0.  0.
        4    1    3    3  502    0 -0.67624360837E+03  0.80663712955E+03  0.77370833554E+02  0.10554414884E+04  0.12699999809E+01 0.  1.
       -4    1    3    3    0  502  0.67624360837E+03 -0.80663712955E+03 -0.94972425397E+03  0.14177258720E+04  0.12699999809E+01 0. -1.
</event>
<event>
 5   0  0.4436695E-05  0.2318397E+04  0.7818609E-02  0.8470703E-01
       -2   -1    0    0    0  501  0.00000000000E+00  0.00000000000E+00  0.10726835222E+04  0.10726835222E+04  0.25500000920E-02 0.  1.
        2   -1    0    0  501    0  0.00000000000E+00  0.00000000000E+00 -0.12526911467E+04  0.12526911467E+04  0.25500000920E-02 0. -1.
    10030    2    1    2    0    0  0.00000000000E+00  0.00000000000E+00 -0.18000762449E+03  0.23253746690E+04  0.23183969906E+04 0.  0.
        5    1    3    3  502    0  0.99383819028E+03  0.48685615261E+03  0.25596300736E+03  0.11359059877E+04  0.46999998093E+01 0.  1.
       -5    1    3    3    0  502 -0.99383819028E+03 -0.48685615261E+03 -0.43597063185E+03  0.11894686812E+04  0.46999998093E+01 0. -1.
</event>
<event>
 5   0  0.4505107E-05  0.2299972E+04  0.7818609E-02  0.8477932E-01
        2   -1    0    0  501    0  0.00000000000E+00  0.00000000000E+00  0.21724182315E+04  0.21724182315E+04  0.25500000920E-02 0. -1.
       -2   -1    0    0    0  501  0.00000000000E+00  0.00000000000E+00 -0.60875390523E+03  0.60875390524E+03  0.25500000920E-02 0.  1.
    10030    2    1    2    0    0  0.00000000000E+00  0.00000000000E+00  0.15636643263E+04  0.27811721368E+04  0.22999722453E+04 0.  0.
        4    1    3    3  502    0 -0.10599705352E+03  0.74290642708E+03  0.18355346827E+04  0.19830114773E+04  0.12699999809E+01 0. -1.
       -4    1    3    3    0  502  0.10599705352E+03 -0.74290642708E+03 -0.27187035640E+03  0.79816065948E+03  0.12699999809E+01 0.  1.
</event>
<event>
 5   0  0.4605516E-05  0.2322338E+04  0.7818609E-02  0.8469165E-01
       -2   -1    0    0    0  501  0.00000000000E+00  0.00000000000E+00  0.76709128241E+03  0.76709128241E+03  0.25500000920E-02 0. -1.
        2   -1    0    0  501    0  0.00000000000E+00  0.00000000000E+00 -0.17576969371E+04  0.17576969371E+04  0.25500000920E-02 0.  1.
    10030    2    1    2    0    0  0.00000000000E+00  0.00000000000E+00 -0.99060565472E+03  0.25247882195E+04  0.23223384746E+04 0.  0.
        1    1    3    3  502    0 -0.84318638734E+03  0.76536585170E+03 -0.74217971340E+03  0.13592567446E+04  0.50400001928E-02 0. -1.
       -1    1    3    3    0  502  0.84318638734E+03 -0.76536585170E+03 -0.24842594132E+03  0.11655314749E+04  0.50400001928E-02 0.  1.
</event>
<event>
 5   0  0.2042951E-05  0.2297653E+04  0.7818609E-02  0.8478847E-01
        1   -1    0    0  501    0  0.00000000000E+00  0.00000000000E+00  0.19484324226E+04  0.19484324226E+04  0.50400001928E-02 0. -1.
       -1   -1    0    0    0  501  0.00000000000E+00  0.00000000000E+00 -0.67736595333E+03  0.67736595335E+03  0.50400001928E-02 0.  1.
    10030    2    1    2    0    0  0.00000000000E+00  0.00000000000E+00  0.12710664692E+04  0.26257983759E+04  0.22976525285E+04 0.  0.
        2    1    3    3  502    0 -0.11438730555E+04  0.81129246401E+02  0.55656903679E+03  0.12746751015E+04  0.25500000920E-02 0.  1.
       -2    1    3    3    0  502  0.11438730555E+04 -0.81129246401E+02  0.71449743244E+03  0.13511232744E+04  0.25500000920E-02 0. -1.
</event>
<event>
 5   0  0.4798609E-05  0.2296196E+04  0.7818609E-02  0.8479423E-01
        2   -1    0    0  501    0  0.00000000000E+00  0.00000000000E+00  0.22355924797E+04  0.22355924797E+04  0.25500000920E-02 0. -1.
       -2   -1    0    0    0  501  0.00000000000E+00  0.00000000000E+00 -0.58961042795E+03  0.58961042796E+03  0.25500000920E-02 0.  1.
    10030    2    1    2    0    0  0.00000000000E+00  0.00000000000E+00  0.16459820518E+04  0.28252029077E+04  0.22961956700E+04 0.  0.
        2    1    3    3  502    0  0.32831465710E+03 -0.49324724983E+03  0.20329319176E+04  0.21175210849E+04  0.25500000920E-02 0. -1.
       -2    1    3    3    0  502 -0.32831465710E+03  0.49324724983E+03 -0.38694986585E+03  0.70768182273E+03  0.25500000920E-02 0.  1.
</event>
<event>
 5   0  0.4602447E-05  0.2250222E+04  0.7818609E-02  0.8497811E-01
       -2   -1    0    0    0  501  0.00000000000E+00  0.00000000000E+00  0.81338484176E+03  0.81338484177E+03  0.25500000920E-02 0. -1.
        2   -1    0    0  501    0  0.00000000000E+00  0.00000000000E+00 -0.15563050053E+04  0.15563050053E+04  0.25500000920E-02 0.  1.
    10030    2    1    2    0    0  0.00000000000E+00  0.00000000000E+00 -0.74292016350E+03  0.23696898470E+04  0.22502221228E+04 0.  0.
        3    1    3    3  502    0  0.75139407420E+03 -0.26571352613E+02  0.50998180172E+03  0.90850456235E+03  0.10100000352E+00 0. -1.
       -3    1    3    3    0  502 -0.75139407420E+03  0.26571352613E+02 -0.12529019652E+04  0.14611852847E+04  0.10100000352E+00 0.  1.
</event>
<event>
 5   0  0.4436695E-05  0.2311772E+04  0.7818609E-02  0.8473294E-01
        2   -1    0    0  501    0  0.00000000000E+00  0.00000000000E+00  0.14299368576E+04  0.14299368576E+04  0.25500000920E-02 0.  1.
       -2   -1    0    0    0  501  0.00000000000E+00  0.00000000000E+00 -0.93435732619E+03  0.93435732619E+03  0.25500000920E-02 0. -1.
    10030    2    1    2    0    0  0.00000000000E+00  0.00000000000E+00  0.49557953143E+03  0.23642941838E+04  0.23117715968E+04 0.  0.
        5    1    3    3  502    0 -0.15233152955E+02  0.95020078691E+02  0.14258229530E+04  0.14290745424E+04  0.46999998093E+01 0.  1.
       -5    1    3    3    0  502  0.15233152955E+02 -0.95020078691E+02 -0.93024342160E+03  0.93521964144E+03  0.46999998093E+01 0. -1.
</event>
<event>
 5   0  0.4605516E-05  0.2321098E+04  0.7818609E-02  0.8469649E-01
       -2   -1    0    0    0  501  0.00000000000E+00  0.00000000000E+00  0.72699293496E+03  0.72699293496E+03  0.25500000920E-02 0. -1.
        2   -1    0    0  501    0  0.00000000000E+00  0.00000000000E+00 -0.18526649724E+04  0.18526649724E+04  0.25500000920E-02 0.  1.
    10030    2    1    2    0    0  0.00000000000E+00  0.00000000000E+00 -0.11256720374E+04  0.25796579073E+04  0.23210983140E+04 0.  0.
        1    1    3    3  502    0  0.40618470345E+03  0.10382106550E+04 -0.92126226133E+03  0.14462335675E+04  0.50400001928E-02 0.  1.
       -1    1    3    3    0  502 -0.40618470345E+03 -0.10382106550E+04 -0.20440977608E+03  0.11334243398E+04  0.50400001928E-02 0. -1.
</event>
<event>
 5   0  0.2085063E-05  0.2298133E+04  0.7818609E-02  0.8478658E-01
       -1   -1    0    0    0  501  0.00000000000E+00  0.00000000000E+00  0.17916818847E+04  0.17916818847E+04  0.50400001928E-02 0. -1.
        1   -1    0    0  501    0  0.00000000000E+00  0.00000000000E+00 -0.73693528049E+03  0.73693528051E+03  0.50400001928E-02 0.  1.
    10030    2    1    2    0    0  0.00000000000E+00  0.00000000000E+00  0.10547466042E+04  0.25286171652E+04  0.22981328006E+04 0.  0.
        1    1    3    3  502    0  0.96998128381E+03 -0.55438201660E+03  0.82292099654E+03  0.13875885838E+04  0.50400001928E-02 0. -1.
       -1    1    3    3    0  502 -0.96998128381E+03  0.55438201660E+03  0.23182560767E+03  0.11410285814E+04  0.50400001928E-02 0.  1.
</event>
<event>
 5   0  0.4798609E-05  0.2306349E+04  0.7818609E-02  0.8475422E-01
        2   -1    0    0  501    0  0.00000000000E+00  0.00000000000E+00  0.11758089930E+04  0.11758089930E+04  0.25500000920E-02 0.  1.
       -2   -1    0    0    0  501  0.00000000000E+00  0.00000000000E+00 -0.11309756792E+04  0.11309756792E+04  0.25500000920E-02 0. -1.
    10030    2    1    2    0    0  0.00000000000E+00  0.00000000000E+00  0.44833313840E+02  0.23067846722E+04  0.23063489541E+04 0.  0.
        2    1    3    3  502    0  0.14962394444E+03 -0.66050690650E+03  0.95594965923E+03  0.11715359360E+04  0.25500000920E-02 0.  1.
       -2    1    3    3    0  502 -0.14962394444E+03  0.66050690650E+03 -0.91111634539E+03  0.11352487362E+04  0.25500000920E-02 0. -1.
</event>
<event>
 5   0  0.2043885E-05  0.2269022E+04  0.7818609E-02  0.8490236E-01
       -1   -1    0    0    0  501  0.00000000000E+00  0.00000000000E+00  0.72945674743E+03  0.72945674745E+03  0.50400001928E-02 0.  1.
        1   -1    0    0  501    0  0.00000000000E+00  0.00000000000E+00 -0.17644843361E+04  0.17644843361E+04  0.50400001928E-02 0. -1.
    10030    2    1    2    0    0  0.00000000000E+00  0.00000000000E+00 -0.10350275887E+04  0.24939410836E+04  0.22690218199E+04 0.  0.
        5    1    3    3  502    0  0.18964751233E+03  0.10055323333E+04 -0.10560087047E+04  0.14704550067E+04  0.46999998093E+01 0. -1.
       -5    1    3    3    0  502 -0.18964751233E+03 -0.10055323333E+04  0.20981116021E+02  0.10234860769E+04  0.46999998093E+01 0.  1.
</event>
<event>
 5   0  0.4436695E-05  0.2311351E+04  0.7818609E-02  0.8473459E-01
        2   -1    0    0  501    0  0.00000000000E+00  0.00000000000E+00  0.12170840713E+04  0.12170840713E+04  0.25500000920E-02 0.  1.
       -2   -1    0    0    0  501  0.00000000000E+00  0.00000000000E+00 -0.10973657282E+04  0.10973657282E+04  0.25500000920E-02 0. -1.
    10030    2    1    2    0    0  0.00000000000E+00  0.00000000000E+00  0.11971834307E+03  0.23144497995E+04  0.23113514213E+04 0.  0.
        5    1    3    3  502    0  0.20722939163E+03  0.68392911323E+03  0.96929534242E+03  0.12042668324E+04  0.46999998093E+01 0.  1.
       -5    1    3    3    0  502 -0.20722939163E+03 -0.68392911323E+03 -0.84957699935E+03  0.11101829671E+04  0.46999998093E+01 0. -1.
</event>
<event>
 5   0  0.2031860E-05  0.2281104E+04  0.7818609E-02  0.8485409E-01
        1   -1    0    0  501    0  0.00000000000E+00  0.00000000000E+00  0.14817416356E+04  0.14817416356E+04  0.50400001928E-02 0. -1.
       -1   -1    0    0    0  501  0.00000000000E+00  0.00000000000E+00 -0.87792560323E+03  0.87792560324E+03  0.50400001928E-02 0.  1.
    10030    2    1    2    0    0  0.00000000000E+00  0.00000000000E+00  0.60381603240E+03  0.23596672389E+04  0.22811040479E+04 0.  0.
        4    1    3    3  502    0  0.11223464651E+04  0.32945892110E+02  0.94734827156E+02  0.11268200034E+04  0.12699999809E+01 0. -1.
       -4    1    3    3    0  502 -0.11223464651E+04 -0.32945892110E+02  0.50908120524E+03  0.12328472355E+04  0.12699999809E+01 0.  1.
</event>
<event>
 5   0  0.4505107E-05  0.2042882E+04  0.7818609E-02  0.8586830E-01
       -2   -1    0    0    0  501  0.00000000000E+00  0.00000000000E+00  0.10112222930E+04  0.10112222930E+04  0.25500000920E-02 0.  1.
        2   -1    0    0  501    0  0.00000000000E+00  0.00000000000E+00 -0.10317631862E+04  0.10317631862E+04  0.25500000920E-02 0. -1.
    10030    2    1    2    0    0  0.00000000000E+00  0.00000000000E+00 -0.20540893183E+02  0.20429854793E+04  0.20428822140E+04 0.  0.
        4    1    3    3  502    0  0.16382484902E+03 -0.75142569418E+03  0.66196972654E+03  0.10147338009E+04  0.12699999809E+01 0.  1.
       -4    1    3    3    0  502 -0.16382484902E+03  0.75142569418E+03 -0.68251061972E+03  0.10282516783E+04  0.12699999809E+01 0. -1.
</event>
<event>
 5   0  0.2085063E-05  0.2300601E+04  0.7818609E-02  0.8477684E-01
        1   -1    0    0  501    0  0.00000000000E+00  0.00000000000E+00  0.14083899458E+04  0.14083899458E+04  0.50400001928E-02 0. -1.
       -1   -1    0    0    0  501  0.00000000000E+00  0.00000000000E+00 -0.93950593549E+03  0.93950593551E+03  0.50400001928E-02 0.  1.
    10030    2    1    2    0    0  0.00000000000E+00  0.00000000000E+00  0.46888401030E+03  0.23478958813E+04  0.23006005421E+04 0.  0.
        1    1    3    3  502    0 -0.96850566587E+03  0.38691662469E+03 -0.26079992706E+03  0.10750461856E+04  0.50400001928E-02 0.  1.
       -1    1    3    3    0  502  0.96850566587E+03 -0.38691662469E+03  0.72968393736E+03  0.12728496957E+04  0.50400001928E-02 0. -1.
</event>
<event>
 5   0  0.4605516E-05  0.2276397E+04  0.7818609E-02  0.8487286E-01
        2   -1    0    0  501    0  0.00000000000E+00  0.00000000000E+00  0.15163844239E+04  0.15163844239E+04  0.25500000920E-02 0.  1.
       -2   -1    0    0    0  501  0.00000000000E+00  0.00000000000E+00 -0.85433186406E+03  0.85433186407E+03  0.25500000920E-02 0. -1.
    10030    2    1    2    0    0  0.00000000000E+00  0.00000000000E+00  0.66205255988E+03  0.23707162880E+04  0.22763967418E+04 0.  0.
        1    1    3    3  502    0 -0.34583923533E+03  0.10643225524E+04  0.11479830960E+03  0.11249737437E+04  0.50400001928E-02 0.  1.
       -1    1    3    3    0  502  0.34583923533E+03 -0.10643225524E+04  0.54725425028E+03  0.12457425443E+04  0.50400001928E-02 0. -1.
</event>
<event>
 5   0  0.2031860E-05  0.2251604E+04  0.7818609E-02  0.8497251E-01
       -1   -1    0    0    0  501  0.00000000000E+00  0.00000000000E+00  0.20040449097E+04  0.20040449097E+04  0.50400001928E-02 0. -1.
        1   -1    0    0  501    0  0.00000000000E+00  0.00000000000E+00 -0.63243600947E+03  0.63243600949E+03  0.50400001928E-02 0.  1.
    10030    2    1    2    0    0  0.00000000000E+00  0.00000000000E+00  0.13716089002E+04  0.26364809192E+04  0.22516040198E+04 0.  0.
        4    1    3    3  502    0 -0.79761776269E+01 -0.11257647484E+04  0.68074574198E+03  0.13156087056E+04  0.12699999809E+01 0.  1.
       -4    1    3    3    0  502  0.79761776269E+01  0.11257647484E+04  0.69086315820E+03  0.13208722135E+04  0.12699999809E+01 0. -1.
</event>
<event>
 5   0  0.4602447E-05  0.2340401E+04  0.7818609E-02  0.8462160E-01
        2   -1    0    0  501    0  0.00000000000E+00  0.00000000000E+00  0.14644740504E+04  0.14644740504E+04  0.25500000920E-02 0. -1.
       -2   -1    0    0    0  501  0.00000000000E+00  0.00000000000E+00 -0.93505860718E+03  0.93505860719E+03  0.25500000920E-02 0.  1.
    10030    2    1    2    0    0  0.00000000000E+00  0.00000000000E+00  0.52941544325E+03  0.23995326576E+04  0.23404008767E+04 0.  0.
        3    1    3    3  502    0  0.26380297901E+03 -0.97498734312E+02 -0.89989255226E+03  0.94281738992E+03  0.10100000352E+00 0.  1.
       -3    1    3    3    0  502 -0.26380297901E+03  0.97498734312E+02  0.14293079955E+04  0.14567152677E+04  0.10100000352E+00 0. -1.
</event>
<event>
 5   0  0.1968318E-05  0.2330370E+04  0.7818609E-02  0.8466042E-01
        1   -1    0    0  501    0  0.00000000000E+00  0.00000000000E+00  0.10276585356E+04  0.10276585356E+04  0.50400001928E-02 0. -1.
       -1   -1    0    0    0  501  0.00000000000E+00  0.00000000000E+00 -0.13211163216E+04  0.13211163216E+04  0.50400001928E-02 0.  1.
    10030    2    1    2    0    0  0.00000000000E+00  0.00000000000E+00 -0.29345778600E+03  0.23487748571E+04  0.23303703262E+04 0.  0.
        3    1    3    3  502    0  0.64289811892E+03  0.89934910701E+02 -0.11219709090E+04  0.12962349364E+04  0.10100000352E+00 0.  1.
       -3    1    3    3    0  502 -0.64289811892E+03 -0.89934910701E+02  0.82851312303E+03  0.10525399207E+04  0.10100000352E+00 0. -1.
</event>
<event>
 5   0  0.4605516E-05  0.2289948E+04  0.7818609E-02  0.8481895E-01
       -2   -1    0    0    0  501  0.00000000000E+00  0.00000000000E+00  0.15566551972E+04  0.15566551972E+04  0.25500000920E-02 0.  1.
        2   -1    0    0  501    0  0.00000000000E+00  0.00000000000E+00 -0.84216786182E+03  0.84216786182E+03  0.25500000920E-02 0. -1.
    10030    2    1    2    0    0  0.00000000000E+00  0.00000000000E+00  0.71448733537E+03  0.23988230590E+04  0.22899475793E+04 0.  0.
        1    1    3    3  502    0  0.45143674780E+01 -0.56975112884E+02 -0.84067263767E+03  0.84261321302E+03  0.50400001928E-02 0. -1.
       -1    1    3    3    0  502 -0.45143674780E+01  0.56975112884E+02  0.15551599730E+04  0.15562098460E+04  0.50400001928E-02 0.  1.
</event>
<event>
 5   0  0.2031860E-05  0.2302848E+04  0.7818609E-02  0.8476799E-01
       -1   -1    0    0    0  501  0.00000000000E+00  0.00000000000E+00  0.92734415849E+03  0.92734415850E+03  0.50400001928E-02 0.  1.
        1   -1    0    0  501    0  0.00000000000E+00  0.00000000000E+00 -0.14296493993E+04  0.14296493993E+04  0.50400001928E-02 0. -1.
    10030    2    1    2    0    0  0.00000000000E+00  0.00000000000E+00 -0.50230524080E+03  0.23569935578E+04  0.23028478188E+04 0.  0.
        4    1    3    3  502    0 -0.52775724195E+03  0.98312640096E+03 -0.54192778699E+03  0.12404646573E+04  0.12699999809E+01 0. -1.
       -4    1    3    3    0  502  0.52775724195E+03 -0.98312640096E+03  0.39622546189E+02  0.11165289005E+04  0.12699999809E+01 0.  1.
</event>
<event>
 5   0  0.4602447E-05  0.2308706E+04  0.7818609E-02  0.8474496E-01
        2   -1    0    0  501    0  0.00000000000E+00  0.00000000000E+00  0.14299788594E+04  0.14299788594E+04  0.25500000920E-02 0.  1.
       -2   -1    0    0    0  501  0.00000000000E+00  0.00000000000E+00 -0.93185341026E+03  0.93185341026E+03  0.25500000920E-02 0. -1.
    10030    2    1    2    0    0  0.00000000000E+00  0.00000000000E+00  0.49812544913E+03  0.23618322697E+04  0.23087058511E+04 0.  0.
        3    1    3    3  502    0 -0.55906673696E+03  0.86106996306E+03 -0.29084460135E+03  0.10670462455E+04  0.10100000352E+00 0. -1.
       -3    1    3    3    0  502  0.55906673696E+03 -0.86106996306E+03  0.78897005047E+03  0.12947860242E+04  0.10100000352E+00 0.  1.
</event>
<event>
 5   0  0.2031860E-05  0.2306920E+04  0.7818609E-02  0.8475198E-01
       -1   -1    0    0    0  501  0.00000000000E+00  0.00000000000E+00  0.11200330352E+04  0.11200330352E+04  0.50400001928E-02 0.  1.
        1   -1    0    0  501    0  0.00000000000E+00  0.00000000000E+00 -0.11878842880E+04  0.11878842880E+04  0.50400001928E-02 0. -1.
    10030    2    1    2    0    0  0.00000000000E+00  0.00000000000E+00 -0.67851252784E+02  0.23079173232E+04  0.23069197165E+04 0.  0.
        4    1    3    3  502    0 -0.29595190074E+03 -0.11112480072E+04  0.55602572497E+02  0.11513265914E+04  0.12699999809E+01 0. -1.
       -4    1    3    3    0  502  0.29595190074E+03  0.11112480072E+04 -0.12345382528E+03  0.11565907318E+04  0.12699999809E+01 0.  1.
</event>
<event>
 5   0  0.1604500E-05  0.2258045E+04  0.7818609E-02  0.8494649E-01
       -3   -1    0    0    0  501  0.00000000000E+00  0.00000000000E+00  0.13243517076E+04  0.13243517115E+04  0.10100000352E+00 0. -1.
        3   -1    0    0  501    0  0.00000000000E+00  0.00000000000E+00 -0.96250255727E+03  0.96250256257E+03  0.10100000352E+00 0.  1.
    10030    2    1    2    0    0  0.00000000000E+00  0.00000000000E+00  0.36184915033E+03  0.22868542740E+04  0.22580450977E+04 0.  0.
        4    1    3    3  502    0 -0.47633233425E+03  0.10235708950E+04  0.17077507812E+03  0.11418211812E+04  0.12699999809E+01 0. -1.
       -4    1    3    3    0  502  0.47633233425E+03 -0.10235708950E+04  0.19107407221E+03  0.11450330928E+04  0.12699999809E+01 0.  1.
</event>
<event>
 5   0  0.2031860E-05  0.2294340E+04  0.7818609E-02  0.8480156E-01
        1   -1    0    0  501    0  0.00000000000E+00  0.00000000000E+00  0.25294252736E+04  0.25294252736E+04  0.50400001928E-02 0. -1.
       -1   -1    0    0    0  501  0.00000000000E+00  0.00000000000E+00 -0.52027607941E+03  0.52027607943E+03  0.50400001928E-02 0.  1.
    10030    2    1    2    0    0  0.00000000000E+00  0.00000000000E+00  0.20091491942E+04  0.30497013530E+04  0.22943403972E+04 0.  0.
        4    1    3    3  502    0 -0.84291774016E+03  0.26835864551E+03  0.19754308643E+04  0.21644526772E+04  0.12699999809E+01 0. -1.
       -4    1    3    3    0  502  0.84291774016E+03 -0.26835864551E+03  0.33718329825E+02  0.88524867577E+03  0.12699999809E+01 0.  1.
</event>
<event>
 5   0  0.2043885E-05  0.2304620E+04  0.7818609E-02  0.8476102E-01
       -1   -1    0    0    0  501  0.00000000000E+00  0.00000000000E+00  0.75256447696E+03  0.75256447698E+03  0.50400001928E-02 0.  1.
        1   -1    0    0  501    0  0.00000000000E+00  0.00000000000E+00 -0.17643919815E+04  0.17643919815E+04  0.50400001928E-02 0. -1.
    10030    2    1    2    0    0  0.00000000000E+00  0.00000000000E+00 -0.10118275045E+04  0.25169564585E+04  0.23046203407E+04 0.  0.
        5    1    3    3  502    0 -0.77578170450E+03 -0.10874233272E+03 -0.14288385528E+04  0.16294980356E+04  0.46999998093E+01 0. -1.
       -5    1    3    3    0  502  0.77578170450E+03  0.10874233272E+03  0.41701104828E+03  0.88745842289E+03  0.46999998093E+01 0.  1.
</event>
<event>
 5   0  0.4798609E-05  0.2329177E+04  0.7818609E-02  0.8466505E-01
       -2   -1    0    0    0  501  0.00000000000E+00  0.00000000000E+00  0.14993052472E+04  0.14993052472E+04  0.25500000920E-02 0. -1.
        2   -1    0    0  501    0  0.00000000000E+00  0.00000000000E+00 -0.90459650402E+03  0.90459650403E+03  0.25500000920E-02 0.  1.
    10030    2    1    2    0    0  0.00000000000E+00  0.00000000000E+00  0.59470874314E+03  0.24039017512E+04  0.23291769233E+04 0.  0.
        2    1    3    3  502    0 -0.50411921583E+03 -0.10457862033E+04  0.20241786450E+03  0.11784642374E+04  0.25500000920E-02 0.  1.
       -2    1    3    3    0  502  0.50411921583E+03  0.10457862033E+04  0.39229087863E+03  0.12254375138E+04  0.25500000920E-02 0. -1.
</event>
<event>
 5   0  0.4505107E-05  0.2307947E+04  0.7818609E-02  0.8474794E-01
       -2   -1    0    0    0  501  0.00000000000E+00  0.00000000000E+00  0.85464894284E+03  0.85464894284E+03  0.25500000920E-02 0. -1.
        2   -1    0    0  501    0  0.00000000000E+00  0.00000000000E+00 -0.15581313143E+04  0.15581313143E+04  0.25500000920E-02 0.  1.
    10030    2    1    2    0    0  0.00000000000E+00  0.00000000000E+00 -0.70348237143E+03  0.24127802571E+04  0.23079473829E+04 0.  0.
        4    1    3    3  502    0  0.15089966257E+02  0.10125094324E+04  0.22679476045E+03  0.10377092724E+04  0.12699999809E+01 0. -1.
       -4    1    3    3    0  502 -0.15089966257E+02 -0.10125094324E+04 -0.93027713188E+03  0.13750709847E+04  0.12699999809E+01 0.  1.
</event>
<event>
 5   0  0.4436695E-05  0.2302816E+04  0.7818609E-02  0.8476811E-01
       -2   -1    0    0    0  501  0.00000000000E+00  0.00000000000E+00  0.11082019933E+04  0.11082019933E+04  0.25500000920E-02 0. -1.
        2   -1    0    0  501    0  0.00000000000E+00  0.00000000000E+00 -0.11962988914E+04  0.11962988914E+04  0.25500000920E-02 0.  1.
    10030    2    1    2    0    0  0.00000000000E+00  0.00000000000E+00 -0.88096898082E+02  0.23045008848E+04  0.23028163766E+04 0.  0.
        5    1    3    3  502    0 -0.81480229413E+03  0.38291104062E+03  0.67424751205E+03  0.11247912878E+04  0.46999998093E+01 0. -1.
       -5    1    3    3    0  502  0.81480229413E+03 -0.38291104062E+03 -0.76234441013E+03  0.11797095970E+04  0.46999998093E+01 0.  1.
</event>
<event>
 5   0  0.4436695E-05  0.2311811E+04  0.7818609E-02  0.8473279E-01
       -2   -1    0    0    0  501  0.00000000000E+00  0.00000000000E+00  0.68786175862E+03  0.68786175863E+03  0.25500000920E-02 0. -1.
        2   -1    0    0  501    0  0.00000000000E+00  0.00000000000E+00 -0.19424209529E+04  0.19424209529E+04  0.25500000920E-02 0.  1.
    10030    2    1    2    0    0  0.00000000000E+00  0.00000000000E+00 -0.12545591943E+04  0.26302827116E+04  0.23118106260E+04 0.  0.
        5    1    3    3  502    0  0.93119591720E+03  0.36463335617E+03  0.32239481137E+02  0.10005722337E+04  0.46999998093E+01 0. -1.
       -5    1    3    3    0  502 -0.93119591720E+03 -0.36463335617E+03 -0.12867986754E+04  0.16297104779E+04  0.46999998093E+01 0.  1.
</event>
<event>
 5   0  0.2031860E-05  0.2321162E+04  0.7818609E-02  0.8469624E-01
        1   -1    0    0  501    0  0.00000000000E+00  0.00000000000E+00  0.94854510917E+03  0.94854510918E+03  0.50400001928E-02 0.  1.
       -1   -1    0    0    0  501  0.00000000000E+00  0.00000000000E+00 -0.14200146033E+04  0.14200146033E+04  0.50400001928E-02 0. -1.
    10030    2    1    2    0    0  0.00000000000E+00  0.00000000000E+00 -0.47146949413E+03  0.23685597125E+04  0.23211616979E+04 0.  0.
        4    1    3    3  502    0 -0.61557735047E+03 -0.27541415271E+02 -0.12393074170E+04  0.13840442517E+04  0.12699999809E+01 0. -1.
       -4    1    3    3    0  502  0.61557735047E+03  0.27541415271E+02  0.76783792282E+03  0.98451546082E+03  0.12699999809E+01 0.  1.
</event>
<event>
 5   0  0.2085063E-05  0.2346486E+04  0.7818609E-02  0.8459814E-01
        1   -1    0    0  501    0  0.00000000000E+00  0.00000000000E+00  0.18768595017E+04  0.18768595017E+04  0.50400001928E-02 0. -1.
       -1   -1    0    0    0  501  0.00000000000E+00  0.00000000000E+00 -0.73340567235E+03  0.73340567237E+03  0.50400001928E-02 0.  1.
    10030    2    1    2    0    0  0.00000000000E+00  0.00000000000E+00  0.11434538293E+04  0.26102651741E+04  0.23464862282E+04 0.  0.
        1    1    3    3  502    0  0.60807312805E+03 -0.72610157093E+01 -0.54440443416E+03  0.81619963205E+03  0.50400001928E-02 0.  1.
       -1    1    3    3    0  502 -0.60807312805E+03  0.72610157093E+01  0.16878582635E+04  0.17940655420E+04  0.50400001928E-02 0. -1.
</event>
<event>
 5   0  0.4602447E-05  0.2292346E+04  0.7818609E-02  0.8480945E-01
        2   -1    0    0  501    0  0.00000000000E+00  0.00000000000E+00  0.10246694441E+04  0.10246694441E+04  0.25500000920E-02 0. -1.
       -2   -1    0    0    0  501  0.00000000000E+00  0.00000000000E+00 -0.12820847990E+04  0.12820847990E+04  0.25500000920E-02 0.  1.
    10030    2    1    2    0    0  0.00000000000E+00  0.00000000000E+00 -0.25741535488E+03  0.23067542431E+04  0.22923464994E+04 0.  0.
        3    1    3    3  502    0  0.57199885196E+02  0.83309695965E+02  0.10201777243E+04  0.10251706842E+04  0.10100000352E+00 0. -1.
       -3    1    3    3    0  502 -0.57199885196E+02 -0.83309695965E+02 -0.12775930792E+04  0.12815835589E+04  0.10100000352E+00 0.  1.
</event>
<event>
 5   0  0.4605516E-05  0.2282735E+04  0.7818609E-02  0.8484760E-01
       -2   -1    0    0    0  501  0.00000000000E+00  0.00000000000E+00  0.12127060122E+04  0.12127060122E+04  0.25500000920E-02 0. -1.
        2   -1    0    0  501    0  0.00000000000E+00  0.00000000000E+00 -0.10742253976E+04  0.10742253976E+04  0.25500000920E-02 0.  1.
    10030    2    1    2    0    0  0.00000000000E+00  0.00000000000E+00  0.13848061462E+03  0.22869314098E+04  0.22827348494E+04 0.  0.
        1    1    3    3  502    0 -0.46489221179E+03  0.63397440569E+03 -0.75972952582E+03  0.10932690740E+04  0.50400001928E-02 0.  1.
       -1    1    3    3    0  502  0.46489221179E+03 -0.63397440569E+03  0.89821014044E+03  0.11936623359E+04  0.50400001928E-02 0. -1.
</event>
<event>
 5   0  0.4436695E-05  0.2299604E+04  0.7818609E-02  0.8478077E-01
        2   -1    0    0  501    0  0.00000000000E+00  0.00000000000E+00  0.15102263810E+04  0.15102263810E+04  0.25500000920E-02 0.  1.
       -2   -1    0    0    0  501  0.00000000000E+00  0.00000000000E+00 -0.87539483666E+03  0.87539483666E+03  0.25500000920E-02 0. -1.
    10030    2    1    2    0    0  0.00000000000E+00  0.00000000000E+00  0.63483154438E+03  0.23856212177E+04  0.22996037712E+04 0.  0.
        5    1    3    3  502    0  0.83730752494E+03 -0.13427974782E+03  0.11229310161E+04  0.14071642047E+04  0.46999998093E+01 0.  1.
       -5    1    3    3    0  502 -0.83730752494E+03  0.13427974782E+03 -0.48809947175E+03  0.97845701301E+03  0.46999998093E+01 0. -1.
</event>
<event>
 5   0  0.1968318E-05  0.2238016E+04  0.7818609E-02  0.8502770E-01
        1   -1    0    0  501    0  0.00000000000E+00  0.00000000000E+00  0.13503330201E+04  0.13503330201E+04  0.50400001928E-02 0. -1.
       -1   -1    0    0    0  501  0.00000000000E+00  0.00000000000E+00 -0.92731076896E+03  0.92731076897E+03  0.50400001928E-02 0.  1.
    10030    2    1    2    0    0  0.00000000000E+00  0.00000000000E+00  0.42302225114E+03  0.22776437891E+04  0.22380155060E+04 0.  0.
        3    1    3    3  502    0 -0.51438228390E+03 -0.23551417537E+03 -0.77104904869E+03  0.95633294750E+03  0.10100000352E+00 0.  1.
       -3    1    3    3    0  502  0.51438228390E+03  0.23551417537E+03  0.11940712998E+04  0.13213108416E+04  0.10100000352E+00 0. -1.
</event>
<event>
 5   0  0.4798609E-05  0.2268004E+04  0.7818609E-02  0.8490645E-01
        2   -1    0    0  501    0  0.00000000000E+00  0.00000000000E+00  0.17109070450E+04  0.17109070450E+04  0.25500000920E-02 0.  1.
       -2   -1    0    0    0  501  0.00000000000E+00  0.00000000000E+00 -0.75162476109E+03  0.75162476110E+03  0.25500000920E-02 0. -1.
    10030    2    1    2    0    0  0.00000000000E+00  0.00000000000E+00  0.95928228389E+03  0.24625318061E+04  0.22680036146E+04 0.  0.
        2    1    3    3  502    0 -0.57018698688E+03  0.22550693221E+03 -0.55611437836E+03  0.82778607037E+03  0.25500000920E-02 0. -1.
       -2    1    3    3    0  502  0.57018698688E+03 -0.22550693221E+03  0.15153966622E+04  0.16347457357E+04  0.25500000920E-02 0.  1.
</event>
<event>
 5   0  0.2085063E-05  0.2297702E+04  0.7818609E-02  0.8478828E-01
        1   -1    0    0  501    0  0.00000000000E+00  0.00000000000E+00  0.13853437039E+04  0.13853437039E+04  0.50400001928E-02 0.  1.
       -1   -1    0    0    0  501  0.00000000000E+00  0.00000000000E+00 -0.95272972505E+03  0.95272972507E+03  0.50400001928E-02 0. -1.
    10030    2    1    2    0    0  0.00000000000E+00  0.00000000000E+00  0.43261397888E+03  0.23380734290E+04  0.22977015700E+04 0.  0.
        1    1    3    3  502    0 -0.11152864968E+04 -0.26213379711E+03  0.30312924624E+03  0.11851014461E+04  0.50400001928E-02 0.  1.
       -1    1    3    3    0  502  0.11152864968E+04  0.26213379711E+03  0.12948473264E+03  0.11529719830E+04  0.50400001928E-02 0. -1.
</event>
<event>
 5   0  0.4602447E-05  0.2261323E+04  0.7818609E-02  0.8493329E-01
       -2   -1    0    0    0  501  0.00000000000E+00  0.00000000000E+00  0.97785681518E+03  0.97785681518E+03  0.25500000920E-02 0.  1.
        2   -1    0    0  501    0  0.00000000000E+00  0.00000000000E+00 -0.13073440574E+04  0.13073440574E+04  0.25500000920E-02 0. -1.
    10030    2    1    2    0    0  0.00000000000E+00  0.00000000000E+00 -0.32948724220E+03  0.22852008726E+04  0.22613228839E+04 0.  0.
        3    1    3    3  502    0 -0.57100831447E+01  0.11139190975E+04  0.31072747879E+02  0.11143670341E+04  0.10100000352E+00 0.  1.
       -3    1    3    3    0  502  0.57100831447E+01 -0.11139190975E+04 -0.36055999008E+03  0.11708338385E+04  0.10100000352E+00 0. -1.
</event>
<event>
 5   0  0.4798609E-05  0.2352530E+04  0.7818609E-02  0.8457492E-01
       -2   -1    0    0    0  501  0.00000000000E+00  0.00000000000E+00  0.93623353045E+03  0.93623353045E+03  0.25500000920E-02 0. -1.
        2   -1    0    0  501    0  0.00000000000E+00  0.00000000000E+00 -0.14778359219E+04  0.14778359219E+04  0.25500000920E-02 0.  1.
    10030    2    1    2    0    0  0.00000000000E+00  0.00000000000E+00 -0.54160239144E+03  0.24140694523E+04  0.23525301635E+04 0.  0.
        2    1    3    3  502    0 -0.53398795612E+03  0.10196124748E+04 -0.51973049125E+03  0.12628826230E+04  0.25500000920E-02 0.  1.
       -2    1    3    3    0  502  0.53398795612E+03 -0.10196124748E+04 -0.21871900186E+02  0.11511868293E+04  0.25500000920E-02 0. -1.
</event>
<event>
 5   0  0.2085063E-05  0.2292345E+04  0.7818609E-02  0.8480946E-01
        1   -1    0    0  501    0  0.00000000000E+00  0.00000000000E+00  0.14306581839E+04  0.14306581839E+04  0.50400001928E-02 0. -1.
       -1   -1    0    0    0  501  0.00000000000E+00  0.00000000000E+00 -0.91825633759E+03  0.91825633760E+03  0.50400001928E-02 0.  1.
    10030    2    1    2    0    0  0.00000000000E+00  0.00000000000E+00  0.51240184631E+03  0.23489145215E+04  0.22923446026E+04 0.  0.
        1    1    3    3  502    0 -0.34664812669E+03  0.60500863318E+03 -0.67592392257E+03  0.97111972439E+03  0.50400001928E-02 0.  1.
       -1    1    3    3    0  502  0.34664812669E+03 -0.60500863318E+03  0.11883257689E+04  0.13777947971E+04  0.50400001928E-02 0. -1.
</event>
<event>
 5   0  0.4436695E-05  0.2302072E+04  0.7818609E-02  0.8477105E-01
        2   -1    0    0  501    0  0.00000000000E+00  0.00000000000E+00  0.15180372566E+04  0.15180372566E+04  0.25500000920E-02 0.  1.
       -2   -1    0    0    0  501  0.00000000000E+00  0.00000000000E+00 -0.87276117451E+03  0.87276117452E+03  0.25500000920E-02 0. -1.
    10030    2    1    2    0    0  0.00000000000E+00  0.00000000000E+00  0.64527608213E+03  0.23907984312E+04  0.23020720919E+04 0.  0.
        5    1    3    3  502    0 -0.10282018178E+04  0.42137357148E+03  0.63438616464E+03  0.12795399801E+04  0.46999998093E+01 0.  1.
       -5    1    3    3    0  502  0.10282018178E+04 -0.42137357148E+03  0.10889917487E+02  0.11112584511E+04  0.46999998093E+01 0. -1.
</event>
<event>
 5   0  0.4798609E-05  0.2310989E+04  0.7818609E-02  0.8473601E-01
        2   -1    0    0  501    0  0.00000000000E+00  0.00000000000E+00  0.12523862992E+04  0.12523862992E+04  0.25500000920E-02 0. -1.
       -2   -1    0    0    0  501  0.00000000000E+00  0.00000000000E+00 -0.10660989260E+04  0.10660989260E+04  0.25500000920E-02 0.  1.
    10030    2    1    2    0    0  0.00000000000E+00  0.00000000000E+00  0.18628737323E+03  0.23184852252E+04  0.23109891290E+04 0.  0.
        2    1    3    3  502    0 -0.64902417871E+03 -0.30623953735E+03  0.10017040287E+04  0.12322442939E+04  0.25500000920E-02 0. -1.
       -2    1    3    3    0  502  0.64902417871E+03  0.30623953735E+03 -0.81541665549E+03  0.10862409313E+04  0.25500000920E-02 0.  1.
</event>
<event>
 5   0  0.4436695E-05  0.2288734E+04  0.7818609E-02  0.8482376E-01
        2   -1    0    0  501    0  0.00000000000E+00  0.00000000000E+00  0.79561680811E+03  0.79561680811E+03  0.25500000920E-02 0.  1.
       -2   -1    0    0    0  501  0.00000000000E+00  0.00000000000E+00 -0.16459882420E+04  0.16459882420E+04  0.25500000920E-02 0. -1.
    10030    2    1    2    0    0  0.00000000000E+00  0.00000000000E+00 -0.85037143388E+03  0.24416050501E+04  0.22887340704E+04 0.  0.
        5    1    3    3  502    0  0.90019534051E+03  0.32185056228E+03  0.24580439104E+03  0.98710755451E+03  0.46999998093E+01 0.  1.
       -5    1    3    3    0  502 -0.90019534051E+03 -0.32185056228E+03 -0.10961758249E+04  0.14544974956E+04  0.46999998093E+01 0. -1.
</event>
<event>
 5   0  0.2085063E-05  0.2338099E+04  0.7818609E-02  0.8463049E-01
       -1   -1    0    0    0  501  0.00000000000E+00  0.00000000000E+00  0.11921363016E+04  0.11921363016E+04  0.50400001928E-02 0.  1.
        1   -1    0    0  501    0  0.00000000000E+00  0.00000000000E+00 -0.11464095931E+04  0.11464095931E+04  0.50400001928E-02 0. -1.
    10030    2    1    2    0    0  0.00000000000E+00  0.00000000000E+00  0.45726708474E+02  0.23385458947E+04  0.23380987939E+04 0.  0.
        1    1    3    3  502    0 -0.65116537917E+03 -0.61790940513E+03  0.77190449085E+03  0.11839193076E+04  0.50400001928E-02 0.  1.
       -1    1    3    3    0  502  0.65116537917E+03  0.61790940513E+03 -0.72617778237E+03  0.11546265871E+04  0.50400001928E-02 0. -1.
</event>
<event>
 5   0  0.4505107E-05  0.2296365E+04  0.7818609E-02  0.8479356E-01
        2   -1    0    0  501    0  0.00000000000E+00  0.00000000000E+00  0.18245601874E+04  0.18245601874E+04  0.25500000920E-02 0.  1.
       -2   -1    0    0    0  501  0.00000000000E+00  0.00000000000E+00 -0.72254266753E+03  0.72254266754E+03  0.25500000920E-02 0. -1.
    10030    2    1    2    0    0  0.00000000000E+00  0.00000000000E+00  0.11020175199E+04  0.25471028550E+04  0.22963645921E+04 0.  0.
        4    1    3    3  502    0  0.10626566618E+04 -0.43049784923E+03  0.61896317263E+03  0.13029522635E+04  0.12699999809E+01 0. -1.
       -4    1    3    3    0  502 -0.10626566618E+04  0.43049784923E+03  0.48305434728E+03  0.12441505915E+04  0.12699999809E+01 0.  1.
</event>
<event>
 5   0  0.4602447E-05  0.2276599E+04  0.7818609E-02  0.8487205E-01
        2   -1    0    0  501    0  0.00000000000E+00  0.00000000000E+00  0.13485829094E+04  0.13485829094E+04  0.25500000920E-02 0. -1.
       -2   -1    0    0    0  501  0.00000000000E+00  0.00000000000E+00 -0.96080526087E+03  0.96080526087E+03  0.25500000920E-02 0.  1.
    10030    2    1    2    0    0  0.00000000000E+00  0.00000000000E+00  0.38777764850E+03  0.23093881702E+04  0.22765988264E+04 0.  0.
        3    1    3    3  502    0 -0.71952713078E+03  0.36419913451E+03  0.10088055191E+04  0.12915296694E+04  0.10100000352E+00 0. -1.
       -3    1    3    3    0  502  0.71952713078E+03 -0.36419913451E+03 -0.62102787055E+03  0.10178585008E+04  0.10100000352E+00 0.  1.
</event>
<event>
 5   0  0.4436695E-05  0.2376608E+04  0.7818609E-02  0.8448313E-01
        2   -1    0    0  501    0  0.00000000000E+00  0.00000000000E+00  0.11524363073E+04  0.11524363073E+04  0.25500000920E-02 0.  1.
       -2   -1    0    0    0  501  0.00000000000E+00  0.00000000000E+00 -0.12252881839E+04  0.12252881839E+04  0.25500000920E-02 0. -1.
    10030    2    1    2    0    0  0.00000000000E+00  0.00000000000E+00 -0.72851876544E+02  0.23777244912E+04  0.23766081630E+04 0.  0.
        5    1    3    3  502    0  0.92946573616E+03 -0.32095719319E+03 -0.70391577855E+03  0.12093136846E+04  0.46999998093E+01 0. -1.
       -5    1    3    3    0  502 -0.92946573616E+03  0.32095719319E+03  0.63106390200E+03  0.11684108066E+04  0.46999998093E+01 0.  1.
</event>
<event>
 5   0  0.4602447E-05  0.2303412E+04  0.7818609E-02  0.8476577E-01
       -2   -1    0    0    0  501  0.00000000000E+00  0.00000000000E+00  0.12627136641E+04  0.12627136641E+04  0.25500000920E-02 0.  1.
        2   -1    0    0  501    0  0.00000000000E+00  0.00000000000E+00 -0.10504574410E+04  0.10504574410E+04  0.25500000920E-02 0. -1.
    10030    2    1    2    0    0  0.00000000000E+00  0.00000000000E+00  0.21225622309E+03  0.23131711050E+04  0.23034122204E+04 0.  0.
        3    1    3    3  502    0  0.57039151622E+03 -0.99854741939E+03  0.42745550545E+02  0.11507695785E+04  0.10100000352E+00 0. -1.
       -3    1    3    3    0  502 -0.57039151622E+03  0.99854741939E+03  0.16951067254E+03  0.11624015265E+04  0.10100000352E+00 0.  1.
</event>
<event>
 5   0  0.1968318E-05  0.2328766E+04  0.7818609E-02  0.8466665E-01
       -1   -1    0    0    0  501  0.00000000000E+00  0.00000000000E+00  0.12360484347E+04  0.12360484347E+04  0.50400001928E-02 0.  1.
        1   -1    0    0  501    0  0.00000000000E+00  0.00000000000E+00 -0.10968727097E+04  0.10968727097E+04  0.50400001928E-02 0. -1.
    10030    2    1    2    0    0  0.00000000000E+00  0.00000000000E+00  0.13917572505E+03  0.23329211444E+04  0.23287660216E+04 0.  0.
        3    1    3    3  502    0 -0.25875952094E+03  0.11346963054E+04  0.33529326321E+02  0.11643094181E+04  0.10100000352E+00 0.  1.
       -3    1    3    3    0  502  0.25875952094E+03 -0.11346963054E+04  0.10564639873E+03  0.11686117263E+04  0.10100000352E+00 0. -1.
</event>
<event>
 5   0  0.1968318E-05  0.2284315E+04  0.7818609E-02  0.8484131E-01
        1   -1    0    0  501    0  0.00000000000E+00  0.00000000000E+00  0.11919693544E+04  0.11919693544E+04  0.50400001928E-02 0.  1.
       -1   -1    0    0    0  501  0.00000000000E+00  0.00000000000E+00 -0.10944276497E+04  0.10944276498E+04  0.50400001928E-02 0. -1.
    10030    2    1    2    0    0  0.00000000000E+00  0.00000000000E+00  0.97541704665E+02  0.22863970042E+04  0.22843154065E+04 0.  0.
        3    1    3    3  502    0  0.11083628832E+04 -0.12677650350E+03 -0.19636791889E+03  0.11327404523E+04  0.10100000352E+00 0.  1.
       -3    1    3    3    0  502 -0.11083628832E+04  0.12677650350E+03  0.29390962356E+03  0.11536565518E+04  0.10100000352E+00 0. -1.
</event>
<event>
 5   0  0.4505107E-05  0.2287715E+04  0.7818609E-02  0.8482781E-01
       -2   -1    0    0    0  501  0.00000000000E+00  0.00000000000E+00  0.14771498267E+04  0.14771498267E+04  0.25500000920E-02 0. -1.
        2   -1    0    0  501    0  0.00000000000E+00  0.00000000000E+00 -0.88576654755E+03  0.88576654756E+03  0.25500000920E-02 0.  1.
    10030    2    1    2    0    0  0.00000000000E+00  0.00000000000E+00  0.59138327915E+03  0.23629163743E+04  0.22877149317E+04 0.  0.
        4    1    3    3  502    0  0.43382973535E+03  0.14582285177E+03  0.13784526163E+04  0.14524481993E+04  0.12699999809E+01 0. -1.
       -4    1    3    3    0  502 -0.43382973535E+03 -0.14582285177E+03 -0.78706933711E+03  0.91046817500E+03  0.12699999809E+01 0.  1.
</event>
<event>
 5   0  0.2043885E-05  0.2286255E+04  0.7818609E-02  0.8483360E-01
        1   -1    0    0  501    0  0.00000000000E+00  0.00000000000E+00  0.16951548544E+04  0.16951548544E+04  0.50400001928E-02 0.  1.
       -1   -1    0    0    0  501  0.00000000000E+00  0.00000000000E+00 -0.77086803398E+03  0.77086803399E+03  0.50400001928E-02 0. -1.
    10030    2    1    2    0    0  0.00000000000E+00  0.00000000000E+00  0.92428682043E+03  0.24660228884E+04  0.22862551825E+04 0.  0.
        5    1    3    3  502    0 -0.13732906665E+03 -0.66434857031E+03 -0.53025477078E+03  0.86105197715E+03  0.46999998093E+01 0. -1.
       -5    1    3    3    0  502  0.13732906665E+03  0.66434857031E+03  0.14545415912E+04  0.16049709113E+04  0.46999998093E+01 0.  1.
</event>
<event>
 5   0  0.1968318E-05  0.2281268E+04  0.7818609E-02  0.8485344E-01
       -1   -1    0    0    0  501  0.00000000000E+00  0.00000000000E+00  0.10809602751E+04  0.10809602752E+04  0.50400001928E-02 0. -1.
        1   -1    0    0  501    0  0.00000000000E+00  0.00000000000E+00 -0.12036023293E+04  0.12036023293E+04  0.50400001928E-02 0.  1.
    10030    2    1    2    0    0  0.00000000000E+00  0.00000000000E+00 -0.12264205418E+03  0.22845626045E+04  0.22812683359E+04 0.  0.
        3    1    3    3  502    0  0.11376573168E+04 -0.17731329384E+02  0.19217270014E+02  0.11379577691E+04  0.10100000352E+00 0. -1.
       -3    1    3    3    0  502 -0.11376573168E+04  0.17731329384E+02 -0.14185932420E+03  0.11466048354E+04  0.10100000352E+00 0.  1.
</event>
<event>
 5   0  0.1604500E-05  0.2295122E+04  0.7818609E-02  0.8479847E-01
        3   -1    0    0  501    0  0.00000000000E+00  0.00000000000E+00  0.96691504622E+03  0.96691505149E+03  0.10100000352E+00 0.  1.
       -3   -1    0    0    0  501  0.00000000000E+00  0.00000000000E+00 -0.13619564169E+04  0.13619564206E+04  0.10100000352E+00 0. -1.
    10030    2    1    2    0    0  0.00000000000E+00  0.00000000000E+00 -0.39504137065E+03  0.23288714721E+04  0.22951219247E+04 0.  0.
        1    1    3    3  502    0  0.75016828807E+03  0.84336539805E+03  0.12595538811E+02  0.11287941808E+04  0.50400001928E-02 0. -1.
       -1    1    3    3    0  502 -0.75016828807E+03 -0.84336539805E+03 -0.40763690946E+03  0.12000772913E+04  0.50400001928E-02 0.  1.
</event>
<event>
 5   0  0.1968318E-05  0.2295795E+04  0.7818609E-02  0.8479581E-01
       -1   -1    0    0    0  501  0.00000000000E+00  0.00000000000E+00  0.14457697943E+04  0.14457697943E+04  0.50400001928E-02 0. -1.
        1   -1    0    0  501    0  0.00000000000E+00  0.00000000000E+00 -0.91139625542E+03  0.91139625544E+03  0.50400001928E-02 0.  1.
    10030    2    1    2    0    0  0.00000000000E+00  0.00000000000E+00  0.53437353886E+03  0.23571660497E+04  0.22957954410E+04 0.  0.
        3    1    3    3  502    0  0.35676810552E+03  0.49205055377E+03  0.12670104935E+04  0.14052447578E+04  0.10100000352E+00 0. -1.
       -3    1    3    3    0  502 -0.35676810552E+03 -0.49205055377E+03 -0.73263695460E+03  0.95192129193E+03  0.10100000352E+00 0.  1.
</event>
<event>
 5   0  0.4605516E-05  0.2291743E+04  0.7818609E-02  0.8481184E-01
        2   -1    0    0  501    0  0.00000000000E+00  0.00000000000E+00  0.11389887836E+04  0.11389887836E+04  0.25500000920E-02 0. -1.
       -2   -1    0    0    0  501  0.00000000000E+00  0.00000000000E+00 -0.11527958290E+04  0.11527958290E+04  0.25500000920E-02 0.  1.
    10030    2    1    2    0    0  0.00000000000E+00  0.00000000000E+00 -0.13807045390E+02  0.22917846126E+04  0.22917430214E+04 0.  0.
        1    1    3    3  502    0 -0.76272532624E+03 -0.18494538188E+03 -0.84182393977E+03  0.11509223532E+04  0.50400001928E-02 0.  1.
       -1    1    3    3    0  502  0.76272532624E+03  0.18494538188E+03  0.82801689438E+03  0.11408622594E+04  0.50400001928E-02 0. -1.
</event>
<event>
 5   0  0.2042951E-05  0.2065732E+04  0.7818609E-02  0.8576491E-01
       -1   -1    0    0    0  501  0.00000000000E+00  0.00000000000E+00  0.13784644238E+04  0.13784644238E+04  0.50400001928E-02 0. -1.
        1   -1    0    0  501    0  0.00000000000E+00  0.00000000000E+00 -0.77391379815E+03  0.77391379817E+03  0.50400001928E-02 0.  1.
    10030    2    1    2    0    0  0.00000000000E+00  0.00000000000E+00  0.60455062566E+03  0.21523782220E+04  0.20657324492E+04 0.  0.
        2    1    3    3  502    0 -0.21673564881E+03 -0.80616625802E+02 -0.74659538120E+03  0.78158687621E+03  0.25500000920E-02 0.  1.
       -2    1    3    3    0  502  0.21673564881E+03  0.80616625802E+02  0.13511460069E+04  0.13707913458E+04  0.25500000920E-02 0. -1.
</event>
<event>
 5   0  0.1968318E-05  0.2269487E+04  0.7818609E-02  0.8490050E-01
       -1   -1    0    0    0  501  0.00000000000E+00  0.00000000000E+00  0.93797715268E+03  0.93797715269E+03  0.50400001928E-02 0. -1.
        1   -1    0    0  501    0  0.00000000000E+00  0.00000000000E+00 -0.13727866441E+04  0.13727866441E+04  0.50400001928E-02 0.  1.
    10030    2    1    2    0    0  0.00000000000E+00  0.00000000000E+00 -0.43480949143E+03  0.23107637968E+04  0.22694867329E+04 0.  0.
        3    1    3    3  502    0  0.34416712600E+03  0.93900626672E+03  0.32849846504E+03  0.10526609289E+04  0.10100000352E+00 0. -1.
       -3    1    3    3    0  502 -0.34416712600E+03 -0.93900626672E+03 -0.76330795647E+03  0.12581028679E+04  0.10100000352E+00 0.  1.
</event>
<event>
 5   0  0.2042951E-05  0.2234628E+04  0.7818609E-02  0.8504152E-01
        1   -1    0    0  501    0  0.00000000000E+00  0.00000000000E+00  0.19810510213E+04  0.19810510213E+04  0.50400001928E-02 0.  1.
       -1   -1    0    0    0  501  0.00000000000E+00  0.00000000000E+00 -0.63016582094E+03  0.63016582096E+03  0.50400001928E-02 0. -1.
    10030    2    1    2    0    0  0.00000000000E+00  0.00000000000E+00  0.13508852003E+04  0.26112168422E+04  0.22346280614E+04 0.  0.
        2    1    3    3  502    0  0.54882819406E+03 -0.69826621533E+02 -0.45887027517E+03  0.71878374572E+03  0.25500000920E-02 0. -1.
       -2    1    3    3    0  502 -0.54882819406E+03  0.69826621533E+02  0.18097554755E+04  0.18924330965E+04  0.25500000920E-02 0.  1.
</event>
<event>
 5   0  0.1968318E-05  0.2303610E+04  0.7818609E-02  0.8476499E-01
       -1   -1    0    0    0  501  0.00000000000E+00  0.00000000000E+00  0.11306165067E+04  0.11306165067E+04  0.50400001928E-02 0.  1.
        1   -1    0    0  501    0  0.00000000000E+00  0.00000000000E+00 -0.11733905979E+04  0.11733905979E+04  0.50400001928E-02 0. -1.
    10030    2    1    2    0    0  0.00000000000E+00  0.00000000000E+00 -0.42774091269E+02  0.23040071046E+04  0.23036100180E+04 0.  0.
        3    1    3    3  502    0 -0.43828588390E+03  0.76170550218E+03  0.72329820008E+03  0.11381784063E+04  0.10100000352E+00 0.  1.
       -3    1    3    3    0  502  0.43828588390E+03 -0.76170550218E+03 -0.76607229135E+03  0.11658286983E+04  0.10100000352E+00 0. -1.
</event>
<event>
 5   0  0.4436695E-05  0.2282559E+04  0.7818609E-02  0.8484830E-01
        2   -1    0    0  501    0  0.00000000000E+00  0.00000000000E+00  0.30983185555E+04  0.30983185555E+04  0.25500000920E-02 0.  1.
       -2   -1    0    0    0  501  0.00000000000E+00  0.00000000000E+00 -0.42039551583E+03  0.42039551584E+03  0.25500000920E-02 0. -1.
    10030    2    1    2    0    0  0.00000000000E+00  0.00000000000E+00  0.26779230397E+04  0.35187140714E+04  0.22825592894E+04 0.  0.
        5    1    3    3  502    0  0.51265854083E+03  0.10024104264E+04  0.16267503025E+04  0.19783791545E+04  0.46999998093E+01 0.  1.
       -5    1    3    3    0  502 -0.51265854083E+03 -0.10024104264E+04  0.10511727372E+04  0.15403349168E+04  0.46999998093E+01 0. -1.
</event>
<event>
 5   0  0.4605516E-05  0.2267109E+04  0.7818609E-02  0.8491004E-01
       -2   -1    0    0    0  501  0.00000000000E+00  0.00000000000E+00  0.11491471502E+04  0.11491471502E+04  0.25500000920E-02 0.  1.
        2   -1    0    0  501    0  0.00000000000E+00  0.00000000000E+00 -0.11181729947E+04  0.11181729947E+04  0.25500000920E-02 0. -1.
    10030    2    1    2    0    0  0.00000000000E+00  0.00000000000E+00  0.30974155572E+02  0.22673201449E+04  0.22671085641E+04 0.  0.
        1    1    3    3  502    0  0.26913580644E+03  0.36202336297E+03  0.10555121629E+04  0.11478679905E+04  0.50400001928E-02 0.  1.
       -1    1    3    3    0  502 -0.26913580644E+03 -0.36202336297E+03 -0.10245380073E+04  0.11194521544E+04  0.50400001928E-02 0. -1.
</event>
<event>
 5   0  0.2085063E-05  0.2301575E+04  0.7818609E-02  0.8477301E-01
       -1   -1    0    0    0  501  0.00000000000E+00  0.00000000000E+00  0.11029239314E+04  0.11029239315E+04  0.50400001928E-02 0.  1.
        1   -1    0    0  501    0  0.00000000000E+00  0.00000000000E+00 -0.12007277287E+04  0.12007277287E+04  0.50400001928E-02 0. -1.
    10030    2    1    2    0    0  0.00000000000E+00  0.00000000000E+00 -0.97803797240E+02  0.23036516602E+04  0.23015745455E+04 0.  0.
        1    1    3    3  502    0 -0.24858050033E+03 -0.11085944698E+04 -0.23219931826E+03  0.11596079023E+04  0.50400001928E-02 0. -1.
       -1    1    3    3    0  502  0.24858050033E+03  0.11085944698E+04  0.13439552102E+03  0.11440437578E+04  0.50400001928E-02 0.  1.
</event>
<event>
 5   0  0.4798609E-05  0.2323892E+04  0.7818609E-02  0.8468560E-01
        2   -1    0    0  501    0  0.00000000000E+00  0.00000000000E+00  0.14418689148E+04  0.14418689148E+04  0.25500000920E-02 0.  1.
       -2   -1    0    0    0  501  0.00000000000E+00  0.00000000000E+00 -0.93636702064E+03  0.93636702064E+03  0.25500000920E-02 0. -1.
    10030    2    1    2    0    0  0.00000000000E+00  0.00000000000E+00  0.50550189413E+03  0.23782359354E+04  0.23238919939E+04 0.  0.
        2    1    3    3  502    0 -0.38909290932E+03  0.59647035500E+03 -0.68684140452E+03  0.98940451356E+03  0.25500000920E-02 0. -1.
       -2    1    3    3    0  502  0.38909290932E+03 -0.59647035500E+03  0.11923432987E+04  0.13888314219E+04  0.25500000920E-02 0.  1.
</event>
<event>
 5   0  0.4436695E-05  0.2287068E+04  0.7818609E-02  0.8483038E-01
       -2   -1    0    0    0  501  0.00000000000E+00  0.00000000000E+00  0.71723413680E+03  0.71723413680E+03  0.25500000920E-02 0. -1.
        2   -1    0    0  501    0  0.00000000000E+00  0.00000000000E+00 -0.18232117653E+04  0.18232117653E+04  0.25500000920E-02 0.  1.
    10030    2    1    2    0    0  0.00000000000E+00  0.00000000000E+00 -0.11059776285E+04  0.25404459021E+04  0.22870677442E+04 0.  0.
        5    1    3    3  502    0 -0.35805723946E+03 -0.90586696914E+03 -0.12183937075E+04  0.15599055320E+04  0.46999998093E+01 0.  1.
       -5    1    3    3    0  502  0.35805723946E+03  0.90586696914E+03  0.11241607896E+03  0.98054037006E+03  0.46999998093E+01 0. -1.
</event>
<event>
 5   0  0.2042951E-05  0.2317162E+04  0.7818609E-02  0.8471185E-01
        1   -1    0    0  501    0  0.00000000000E+00  0.00000000000E+00  0.18420746462E+04  0.18420746462E+04  0.50400001928E-02 0.  1.
       -1   -1    0    0    0  501  0.00000000000E+00  0.00000000000E+00 -0.72869492021E+03  0.72869492022E+03  0.50400001928E-02 0. -1.
    10030    2    1    2    0    0  0.00000000000E+00  0.00000000000E+00  0.11133797260E+04  0.25707695664E+04  0.23171624348E+04 0.  0.
        2    1    3    3  502    0 -0.49767577844E+02  0.37837019522E+02  0.18402019323E+04  0.18412635888E+04  0.25500000920E-02 0.  1.
       -2    1    3    3    0  502  0.49767577844E+02 -0.37837019522E+02 -0.72682220629E+03  0.72950597764E+03  0.25500000920E-02 0. -1.
</event>
<event>
 5   0  0.4798609E-05  0.2298678E+04  0.7818609E-02  0.8478442E-01
        2   -1    0    0  501    0  0.00000000000E+00  0.00000000000E+00  0.12821830745E+04  0.12821830745E+04  0.25500000920E-02 0. -1.
       -2   -1    0    0    0  501  0.00000000000E+00  0.00000000000E+00 -0.10302588700E+04  0.10302588700E+04  0.25500000920E-02 0.  1.
    10030    2    1    2    0    0  0.00000000000E+00  0.00000000000E+00  0.25192420444E+03  0.23124419445E+04  0.22986783033E+04 0.  0.
        2    1    3    3  502    0  0.33372440767E+03 -0.23406732248E+03 -0.95509834191E+03  0.10384470783E+04  0.25500000920E-02 0.  1.
       -2    1    3    3    0  502 -0.33372440767E+03  0.23406732248E+03  0.12070225463E+04  0.12739948662E+04  0.25500000920E-02 0. -1.
</event>
<event>
 5   0  0.4602447E-05  0.2416710E+04  0.7818609E-02  0.8433274E-01
        2   -1    0    0  501    0  0.00000000000E+00  0.00000000000E+00  0.14249310716E+04  0.14249310716E+04  0.25500000920E-02 0.  1.
       -2   -1    0    0    0  501  0.00000000000E+00  0.00000000000E+00 -0.10246966038E+04  0.10246966038E+04  0.25500000920E-02 0. -1.
    10030    2    1    2    0    0  0.00000000000E+00  0.00000000000E+00  0.40023446777E+03  0.24496276754E+04  0.24167101851E+04 0.  0.
        3    1    3    3  502    0  0.98674364407E+03  0.68650328824E+03  0.32497061172E+03  0.12452131113E+04  0.10100000352E+00 0. -1.
       -3    1    3    3    0  502 -0.98674364407E+03 -0.68650328824E+03  0.75263856047E+02  0.12044145641E+04  0.10100000352E+00 0.  1.
</event>
<event>
 5   0  0.1604500E-05  0.2293697E+04  0.7818609E-02  0.8480411E-01
       -3   -1    0    0    0  501  0.00000000000E+00  0.00000000000E+00  0.10205751099E+04  0.10205751149E+04  0.10100000352E+00 0. -1.
        3   -1    0    0  501    0  0.00000000000E+00  0.00000000000E+00 -0.12887450086E+04  0.12887450125E+04  0.10100000352E+00 0.  1.
    10030    2    1    2    0    0  0.00000000000E+00  0.00000000000E+00 -0.26816989867E+03  0.23093201274E+04  0.22936966574E+04 0.  0.
        2    1    3    3  502    0 -0.42989706979E+03 -0.82047692344E+03 -0.81490633964E+03  0.12337204768E+04  0.25500000920E-02 0.  1.
       -2    1    3    3    0  502  0.42989706979E+03  0.82047692344E+03  0.54673644096E+03  0.10755996506E+04  0.25500000920E-02 0. -1.
</event>
<event>
 5   0  0.2043885E-05  0.2295444E+04  0.7818609E-02  0.8479720E-01
        1   -1    0    0  501    0  0.00000000000E+00  0.00000000000E+00  0.15403918917E+04  0.15403918917E+04  0.50400001928E-02 0. -1.
       -1   -1    0    0    0  501  0.00000000000E+00  0.00000000000E+00 -0.85514972166E+03  0.85514972167E+03  0.50400001928E-02 0.  1.
    10030    2    1    2    0    0  0.00000000000E+00  0.00000000000E+00  0.68524217008E+03  0.23955416134E+04  0.22954439200E+04 0.  0.
        5    1    3    3  502    0 -0.50422789663E+03  0.98788164858E+03  0.34646127926E+02  0.11096748927E+04  0.46999998093E+01 0.  1.
       -5    1    3    3    0  502  0.50422789663E+03 -0.98788164858E+03  0.65059604215E+03  0.12858667207E+04  0.46999998093E+01 0. -1.
</event>
<event>
 5   0  0.4605516E-05  0.2319534E+04  0.7818609E-02  0.8470259E-01
       -2   -1    0    0    0  501  0.00000000000E+00  0.00000000000E+00  0.70322480458E+03  0.70322480458E+03  0.25500000920E-02 0. -1.
        2   -1    0    0  501    0  0.00000000000E+00  0.00000000000E+00 -0.19127020653E+04  0.19127020653E+04  0.25500000920E-02 0.  1.
    10030    2    1    2    0    0  0.00000000000E+00  0.00000000000E+00 -0.12094772607E+04  0.26159268699E+04  0.23195340361E+04 0.  0.
        1    1    3    3  502    0  0.87402655654E+03 -0.34715341628E+03 -0.13701537001E+04  0.16618541084E+04  0.50400001928E-02 0.  1.
       -1    1    3    3    0  502 -0.87402655654E+03  0.34715341628E+03  0.16067643931E+03  0.95407276145E+03  0.50400001928E-02 0. -1.
</event>
<event>
 5   0  0.2031860E-05  0.2295019E+04  0.7818609E-02  0.8479888E-01
        1   -1    0    0  501    0  0.00000000000E+00  0.00000000000E+00  0.87314313032E+03  0.87314313033E+03  0.50400001928E-02 0. -1.
       -1   -1    0    0    0  501  0.00000000000E+00  0.00000000000E+00 -0.15080890629E+04  0.15080890629E+04  0.50400001928E-02 0.  1.
    10030    2    1    2    0    0  0.00000000000E+00  0.00000000000E+00 -0.63494593257E+03  0.23812321932E+04  0.22950186101E+04 0.  0.
        4    1    3    3  502    0 -0.57144413250E+03  0.96136438205E+03 -0.50905196613E+02  0.11195368791E+04  0.12699999809E+01 0. -1.
       -4    1    3    3    0  502  0.57144413250E+03 -0.96136438205E+03 -0.58404073595E+03  0.12616953142E+04  0.12699999809E+01 0.  1.
</event>
<event>
 5   0  0.2042951E-05  0.2251510E+04  0.7818609E-02  0.8497289E-01
        1   -1    0    0  501    0  0.00000000000E+00  0.00000000000E+00  0.14924466755E+04  0.14924466755E+04  0.50400001928E-02 0.  1.
       -1   -1    0    0    0  501  0.00000000000E+00  0.00000000000E+00 -0.84915922951E+03  0.84915922952E+03  0.50400001928E-02 0. -1.
    10030    2    1    2    0    0  0.00000000000E+00  0.00000000000E+00  0.64328744595E+03  0.23416059050E+04  0.22515104877E+04 0.  0.
        2    1    3    3  502    0  0.39481836578E+03 -0.10079964744E+04  0.64284934520E+03  0.12590447629E+04  0.25500000920E-02 0.  1.
       -2    1    3    3    0  502 -0.39481836578E+03  0.10079964744E+04  0.43810074923E+00  0.10825611421E+04  0.25500000920E-02 0. -1.
</event>
<event>
 5   0  0.4505107E-05  0.2282548E+04  0.7818609E-02  0.8484834E-01
       -2   -1    0    0    0  501  0.00000000000E+00  0.00000000000E+00  0.79779201861E+03  0.79779201861E+03  0.25500000920E-02 0. -1.
        2   -1    0    0  501    0  0.00000000000E+00  0.00000000000E+00 -0.16326392927E+04  0.16326392927E+04  0.25500000920E-02 0.  1.
    10030    2    1    2    0    0  0.00000000000E+00  0.00000000000E+00 -0.83484727412E+03  0.24304313113E+04  0.22825482225E+04 0.  0.
        4    1    3    3  502    0  0.77159692890E+02 -0.15503472524E+03  0.78372000736E+03  0.80262572042E+03  0.12699999809E+01 0. -1.
       -4    1    3    3    0  502 -0.77159692890E+02  0.15503472524E+03 -0.16185672815E+04  0.16278055909E+04  0.12699999809E+01 0.  1.
</event>
<event>
 5   0  0.4798609E-05  0.2349415E+04  0.7818609E-02  0.8458689E-01
       -2   -1    0    0    0  501  0.00000000000E+00  0.00000000000E+00  0.75687156260E+03  0.75687156261E+03  0.25500000920E-02 0. -1.
        2   -1    0    0  501    0  0.00000000000E+00  0.00000000000E+00 -0.18232119596E+04  0.18232119596E+04  0.25500000920E-02 0.  1.
    10030    2    1    2    0    0  0.00000000000E+00  0.00000000000E+00 -0.10663403970E+04  0.25800835222E+04  0.23494146376E+04 0.  0.
        2    1    3    3  502    0  0.30062578906E+03 -0.18156057138E+03  0.69786971771E+03  0.78125683935E+03  0.25500000920E-02 0. -1.
       -2    1    3    3    0  502 -0.30062578906E+03  0.18156057138E+03 -0.17642101147E+04  0.17988266829E+04  0.25500000920E-02 0.  1.
</event>
<event>
 5   0  0.4602447E-05  0.2299171E+04  0.7818609E-02  0.8478248E-01
       -2   -1    0    0    0  501  0.00000000000E+00  0.00000000000E+00  0.11220609776E+04  0.11220609776E+04  0.25500000920E-02 0. -1.
        2   -1    0    0  501    0  0.00000000000E+00  0.00000000000E+00 -0.11777855522E+04  0.11777855522E+04  0.25500000920E-02 0.  1.
    10030    2    1    2    0    0  0.00000000000E+00  0.00000000000E+00 -0.55724574599E+02  0.22998465298E+04  0.22991713361E+04 0.  0.
        3    1    3    3  502    0  0.40270315473E+03 -0.10334891883E+04 -0.33007261677E+03  0.11572457283E+04  0.10100000352E+00 0. -1.
       -3    1    3    3    0  502 -0.40270315473E+03  0.10334891883E+04  0.27434804217E+03  0.11426008015E+04  0.10100000352E+00 0.  1.
</event>
<event>
 5   0  0.1604500E-05  0.2323129E+04  0.7818609E-02  0.8468857E-01
       -4   -1    0    0    0  501  0.00000000000E+00  0.00000000000E+00  0.19507380908E+04  0.19507385042E+04  0.12699999809E+01 0. -1.
        4   -1    0    0  501    0  0.00000000000E+00  0.00000000000E+00 -0.69165077263E+03  0.69165193860E+03  0.12699999809E+01 0.  1.
    10030    2    1    2    0    0  0.00000000000E+00  0.00000000000E+00  0.12590873182E+04  0.26423904428E+04  0.23231285753E+04 0.  0.
        5    1    3    3  502    0 -0.27177119608E+02 -0.24022757225E+03 -0.66270700834E+03  0.70544351383E+03  0.46999998093E+01 0.  1.
       -5    1    3    3    0  502  0.27177119608E+02  0.24022757225E+03  0.19217943265E+04  0.19369469290E+04  0.46999998093E+01 0. -1.
</event>
<event>
 5   0  0.4505107E-05  0.2278422E+04  0.7818609E-02  0.8486478E-01
       -2   -1    0    0    0  501  0.00000000000E+00  0.00000000000E+00  0.92432003494E+03  0.92432003494E+03  0.25500000920E-02 0.  1.
        2   -1    0    0  501    0  0.00000000000E+00  0.00000000000E+00 -0.14040605911E+04  0.14040605911E+04  0.25500000920E-02 0. -1.
    10030    2    1    2    0    0  0.00000000000E+00  0.00000000000E+00 -0.47974055613E+03  0.23283806260E+04  0.22784216770E+04 0.  0.
        4    1    3    3  502    0 -0.68413624598E+03  0.25565661985E+03  0.65359846382E+03  0.98009962511E+03  0.12699999809E+01 0.  1.
       -4    1    3    3    0  502  0.68413624598E+03 -0.25565661985E+03 -0.11333390200E+04  0.13482810009E+04  0.12699999809E+01 0. -1.
</event>
<event>
 5   0  0.4602447E-05  0.2357584E+04  0.7818609E-02  0.8455556E-01
       -2   -1    0    0    0  501  0.00000000000E+00  0.00000000000E+00  0.84167655549E+03  0.84167655549E+03  0.25500000920E-02 0.  1.
        2   -1    0    0  501    0  0.00000000000E+00  0.00000000000E+00 -0.16509319985E+04  0.16509319985E+04  0.25500000920E-02 0. -1.
    10030    2    1    2    0    0  0.00000000000E+00  0.00000000000E+00 -0.80925544303E+03  0.24926085540E+04  0.23575841515E+04 0.  0.
        3    1    3    3  502    0  0.79210177439E+03  0.87219977064E+03 -0.36516600597E+03  0.12334925549E+04  0.10100000352E+00 0. -1.
       -3    1    3    3    0  502 -0.79210177439E+03 -0.87219977064E+03 -0.44408943706E+03  0.12591159991E+04  0.10100000352E+00 0.  1.
</event>
<event>
 5   0  0.1968318E-05  0.2238652E+04  0.7818609E-02  0.8502510E-01
       -1   -1    0    0    0  501  0.00000000000E+00  0.00000000000E+00  0.76282696706E+03  0.76282696708E+03  0.50400001928E-02 0. -1.
        1   -1    0    0  501    0  0.00000000000E+00  0.00000000000E+00 -0.16424314444E+04  0.16424314444E+04  0.50400001928E-02 0.  1.
    10030    2    1    2    0    0  0.00000000000E+00  0.00000000000E+00 -0.87960447731E+03  0.24052584115E+04  0.22386522708E+04 0.  0.
        3    1    3    3  502    0 -0.18065338398E+03  0.60695195722E+03 -0.14314567773E+04  0.15652778791E+04  0.10100000352E+00 0.  1.
       -3    1    3    3    0  502  0.18065338398E+03 -0.60695195722E+03  0.55185229995E+03  0.83998053233E+03  0.10100000352E+00 0. -1.
</event>
<event>
 5   0  0.4602447E-05  0.2353562E+04  0.7818609E-02  0.8457097E-01
       -2   -1    0    0    0  501  0.00000000000E+00  0.00000000000E+00  0.10052775568E+04  0.10052775568E+04  0.25500000920E-02 0. -1.
        2   -1    0    0  501    0  0.00000000000E+00  0.00000000000E+00 -0.13775434296E+04  0.13775434296E+04  0.25500000920E-02 0.  1.
    10030    2    1    2    0    0  0.00000000000E+00  0.00000000000E+00 -0.37226587282E+03  0.23828209864E+04  0.23535619756E+04 0.  0.
        3    1    3    3  502    0  0.10646064258E+04  0.39578477320E+03  0.12555970243E+03  0.11427150465E+04  0.10100000352E+00 0. -1.
       -3    1    3    3    0  502 -0.10646064258E+04 -0.39578477320E+03 -0.49782557526E+03  0.12401059399E+04  0.10100000352E+00 0.  1.
</event>
<event>
 5   0  0.2042951E-05  0.2303441E+04  0.7818609E-02  0.8476566E-01
       -1   -1    0    0    0  501  0.00000000000E+00  0.00000000000E+00  0.74743200641E+03  0.74743200642E+03  0.50400001928E-02 0. -1.
        1   -1    0    0  501    0  0.00000000000E+00  0.00000000000E+00 -0.17746893254E+04  0.17746893254E+04  0.50400001928E-02 0.  1.
    10030    2    1    2    0    0  0.00000000000E+00  0.00000000000E+00 -0.10272573190E+04  0.25221213318E+04  0.23034405599E+04 0.  0.
        2    1    3    3  502    0 -0.70321749088E+03 -0.27790289555E+03  0.43759004795E+03  0.87363030448E+03  0.25500000920E-02 0. -1.
       -2    1    3    3    0  502  0.70321749088E+03  0.27790289555E+03 -0.14648473669E+04  0.16484910274E+04  0.25500000920E-02 0.  1.
</event>
<event>
 5   0  0.2085063E-05  0.2299009E+04  0.7818609E-02  0.8478312E-01
       -1   -1    0    0    0  501  0.00000000000E+00  0.00000000000E+00  0.65419202932E+03  0.65419202933E+03  0.50400001928E-02 0.  1.
        1   -1    0    0  501    0  0.00000000000E+00  0.00000000000E+00 -0.20198364604E+04  0.20198364605E+04  0.50400001928E-02 0. -1.
    10030    2    1    2    0    0  0.00000000000E+00  0.00000000000E+00 -0.13656444311E+04  0.26740284898E+04  0.22990092762E+04 0.  0.
        1    1    3    3  502    0  0.17090993128E+02  0.88433443964E+03  0.17111966638E+03  0.90090035155E+03  0.50400001928E-02 0.  1.
       -1    1    3    3    0  502 -0.17090993128E+02 -0.88433443964E+03 -0.15367640975E+04  0.17731281382E+04  0.50400001928E-02 0. -1.
</event>
<event>
 5   0  0.4505107E-05  0.2297710E+04  0.7818609E-02  0.8478825E-01
        2   -1    0    0  501    0  0.00000000000E+00  0.00000000000E+00  0.10223815544E+04  0.10223815544E+04  0.25500000920E-02 0. -1.
       -2   -1    0    0    0  501  0.00000000000E+00  0.00000000000E+00 -0.12909736399E+04  0.12909736399E+04  0.25500000920E-02 0.  1.
    10030    2    1    2    0    0  0.00000000000E+00  0.00000000000E+00 -0.26859208543E+03  0.23133551943E+04  0.22977098482E+04 0.  0.
        4    1    3    3  502    0 -0.99905575765E+03 -0.26177058140E+03 -0.64094193117E+03  0.12155017138E+04  0.12699999809E+01 0. -1.
       -4    1    3    3    0  502  0.99905575765E+03  0.26177058140E+03  0.37234984574E+03  0.10978534805E+04  0.12699999809E+01 0.  1.
</event>
<event>
 5   0  0.4505107E-05  0.2343568E+04  0.7818609E-02  0.8460938E-01
       -2   -1    0    0    0  501  0.00000000000E+00  0.00000000000E+00  0.10168339418E+04  0.10168339418E+04  0.25500000920E-02 0.  1.
        2   -1    0    0  501    0  0.00000000000E+00  0.00000000000E+00 -0.13503464360E+04  0.13503464360E+04  0.25500000920E-02 0. -1.
    10030    2    1    2    0    0  0.00000000000E+00  0.00000000000E+00 -0.33351249416E+03  0.23671803778E+04  0.23435682958E+04 0.  0.
        4    1    3    3  502    0  0.18634738077E+03  0.11050972722E+04 -0.51241921859E+03  0.12322907108E+04  0.12699999809E+01 0.  1.
       -4    1    3    3    0  502 -0.18634738077E+03 -0.11050972722E+04  0.17890672442E+03  0.11348896670E+04  0.12699999809E+01 0. -1.
</event>
<event>
 5   0  0.4505107E-05  0.2295715E+04  0.7818609E-02  0.8479612E-01
        2   -1    0    0  501    0  0.00000000000E+00  0.00000000000E+00  0.18153392309E+04  0.18153392309E+04  0.25500000920E-02 0.  1.
       -2   -1    0    0    0  501  0.00000000000E+00  0.00000000000E+00 -0.72580213233E+03  0.72580213233E+03  0.25500000920E-02 0. -1.
    10030    2    1    2    0    0  0.00000000000E+00  0.00000000000E+00  0.10895370986E+04  0.25411413632E+04  0.22957152129E+04 0.  0.
        4    1    3    3  502    0  0.45493812289E+01  0.51543169979E+03  0.16800274916E+04  0.17573231119E+04  0.12699999809E+01 0.  1.
       -4    1    3    3    0  502 -0.45493812289E+01 -0.51543169979E+03 -0.59049039304E+03  0.78381825137E+03  0.12699999809E+01 0. -1.
</event>
<event>
 5   0  0.2085063E-05  0.2291096E+04  0.7818609E-02  0.8481440E-01
        1   -1    0    0  501    0  0.00000000000E+00  0.00000000000E+00  0.26031547479E+04  0.26031547479E+04  0.50400001928E-02 0. -1.
       -1   -1    0    0    0  501  0.00000000000E+00  0.00000000000E+00 -0.50411158490E+03  0.50411158492E+03  0.50400001928E-02 0.  1.
    10030    2    1    2    0    0  0.00000000000E+00  0.00000000000E+00  0.20990431630E+04  0.31072663328E+04  0.22910962143E+04 0.  0.
        1    1    3    3  502    0 -0.58697554097E+03 -0.64212982755E+03  0.20602670196E+04  0.22364192794E+04  0.50400001928E-02 0. -1.
       -1    1    3    3    0  502  0.58697554097E+03  0.64212982755E+03  0.38776143369E+02  0.87084705341E+03  0.50400001928E-02 0.  1.
</event>
<event>
 5   0  0.4602447E-05  0.2314179E+04  0.7818609E-02  0.8472352E-01
        2   -1    0    0  501    0  0.00000000000E+00  0.00000000000E+00  0.24443078055E+04  0.24443078055E+04  0.25500000920E-02 0.  1.
       -2   -1    0    0    0  501  0.00000000000E+00  0.00000000000E+00 -0.54774440571E+03  0.54774440571E+03  0.25500000920E-02 0. -1.
    10030    2    1    2    0    0  0.00000000000E+00  0.00000000000E+00  0.18965633998E+04  0.29920522112E+04  0.23141788404E+04 0.  0.
        3    1    3    3  502    0  0.68541602681E+03 -0.93177721331E+03  0.98602108898E+03  0.15199478620E+04  0.10100000352E+00 0. -1.
       -3    1    3    3    0  502 -0.68541602681E+03  0.93177721331E+03  0.91054231083E+03  0.14721043492E+04  0.10100000352E+00 0.  1.
</event>
<event>
 5   0  0.4605516E-05  0.2312629E+04  0.7818609E-02  0.8472958E-01
        2   -1    0    0  501    0  0.00000000000E+00  0.00000000000E+00  0.15389803339E+04  0.15389803339E+04  0.25500000920E-02 0. -1.
       -2   -1    0    0    0  501  0.00000000000E+00  0.00000000000E+00 -0.86879816524E+03  0.86879816525E+03  0.25500000920E-02 0.  1.
    10030    2    1    2    0    0  0.00000000000E+00  0.00000000000E+00  0.67018216870E+03  0.24077784992E+04  0.23126290584E+04 0.  0.
        1    1    3    3  502    0 -0.85080101225E+03  0.32035203993E+03 -0.40885341798E+03  0.99681939656E+03  0.50400001928E-02 0.  1.
       -1    1    3    3    0  502  0.85080101225E+03 -0.32035203993E+03  0.10790355867E+04  0.14109591026E+04  0.50400001928E-02 0. -1.
</event>
<event>
 5   0  0.2042951E-05  0.2294302E+04  0.7818609E-02  0.8480171E-01
       -1   -1    0    0    0  501  0.00000000000E+00  0.00000000000E+00  0.59533347837E+03  0.59533347839E+03  0.50400001928E-02 0.  1.
        1   -1    0    0  501    0  0.00000000000E+00  0.00000000000E+00 -0.22104504521E+04  0.22104504522E+04  0.50400001928E-02 0. -1.
    10030    2    1    2    0    0  0.00000000000E+00  0.00000000000E+00 -0.16151169738E+04  0.28057839305E+04  0.22943017731E+04 0.  0.
        2    1    3    3  502    0  0.14369098130E+03  0.83928093609E+03  0.13252494565E+03  0.86174384188E+03  0.25500000920E-02 0.  1.
       -2    1    3    3    0  502 -0.14369098130E+03 -0.83928093609E+03 -0.17476419194E+04  0.19440400887E+04  0.25500000920E-02 0. -1.
</event>
<event>
 5   0  0.2085063E-05  0.2295842E+04  0.7818609E-02  0.8479563E-01
        1   -1    0    0  501    0  0.00000000000E+00  0.00000000000E+00  0.89204796169E+03  0.89204796171E+03  0.50400001928E-02 0.  1.
       -1   -1    0    0    0  501  0.00000000000E+00  0.00000000000E+00 -0.14771875836E+04  0.14771875836E+04  0.50400001928E-02 0. -1.
    10030    2    1    2    0    0  0.00000000000E+00  0.00000000000E+00 -0.58513962188E+03  0.23692355453E+04  0.22958416086E+04 0.  0.
        1    1    3    3  502    0 -0.10836583960E+03  0.20892838461E+03 -0.14520208548E+04  0.14709720555E+04  0.50400001928E-02 0. -1.
       -1    1    3    3    0  502  0.10836583960E+03 -0.20892838461E+03  0.86688123295E+03  0.89826348982E+03  0.50400001928E-02 0.  1.
</event>
<event>
 5   0  0.2042951E-05  0.2315492E+04  0.7818609E-02  0.8471838E-01
       -1   -1    0    0    0  501  0.00000000000E+00  0.00000000000E+00  0.14402853210E+04  0.14402853210E+04  0.50400001928E-02 0. -1.
        1   -1    0    0  501    0  0.00000000000E+00  0.00000000000E+00 -0.93063210548E+03  0.93063210550E+03  0.50400001928E-02 0.  1.
    10030    2    1    2    0    0  0.00000000000E+00  0.00000000000E+00  0.50965321550E+03  0.23709174265E+04  0.23154919657E+04 0.  0.
        2    1    3    3  502    0  0.23350134675E+03  0.69800962872E+03  0.11698821159E+04  0.13821593562E+04  0.25500000920E-02 0. -1.
       -2    1    3    3    0  502 -0.23350134675E+03 -0.69800962872E+03 -0.66022890039E+03  0.98875807033E+03  0.25500000920E-02 0.  1.
</event>
<event>
 5   0  0.4602447E-05  0.2312274E+04  0.7818609E-02  0.8473097E-01
       -2   -1    0    0    0  501  0.00000000000E+00  0.00000000000E+00  0.67465580696E+03  0.67465580696E+03  0.25500000920E-02 0. -1.
        2   -1    0    0  501    0  0.00000000000E+00  0.00000000000E+00 -0.19812371412E+04  0.19812371412E+04  0.25500000920E-02 0.  1.
    10030    2    1    2    0    0  0.00000000000E+00  0.00000000000E+00 -0.13065813342E+04  0.26558929481E+04  0.23122743282E+04 0.  0.
        3    1    3    3  502    0 -0.46290490595E+03  0.55583917253E+03  0.38263190277E+03  0.81831859375E+03  0.10100000352E+00 0. -1.
       -3    1    3    3    0  502  0.46290490595E+03 -0.55583917253E+03 -0.16892132370E+04  0.18375743544E+04  0.10100000352E+00 0.  1.
</event>
<event>
 5   0  0.2042951E-05  0.2383626E+04  0.7818609E-02  0.8445659E-01
       -1   -1    0    0    0  501  0.00000000000E+00  0.00000000000E+00  0.17563880483E+04  0.17563880483E+04  0.50400001928E-02 0.  1.
        1   -1    0    0  501    0  0.00000000000E+00  0.00000000000E+00 -0.80871555115E+03  0.80871555116E+03  0.50400001928E-02 0. -1.
    10030    2    1    2    0    0  0.00000000000E+00  0.00000000000E+00  0.94767249711E+03  0.25651035994E+04  0.23836260852E+04 0.  0.
        2    1    3    3  502    0 -0.10138083637E+04 -0.41183351226E+03  0.98202282966E+03  0.14703003360E+04  0.25500000920E-02 0.  1.
       -2    1    3    3    0  502  0.10138083637E+04  0.41183351226E+03 -0.34350332558E+02  0.10948032634E+04  0.25500000920E-02 0. -1.
</event>
<event>
 5   0  0.4505107E-05  0.2280669E+04  0.7818609E-02  0.8485582E-01
        2   -1    0    0  501    0  0.00000000000E+00  0.00000000000E+00  0.93674400219E+03  0.93674400220E+03  0.25500000920E-02 0. -1.
       -2   -1    0    0    0  501  0.00000000000E+00  0.00000000000E+00 -0.13881732943E+04  0.13881732943E+04  0.25500000920E-02 0.  1.
    10030    2    1    2    0    0  0.00000000000E+00  0.00000000000E+00 -0.45142929214E+03  0.23249172965E+04  0.22806692066E+04 0.  0.
        4    1    3    3  502    0 -0.96125147885E+03  0.45092343255E+03  0.19831839405E+03  0.10801241345E+04  0.12699999809E+01 0.  1.
       -4    1    3    3    0  502  0.96125147885E+03 -0.45092343255E+03 -0.64974768618E+03  0.12447931620E+04  0.12699999809E+01 0. -1.
</event>
<event>
 5   0  0.1968318E-05  0.2292906E+04  0.7818609E-02  0.8480723E-01
        1   -1    0    0  501    0  0.00000000000E+00  0.00000000000E+00  0.14717611562E+04  0.14717611562E+04  0.50400001928E-02 0.  1.
       -1   -1    0    0    0  501  0.00000000000E+00  0.00000000000E+00 -0.89304884674E+03  0.89304884675E+03  0.50400001928E-02 0. -1.
    10030    2    1    2    0    0  0.00000000000E+00  0.00000000000E+00  0.57871230949E+03  0.23648100030E+04  0.22929061065E+04 0.  0.
        3    1    3    3  502    0 -0.11157179914E+04 -0.87870315805E+02  0.32950270675E+02  0.11196577866E+04  0.10100000352E+00 0. -1.
       -3    1    3    3    0  502  0.11157179914E+04  0.87870315805E+02  0.54576203882E+03  0.12451522163E+04  0.10100000352E+00 0.  1.
</event>
<event>
 5   0  0.2085063E-05  0.2209626E+04  0.7818609E-02  0.8514432E-01
        1   -1    0    0  501    0  0.00000000000E+00  0.00000000000E+00  0.10235147834E+04  0.10235147834E+04  0.50400001928E-02 0.  1.
       -1   -1    0    0    0  501  0.00000000000E+00  0.00000000000E+00 -0.11925684443E+04  0.11925684443E+04  0.50400001928E-02 0. -1.
    10030    2    1    2    0    0  0.00000000000E+00  0.00000000000E+00 -0.16905366086E+03  0.22160832277E+04  0.22096256995E+04 0.  0.
        1    1    3    3  502    0 -0.88707822401E+03  0.61406807185E+03  0.15412669787E+03  0.10898359562E+04  0.50400001928E-02 0.  1.
       -1    1    3    3    0  502  0.88707822401E+03 -0.61406807185E+03 -0.32318035873E+03  0.11262472716E+04  0.50400001928E-02 0. -1.
</event>
<event>
 5   0  0.4505107E-05  0.2308736E+04  0.7818609E-02  0.8474484E-01
       -2   -1    0    0    0  501  0.00000000000E+00  0.00000000000E+00  0.10630108240E+04  0.10630108240E+04  0.25500000920E-02 0.  1.
        2   -1    0    0  501    0  0.00000000000E+00  0.00000000000E+00 -0.12535769893E+04  0.12535769893E+04  0.25500000920E-02 0. -1.
    10030    2    1    2    0    0  0.00000000000E+00  0.00000000000E+00 -0.19056616526E+03  0.23165878134E+04  0.23087363716E+04 0.  0.
        4    1    3    3  502    0 -0.10272740392E+04 -0.30371153736E+03 -0.52689897619E+03  0.11937993105E+04  0.12699999809E+01 0.  1.
       -4    1    3    3    0  502  0.10272740392E+04  0.30371153736E+03  0.33633281093E+03  0.11227885029E+04  0.12699999809E+01 0. -1.
</event>
<event>
 5   0  0.4436695E-05  0.2306272E+04  0.7818609E-02  0.8475452E-01
        2   -1    0    0  501    0  0.00000000000E+00  0.00000000000E+00  0.17990428701E+04  0.17990428701E+04  0.25500000920E-02 0. -1.
       -2   -1    0    0    0  501  0.00000000000E+00  0.00000000000E+00 -0.73912795626E+03  0.73912795627E+03  0.25500000920E-02 0.  1.
    10030    2    1    2    0    0  0.00000000000E+00  0.00000000000E+00  0.10599149138E+04  0.25381708264E+04  0.23062722127E+04 0.  0.
        5    1    3    3  502    0  0.73482622748E+03  0.31105798496E+03 -0.38619720149E+03  0.88650833219E+03  0.46999998093E+01 0.  1.
       -5    1    3    3    0  502 -0.73482622748E+03 -0.31105798496E+03  0.14461121153E+04  0.16516624942E+04  0.46999998093E+01 0. -1.
</event>
<event>
 5   0  0.2042951E-05  0.2302196E+04  0.7818609E-02  0.8477056E-01
       -1   -1    0    0    0  501  0.00000000000E+00  0.00000000000E+00  0.10189336659E+04  0.10189336659E+04  0.50400001928E-02 0. -1.
        1   -1    0    0  501    0  0.00000000000E+00  0.00000000000E+00 -0.13004053509E+04  0.13004053509E+04  0.50400001928E-02 0.  1.
    10030    2    1    2    0    0  0.00000000000E+00  0.00000000000E+00 -0.28147168504E+03  0.23193390168E+04  0.23021961614E+04 0.  0.
        2    1    3    3  502    0 -0.10310963872E+04 -0.36262911390E+03 -0.50448835905E+03  0.12038139966E+04  0.25500000920E-02 0.  1.
       -2    1    3    3    0  502  0.10310963872E+04  0.36262911390E+03  0.22301667401E+03  0.11155250203E+04  0.25500000920E-02 0. -1.
</event>
<event>
 5   0  0.2042951E-05  0.2293624E+04  0.7818609E-02  0.8480439E-01
       -1   -1    0    0    0  501  0.00000000000E+00  0.00000000000E+00  0.11322631263E+04  0.11322631263E+04  0.50400001928E-02 0.  1.
        1   -1    0    0  501    0  0.00000000000E+00  0.00000000000E+00 -0.11615476172E+04  0.11615476173E+04  0.50400001928E-02 0. -1.
    10030    2    1    2    0    0  0.00000000000E+00  0.00000000000E+00 -0.29284490986E+02  0.22938107435E+04  0.22936238021E+04 0.  0.
        2    1    3    3  502    0 -0.57623750322E+03  0.12403873337E+03 -0.99846134810E+03  0.11594655369E+04  0.25500000920E-02 0. -1.
       -2    1    3    3    0  502  0.57623750322E+03 -0.12403873337E+03  0.96917685712E+03  0.11343452067E+04  0.25500000920E-02 0.  1.
</event>
<event>
 5   0  0.2085063E-05  0.2295344E+04  0.7818609E-02  0.8479759E-01
       -1   -1    0    0    0  501  0.00000000000E+00  0.00000000000E+00  0.10730385140E+04  0.10730385140E+04  0.50400001928E-02 0.  1.
        1   -1    0    0  501    0  0.00000000000E+00  0.00000000000E+00 -0.12274968592E+04  0.12274968592E+04  0.50400001928E-02 0. -1.
    10030    2    1    2    0    0  0.00000000000E+00  0.00000000000E+00 -0.15445834516E+03  0.23005353732E+04  0.22953443365E+04 0.  0.
        1    1    3    3  502    0 -0.82717183329E+03  0.74635134368E+03  0.19888949299E+03  0.11317290314E+04  0.50400001928E-02 0.  1.
       -1    1    3    3    0  502  0.82717183329E+03 -0.74635134368E+03 -0.35334783815E+03  0.11688063419E+04  0.50400001928E-02 0. -1.
</event>
<event>
 5   0  0.2043885E-05  0.2309951E+04  0.7818609E-02  0.8474008E-01
       -1   -1    0    0    0  501  0.00000000000E+00  0.00000000000E+00  0.11189543046E+04  0.11189543046E+04  0.50400001928E-02 0.  1.
        1   -1    0    0  501    0  0.00000000000E+00  0.00000000000E+00 -0.11921563709E+04  0.11921563709E+04  0.50400001928E-02 0. -1.
    10030    2    1    2    0    0  0.00000000000E+00  0.00000000000E+00 -0.73202066258E+02  0.23111106756E+04  0.23099510844E+04 0.  0.
        5    1    3    3  502    0  0.61941753664E+03  0.89326716107E+03 -0.42710723873E+03  0.11679242223E+04  0.46999998093E+01 0. -1.
       -5    1    3    3    0  502 -0.61941753664E+03 -0.89326716107E+03  0.35390517247E+03  0.11431864532E+04  0.46999998093E+01 0.  1.
</event>
<event>
 5   0  0.1968318E-05  0.2301493E+04  0.7818609E-02  0.8477333E-01
        1   -1    0    0  501    0  0.00000000000E+00  0.00000000000E+00  0.21865009333E+04  0.21865009333E+04  0.50400001928E-02 0. -1.
       -1   -1    0    0    0  501  0.00000000000E+00  0.00000000000E+00 -0.60563330154E+03  0.60563330156E+03  0.50400001928E-02 0.  1.
    10030    2    1    2    0    0  0.00000000000E+00  0.00000000000E+00  0.15808676318E+04  0.27921342349E+04  0.23014932362E+04 0.  0.
        3    1    3    3  502    0  0.79191419591E+02 -0.38550031517E+03  0.21023202767E+04  0.21388390145E+04  0.10100000352E+00 0. -1.
       -3    1    3    3    0  502 -0.79191419591E+02  0.38550031517E+03 -0.52145264490E+03  0.65329522040E+03  0.10100000352E+00 0.  1.
</event>
<event>
 5   0  0.4605516E-05  0.2325631E+04  0.7818609E-02  0.8467883E-01
       -2   -1    0    0    0  501  0.00000000000E+00  0.00000000000E+00  0.13667862741E+04  0.13667862741E+04  0.25500000920E-02 0. -1.
        2   -1    0    0  501    0  0.00000000000E+00  0.00000000000E+00 -0.98928419979E+03  0.98928419979E+03  0.25500000920E-02 0.  1.
    10030    2    1    2    0    0  0.00000000000E+00  0.00000000000E+00  0.37750207433E+03  0.23560704739E+04  0.23256311534E+04 0.  0.
        1    1    3    3  502    0  0.83441508576E+03 -0.80442920384E+03  0.28370714909E+03  0.11932496075E+04  0.50400001928E-02 0. -1.
       -1    1    3    3    0  502 -0.83441508576E+03  0.80442920384E+03  0.93794925231E+02  0.11628208664E+04  0.50400001928E-02 0.  1.
</event>
<event>
 5   0  0.2043885E-05  0.2304585E+04  0.7818609E-02  0.8476116E-01
        1   -1    0    0  501    0  0.00000000000E+00  0.00000000000E+00  0.20336604546E+04  0.20336604546E+04  0.50400001928E-02 0.  1.
       -1   -1    0    0    0  501  0.00000000000E+00  0.00000000000E+00 -0.65290052799E+03  0.65290052801E+03  0.50400001928E-02 0. -1.
    10030    2    1    2    0    0  0.00000000000E+00  0.00000000000E+00  0.13807599266E+04  0.26865609826E+04  0.23045849818E+04 0.  0.
        5    1    3    3  502    0 -0.11002309619E+04 -0.59644436034E+02  0.10834460886E+04  0.15452971058E+04  0.46999998093E+01 0.  1.
       -5    1    3    3    0  502  0.11002309619E+04  0.59644436034E+02  0.29731383797E+03  0.11412638768E+04  0.46999998093E+01 0. -1.
</event>
<event>
 5   0  0.2085063E-05  0.2242669E+04  0.7818609E-02  0.8500875E-01
       -1   -1    0    0    0  501  0.00000000000E+00  0.00000000000E+00  0.66964399801E+03  0.66964399803E+03  0.50400001928E-02 0.  1.
        1   -1    0    0  501    0  0.00000000000E+00  0.00000000000E+00 -0.18777004594E+04  0.18777004594E+04  0.50400001928E-02 0. -1.
    10030    2    1    2    0    0  0.00000000000E+00  0.00000000000E+00 -0.12080564614E+04  0.25473444574E+04  0.22426688054E+04 0.  0.
        1    1    3    3  502    0 -0.33155269929E+03  0.10552052908E+04 -0.39457032265E+03  0.11743385958E+04  0.50400001928E-02 0.  1.
       -1    1    3    3    0  502  0.33155269929E+03 -0.10552052908E+04 -0.81348613871E+03  0.13730058616E+04  0.50400001928E-02 0. -1.
</event>
<event>
 5   0  0.2085063E-05  0.2292084E+04  0.7818609E-02  0.8481049E-01
       -1   -1    0    0    0  501  0.00000000000E+00  0.00000000000E+00  0.95578717491E+03  0.95578717493E+03  0.50400001928E-02 0. -1.
        1   -1    0    0  501    0  0.00000000000E+00  0.00000000000E+00 -0.13741681241E+04  0.13741681241E+04  0.50400001928E-02 0.  1.
    10030    2    1    2    0    0  0.00000000000E+00  0.00000000000E+00 -0.41838094922E+03  0.23299552991E+04  0.22920840030E+04 0.  0.
        1    1    3    3  502    0 -0.54788936924E+03 -0.98149171735E+03  0.17891486519E+02  0.11242014310E+04  0.50400001928E-02 0. -1.
       -1    1    3    3    0  502  0.54788936924E+03  0.98149171735E+03 -0.43627243574E+03  0.12057538681E+04  0.50400001928E-02 0.  1.
</event>
<event>
 5   0  0.2031860E-05  0.2334294E+04  0.7818609E-02  0.8464521E-01
       -1   -1    0    0    0  501  0.00000000000E+00  0.00000000000E+00  0.92228052959E+03  0.92228052960E+03  0.50400001928E-02 0.  1.
        1   -1    0    0  501    0  0.00000000000E+00  0.00000000000E+00 -0.14770254622E+04  0.14770254622E+04  0.50400001928E-02 0. -1.
    10030    2    1    2    0    0  0.00000000000E+00  0.00000000000E+00 -0.55474493260E+03  0.23993059918E+04  0.23342937480E+04 0.  0.
        4    1    3    3  502    0 -0.32739385467E+03 -0.42401934359E+03  0.78845049957E+03  0.95322344861E+03  0.12699999809E+01 0.  1.
       -4    1    3    3    0  502  0.32739385467E+03  0.42401934359E+03 -0.13431954322E+04  0.14460825432E+04  0.12699999809E+01 0. -1.
</event>
<event>
 5   0  0.1968318E-05  0.2115674E+04  0.7818609E-02  0.8554370E-01
        1   -1    0    0  501    0  0.00000000000E+00  0.00000000000E+00  0.70185426916E+03  0.70185426918E+03  0.50400001928E-02 0.  1.
       -1   -1    0    0    0  501  0.00000000000E+00  0.00000000000E+00 -0.15943750889E+04  0.15943750889E+04  0.50400001928E-02 0. -1.
    10030    2    1    2    0    0  0.00000000000E+00  0.00000000000E+00 -0.89252081973E+03  0.22962293581E+04  0.21156738527E+04 0.  0.
        3    1    3    3  502    0 -0.48979689861E+03 -0.18340904582E+03 -0.14442315394E+04  0.15360158299E+04  0.10100000352E+00 0. -1.
       -3    1    3    3    0  502  0.48979689861E+03  0.18340904582E+03  0.55171071971E+03  0.76021352817E+03  0.10100000352E+00 0.  1.
</event>
<event>
 5   0  0.4605516E-05  0.2291579E+04  0.7818609E-02  0.8481249E-01
       -2   -1    0    0    0  501  0.00000000000E+00  0.00000000000E+00  0.93193460709E+03  0.93193460710E+03  0.25500000920E-02 0.  1.
        2   -1    0    0  501    0  0.00000000000E+00  0.00000000000E+00 -0.14087181792E+04  0.14087181792E+04  0.25500000920E-02 0. -1.
    10030    2    1    2    0    0  0.00000000000E+00  0.00000000000E+00 -0.47678357211E+03  0.23406527863E+04  0.22915786898E+04 0.  0.
        1    1    3    3  502    0  0.35330152190E+03 -0.95204708743E+02 -0.13474374291E+04  0.13962354842E+04  0.50400001928E-02 0. -1.
       -1    1    3    3    0  502 -0.35330152190E+03  0.95204708743E+02  0.87065385695E+03  0.94441730215E+03  0.50400001928E-02 0.  1.
</event>
<event>
 5   0  0.4602447E-05  0.2297855E+04  0.7818609E-02  0.8478767E-01
       -2   -1    0    0    0  501  0.00000000000E+00  0.00000000000E+00  0.11376451336E+04  0.11376451336E+04  0.25500000920E-02 0.  1.
        2   -1    0    0  501    0  0.00000000000E+00  0.00000000000E+00 -0.11603217611E+04  0.11603217611E+04  0.25500000920E-02 0. -1.
    10030    2    1    2    0    0  0.00000000000E+00  0.00000000000E+00 -0.22676627467E+02  0.22979668947E+04  0.22978550041E+04 0.  0.
        3    1    3    3  502    0  0.29344375136E+03  0.57368214367E+03  0.93992509712E+03  0.11395962599E+04  0.10100000352E+00 0.  1.
       -3    1    3    3    0  502 -0.29344375136E+03 -0.57368214367E+03 -0.96260172459E+03  0.11583706348E+04  0.10100000352E+00 0. -1.
</event>
<event>
 5   0  0.1968318E-05  0.2251408E+04  0.7818609E-02  0.8497330E-01
       -1   -1    0    0    0  501  0.00000000000E+00  0.00000000000E+00  0.11979449097E+04  0.11979449097E+04  0.50400001928E-02 0. -1.
        1   -1    0    0  501    0  0.00000000000E+00  0.00000000000E+00 -0.10578198869E+04  0.10578198869E+04  0.50400001928E-02 0.  1.
    10030    2    1    2    0    0  0.00000000000E+00  0.00000000000E+00  0.14012502281E+03  0.22557647966E+04  0.22514084027E+04 0.  0.
        3    1    3    3  502    0 -0.10803971207E+04 -0.26667187210E+03  0.24020898435E+03  0.11384516644E+04  0.10100000352E+00 0. -1.
       -3    1    3    3    0  502  0.10803971207E+04  0.26667187210E+03 -0.10008396154E+03  0.11173131322E+04  0.10100000352E+00 0.  1.
</event>
<event>
 5   0  0.4436695E-05  0.2306655E+04  0.7818609E-02  0.8475302E-01
       -2   -1    0    0    0  501  0.00000000000E+00  0.00000000000E+00  0.64792626846E+03  0.64792626846E+03  0.25500000920E-02 0.  1.
        2   -1    0    0  501    0  0.00000000000E+00  0.00000000000E+00 -0.20529560506E+04  0.20529560506E+04  0.25500000920E-02 0. -1.
    10030    2    1    2    0    0  0.00000000000E+00  0.00000000000E+00 -0.14050297822E+04  0.27008823191E+04  0.23066548534E+04 0.  0.
        5    1    3    3  502    0 -0.81262400844E+03 -0.72016087629E+03 -0.11577448673E+04  0.15872569844E+04  0.46999998093E+01 0. -1.
       -5    1    3    3    0  502  0.81262400844E+03  0.72016087629E+03 -0.24728491482E+03  0.11136253346E+04  0.46999998093E+01 0.  1.
</event>
<event>
 5   0  0.2031860E-05  0.2294712E+04  0.7818609E-02  0.8480009E-01
       -1   -1    0    0    0  501  0.00000000000E+00  0.00000000000E+00  0.16641145228E+04  0.16641145228E+04  0.50400001928E-02 0.  1.
        1   -1    0    0  501    0  0.00000000000E+00  0.00000000000E+00 -0.79106676211E+03  0.79106676213E+03  0.50400001928E-02 0. -1.
    10030    2    1    2    0    0  0.00000000000E+00  0.00000000000E+00  0.87304776067E+03  0.24551812849E+04  0.22947119099E+04 0.  0.
        4    1    3    3  502    0 -0.19114555146E+03 -0.52357247316E+02 -0.77261364083E+03  0.79762858154E+03  0.12699999809E+01 0. -1.
       -4    1    3    3    0  502  0.19114555146E+03  0.52357247316E+02  0.16456614015E+04  0.16575527034E+04  0.12699999809E+01 0.  1.
</event>
<event>
 5   0  0.2042951E-05  0.2295114E+04  0.7818609E-02  0.8479850E-01
        1   -1    0    0  501    0  0.00000000000E+00  0.00000000000E+00  0.81039606784E+03  0.81039606785E+03  0.50400001928E-02 0. -1.
       -1   -1    0    0    0  501  0.00000000000E+00  0.00000000000E+00 -0.16249918701E+04  0.16249918701E+04  0.50400001928E-02 0.  1.
    10030    2    1    2    0    0  0.00000000000E+00  0.00000000000E+00 -0.81459580223E+03  0.24353879379E+04  0.22951139595E+04 0.  0.
        2    1    3    3  502    0 -0.17290498692E+03  0.88380660055E+03 -0.11620186139E+04  0.14701351981E+04  0.25500000920E-02 0.  1.
       -2    1    3    3    0  502  0.17290498692E+03 -0.88380660055E+03  0.34742281165E+03  0.96525273983E+03  0.25500000920E-02 0. -1.
</event>
<event>
 5   0  0.2085063E-05  0.2278579E+04  0.7818609E-02  0.8486415E-01
        1   -1    0    0  501    0  0.00000000000E+00  0.00000000000E+00  0.14552909119E+04  0.14552909119E+04  0.50400001928E-02 0. -1.
       -1   -1    0    0    0  501  0.00000000000E+00  0.00000000000E+00 -0.89190482623E+03  0.89190482624E+03  0.50400001928E-02 0.  1.
    10030    2    1    2    0    0  0.00000000000E+00  0.00000000000E+00  0.56338608565E+03  0.23471957381E+04  0.22785793714E+04 0.  0.
        1    1    3    3  502    0  0.62453464091E+03  0.18607289641E+03  0.12443475404E+04  0.14046591906E+04  0.50400001928E-02 0. -1.
       -1    1    3    3    0  502 -0.62453464091E+03 -0.18607289641E+03 -0.68096145476E+03  0.94253654750E+03  0.50400001928E-02 0.  1.
</event>
<event>
 5   0  0.2043885E-05  0.2169163E+04  0.7818609E-02  0.8531374E-01
        1   -1    0    0  501    0  0.00000000000E+00  0.00000000000E+00  0.11725293470E+04  0.11725293470E+04  0.50400001928E-02 0.  1.
       -1   -1    0    0    0  501  0.00000000000E+00  0.00000000000E+00 -0.10032306136E+04  0.10032306136E+04  0.50400001928E-02 0. -1.
    10030    2    1    2    0    0  0.00000000000E+00  0.00000000000E+00  0.16929873337E+03  0.21757599606E+04  0.21691632822E+04 0.  0.
        5    1    3    3  502    0 -0.73454311723E+02  0.60260159929E+03  0.98614342938E+03  0.11580264145E+04  0.46999998093E+01 0.  1.
       -5    1    3    3    0  502  0.73454311723E+02 -0.60260159929E+03 -0.81684469601E+03  0.10177335461E+04  0.46999998093E+01 0. -1.
</event>
<event>
 5   0  0.4436695E-05  0.2310968E+04  0.7818609E-02  0.8473609E-01
        2   -1    0    0  501    0  0.00000000000E+00  0.00000000000E+00  0.16492989090E+04  0.16492989090E+04  0.25500000920E-02 0.  1.
       -2   -1    0    0    0  501  0.00000000000E+00  0.00000000000E+00 -0.80952143215E+03  0.80952143216E+03  0.25500000920E-02 0. -1.
    10030    2    1    2    0    0  0.00000000000E+00  0.00000000000E+00  0.83977747684E+03  0.24588203412E+04  0.23109676024E+04 0.  0.
        5    1    3    3  502    0 -0.19015874936E+03 -0.66048020053E+03 -0.56836724805E+03  0.89188444537E+03  0.46999998093E+01 0. -1.
       -5    1    3    3    0  502  0.19015874936E+03  0.66048020053E+03  0.14081447249E+04  0.15669358958E+04  0.46999998093E+01 0.  1.
</event>
<event>
 5   0  0.4505107E-05  0.2218339E+04  0.7818609E-02  0.8510833E-01
        2   -1    0    0  501    0  0.00000000000E+00  0.00000000000E+00  0.78049949715E+03  0.78049949715E+03  0.25500000920E-02 0.  1.
       -2   -1    0    0    0  501  0.00000000000E+00  0.00000000000E+00 -0.15762435435E+04  0.15762435435E+04  0.25500000920E-02 0. -1.
    10030    2    1    2    0    0  0.00000000000E+00  0.00000000000E+00 -0.79574404638E+03  0.23567430407E+04  0.22183392825E+04 0.  0.
        4    1    3    3  502    0  0.11269052440E+03  0.52886038611E+03  0.63098260444E+03  0.83098322625E+03  0.12699999809E+01 0.  1.
       -4    1    3    3    0  502 -0.11269052440E+03 -0.52886038611E+03 -0.14267266508E+04  0.15257598144E+04  0.12699999809E+01 0. -1.
</event>
<event>
 5   0  0.2043885E-05  0.2296828E+04  0.7818609E-02  0.8479173E-01
        1   -1    0    0  501    0  0.00000000000E+00  0.00000000000E+00  0.18215645712E+04  0.18215645712E+04  0.50400001928E-02 0. -1.
       -1   -1    0    0    0  501  0.00000000000E+00  0.00000000000E+00 -0.72402295462E+03  0.72402295464E+03  0.50400001928E-02 0.  1.
    10030    2    1    2    0    0  0.00000000000E+00  0.00000000000E+00  0.10975416166E+04  0.25455875258E+04  0.22968278672E+04 0.  0.
        5    1    3    3  502    0  0.44201368781E+03  0.10207704756E+04  0.86514116103E+03  0.14091982766E+04  0.46999998093E+01 0. -1.
       -5    1    3    3    0  502 -0.44201368781E+03 -0.10207704756E+04  0.23240045553E+03  0.11363892493E+04  0.46999998093E+01 0.  1.
</event>
<event>
 5   0  0.1604500E-05  0.2325840E+04  0.7818609E-02  0.8467802E-01
        3   -1    0    0  501    0  0.00000000000E+00  0.00000000000E+00  0.58858405180E+03  0.58858406046E+03  0.10100000352E+00 0.  1.
       -3   -1    0    0    0  501  0.00000000000E+00  0.00000000000E+00 -0.22976879423E+04  0.22976879445E+04  0.10100000352E+00 0. -1.
    10030    2    1    2    0    0  0.00000000000E+00  0.00000000000E+00 -0.17091038905E+04  0.28862720049E+04  0.23258396286E+04 0.  0.
        4    1    3    3  502    0 -0.38256858040E+03  0.57294480074E+03 -0.20171899037E+04  0.21315912328E+04  0.12699999809E+01 0. -1.
       -4    1    3    3    0  502  0.38256858040E+03 -0.57294480074E+03  0.30808601321E+03  0.75468077214E+03  0.12699999809E+01 0.  1.
</event>
<event>
 5   0  0.4605516E-05  0.2313071E+04  0.7818609E-02  0.8472785E-01
        2   -1    0    0  501    0  0.00000000000E+00  0.00000000000E+00  0.21446327786E+04  0.21446327786E+04  0.25500000920E-02 0. -1.
       -2   -1    0    0    0  501  0.00000000000E+00  0.00000000000E+00 -0.62368466967E+03  0.62368466967E+03  0.25500000920E-02 0.  1.
    10030    2    1    2    0    0  0.00000000000E+00  0.00000000000E+00  0.15209481089E+04  0.27683174482E+04  0.23130711931E+04 0.  0.
        1    1    3    3  502    0  0.99320252998E+03  0.27449450179E+03  0.13197418161E+03  0.10388530607E+04  0.50400001928E-02 0. -1.
       -1    1    3    3    0  502 -0.99320252998E+03 -0.27449450179E+03  0.13889739273E+04  0.17294643875E+04  0.50400001928E-02 0.  1.
</event>
<event>
 5   0  0.4505107E-05  0.2332855E+04  0.7818609E-02  0.8465078E-01
        2   -1    0    0  501    0  0.00000000000E+00  0.00000000000E+00  0.29013938599E+04  0.29013938599E+04  0.25500000920E-02 0.  1.
       -2   -1    0    0    0  501  0.00000000000E+00  0.00000000000E+00 -0.46893079181E+03  0.46893079181E+03  0.25500000920E-02 0. -1.
    10030    2    1    2    0    0  0.00000000000E+00  0.00000000000E+00  0.24324630681E+04  0.33703246517E+04  0.23328548348E+04 0.  0.
        4    1    3    3  502    0  0.63204265664E+03 -0.71392023987E+03  0.24558612729E+03  0.98461880315E+03  0.12699999809E+01 0. -1.
       -4    1    3    3    0  502 -0.63204265664E+03  0.71392023987E+03  0.21868769408E+04  0.23857058485E+04  0.12699999809E+01 0.  1.
</event>
<event>
 5   0  0.4505107E-05  0.2301664E+04  0.7818609E-02  0.8477265E-01
        2   -1    0    0  501    0  0.00000000000E+00  0.00000000000E+00  0.13261183809E+04  0.13261183809E+04  0.25500000920E-02 0. -1.
       -2   -1    0    0    0  501  0.00000000000E+00  0.00000000000E+00 -0.99871493938E+03  0.99871493939E+03  0.25500000920E-02 0.  1.
    10030    2    1    2    0    0  0.00000000000E+00  0.00000000000E+00  0.32740344149E+03  0.23248333203E+04  0.23016639532E+04 0.  0.
        4    1    3    3  502    0 -0.86837203168E+02  0.10559046974E+04 -0.29019606655E+03  0.10984947882E+04  0.12699999809E+01 0. -1.
       -4    1    3    3    0  502  0.86837203168E+02 -0.10559046974E+04  0.61759950804E+03  0.12263385320E+04  0.12699999809E+01 0.  1.
</event>
<event>
 5   0  0.2031860E-05  0.2297646E+04  0.7818609E-02  0.8478850E-01
        1   -1    0    0  501    0  0.00000000000E+00  0.00000000000E+00  0.15273669031E+04  0.15273669031E+04  0.50400001928E-02 0. -1.
       -1   -1    0    0    0  501  0.00000000000E+00  0.00000000000E+00 -0.86409765121E+03  0.86409765122E+03  0.50400001928E-02 0.  1.
    10030    2    1    2    0    0  0.00000000000E+00  0.00000000000E+00  0.66326925186E+03  0.23914645543E+04  0.22976458852E+04 0.  0.
        4    1    3    3  502    0 -0.75233930331E+03 -0.86374935026E+03  0.24021199960E+03  0.11703763433E+04  0.12699999809E+01 0.  1.
       -4    1    3    3    0  502  0.75233930331E+03  0.86374935026E+03  0.42305725226E+03  0.12210882110E+04  0.12699999809E+01 0. -1.
</event>
<event>
 5   0  0.1968318E-05  0.2302859E+04  0.7818609E-02  0.8476795E-01
       -1   -1    0    0    0  501  0.00000000000E+00  0.00000000000E+00  0.96672362926E+03  0.96672362928E+03  0.50400001928E-02 0.  1.
        1   -1    0    0  501    0  0.00000000000E+00  0.00000000000E+00 -0.13714254176E+04  0.13714254176E+04  0.50400001928E-02 0. -1.
    10030    2    1    2    0    0  0.00000000000E+00  0.00000000000E+00 -0.40470178834E+03  0.23381490469E+04  0.23028585341E+04 0.  0.
        3    1    3    3  502    0 -0.59366341892E+03 -0.64788297720E+03  0.55309482253E+03  0.10383171481E+04  0.10100000352E+00 0.  1.
       -3    1    3    3    0  502  0.59366341892E+03  0.64788297720E+03 -0.95779661088E+03  0.12998318988E+04  0.10100000352E+00 0. -1.
</event>
<event>
 5   0  0.1968318E-05  0.2328633E+04  0.7818609E-02  0.8466716E-01
       -1   -1    0    0    0  501  0.00000000000E+00  0.00000000000E+00  0.13170054008E+04  0.13170054008E+04  0.50400001928E-02 0. -1.
        1   -1    0    0  501    0  0.00000000000E+00  0.00000000000E+00 -0.10293296101E+04  0.10293296101E+04  0.50400001928E-02 0.  1.
    10030    2    1    2    0    0  0.00000000000E+00  0.00000000000E+00  0.28767579071E+03  0.23463350109E+04  0.23286327797E+04 0.  0.
        3    1    3    3  502    0 -0.14258489971E+03 -0.80491055722E+03 -0.69157364625E+03  0.10707406675E+04  0.10100000352E+00 0.  1.
       -3    1    3    3    0  502  0.14258489971E+03  0.80491055722E+03  0.97924943696E+03  0.12755943433E+04  0.10100000352E+00 0. -1.
</event>
<event>
 5   0  0.4505107E-05  0.2343373E+04  0.7818609E-02  0.8461013E-01
       -2   -1    0    0    0  501  0.00000000000E+00  0.00000000000E+00  0.13141107685E+04  0.13141107685E+04  0.25500000920E-02 0.  1.
        2   -1    0    0  501    0  0.00000000000E+00  0.00000000000E+00 -0.10446981437E+04  0.10446981437E+04  0.25500000920E-02 0. -1.
    10030    2    1    2    0    0  0.00000000000E+00  0.00000000000E+00  0.26941262477E+03  0.23588089122E+04  0.23433728517E+04 0.  0.
        4    1    3    3  502    0  0.83537273463E+01 -0.10493502121E+04 -0.38991952775E+03  0.11194840344E+04  0.12699999809E+01 0. -1.
       -4    1    3    3    0  502 -0.83537273463E+01  0.10493502121E+04  0.65933215252E+03  0.12393248778E+04  0.12699999809E+01 0.  1.
</event>
<event>
 5   0  0.2031860E-05  0.2318690E+04  0.7818609E-02  0.8470588E-01
        1   -1    0    0  501    0  0.00000000000E+00  0.00000000000E+00  0.16721875925E+04  0.16721875925E+04  0.50400001928E-02 0. -1.
       -1   -1    0    0    0  501  0.00000000000E+00  0.00000000000E+00 -0.80378623604E+03  0.80378623605E+03  0.50400001928E-02 0.  1.
    10030    2    1    2    0    0  0.00000000000E+00  0.00000000000E+00  0.86840135642E+03  0.24759738285E+04  0.23186904674E+04 0.  0.
        4    1    3    3  502    0  0.88804737322E+02 -0.93129910687E+03 -0.29699231380E+03  0.98153469382E+03  0.12699999809E+01 0.  1.
       -4    1    3    3    0  502 -0.88804737322E+02  0.93129910687E+03  0.11653936702E+04  0.14944391347E+04  0.12699999809E+01 0. -1.
</event>
<event>
 5   0  0.4605516E-05  0.2231549E+04  0.7818609E-02  0.8505410E-01
       -2   -1    0    0    0  501  0.00000000000E+00  0.00000000000E+00  0.28635545325E+04  0.28635545325E+04  0.25500000920E-02 0. -1.
        2   -1    0    0  501    0  0.00000000000E+00  0.00000000000E+00 -0.43475792332E+03  0.43475792332E+03  0.25500000920E-02 0.  1.
    10030    2    1    2    0    0  0.00000000000E+00  0.00000000000E+00  0.24287966092E+04  0.32983124558E+04  0.22315492572E+04 0.  0.
        1    1    3    3  502    0 -0.25287566985E+03  0.10068689544E+04  0.60998808604E+03  0.12040833281E+04  0.50400001928E-02 0.  1.
       -1    1    3    3    0  502  0.25287566985E+03 -0.10068689544E+04  0.18188085232E+04  0.20942291278E+04  0.50400001928E-02 0. -1.
</event>
<event>
 5   0  0.2043885E-05  0.2277596E+04  0.7818609E-02  0.8486807E-01
        1   -1    0    0  501    0  0.00000000000E+00  0.00000000000E+00  0.14095906106E+04  0.14095906106E+04  0.50400001928E-02 0.  1.
       -1   -1    0    0    0  501  0.00000000000E+00  0.00000000000E+00 -0.92002682581E+03  0.92002682582E+03  0.50400001928E-02 0. -1.
    10030    2    1    2    0    0  0.00000000000E+00  0.00000000000E+00  0.48956378480E+03  0.23296174364E+04  0.22775962550E+04 0.  0.
        5    1    3    3  502    0  0.98832613742E+03 -0.54719521093E+03  0.39168660174E+03  0.11956804074E+04  0.46999998093E+01 0.  1.
       -5    1    3    3    0  502 -0.98832613742E+03  0.54719521093E+03  0.97877183065E+02  0.11339370290E+04  0.46999998093E+01 0. -1.
</event>
<event>
 5   0  0.4602447E-05  0.2355824E+04  0.7818609E-02  0.8456230E-01
        2   -1    0    0  501    0  0.00000000000E+00  0.00000000000E+00  0.12060161898E+04  0.12060161898E+04  0.25500000920E-02 0. -1.
       -2   -1    0    0    0  501  0.00000000000E+00  0.00000000000E+00 -0.11504631598E+04  0.11504631598E+04  0.25500000920E-02 0.  1.
    10030    2    1    2    0    0  0.00000000000E+00  0.00000000000E+00  0.55553029960E+02  0.23564793496E+04  0.23558244387E+04 0.  0.
        3    1    3    3  502    0  0.23188322616E+03  0.39094811118E+03  0.11147556201E+04  0.12038647595E+04  0.10100000352E+00 0. -1.
       -3    1    3    3    0  502 -0.23188322616E+03 -0.39094811118E+03 -0.10592025902E+04  0.11526145902E+04  0.10100000352E+00 0.  1.
</event>
<event>
 5   0  0.4605516E-05  0.2324991E+04  0.7818609E-02  0.8468132E-01
       -2   -1    0    0    0  501  0.00000000000E+00  0.00000000000E+00  0.67782077690E+03  0.67782077691E+03  0.25500000920E-02 0.  1.
        2   -1    0    0  501    0  0.00000000000E+00  0.00000000000E+00 -0.19937357041E+04  0.19937357041E+04  0.25500000920E-02 0. -1.
    10030    2    1    2    0    0  0.00000000000E+00  0.00000000000E+00 -0.13159149272E+04  0.26715564810E+04  0.23249907388E+04 0.  0.
        1    1    3    3  502    0  0.88886935190E+03 -0.74548300402E+03 -0.74365192688E+03  0.13779883245E+04  0.50400001928E-02 0. -1.
       -1    1    3    3    0  502 -0.88886935190E+03  0.74548300402E+03 -0.57226300032E+03  0.12935681565E+04  0.50400001928E-02 0.  1.
</event>
<event>
 5   0  0.2043885E-05  0.2296122E+04  0.7818609E-02  0.8479452E-01
       -1   -1    0    0    0  501  0.00000000000E+00  0.00000000000E+00  0.18041819091E+04  0.18041819091E+04  0.50400001928E-02 0.  1.
        1   -1    0    0  501    0  0.00000000000E+00  0.00000000000E+00 -0.73054929243E+03  0.73054929245E+03  0.50400001928E-02 0. -1.
    10030    2    1    2    0    0  0.00000000000E+00  0.00000000000E+00  0.10736326166E+04  0.25347312015E+04  0.22961217887E+04 0.  0.
        5    1    3    3  502    0  0.10043453703E+04 -0.54640186241E+03  0.42232176840E+03  0.12188693056E+04  0.46999998093E+01 0. -1.
       -5    1    3    3    0  502 -0.10043453703E+04  0.54640186241E+03  0.65131084824E+03  0.13158618959E+04  0.46999998093E+01 0.  1.
</event>
<event>
 5   0  0.2042951E-05  0.2310893E+04  0.7818609E-02  0.8473639E-01
       -1   -1    0    0    0  501  0.00000000000E+00  0.00000000000E+00  0.29023089633E+04  0.29023089633E+04  0.50400001928E-02 0.  1.
        1   -1    0    0  501    0  0.00000000000E+00  0.00000000000E+00 -0.45999803090E+03  0.45999803093E+03  0.50400001928E-02 0. -1.
    10030    2    1    2    0    0  0.00000000000E+00  0.00000000000E+00  0.24423109324E+04  0.33623069942E+04  0.23108928216E+04 0.  0.
        2    1    3    3  502    0  0.43513944612E+03 -0.85848646329E+03  0.29097812255E+03  0.10054917270E+04  0.25500000920E-02 0. -1.
       -2    1    3    3    0  502 -0.43513944612E+03  0.85848646329E+03  0.21513328098E+04  0.23568152672E+04  0.25500000920E-02 0.  1.
</event>
<event>
 5   0  0.4798609E-05  0.2287008E+04  0.7818609E-02  0.8483062E-01
       -2   -1    0    0    0  501  0.00000000000E+00  0.00000000000E+00  0.11950776934E+04  0.11950776934E+04  0.25500000920E-02 0. -1.
        2   -1    0    0  501    0  0.00000000000E+00  0.00000000000E+00 -0.10941555227E+04  0.10941555227E+04  0.25500000920E-02 0.  1.
    10030    2    1    2    0    0  0.00000000000E+00  0.00000000000E+00  0.10092217077E+03  0.22892332161E+04  0.22870075280E+04 0.  0.
        2    1    3    3  502    0  0.12735505833E+03  0.11275235411E+04  0.19227539627E+03  0.11508685740E+04  0.25500000920E-02 0. -1.
       -2    1    3    3    0  502 -0.12735505833E+03 -0.11275235411E+04 -0.91353225499E+02  0.11383646421E+04  0.25500000920E-02 0.  1.
</event>
<event>
 5   0  0.4798609E-05  0.2300134E+04  0.7818609E-02  0.8477868E-01
        2   -1    0    0  501    0  0.00000000000E+00  0.00000000000E+00  0.77607403714E+03  0.77607403714E+03  0.25500000920E-02 0.  1.
       -2   -1    0    0    0  501  0.00000000000E+00  0.00000000000E+00 -0.17042892131E+04  0.17042892131E+04  0.25500000920E-02 0. -1.
    10030    2    1    2    0    0  0.00000000000E+00  0.00000000000E+00 -0.92821517598E+03  0.24803632503E+04  0.23001344396E+04 0.  0.
        2    1    3    3  502    0 -0.98367861278E+03 -0.21596879807E+03  0.13473287462E+03  0.10160802540E+04  0.25500000920E-02 0.  1.
       -2    1    3    3    0  502  0.98367861278E+03  0.21596879807E+03 -0.10629480506E+04  0.14642829963E+04  0.25500000920E-02 0. -1.
</event>
<event>
 5   0  0.1968318E-05  0.2272326E+04  0.7818609E-02  0.8488913E-01
       -1   -1    0    0    0  501  0.00000000000E+00  0.00000000000E+00  0.83357495461E+03  0.83357495462E+03  0.50400001928E-02 0. -1.
        1   -1    0    0  501    0  0.00000000000E+00  0.00000000000E+00 -0.15485901333E+04  0.15485901333E+04  0.50400001928E-02 0.  1.
    10030    2    1    2    0    0  0.00000000000E+00  0.00000000000E+00 -0.71501517865E+03  0.23821650879E+04  0.22723256369E+04 0.  0.
        3    1    3    3  502    0 -0.83442015064E+03 -0.61361415304E+03 -0.84707872123E+03  0.13380290306E+04  0.10100000352E+00 0.  1.
       -3    1    3    3    0  502  0.83442015064E+03  0.61361415304E+03  0.13206354258E+03  0.10441360573E+04  0.10100000352E+00 0. -1.
</event>
<event>
 5   0  0.2042951E-05  0.2291475E+04  0.7818609E-02  0.8481290E-01
       -1   -1    0    0    0  501  0.00000000000E+00  0.00000000000E+00  0.10173351169E+04  0.10173351169E+04  0.50400001928E-02 0. -1.
        1   -1    0    0  501    0  0.00000000000E+00  0.00000000000E+00 -0.12903460980E+04  0.12903460980E+04  0.50400001928E-02 0.  1.
    10030    2    1    2    0    0  0.00000000000E+00  0.00000000000E+00 -0.27301098112E+03  0.23076812149E+04  0.22914749821E+04 0.  0.
        2    1    3    3  502    0 -0.21962489714E+03 -0.86236887100E+03  0.59026261991E+03  0.10678600684E+04  0.25500000920E-02 0. -1.
       -2    1    3    3    0  502  0.21962489714E+03  0.86236887100E+03 -0.86327360103E+03  0.12398211465E+04  0.25500000920E-02 0.  1.
</event>
<event>
 5   0  0.4605516E-05  0.2260076E+04  0.7818609E-02  0.8493831E-01
        2   -1    0    0  501    0  0.00000000000E+00  0.00000000000E+00  0.14653524884E+04  0.14653524884E+04  0.25500000920E-02 0. -1.
       -2   -1    0    0    0  501  0.00000000000E+00  0.00000000000E+00 -0.87145280845E+03  0.87145280845E+03  0.25500000920E-02 0.  1.
    10030    2    1    2    0    0  0.00000000000E+00  0.00000000000E+00  0.59389967999E+03  0.23368052969E+04  0.22600756991E+04 0.  0.
        1    1    3    3  502    0 -0.13327610841E+03 -0.29707278474E+03 -0.82190197796E+03  0.88404616503E+03  0.50400001928E-02 0.  1.
       -1    1    3    3    0  502  0.13327610841E+03  0.29707278474E+03  0.14158016580E+04  0.14527591319E+04  0.50400001928E-02 0. -1.
</event>
<event>
 5   0  0.2031860E-05  0.2299225E+04  0.7818609E-02  0.8478227E-01
        1   -1    0    0  501    0  0.00000000000E+00  0.00000000000E+00  0.19412380584E+04  0.19412380584E+04  0.50400001928E-02 0.  1.
       -1   -1    0    0    0  501  0.00000000000E+00  0.00000000000E+00 -0.68080720253E+03  0.68080720255E+03  0.50400001928E-02 0. -1.
    10030    2    1    2    0    0  0.00000000000E+00  0.00000000000E+00  0.12604308559E+04  0.26220452609E+04  0.22992249581E+04 0.  0.
        4    1    3    3  502    0  0.33341369563E+03 -0.44416149268E+03 -0.51766963425E+03  0.75922828394E+03  0.12699999809E+01 0. -1.
       -4    1    3    3    0  502 -0.33341369563E+03  0.44416149268E+03  0.17781004901E+04  0.18628169770E+04  0.12699999809E+01 0.  1.
</event>
<event>
 5   0  0.4605516E-05  0.2286780E+04  0.7818609E-02  0.8483152E-01
       -2   -1    0    0    0  501  0.00000000000E+00  0.00000000000E+00  0.69794279503E+03  0.69794279503E+03  0.25500000920E-02 0. -1.
        2   -1    0    0  501    0  0.00000000000E+00  0.00000000000E+00 -0.18731343890E+04  0.18731343890E+04  0.25500000920E-02 0.  1.
    10030    2    1    2    0    0  0.00000000000E+00  0.00000000000E+00 -0.11751915940E+04  0.25710771841E+04  0.22867799640E+04 0.  0.
        1    1    3    3  502    0 -0.19982200706E+03  0.11134077832E+04 -0.77483821088E+03  0.13711236193E+04  0.50400001928E-02 0. -1.
       -1    1    3    3    0  502  0.19982200706E+03 -0.11134077832E+04 -0.40035338314E+03  0.11999535648E+04  0.50400001928E-02 0.  1.
</event>
<event>
 5   0  0.2085063E-05  0.2283052E+04  0.7818609E-02  0.8484633E-01
       -1   -1    0    0    0  501  0.00000000000E+00  0.00000000000E+00  0.80883615683E+03  0.80883615684E+03  0.50400001928E-02 0. -1.
        1   -1    0    0  501    0  0.00000000000E+00  0.00000000000E+00 -0.16110581532E+04  0.16110581532E+04  0.50400001928E-02 0.  1.
    10030    2    1    2    0    0  0.00000000000E+00  0.00000000000E+00 -0.80222199633E+03  0.24198943100E+04  0.22830524173E+04 0.  0.
        1    1    3    3  502    0  0.43157093949E+03  0.20111448226E+03  0.69856220697E+03  0.84539320309E+03  0.50400001928E-02 0. -1.
       -1    1    3    3    0  502 -0.43157093949E+03 -0.20111448226E+03 -0.15007842033E+04  0.15745011069E+04  0.50400001928E-02 0.  1.
</event>
<event>
 5   0  0.4505107E-05  0.2294538E+04  0.7818609E-02  0.8480078E-01
        2   -1    0    0  501    0  0.00000000000E+00  0.00000000000E+00  0.69939232185E+03  0.69939232185E+03  0.25500000920E-02 0. -1.
       -2   -1    0    0    0  501  0.00000000000E+00  0.00000000000E+00 -0.18819570435E+04  0.18819570435E+04  0.25500000920E-02 0.  1.
    10030    2    1    2    0    0  0.00000000000E+00  0.00000000000E+00 -0.11825647217E+04  0.25813493654E+04  0.22945381289E+04 0.  0.
        4    1    3    3  502    0  0.89677593245E+02  0.42187429883E+02  0.69456692054E+03  0.70160292900E+03  0.12699999809E+01 0. -1.
       -4    1    3    3    0  502 -0.89677593245E+02 -0.42187429883E+02 -0.18771316422E+04  0.18797464364E+04  0.12699999809E+01 0.  1.
</event>
<event>
 5   0  0.1604500E-05  0.2282598E+04  0.7818609E-02  0.8484814E-01
       -3   -1    0    0    0  501  0.00000000000E+00  0.00000000000E+00  0.20720585505E+04  0.20720585530E+04  0.10100000352E+00 0.  1.
        3   -1    0    0  501    0  0.00000000000E+00  0.00000000000E+00 -0.62863273418E+03  0.62863274229E+03  0.10100000352E+00 0. -1.
    10030    2    1    2    0    0  0.00000000000E+00  0.00000000000E+00  0.14434258164E+04  0.27006912953E+04  0.22825983845E+04 0.  0.
        4    1    3    3  502    0 -0.44535394227E+03 -0.10495036227E+04  0.78391911821E+03  0.13835927091E+04  0.12699999809E+01 0.  1.
       -4    1    3    3    0  502  0.44535394227E+03  0.10495036227E+04  0.65950669814E+03  0.13170985862E+04  0.12699999809E+01 0. -1.
</event>
<event>
 5   0  0.4602447E-05  0.2295438E+04  0.7818609E-02  0.8479722E-01
        2   -1    0    0  501    0  0.00000000000E+00  0.00000000000E+00  0.22695954891E+04  0.22695954891E+04  0.25500000920E-02 0. -1.
       -2   -1    0    0    0  501  0.00000000000E+00  0.00000000000E+00 -0.58039381734E+03  0.58039381734E+03  0.25500000920E-02 0.  1.
    10030    2    1    2    0    0  0.00000000000E+00  0.00000000000E+00  0.16892016717E+04  0.28499893064E+04  0.22954382499E+04 0.  0.
        3    1    3    3  502    0 -0.83628407875E+03  0.62447113220E+03  0.14373522150E+04  0.17763211014E+04  0.10100000352E+00 0. -1.
       -3    1    3    3    0  502  0.83628407875E+03 -0.62447113220E+03  0.25184945676E+03  0.10736682050E+04  0.10100000352E+00 0.  1.
</event>
<event>
 5   0  0.4798609E-05  0.2314021E+04  0.7818609E-02  0.8472413E-01
       -2   -1    0    0    0  501  0.00000000000E+00  0.00000000000E+00  0.11403828155E+04  0.11403828155E+04  0.25500000920E-02 0. -1.
        2   -1    0    0  501    0  0.00000000000E+00  0.00000000000E+00 -0.11738808113E+04  0.11738808113E+04  0.25500000920E-02 0.  1.
    10030    2    1    2    0    0  0.00000000000E+00  0.00000000000E+00 -0.33497995788E+02  0.23142636268E+04  0.23140211794E+04 0.  0.
        2    1    3    3  502    0  0.77825399179E+03  0.84763350001E+03  0.10372805237E+03  0.11553879586E+04  0.25500000920E-02 0. -1.
       -2    1    3    3    0  502 -0.77825399179E+03 -0.84763350001E+03 -0.13722604815E+03  0.11588756682E+04  0.25500000920E-02 0.  1.
</event>
<event>
 5   0  0.4605516E-05  0.2286686E+04  0.7818609E-02  0.8483189E-01
        2   -1    0    0  501    0  0.00000000000E+00  0.00000000000E+00  0.19576495862E+04  0.19576495862E+04  0.25500000920E-02 0. -1.
       -2   -1    0    0    0  501  0.00000000000E+00  0.00000000000E+00 -0.66775635279E+03  0.66775635280E+03  0.25500000920E-02 0.  1.
    10030    2    1    2    0    0  0.00000000000E+00  0.00000000000E+00  0.12898932334E+04  0.26254059390E+04  0.22866857657E+04 0.  0.
        1    1    3    3  502    0  0.28359258580E+03  0.28646046744E+02 -0.62630937620E+03  0.68811974646E+03  0.50400001928E-02 0.  1.
       -1    1    3    3    0  502 -0.28359258580E+03 -0.28646046744E+02  0.19162026096E+04  0.19372861925E+04  0.50400001928E-02 0. -1.
</event>
<event>
 5   0  0.2042951E-05  0.2374143E+04  0.7818609E-02  0.8449248E-01
       -1   -1    0    0    0  501  0.00000000000E+00  0.00000000000E+00  0.88658975312E+03  0.88658975313E+03  0.50400001928E-02 0.  1.
        1   -1    0    0  501    0  0.00000000000E+00  0.00000000000E+00 -0.15893921380E+04  0.15893921380E+04  0.50400001928E-02 0. -1.
    10030    2    1    2    0    0  0.00000000000E+00  0.00000000000E+00 -0.70280238485E+03  0.24759818911E+04  0.23741430313E+04 0.  0.
        2    1    3    3  502    0 -0.49654348840E+03 -0.10773092185E+04 -0.39790302559E+03  0.12511903956E+04  0.25500000920E-02 0.  1.
       -2    1    3    3    0  502  0.49654348840E+03  0.10773092185E+04 -0.30489935925E+03  0.12247914955E+04  0.25500000920E-02 0. -1.
</event>
<event>
 5   0  0.4798609E-05  0.2280855E+04  0.7818609E-02  0.8485508E-01
       -2   -1    0    0    0  501  0.00000000000E+00  0.00000000000E+00  0.12932822682E+04  0.12932822682E+04  0.25500000920E-02 0.  1.
        2   -1    0    0  501    0  0.00000000000E+00  0.00000000000E+00 -0.10056386040E+04  0.10056386040E+04  0.25500000920E-02 0. -1.
    10030    2    1    2    0    0  0.00000000000E+00  0.00000000000E+00  0.28764366419E+03  0.22989208722E+04  0.22808547299E+04 0.  0.
        2    1    3    3  502    0 -0.58967391156E+03  0.77497777672E+03 -0.45440160694E+03  0.10746100208E+04  0.25500000920E-02 0. -1.
       -2    1    3    3    0  502  0.58967391156E+03 -0.77497777672E+03  0.74204527113E+03  0.12243108514E+04  0.25500000920E-02 0.  1.
</event>
<event>
 5   0  0.1968318E-05  0.2299803E+04  0.7818609E-02  0.8477999E-01
        1   -1    0    0  501    0  0.00000000000E+00  0.00000000000E+00  0.23419858232E+04  0.23419858232E+04  0.50400001928E-02 0.  1.
       -1   -1    0    0    0  501  0.00000000000E+00  0.00000000000E+00 -0.56459514033E+03  0.56459514036E+03  0.50400001928E-02 0. -1.
    10030    2    1    2    0    0  0.00000000000E+00  0.00000000000E+00  0.17773906829E+04  0.29065809635E+04  0.22998033086E+04 0.  0.
        3    1    3    3  502    0  0.27355721864E+03  0.16059259943E+03 -0.50820421027E+03  0.59907851272E+03  0.10100000352E+00 0. -1.
       -3    1    3    3    0  502 -0.27355721864E+03 -0.16059259943E+03  0.22855948931E+04  0.23075024508E+04  0.10100000352E+00 0.  1.
</event>
<event>
 5   0  0.2031860E-05  0.2294347E+04  0.7818609E-02  0.8480153E-01
        1   -1    0    0  501    0  0.00000000000E+00  0.00000000000E+00  0.13121387618E+04  0.13121387619E+04  0.50400001928E-02 0.  1.
       -1   -1    0    0    0  501  0.00000000000E+00  0.00000000000E+00 -0.10029482056E+04  0.10029482057E+04  0.50400001928E-02 0. -1.
    10030    2    1    2    0    0  0.00000000000E+00  0.00000000000E+00  0.30919055620E+03  0.23150869675E+04  0.22943471549E+04 0.  0.
        4    1    3    3  502    0  0.59274609945E+03 -0.76445873364E+03  0.77682219202E+03  0.12406447617E+04  0.12699999809E+01 0.  1.
       -4    1    3    3    0  502 -0.59274609945E+03  0.76445873364E+03 -0.46763163582E+03  0.10744422058E+04  0.12699999809E+01 0. -1.
</event>
<event>
 5   0  0.2042951E-05  0.2286996E+04  0.7818609E-02  0.8483066E-01
        1   -1    0    0  501    0  0.00000000000E+00  0.00000000000E+00  0.96618766544E+03  0.96618766545E+03  0.50400001928E-02 0.  1.
       -1   -1    0    0    0  501  0.00000000000E+00  0.00000000000E+00 -0.13533474697E+04  0.13533474697E+04  0.50400001928E-02 0. -1.
    10030    2    1    2    0    0  0.00000000000E+00  0.00000000000E+00 -0.38715980428E+03  0.23195351352E+04  0.22869959618E+04 0.  0.
        2    1    3    3  502    0 -0.21866692617E+03 -0.99665800961E+03  0.32994762758E+03  0.10723841894E+04  0.25500000920E-02 0.  1.
       -2    1    3    3    0  502  0.21866692617E+03  0.99665800961E+03 -0.71710743186E+03  0.12471509458E+04  0.25500000920E-02 0. -1.
</event>
<event>
 5   0  0.2043885E-05  0.2305848E+04  0.7818609E-02  0.8475619E-01
        1   -1    0    0  501    0  0.00000000000E+00  0.00000000000E+00  0.91731049427E+03  0.91731049428E+03  0.50400001928E-02 0.  1.
       -1   -1    0    0    0  501  0.00000000000E+00  0.00000000000E+00 -0.14490556313E+04  0.14490556313E+04  0.50400001928E-02 0. -1.
    10030    2    1    2    0    0  0.00000000000E+00  0.00000000000E+00 -0.53174513707E+03  0.23663661256E+04  0.23058481628E+04 0.  0.
        5    1    3    3  502    0  0.22964311238E+03  0.39430956323E+03  0.82068624115E+03  0.93902288957E+03  0.46999998093E+01 0.  1.
       -5    1    3    3    0  502 -0.22964311238E+03 -0.39430956323E+03 -0.13524313782E+04  0.14273432361E+04  0.46999998093E+01 0. -1.
</event>
<event>
 5   0  0.4602447E-05  0.2308912E+04  0.7818609E-02  0.8474416E-01
        2   -1    0    0  501    0  0.00000000000E+00  0.00000000000E+00  0.87140939327E+03  0.87140939328E+03  0.25500000920E-02 0. -1.
       -2   -1    0    0    0  501  0.00000000000E+00  0.00000000000E+00 -0.15294399278E+04  0.15294399278E+04  0.25500000920E-02 0.  1.
    10030    2    1    2    0    0  0.00000000000E+00  0.00000000000E+00 -0.65803053451E+03  0.24008493211E+04  0.23089117086E+04 0.  0.
        3    1    3    3  502    0 -0.70084912278E+02 -0.11200901186E+03 -0.15215518336E+04  0.15272779400E+04  0.10100000352E+00 0.  1.
       -3    1    3    3    0  502  0.70084912278E+02  0.11200901186E+03  0.86352129905E+03  0.87357138104E+03  0.10100000352E+00 0. -1.
</event>
<event>
 5   0  0.4505107E-05  0.2297517E+04  0.7818609E-02  0.8478901E-01
       -2   -1    0    0    0  501  0.00000000000E+00  0.00000000000E+00  0.50111801799E+03  0.50111801800E+03  0.25500000920E-02 0. -1.
        2   -1    0    0  501    0  0.00000000000E+00  0.00000000000E+00 -0.26334031607E+04  0.26334031607E+04  0.25500000920E-02 0.  1.
    10030    2    1    2    0    0  0.00000000000E+00  0.00000000000E+00 -0.21322851428E+04  0.31345211787E+04  0.22975167225E+04 0.  0.
        4    1    3    3  502    0  0.73511068974E+03 -0.49936518787E+03 -0.73013409429E+02  0.89167588724E+03  0.12699999809E+01 0. -1.
       -4    1    3    3    0  502 -0.73511068974E+03  0.49936518787E+03 -0.20592717333E+04  0.22428452915E+04  0.12699999809E+01 0.  1.
</event>
<event>
 5   0  0.4602447E-05  0.2311574E+04  0.7818609E-02  0.8473372E-01
        2   -1    0    0  501    0  0.00000000000E+00  0.00000000000E+00  0.12474138441E+04  0.12474138441E+04  0.25500000920E-02 0.  1.
       -2   -1    0    0    0  501  0.00000000000E+00  0.00000000000E+00 -0.10708900049E+04  0.10708900049E+04  0.25500000920E-02 0. -1.
    10030    2    1    2    0    0  0.00000000000E+00  0.00000000000E+00  0.17652383922E+03  0.23183038490E+04  0.23115735053E+04 0.  0.
        3    1    3    3  502    0 -0.10542604475E+04  0.95932821952E+02 -0.37695806453E+03  0.11237284326E+04  0.10100000352E+00 0.  1.
       -3    1    3    3    0  502  0.10542604475E+04 -0.95932821952E+02  0.55348190375E+03  0.11945754164E+04  0.10100000352E+00 0. -1.
</event>
<event>
 5   0  0.2042951E-05  0.2301273E+04  0.7818609E-02  0.8477419E-01
       -1   -1    0    0    0  501  0.00000000000E+00  0.00000000000E+00  0.95600969989E+03  0.95600969990E+03  0.50400001928E-02 0. -1.
        1   -1    0    0  501    0  0.00000000000E+00  0.00000000000E+00 -0.13848856324E+04  0.13848856325E+04  0.50400001928E-02 0.  1.
    10030    2    1    2    0    0  0.00000000000E+00  0.00000000000E+00 -0.42887593256E+03  0.23408953324E+04  0.23012727764E+04 0.  0.
        2    1    3    3  502    0  0.10079196334E+04  0.54762053899E+03 -0.30640398414E+03  0.11872967799E+04  0.25500000920E-02 0. -1.
       -2    1    3    3    0  502 -0.10079196334E+04 -0.54762053899E+03 -0.12247194842E+03  0.11535985525E+04  0.25500000920E-02 0.  1.
</event>
<event>
 5   0  0.2042951E-05  0.2299487E+04  0.7818609E-02  0.8478123E-01
       -1   -1    0    0    0  501  0.00000000000E+00  0.00000000000E+00  0.15818828906E+04  0.15818828906E+04  0.50400001928E-02 0. -1.
        1   -1    0    0  501    0  0.00000000000E+00  0.00000000000E+00 -0.83565628417E+03  0.83565628419E+03  0.50400001928E-02 0.  1.
    10030    2    1    2    0    0  0.00000000000E+00  0.00000000000E+00  0.74622660642E+03  0.24175391748E+04  0.22994872284E+04 0.  0.
        2    1    3    3  502    0 -0.54353413475E+03  0.15394028067E+03  0.14259138196E+04  0.15337396085E+04  0.25500000920E-02 0. -1.
       -2    1    3    3    0  502  0.54353413475E+03 -0.15394028067E+03 -0.67968721319E+03  0.88379956632E+03  0.25500000920E-02 0.  1.
</event>
<event>
 5   0  0.1604500E-05  0.2345225E+04  0.7818609E-02  0.8460300E-01
        3   -1    0    0  501    0  0.00000000000E+00  0.00000000000E+00  0.87840077941E+03  0.87840078522E+03  0.10100000352E+00 0. -1.
       -3   -1    0    0    0  501  0.00000000000E+00  0.00000000000E+00 -0.15653680107E+04  0.15653680140E+04  0.10100000352E+00 0.  1.
    10030    2    1    2    0    0  0.00000000000E+00  0.00000000000E+00 -0.68696723132E+03  0.24437687992E+04  0.23452253553E+04 0.  0.
        3    1    3    3  502    0  0.85137678218E+03  0.65230053082E+03  0.15043994922E+03  0.10830376707E+04  0.10100000352E+00 0.  1.
       -3    1    3    3    0  502 -0.85137678218E+03 -0.65230053082E+03 -0.83740718054E+03  0.13607311285E+04  0.10100000352E+00 0. -1.
</event>
<event>
 5   0  0.1604500E-05  0.2308349E+04  0.7818609E-02  0.8474636E-01
        3   -1    0    0  501    0  0.00000000000E+00  0.00000000000E+00  0.11832830228E+04  0.11832830271E+04  0.10100000352E+00 0.  1.
       -3   -1    0    0    0  501  0.00000000000E+00  0.00000000000E+00 -0.11257824893E+04  0.11257824938E+04  0.10100000352E+00 0. -1.
    10030    2    1    2    0    0  0.00000000000E+00  0.00000000000E+00  0.57500533543E+02  0.23090655209E+04  0.23083494685E+04 0.  0.
        4    1    3    3  502    0 -0.10726993867E+04  0.76102445146E+01  0.45476477085E+03  0.11651414076E+04  0.12699999809E+01 0.  1.
       -4    1    3    3    0  502  0.10726993867E+04 -0.76102445146E+01 -0.39726423731E+03  0.11439241134E+04  0.12699999809E+01 0. -1.
</event>
<event>
 5   0  0.2031860E-05  0.2300284E+04  0.7818609E-02  0.8477809E-01
       -1   -1    0    0    0  501  0.00000000000E+00  0.00000000000E+00  0.11942803011E+04  0.11942803011E+04  0.50400001928E-02 0.  1.
        1   -1    0    0  501    0  0.00000000000E+00  0.00000000000E+00 -0.11076349514E+04  0.11076349514E+04  0.50400001928E-02 0. -1.
    10030    2    1    2    0    0  0.00000000000E+00  0.00000000000E+00  0.86645349678E+02  0.23019152525E+04  0.23002839853E+04 0.  0.
        4    1    3    3  502    0 -0.10711196476E+04  0.39632559804E+03 -0.92618098270E+02  0.11458407412E+04  0.12699999809E+01 0. -1.
       -4    1    3    3    0  502  0.10711196476E+04 -0.39632559804E+03  0.17926344795E+03  0.11560745113E+04  0.12699999809E+01 0.  1.
</event>
<event>
 5   0  0.2085063E-05  0.2293096E+04  0.7818609E-02  0.8480648E-01
        1   -1    0    0  501    0  0.00000000000E+00  0.00000000000E+00  0.23913236531E+04  0.23913236531E+04  0.50400001928E-02 0.  1.
       -1   -1    0    0    0  501  0.00000000000E+00  0.00000000000E+00 -0.54972577597E+03  0.54972577599E+03  0.50400001928E-02 0. -1.
    10030    2    1    2    0    0  0.00000000000E+00  0.00000000000E+00  0.18415978772E+04  0.29410494291E+04  0.22930959429E+04 0.  0.
        1    1    3    3  502    0  0.10827001086E+04 -0.36269703433E+03  0.10539859024E+04  0.15539224390E+04  0.50400001928E-02 0.  1.
       -1    1    3    3    0  502 -0.10827001086E+04  0.36269703433E+03  0.78761197471E+03  0.13871269901E+04  0.50400001928E-02 0. -1.
</event>
<event>
 5   0  0.4505107E-05  0.2282858E+04  0.7818609E-02  0.8484711E-01
        2   -1    0    0  501    0  0.00000000000E+00  0.00000000000E+00  0.18680819032E+04  0.18680819032E+04  0.25500000920E-02 0.  1.
       -2   -1    0    0    0  501  0.00000000000E+00  0.00000000000E+00 -0.69743207749E+03  0.69743207750E+03  0.25500000920E-02 0. -1.
    10030    2    1    2    0    0  0.00000000000E+00  0.00000000000E+00  0.11706498258E+04  0.25655139807E+04  0.22828580707E+04 0.  0.
        4    1    3    3  502    0 -0.68246599077E+03  0.82743147423E+03  0.10241259780E+04  0.14829829078E+04  0.12699999809E+01 0.  1.
       -4    1    3    3    0  502  0.68246599077E+03 -0.82743147423E+03  0.14652384780E+03  0.10825310730E+04  0.12699999809E+01 0. -1.
</event>
<event>
 5   0  0.4436695E-05  0.2299015E+04  0.7818609E-02  0.8478310E-01
       -2   -1    0    0    0  501  0.00000000000E+00  0.00000000000E+00  0.94012700860E+03  0.94012700861E+03  0.25500000920E-02 0.  1.
        2   -1    0    0  501    0  0.00000000000E+00  0.00000000000E+00 -0.14055197510E+04  0.14055197510E+04  0.25500000920E-02 0. -1.
    10030    2    1    2    0    0  0.00000000000E+00  0.00000000000E+00 -0.46539274238E+03  0.23456467596E+04  0.22990146403E+04 0.  0.
        5    1    3    3  502    0 -0.88710207780E+03 -0.73621952399E+02  0.50936243687E+03  0.10255937160E+04  0.46999998093E+01 0. -1.
       -5    1    3    3    0  502  0.88710207780E+03  0.73621952399E+02 -0.97475517925E+03  0.13200530436E+04  0.46999998093E+01 0.  1.
</event>
<event>
 5   0  0.2043885E-05  0.2272327E+04  0.7818609E-02  0.8488913E-01
       -1   -1    0    0    0  501  0.00000000000E+00  0.00000000000E+00  0.74001058703E+03  0.74001058705E+03  0.50400001928E-02 0.  1.
        1   -1    0    0  501    0  0.00000000000E+00  0.00000000000E+00 -0.17443903717E+04  0.17443903717E+04  0.50400001928E-02 0. -1.
    10030    2    1    2    0    0  0.00000000000E+00  0.00000000000E+00 -0.10043797847E+04  0.24844009587E+04  0.22723268629E+04 0.  0.
        5    1    3    3  502    0 -0.45021184148E+03  0.10000330026E+04 -0.17769295480E+03  0.11110146645E+04  0.46999998093E+01 0.  1.
       -5    1    3    3    0  502  0.45021184148E+03 -0.10000330026E+04 -0.82668682986E+03  0.13733862942E+04  0.46999998093E+01 0. -1.
</event>
<event>
 5   0  0.4605516E-05  0.2291601E+04  0.7818609E-02  0.8481240E-01
       -2   -1    0    0    0  501  0.00000000000E+00  0.00000000000E+00  0.57975999992E+03  0.57975999992E+03  0.25500000920E-02 0. -1.
        2   -1    0    0  501    0  0.00000000000E+00  0.00000000000E+00 -0.22644865366E+04  0.22644865367E+04  0.25500000920E-02 0.  1.
    10030    2    1    2    0    0  0.00000000000E+00  0.00000000000E+00 -0.16847265367E+04  0.28442465366E+04  0.22916009376E+04 0.  0.
        1    1    3    3  502    0  0.10460377745E+04 -0.15476415239E+03 -0.13900400401E+04  0.17465274924E+04  0.50400001928E-02 0.  1.
       -1    1    3    3    0  502 -0.10460377745E+04  0.15476415239E+03 -0.29468649661E+03  0.10977190442E+04  0.50400001928E-02 0. -1.
</event>
<event>
 5   0  0.4798609E-05  0.2271164E+04  0.7818609E-02  0.8489378E-01
        2   -1    0    0  501    0  0.00000000000E+00  0.00000000000E+00  0.20344283168E+04  0.20344283168E+04  0.25500000920E-02 0.  1.
       -2   -1    0    0    0  501  0.00000000000E+00  0.00000000000E+00 -0.63386190472E+03  0.63386190473E+03  0.25500000920E-02 0. -1.
    10030    2    1    2    0    0  0.00000000000E+00  0.00000000000E+00  0.14005664121E+04  0.26682902215E+04  0.22711641138E+04 0.  0.
        2    1    3    3  502    0  0.50632045885E+03 -0.41187401946E+03  0.17920434710E+04  0.19072022486E+04  0.25500000920E-02 0.  1.
       -2    1    3    3    0  502 -0.50632045885E+03  0.41187401946E+03 -0.39147705891E+03  0.76108797298E+03  0.25500000920E-02 0. -1.
</event>
<event>
 5   0  0.4798609E-05  0.2344280E+04  0.7818609E-02  0.8460664E-01
        2   -1    0    0  501    0  0.00000000000E+00  0.00000000000E+00  0.19628493412E+04  0.19628493412E+04  0.25500000920E-02 0. -1.
       -2   -1    0    0    0  501  0.00000000000E+00  0.00000000000E+00 -0.69995782004E+03  0.69995782004E+03  0.25500000920E-02 0.  1.
    10030    2    1    2    0    0  0.00000000000E+00  0.00000000000E+00  0.12628915212E+04  0.26628071613E+04  0.23442796301E+04 0.  0.
        2    1    3    3  502    0 -0.82979805267E+03 -0.82770854324E+03  0.61364819345E+03  0.13229627153E+04  0.25500000920E-02 0. -1.
       -2    1    3    3    0  502  0.82979805267E+03  0.82770854324E+03  0.64924332775E+03  0.13398444460E+04  0.25500000920E-02 0.  1.
</event>
<event>
 5   0  0.2031860E-05  0.2301846E+04  0.7818609E-02  0.8477194E-01
        1   -1    0    0  501    0  0.00000000000E+00  0.00000000000E+00  0.18791459983E+04  0.18791459983E+04  0.50400001928E-02 0.  1.
       -1   -1    0    0    0  501  0.00000000000E+00  0.00000000000E+00 -0.70490718546E+03  0.70490718548E+03  0.50400001928E-02 0. -1.
    10030    2    1    2    0    0  0.00000000000E+00  0.00000000000E+00  0.11742388128E+04  0.25840531838E+04  0.23018457957E+04 0.  0.
        4    1    3    3  502    0  0.11266936887E+04  0.15874790252E+03  0.39273654170E+03  0.12036956296E+04  0.12699999809E+01 0. -1.
       -4    1    3    3    0  502 -0.11266936887E+04 -0.15874790252E+03  0.78150227111E+03  0.13803575542E+04  0.12699999809E+01 0.  1.
</event>
<event>
 5   0  0.2085063E-05  0.2298888E+04  0.7818609E-02  0.8478359E-01
       -1   -1    0    0    0  501  0.00000000000E+00  0.00000000000E+00  0.10860093333E+04  0.10860093333E+04  0.50400001928E-02 0.  1.
        1   -1    0    0  501    0  0.00000000000E+00  0.00000000000E+00 -0.12165844338E+04  0.12165844338E+04  0.50400001928E-02 0. -1.
    10030    2    1    2    0    0  0.00000000000E+00  0.00000000000E+00 -0.13057510054E+03  0.23025937671E+04  0.22988884704E+04 0.  0.
        1    1    3    3  502    0  0.11312413040E+04  0.13894608183E+03 -0.21455508981E+03  0.11597615221E+04  0.50400001928E-02 0.  1.
       -1    1    3    3    0  502 -0.11312413040E+04 -0.13894608183E+03  0.83979989266E+02  0.11428322450E+04  0.50400001928E-02 0. -1.
</event>
<event>
 5   0  0.4436695E-05  0.2381342E+04  0.7818609E-02  0.8446522E-01
       -2   -1    0    0    0  501  0.00000000000E+00  0.00000000000E+00  0.11089636124E+04  0.11089636124E+04  0.25500000920E-02 0. -1.
        2   -1    0    0  501    0  0.00000000000E+00  0.00000000000E+00 -0.12783986353E+04  0.12783986353E+04  0.25500000920E-02 0.  1.
    10030    2    1    2    0    0  0.00000000000E+00  0.00000000000E+00 -0.16943502291E+03  0.23873622477E+04  0.23813421162E+04 0.  0.
        5    1    3    3  502    0  0.42259007295E+03 -0.95292939743E+03 -0.66151422238E+03  0.12346173345E+04  0.46999998093E+01 0.  1.
       -5    1    3    3    0  502 -0.42259007295E+03  0.95292939743E+03  0.49207919947E+03  0.11527449132E+04  0.46999998093E+01 0. -1.
</event>
<event>
 5   0  0.2043885E-05  0.2284177E+04  0.7818609E-02  0.8484186E-01
       -1   -1    0    0    0  501  0.00000000000E+00  0.00000000000E+00  0.86951190059E+03  0.86951190060E+03  0.50400001928E-02 0.  1.
        1   -1    0    0  501    0  0.00000000000E+00  0.00000000000E+00 -0.15001125374E+04  0.15001125374E+04  0.50400001928E-02 0. -1.
    10030    2    1    2    0    0  0.00000000000E+00  0.00000000000E+00 -0.63060063684E+03  0.23696244380E+04  0.22841766162E+04 0.  0.
        5    1    3    3  502    0 -0.55380652866E+03  0.80305866247E+03  0.30083543431E+03  0.10208471654E+04  0.46999998093E+01 0.  1.
       -5    1    3    3    0  502  0.55380652866E+03 -0.80305866247E+03 -0.93143607115E+03  0.13487772726E+04  0.46999998093E+01 0. -1.
</event>
<event>
 5   0  0.4798609E-05  0.2295376E+04  0.7818609E-02  0.8479747E-01
        2   -1    0    0  501    0  0.00000000000E+00  0.00000000000E+00  0.22609618180E+04  0.22609618180E+04  0.25500000920E-02 0. -1.
       -2   -1    0    0    0  501  0.00000000000E+00  0.00000000000E+00 -0.58257848698E+03  0.58257848699E+03  0.25500000920E-02 0.  1.
    10030    2    1    2    0    0  0.00000000000E+00  0.00000000000E+00  0.16783833310E+04  0.28435403050E+04  0.22953759736E+04 0.  0.
        2    1    3    3  502    0  0.12429748161E+03 -0.76961588479E+03  0.18826139302E+04  0.20376441506E+04  0.25500000920E-02 0. -1.
       -2    1    3    3    0  502 -0.12429748161E+03  0.76961588479E+03 -0.20423059920E+03  0.80589615442E+03  0.25500000920E-02 0.  1.
</event>
<event>
 5   0  0.4505107E-05  0.2296758E+04  0.7818609E-02  0.8479200E-01
        2   -1    0    0  501    0  0.00000000000E+00  0.00000000000E+00  0.13585624203E+04  0.13585624203E+04  0.25500000920E-02 0. -1.
       -2   -1    0    0    0  501  0.00000000000E+00  0.00000000000E+00 -0.97071326013E+03  0.97071326014E+03  0.25500000920E-02 0.  1.
    10030    2    1    2    0    0  0.00000000000E+00  0.00000000000E+00  0.38784916014E+03  0.23292756804E+04  0.22967581989E+04 0.  0.
        4    1    3    3  502    0  0.22267041783E+03  0.81289666839E+03  0.98496120442E+03  0.12963538466E+04  0.12699999809E+01 0. -1.
       -4    1    3    3    0  502 -0.22267041783E+03 -0.81289666839E+03 -0.59711204428E+03  0.10329218338E+04  0.12699999809E+01 0.  1.
</event>
<event>
 5   0  0.2031860E-05  0.2306432E+04  0.7818609E-02  0.8475389E-01
       -1   -1    0    0    0  501  0.00000000000E+00  0.00000000000E+00  0.12935674365E+04  0.12935674365E+04  0.50400001928E-02 0. -1.
        1   -1    0    0  501    0  0.00000000000E+00  0.00000000000E+00 -0.10280929615E+04  0.10280929616E+04  0.50400001928E-02 0.  1.
    10030    2    1    2    0    0  0.00000000000E+00  0.00000000000E+00  0.26547447492E+03  0.23216603980E+04  0.23064323764E+04 0.  0.
        4    1    3    3  502    0 -0.66888967899E+03  0.93699903928E+03  0.65022280179E+02  0.11530872092E+04  0.12699999809E+01 0. -1.
       -4    1    3    3    0  502  0.66888967899E+03 -0.93699903928E+03  0.20045219474E+03  0.11685731888E+04  0.12699999809E+01 0.  1.
</event>
<event>
 5   0  0.4436695E-05  0.2257292E+04  0.7818609E-02  0.8494953E-01
        2   -1    0    0  501    0  0.00000000000E+00  0.00000000000E+00  0.16248538436E+04  0.16248538436E+04  0.25500000920E-02 0. -1.
       -2   -1    0    0    0  501  0.00000000000E+00  0.00000000000E+00 -0.78397347193E+03  0.78397347194E+03  0.25500000920E-02 0.  1.
    10030    2    1    2    0    0  0.00000000000E+00  0.00000000000E+00  0.84088037170E+03  0.24088273156E+04  0.22572924571E+04 0.  0.
        5    1    3    3  502    0 -0.16232332096E+03 -0.62011227417E+03 -0.57086220997E+03  0.85836696458E+03  0.46999998093E+01 0.  1.
       -5    1    3    3    0  502  0.16232332096E+03  0.62011227417E+03  0.14117425817E+04  0.15504603510E+04  0.46999998093E+01 0. -1.
</event>
<event>
 5   0  0.4602447E-05  0.2290422E+04  0.7818609E-02  0.8481707E-01
        2   -1    0    0  501    0  0.00000000000E+00  0.00000000000E+00  0.23898706591E+04  0.23898706591E+04  0.25500000920E-02 0.  1.
       -2   -1    0    0    0  501  0.00000000000E+00  0.00000000000E+00 -0.54877811975E+03  0.54877811976E+03  0.25500000920E-02 0. -1.
    10030    2    1    2    0    0  0.00000000000E+00  0.00000000000E+00  0.18410925394E+04  0.29386487789E+04  0.22904224298E+04 0.  0.
        3    1    3    3  502    0  0.83667810859E+03 -0.49932164771E+03  0.14843454353E+03  0.98558875257E+03  0.10100000352E+00 0. -1.
       -3    1    3    3    0  502 -0.83667810859E+03  0.49932164771E+03  0.16926579958E+04  0.19530600263E+04  0.10100000352E+00 0.  1.
</event>
<event>
 5   0  0.4505107E-05  0.2303458E+04  0.7818609E-02  0.8476559E-01
       -2   -1    0    0    0  501  0.00000000000E+00  0.00000000000E+00  0.58865871680E+03  0.58865871681E+03  0.25500000920E-02 0.  1.
        2   -1    0    0  501    0  0.00000000000E+00  0.00000000000E+00 -0.22533939440E+04  0.22533939440E+04  0.25500000920E-02 0. -1.
    10030    2    1    2    0    0  0.00000000000E+00  0.00000000000E+00 -0.16647352272E+04  0.28420526608E+04  0.23034582588E+04 0.  0.
        4    1    3    3  502    0  0.62114279330E+03  0.36977743849E+03  0.27389808556E+03  0.77303007565E+03  0.12699999809E+01 0.  1.
       -4    1    3    3    0  502 -0.62114279330E+03 -0.36977743849E+03 -0.19386333128E+04  0.20690225852E+04  0.12699999809E+01 0. -1.
</event>
<event>
 5   0  0.2042951E-05  0.2268904E+04  0.7818609E-02  0.8490284E-01
        1   -1    0    0  501    0  0.00000000000E+00  0.00000000000E+00  0.21013438143E+04  0.21013438143E+04  0.50400001928E-02 0. -1.
       -1   -1    0    0    0  501  0.00000000000E+00  0.00000000000E+00 -0.61245627415E+03  0.61245627418E+03  0.50400001928E-02 0.  1.
    10030    2    1    2    0    0  0.00000000000E+00  0.00000000000E+00  0.14888875401E+04  0.27138000885E+04  0.22689038792E+04 0.  0.
        2    1    3    3  502    0 -0.38904654426E+03 -0.54094509215E+03 -0.35374287851E+03  0.75439567232E+03  0.25500000920E-02 0.  1.
       -2    1    3    3    0  502  0.38904654426E+03  0.54094509215E+03  0.18426304187E+04  0.19594044162E+04  0.25500000920E-02 0. -1.
</event>
<event>
 5   0  0.4436695E-05  0.2251349E+04  0.7818609E-02  0.8497354E-01
        2   -1    0    0  501    0  0.00000000000E+00  0.00000000000E+00  0.15440967676E+04  0.15440967676E+04  0.25500000920E-02 0.  1.
       -2   -1    0    0    0  501  0.00000000000E+00  0.00000000000E+00 -0.82063709926E+03  0.82063709926E+03  0.25500000920E-02 0. -1.
    10030    2    1    2    0    0  0.00000000000E+00  0.00000000000E+00  0.72345966835E+03  0.23647338669E+04  0.22513490110E+04 0.  0.
        5    1    3    3  502    0 -0.70106411813E+03  0.72594628674E+03 -0.16201293323E+03  0.10221346240E+04  0.46999998093E+01 0. -1.
       -5    1    3    3    0  502  0.70106411813E+03 -0.72594628674E+03  0.88547260158E+03  0.13425992429E+04  0.46999998093E+01 0.  1.
</event>
<event>
 5   0  0.2043885E-05  0.2292646E+04  0.7818609E-02  0.8480826E-01
        1   -1    0    0  501    0  0.00000000000E+00  0.00000000000E+00  0.13097717919E+04  0.13097717919E+04  0.50400001928E-02 0. -1.
       -1   -1    0    0    0  501  0.00000000000E+00  0.00000000000E+00 -0.10032711337E+04  0.10032711337E+04  0.50400001928E-02 0.  1.
    10030    2    1    2    0    0  0.00000000000E+00  0.00000000000E+00  0.30650065821E+03  0.23130429256E+04  0.22926458344E+04 0.  0.
        5    1    3    3  502    0 -0.42177414841E+03 -0.10421589487E+03  0.12234799697E+04  0.12983372871E+04  0.46999998093E+01 0. -1.
       -5    1    3    3    0  502  0.42177414841E+03  0.10421589487E+03 -0.91697931145E+03  0.10147056384E+04  0.46999998093E+01 0.  1.
</event>
<event>
 5   0  0.4505107E-05  0.2319065E+04  0.7818609E-02  0.8470442E-01
       -2   -1    0    0    0  501  0.00000000000E+00  0.00000000000E+00  0.64347348810E+03  0.64347348811E+03  0.25500000920E-02 0.  1.
        2   -1    0    0  501    0  0.00000000000E+00  0.00000000000E+00 -0.20894645669E+04  0.20894645669E+04  0.25500000920E-02 0. -1.
    10030    2    1    2    0    0  0.00000000000E+00  0.00000000000E+00 -0.14459910788E+04  0.27329380550E+04  0.23190645124E+04 0.  0.
        4    1    3    3  502    0  0.14940429583E+03 -0.85938310179E+03  0.17731871428E+03  0.89011487943E+03  0.12699999809E+01 0.  1.
       -4    1    3    3    0  502 -0.14940429583E+03  0.85938310179E+03 -0.16233097931E+04  0.18428231756E+04  0.12699999809E+01 0. -1.
</event>
<event>
 5   0  0.2085063E-05  0.2286366E+04  0.7818609E-02  0.8483316E-01
       -1   -1    0    0    0  501  0.00000000000E+00  0.00000000000E+00  0.54752404765E+03  0.54752404767E+03  0.50400001928E-02 0.  1.
        1   -1    0    0  501    0  0.00000000000E+00  0.00000000000E+00 -0.23868685378E+04  0.23868685378E+04  0.50400001928E-02 0. -1.
    10030    2    1    2    0    0  0.00000000000E+00  0.00000000000E+00 -0.18393444902E+04  0.29343925855E+04  0.22863664825E+04 0.  0.
        1    1    3    3  502    0 -0.24430501498E+03  0.11083884048E+04 -0.10949821248E+04  0.15770845411E+04  0.50400001928E-02 0. -1.
       -1    1    3    3    0  502  0.24430501498E+03 -0.11083884048E+04 -0.74436236541E+03  0.13573080444E+04  0.50400001928E-02 0.  1.
</event>
<event>
 5   0  0.4436695E-05  0.2322274E+04  0.7818609E-02  0.8469190E-01
       -2   -1    0    0    0  501  0.00000000000E+00  0.00000000000E+00  0.75258202156E+03  0.75258202156E+03  0.25500000920E-02 0. -1.
        2   -1    0    0  501    0  0.00000000000E+00  0.00000000000E+00 -0.17914839174E+04  0.17914839174E+04  0.25500000920E-02 0.  1.
    10030    2    1    2    0    0  0.00000000000E+00  0.00000000000E+00 -0.10389018958E+04  0.25440659389E+04  0.23222735309E+04 0.  0.
        5    1    3    3  502    0 -0.86696577028E+03 -0.13174277548E+03 -0.13532104078E+04  0.16125093188E+04  0.46999998093E+01 0.  1.
       -5    1    3    3    0  502  0.86696577028E+03  0.13174277548E+03  0.31430851195E+03  0.93155662008E+03  0.46999998093E+01 0. -1.
</event>
<event>
 5   0  0.2043885E-05  0.2329002E+04  0.7818609E-02  0.8466573E-01
       -1   -1    0    0    0  501  0.00000000000E+00  0.00000000000E+00  0.53740715079E+03  0.53740715082E+03  0.50400001928E-02 0.  1.
        1   -1    0    0  501    0  0.00000000000E+00  0.00000000000E+00 -0.25233440560E+04  0.25233440560E+04  0.50400001928E-02 0. -1.
    10030    2    1    2    0    0  0.00000000000E+00  0.00000000000E+00 -0.19859369052E+04  0.30607512069E+04  0.23290024815E+04 0.  0.
        5    1    3    3  502    0  0.10636671438E+04  0.46588626582E+03 -0.11075613099E+04  0.16047279989E+04  0.46999998093E+01 0.  1.
       -5    1    3    3    0  502 -0.10636671438E+04 -0.46588626582E+03 -0.87837559535E+03  0.14560232079E+04  0.46999998093E+01 0. -1.
</event>
<event>
 5   0  0.2043885E-05  0.2335312E+04  0.7818609E-02  0.8464127E-01
       -1   -1    0    0    0  501  0.00000000000E+00  0.00000000000E+00  0.11120154764E+04  0.11120154764E+04  0.50400001928E-02 0. -1.
        1   -1    0    0  501    0  0.00000000000E+00  0.00000000000E+00 -0.12260808130E+04  0.12260808131E+04  0.50400001928E-02 0.  1.
    10030    2    1    2    0    0  0.00000000000E+00  0.00000000000E+00 -0.11406533665E+03  0.23380962895E+04  0.23353122613E+04 0.  0.
        5    1    3    3  502    0 -0.31827286268E+03 -0.34661558442E+03  0.10128659961E+04  0.11168525393E+04  0.46999998093E+01 0. -1.
       -5    1    3    3    0  502  0.31827286268E+03  0.34661558442E+03 -0.11269313328E+04  0.12212437501E+04  0.46999998093E+01 0.  1.
</event>
<event>
 5   0  0.4436695E-05  0.2291513E+04  0.7818609E-02  0.8481275E-01
       -2   -1    0    0    0  501  0.00000000000E+00  0.00000000000E+00  0.58077253049E+03  0.58077253049E+03  0.25500000920E-02 0.  1.
        2   -1    0    0  501    0  0.00000000000E+00  0.00000000000E+00 -0.22603647376E+04  0.22603647376E+04  0.25500000920E-02 0. -1.
    10030    2    1    2    0    0  0.00000000000E+00  0.00000000000E+00 -0.16795922071E+04  0.28411372681E+04  0.22915128177E+04 0.  0.
        5    1    3    3  502    0  0.79233696411E+03 -0.26096247550E+03  0.13397059015E+03  0.84490797566E+03  0.46999998093E+01 0.  1.
       -5    1    3    3    0  502 -0.79233696411E+03  0.26096247550E+03 -0.18135627972E+04  0.19962292924E+04  0.46999998093E+01 0. -1.
</event>
<event>
 5   0  0.2031860E-05  0.2279203E+04  0.7818609E-02  0.8486166E-01
        1   -1    0    0  501    0  0.00000000000E+00  0.00000000000E+00  0.15912535902E+04  0.15912535902E+04  0.50400001928E-02 0. -1.
       -1   -1    0    0    0  501  0.00000000000E+00  0.00000000000E+00 -0.81614379700E+03  0.81614379701E+03  0.50400001928E-02 0.  1.
    10030    2    1    2    0    0  0.00000000000E+00  0.00000000000E+00  0.77510979319E+03  0.24073973872E+04  0.22792031477E+04 0.  0.
        4    1    3    3  502    0  0.65079309576E+03  0.71148064554E+03  0.10291347619E+04  0.14102681779E+04  0.12699999809E+01 0. -1.
       -4    1    3    3    0  502 -0.65079309576E+03 -0.71148064554E+03 -0.25402496872E+03  0.99712920933E+03  0.12699999809E+01 0.  1.
</event>
<event>
 5   0  0.2031860E-05  0.2334268E+04  0.7818609E-02  0.8464531E-01
        1   -1    0    0  501    0  0.00000000000E+00  0.00000000000E+00  0.13621785842E+04  0.13621785842E+04  0.50400001928E-02 0.  1.
       -1   -1    0    0    0  501  0.00000000000E+00  0.00000000000E+00 -0.10000172514E+04  0.10000172514E+04  0.50400001928E-02 0. -1.
    10030    2    1    2    0    0  0.00000000000E+00  0.00000000000E+00  0.36216133281E+03  0.23621958356E+04  0.23342682653E+04 0.  0.
        4    1    3    3  502    0 -0.63809998612E+02 -0.93873654203E+03  0.87992414182E+03  0.12882414834E+04  0.12699999809E+01 0.  1.
       -4    1    3    3    0  502  0.63809998612E+02  0.93873654203E+03 -0.51776280901E+03  0.10739543522E+04  0.12699999809E+01 0. -1.
</event>
<event>
 5   0  0.2043885E-05  0.2322037E+04  0.7818609E-02  0.8469282E-01
        1   -1    0    0  501    0  0.00000000000E+00  0.00000000000E+00  0.93566356375E+03  0.93566356376E+03  0.50400001928E-02 0. -1.
       -1   -1    0    0    0  501  0.00000000000E+00  0.00000000000E+00 -0.14406506620E+04  0.14406506621E+04  0.50400001928E-02 0.  1.
    10030    2    1    2    0    0  0.00000000000E+00  0.00000000000E+00 -0.50498709829E+03  0.23763142258E+04  0.23220373232E+04 0.  0.
        5    1    3    3  502    0 -0.83377356589E+03 -0.40219479240E+03 -0.96958880190E+03  0.13405459876E+04  0.46999998093E+01 0.  1.
       -5    1    3    3    0  502  0.83377356589E+03  0.40219479240E+03  0.46460170361E+03  0.10357682382E+04  0.46999998093E+01 0. -1.
</event>
<event>
 5   0  0.2031860E-05  0.2297872E+04  0.7818609E-02  0.8478761E-01
       -1   -1    0    0    0  501  0.00000000000E+00  0.00000000000E+00  0.74035534062E+03  0.74035534064E+03  0.50400001928E-02 0. -1.
        1   -1    0    0  501    0  0.00000000000E+00  0.00000000000E+00 -0.17830005903E+04  0.17830005903E+04  0.50400001928E-02 0.  1.
    10030    2    1    2    0    0  0.00000000000E+00  0.00000000000E+00 -0.10426452497E+04  0.25233559310E+04  0.22978720673E+04 0.  0.
        4    1    3    3  502    0  0.10724028296E+04 -0.25868102051E+03 -0.87390304713E+03  0.14073634385E+04  0.12699999809E+01 0. -1.
       -4    1    3    3    0  502 -0.10724028296E+04  0.25868102051E+03 -0.16874220254E+03  0.11159924924E+04  0.12699999809E+01 0.  1.
</event>
<event>
 5   0  0.2031860E-05  0.2332653E+04  0.7818609E-02  0.8465157E-01
        1   -1    0    0  501    0  0.00000000000E+00  0.00000000000E+00  0.11578452661E+04  0.11578452661E+04  0.50400001928E-02 0.  1.
       -1   -1    0    0    0  501  0.00000000000E+00  0.00000000000E+00 -0.11748702000E+04  0.11748702001E+04  0.50400001928E-02 0. -1.
    10030    2    1    2    0    0  0.00000000000E+00  0.00000000000E+00 -0.17024933929E+02  0.23327154662E+04  0.23326533385E+04 0.  0.
        4    1    3    3  502    0 -0.10552901165E+04  0.27165029362E+03  0.40729323762E+03  0.11633230447E+04  0.12699999809E+01 0. -1.
       -4    1    3    3    0  502  0.10552901165E+04 -0.27165029362E+03 -0.42431817155E+03  0.11693924215E+04  0.12699999809E+01 0.  1.
</event>
<event>
 5   0  0.2031860E-05  0.2077463E+04  0.7818609E-02  0.8571236E-01
        1   -1    0    0  501    0  0.00000000000E+00  0.00000000000E+00  0.17197359498E+04  0.17197359498E+04  0.50400001928E-02 0.  1.
       -1   -1    0    0    0  501  0.00000000000E+00  0.00000000000E+00 -0.62740059696E+03  0.62740059698E+03  0.50400001928E-02 0. -1.
    10030    2    1    2    0    0  0.00000000000E+00  0.00000000000E+00  0.10923353528E+04  0.23471365468E+04  0.20774632238E+04 0.  0.
        4    1    3    3  502    0 -0.74918920950E+03 -0.13211305853E+03 -0.25290636142E+03  0.80168670465E+03  0.12699999809E+01 0. -1.
       -4    1    3    3    0  502  0.74918920950E+03  0.13211305853E+03  0.13452417143E+04  0.15454498421E+04  0.12699999809E+01 0.  1.
</event>
<event>
 5   0  0.2085063E-05  0.2323532E+04  0.7818609E-02  0.8468700E-01
        1   -1    0    0  501    0  0.00000000000E+00  0.00000000000E+00  0.15084687453E+04  0.15084687453E+04  0.50400001928E-02 0.  1.
       -1   -1    0    0    0  501  0.00000000000E+00  0.00000000000E+00 -0.89474881602E+03  0.89474881603E+03  0.50400001928E-02 0. -1.
    10030    2    1    2    0    0  0.00000000000E+00  0.00000000000E+00  0.61371992927E+03  0.24032175613E+04  0.23235323315E+04 0.  0.
        1    1    3    3  502    0 -0.89459893593E+03 -0.27687732942E+03 -0.40427496845E+03  0.10200032166E+04  0.50400001928E-02 0. -1.
       -1    1    3    3    0  502  0.89459893593E+03  0.27687732942E+03  0.10179948977E+04  0.13832143447E+04  0.50400001928E-02 0.  1.
</event>
<event>
 5   0  0.4798609E-05  0.2115419E+04  0.7818609E-02  0.8554482E-01
       -2   -1    0    0    0  501  0.00000000000E+00  0.00000000000E+00  0.54305027418E+03  0.54305027419E+03  0.25500000920E-02 0.  1.
        2   -1    0    0  501    0  0.00000000000E+00  0.00000000000E+00 -0.20601208995E+04  0.20601208995E+04  0.25500000920E-02 0. -1.
    10030    2    1    2    0    0  0.00000000000E+00  0.00000000000E+00 -0.15170706254E+04  0.26031711737E+04  0.21154188421E+04 0.  0.
        2    1    3    3  502    0 -0.52564967664E+03 -0.25750470810E+03 -0.18426479881E+04  0.19333824933E+04  0.25500000920E-02 0. -1.
       -2    1    3    3    0  502  0.52564967664E+03  0.25750470810E+03  0.32557736279E+03  0.66978868042E+03  0.25500000920E-02 0.  1.
</event>
<event>
 5   0  0.2085063E-05  0.2278433E+04  0.7818609E-02  0.8486474E-01
        1   -1    0    0  501    0  0.00000000000E+00  0.00000000000E+00  0.11835569311E+04  0.11835569311E+04  0.50400001928E-02 0.  1.
       -1   -1    0    0    0  501  0.00000000000E+00  0.00000000000E+00 -0.10965367600E+04  0.10965367600E+04  0.50400001928E-02 0. -1.
    10030    2    1    2    0    0  0.00000000000E+00  0.00000000000E+00  0.87020171067E+02  0.22800936911E+04  0.22784325160E+04 0.  0.
        1    1    3    3  502    0  0.35436302538E+03 -0.10826993884E+04  0.41907962461E+02  0.11399857002E+04  0.50400001928E-02 0.  1.
       -1    1    3    3    0  502 -0.35436302538E+03  0.10826993884E+04  0.45112208607E+02  0.11401079908E+04  0.50400001928E-02 0. -1.
</event>
<event>
 5   0  0.2085063E-05  0.2332873E+04  0.7818609E-02  0.8465071E-01
        1   -1    0    0  501    0  0.00000000000E+00  0.00000000000E+00  0.12044708811E+04  0.12044708811E+04  0.50400001928E-02 0.  1.
       -1   -1    0    0    0  501  0.00000000000E+00  0.00000000000E+00 -0.11296029998E+04  0.11296029999E+04  0.50400001928E-02 0. -1.
    10030    2    1    2    0    0  0.00000000000E+00  0.00000000000E+00  0.74867881257E+02  0.23340738810E+04  0.23328728388E+04 0.  0.
        1    1    3    3  502    0 -0.35887466460E+03  0.86867489511E+03  0.72857668468E+03  0.11892060729E+04  0.50400001928E-02 0.  1.
       -1    1    3    3    0  502  0.35887466460E+03 -0.86867489511E+03 -0.65370880342E+03  0.11448678081E+04  0.50400001928E-02 0. -1.
</event>
<event>
 5   0  0.4436695E-05  0.2281175E+04  0.7818609E-02  0.8485381E-01
       -2   -1    0    0    0  501  0.00000000000E+00  0.00000000000E+00  0.74261026168E+03  0.74261026168E+03  0.25500000920E-02 0. -1.
        2   -1    0    0  501    0  0.00000000000E+00  0.00000000000E+00 -0.17518479719E+04  0.17518479719E+04  0.25500000920E-02 0.  1.
    10030    2    1    2    0    0  0.00000000000E+00  0.00000000000E+00 -0.10092377103E+04  0.24944582336E+04  0.22811753820E+04 0.  0.
        5    1    3    3  502    0 -0.44979058364E+03  0.48972310905E+03 -0.15179653973E+04  0.16572209660E+04  0.46999998093E+01 0.  1.
       -5    1    3    3    0  502  0.44979058364E+03 -0.48972310905E+03  0.50872768708E+03  0.83723726761E+03  0.46999998093E+01 0. -1.
</event>
<event>
 5   0  0.1604500E-05  0.2291639E+04  0.7818609E-02  0.8481225E-01
       -4   -1    0    0    0  501  0.00000000000E+00  0.00000000000E+00  0.14436273316E+04  0.14436278902E+04  0.12699999809E+01 0. -1.
        4   -1    0    0  501    0  0.00000000000E+00  0.00000000000E+00 -0.90944538071E+03  0.90944626746E+03  0.12699999809E+01 0.  1.
    10030    2    1    2    0    0  0.00000000000E+00  0.00000000000E+00  0.53418195085E+03  0.23530741576E+04  0.22916386353E+04 0.  0.
        2    1    3    3  502    0  0.13524325240E+03  0.96043145437E+03  0.89351370458E+03  0.13187441208E+04  0.25500000920E-02 0. -1.
       -2    1    3    3    0  502 -0.13524325240E+03 -0.96043145437E+03 -0.35933175374E+03  0.10343300368E+04  0.25500000920E-02 0.  1.
</event>
<event>
 5   0  0.1968318E-05  0.2312245E+04  0.7818609E-02  0.8473109E-01
       -1   -1    0    0    0  501  0.00000000000E+00  0.00000000000E+00  0.11508206288E+04  0.11508206288E+04  0.50400001928E-02 0.  1.
        1   -1    0    0  501    0  0.00000000000E+00  0.00000000000E+00 -0.11614487196E+04  0.11614487196E+04  0.50400001928E-02 0. -1.
    10030    2    1    2    0    0  0.00000000000E+00  0.00000000000E+00 -0.10628090782E+02  0.23122693484E+04  0.23122449228E+04 0.  0.
        3    1    3    3  502    0  0.62387328730E+03  0.76042777477E+03 -0.61289832386E+03  0.11589273682E+04  0.10100000352E+00 0. -1.
       -3    1    3    3    0  502 -0.62387328730E+03 -0.76042777477E+03  0.60227023308E+03  0.11533419801E+04  0.10100000352E+00 0.  1.
</event>
<event>
 5   0  0.2031860E-05  0.2296673E+04  0.7818609E-02  0.8479234E-01
       -1   -1    0    0    0  501  0.00000000000E+00  0.00000000000E+00  0.10017549142E+04  0.10017549142E+04  0.50400001928E-02 0.  1.
        1   -1    0    0  501    0  0.00000000000E+00  0.00000000000E+00 -0.13163661001E+04  0.13163661001E+04  0.50400001928E-02 0. -1.
    10030    2    1    2    0    0  0.00000000000E+00  0.00000000000E+00 -0.31461118585E+03  0.23181210143E+04  0.22966725580E+04 0.  0.
        4    1    3    3  502    0 -0.30766428152E+03 -0.55217623144E+03  0.81035448247E+03  0.10277314342E+04  0.12699999809E+01 0.  1.
       -4    1    3    3    0  502  0.30766428152E+03  0.55217623144E+03 -0.11249656683E+04  0.12903895801E+04  0.12699999809E+01 0. -1.
</event>
<event>
 5   0  0.2031860E-05  0.2406231E+04  0.7818609E-02  0.8437174E-01
       -1   -1    0    0    0  501  0.00000000000E+00  0.00000000000E+00  0.90603205709E+03  0.90603205710E+03  0.50400001928E-02 0. -1.
        1   -1    0    0  501    0  0.00000000000E+00  0.00000000000E+00 -0.15976116416E+04  0.15976116416E+04  0.50400001928E-02 0.  1.
    10030    2    1    2    0    0  0.00000000000E+00  0.00000000000E+00 -0.69157958448E+03  0.25036436987E+04  0.24062313788E+04 0.  0.
        4    1    3    3  502    0  0.77158862913E+03  0.76954153309E+03  0.18469609853E+03  0.11052861374E+04  0.12699999809E+01 0. -1.
       -4    1    3    3    0  502 -0.77158862913E+03 -0.76954153309E+03 -0.87627568301E+03  0.13983575613E+04  0.12699999809E+01 0.  1.
</event>
<event>
 5   0  0.4505107E-05  0.2295938E+04  0.7818609E-02  0.8479524E-01
       -2   -1    0    0    0  501  0.00000000000E+00  0.00000000000E+00  0.69456542017E+03  0.69456542017E+03  0.25500000920E-02 0. -1.
        2   -1    0    0  501    0  0.00000000000E+00  0.00000000000E+00 -0.18973494863E+04  0.18973494863E+04  0.25500000920E-02 0.  1.
    10030    2    1    2    0    0  0.00000000000E+00  0.00000000000E+00 -0.12027840661E+04  0.25919149065E+04  0.22959384514E+04 0.  0.
        4    1    3    3  502    0  0.51905563712E+03 -0.97957084047E+03 -0.26488135195E+03  0.11397988987E+04  0.12699999809E+01 0. -1.
       -4    1    3    3    0  502 -0.51905563712E+03  0.97957084047E+03 -0.93790271417E+03  0.14521160078E+04  0.12699999809E+01 0.  1.
</event>
<event>
 5   0  0.1604500E-05  0.2245863E+04  0.7818609E-02  0.8499578E-01
        3   -1    0    0  501    0  0.00000000000E+00  0.00000000000E+00  0.12371863818E+04  0.12371863859E+04  0.10100000352E+00 0. -1.
       -3   -1    0    0    0  501  0.00000000000E+00  0.00000000000E+00 -0.10192283278E+04  0.10192283328E+04  0.10100000352E+00 0.  1.
    10030    2    1    2    0    0  0.00000000000E+00  0.00000000000E+00  0.21795805398E+03  0.22564147187E+04  0.22458632348E+04 0.  0.
        1    1    3    3  502    0  0.93206459171E+03 -0.47661293629E+03  0.51717730798E+03  0.11676372134E+04  0.50400001928E-02 0. -1.
       -1    1    3    3    0  502 -0.93206459171E+03  0.47661293629E+03 -0.29921925400E+03  0.10887775054E+04  0.50400001928E-02 0.  1.
</event>
<event>
 5   0  0.1968318E-05  0.2290942E+04  0.7818609E-02  0.8481501E-01
        1   -1    0    0  501    0  0.00000000000E+00  0.00000000000E+00  0.19436932488E+04  0.19436932488E+04  0.50400001928E-02 0.  1.
       -1   -1    0    0    0  501  0.00000000000E+00  0.00000000000E+00 -0.67505708483E+03  0.67505708485E+03  0.50400001928E-02 0. -1.
    10030    2    1    2    0    0  0.00000000000E+00  0.00000000000E+00  0.12686361639E+04  0.26187503336E+04  0.22909420755E+04 0.  0.
        3    1    3    3  502    0 -0.81467282181E+03 -0.76923084408E+03  0.90649805011E+03  0.14412309403E+04  0.10100000352E+00 0.  1.
       -3    1    3    3    0  502  0.81467282181E+03  0.76923084408E+03  0.36213811382E+03  0.11775193934E+04  0.10100000352E+00 0. -1.
</event>
<event>
 5   0  0.4798609E-05  0.2323108E+04  0.7818609E-02  0.8468865E-01
        2   -1    0    0  501    0  0.00000000000E+00  0.00000000000E+00  0.14697594576E+04  0.14697594576E+04  0.25500000920E-02 0.  1.
       -2   -1    0    0    0  501  0.00000000000E+00  0.00000000000E+00 -0.91797887261E+03  0.91797887261E+03  0.25500000920E-02 0. -1.
    10030    2    1    2    0    0  0.00000000000E+00  0.00000000000E+00  0.55178058499E+03  0.23877383302E+04  0.23231083745E+04 0.  0.
        2    1    3    3  502    0 -0.82577598309E+03  0.70796042920E+03  0.69477497197E+03  0.12906688984E+04  0.25500000920E-02 0.  1.
       -2    1    3    3    0  502  0.82577598309E+03 -0.70796042920E+03 -0.14299438698E+03  0.10970694318E+04  0.25500000920E-02 0. -1.
</event>
<event>
 5   0  0.4436695E-05  0.2314132E+04  0.7818609E-02  0.8472370E-01
       -2   -1    0    0    0  501  0.00000000000E+00  0.00000000000E+00  0.11530825974E+04  0.11530825974E+04  0.25500000920E-02 0.  1.
        2   -1    0    0  501    0  0.00000000000E+00  0.00000000000E+00 -0.11610629575E+04  0.11610629575E+04  0.25500000920E-02 0. -1.
    10030    2    1    2    0    0  0.00000000000E+00  0.00000000000E+00 -0.79803600752E+01  0.23141455549E+04  0.23141317947E+04 0.  0.
        5    1    3    3  502    0 -0.24698716200E+03  0.11252290453E+04  0.10388232159E+03  0.11567007778E+04  0.46999998093E+01 0. -1.
       -5    1    3    3    0  502  0.24698716200E+03 -0.11252290453E+04 -0.11186268166E+03  0.11574447771E+04  0.46999998093E+01 0.  1.
</event>
<event>
 5   0  0.4602447E-05  0.2325384E+04  0.7818609E-02  0.8467979E-01
        2   -1    0    0  501    0  0.00000000000E+00  0.00000000000E+00  0.12928823547E+04  0.12928823547E+04  0.25500000920E-02 0. -1.
       -2   -1    0    0    0  501  0.00000000000E+00  0.00000000000E+00 -0.10456117572E+04  0.10456117572E+04  0.25500000920E-02 0.  1.
    10030    2    1    2    0    0  0.00000000000E+00  0.00000000000E+00  0.24727059753E+03  0.23384941119E+04  0.23253842613E+04 0.  0.
        3    1    3    3  502    0 -0.97504836003E+03 -0.53011531819E+03  0.47216011962E+03  0.12060998067E+04  0.10100000352E+00 0. -1.
       -3    1    3    3    0  502  0.97504836003E+03  0.53011531819E+03 -0.22488952209E+03  0.11323943051E+04  0.10100000352E+00 0.  1.
</event>
<event>
 5   0  0.2042951E-05  0.2306509E+04  0.7818609E-02  0.8475359E-01
        1   -1    0    0  501    0  0.00000000000E+00  0.00000000000E+00  0.10956186019E+04  0.10956186020E+04  0.50400001928E-02 0.  1.
       -1   -1    0    0    0  501  0.00000000000E+00  0.00000000000E+00 -0.12139221745E+04  0.12139221745E+04  0.50400001928E-02 0. -1.
    10030    2    1    2    0    0  0.00000000000E+00  0.00000000000E+00 -0.11830357257E+03  0.23095407765E+04  0.23065088040E+04 0.  0.
        2    1    3    3  502    0  0.15289261117E+03  0.10718158310E+04  0.33864917847E+03  0.11343934909E+04  0.25500000920E-02 0.  1.
       -2    1    3    3    0  502 -0.15289261117E+03 -0.10718158310E+04 -0.45695275104E+03  0.11751472856E+04  0.25500000920E-02 0. -1.
</event>
<event>
 5   0  0.4602447E-05  0.2351264E+04  0.7818609E-02  0.8457978E-01
        2   -1    0    0  501    0  0.00000000000E+00  0.00000000000E+00  0.30864623635E+04  0.30864623635E+04  0.25500000920E-02 0.  1.
       -2   -1    0    0    0  501  0.00000000000E+00  0.00000000000E+00 -0.44779756167E+03  0.44779756167E+03  0.25500000920E-02 0. -1.
    10030    2    1    2    0    0  0.00000000000E+00  0.00000000000E+00  0.26386648018E+04  0.35342599252E+04  0.23512637628E+04 0.  0.
        3    1    3    3  502    0 -0.18474560274E+03  0.74439560031E+03 -0.19935957514E+02  0.76723738184E+03  0.10100000352E+00 0. -1.
       -3    1    3    3    0  502  0.18474560274E+03 -0.74439560031E+03  0.26586007594E+04  0.27670225433E+04  0.10100000352E+00 0.  1.
</event>
<event>
 5   0  0.2043885E-05  0.2457727E+04  0.7818609E-02  0.8418202E-01
        1   -1    0    0  501    0  0.00000000000E+00  0.00000000000E+00  0.11566395404E+04  0.11566395404E+04  0.50400001928E-02 0.  1.
       -1   -1    0    0    0  501  0.00000000000E+00  0.00000000000E+00 -0.13055974692E+04  0.13055974692E+04  0.50400001928E-02 0. -1.
    10030    2    1    2    0    0  0.00000000000E+00  0.00000000000E+00 -0.14895792879E+03  0.24622370096E+04  0.24577271262E+04 0.  0.
        5    1    3    3  502    0  0.73811102700E+03 -0.41598826447E+03  0.81722701990E+03  0.11771729764E+04  0.46999998093E+01 0.  1.
       -5    1    3    3    0  502 -0.73811102700E+03  0.41598826447E+03 -0.96618494869E+03  0.12850640332E+04  0.46999998093E+01 0. -1.
</event>
<event>
 5   0  0.1968318E-05  0.2283483E+04  0.7818609E-02  0.8484462E-01
        1   -1    0    0  501    0  0.00000000000E+00  0.00000000000E+00  0.14422445045E+04  0.14422445045E+04  0.50400001928E-02 0. -1.
       -1   -1    0    0    0  501  0.00000000000E+00  0.00000000000E+00 -0.90385045701E+03  0.90385045702E+03  0.50400001928E-02 0.  1.
    10030    2    1    2    0    0  0.00000000000E+00  0.00000000000E+00  0.53839404751E+03  0.23460949615E+04  0.22834827388E+04 0.  0.
        3    1    3    3  502    0 -0.35143737715E+03 -0.91248423877E+03 -0.33640355236E+03  0.10340711176E+04  0.10100000352E+00 0. -1.
       -3    1    3    3    0  502  0.35143737715E+03  0.91248423877E+03  0.87479759987E+03  0.13120238439E+04  0.10100000352E+00 0.  1.
</event>
<event>
 5   0  0.2031860E-05  0.2267558E+04  0.7818609E-02  0.8490823E-01
       -1   -1    0    0    0  501  0.00000000000E+00  0.00000000000E+00  0.56397297300E+03  0.56397297302E+03  0.50400001928E-02 0.  1.
        1   -1    0    0  501    0  0.00000000000E+00  0.00000000000E+00 -0.22792854246E+04  0.22792854246E+04  0.50400001928E-02 0. -1.
    10030    2    1    2    0    0  0.00000000000E+00  0.00000000000E+00 -0.17153124516E+04  0.28432583977E+04  0.22675584908E+04 0.  0.
        4    1    3    3  502    0  0.18749577492E+03 -0.74205324361E+03  0.19116179109E+03  0.78888663650E+03  0.12699999809E+01 0.  1.
       -4    1    3    3    0  502 -0.18749577492E+03  0.74205324361E+03 -0.19064742427E+04  0.20543717612E+04  0.12699999809E+01 0. -1.
</event>
<event>
 5   0  0.4505107E-05  0.2284874E+04  0.7818609E-02  0.8483909E-01
        2   -1    0    0  501    0  0.00000000000E+00  0.00000000000E+00  0.24495423692E+04  0.24495423692E+04  0.25500000920E-02 0.  1.
       -2   -1    0    0    0  501  0.00000000000E+00  0.00000000000E+00 -0.53281885035E+03  0.53281885036E+03  0.25500000920E-02 0. -1.
    10030    2    1    2    0    0  0.00000000000E+00  0.00000000000E+00  0.19167235188E+04  0.29823612195E+04  0.22848740438E+04 0.  0.
        4    1    3    3  502    0 -0.92909215335E+03 -0.18633999797E+02  0.90974294752E+02  0.93372233055E+03  0.12699999809E+01 0. -1.
       -4    1    3    3    0  502  0.92909215335E+03  0.18633999797E+02  0.18257492241E+04  0.20486388890E+04  0.12699999809E+01 0.  1.
</event>
<event>
 5   0  0.2031860E-05  0.2249336E+04  0.7818609E-02  0.8498170E-01
        1   -1    0    0  501    0  0.00000000000E+00  0.00000000000E+00  0.20245180377E+04  0.20245180378E+04  0.50400001928E-02 0.  1.
       -1   -1    0    0    0  501  0.00000000000E+00  0.00000000000E+00 -0.62477976246E+03  0.62477976248E+03  0.50400001928E-02 0. -1.
    10030    2    1    2    0    0  0.00000000000E+00  0.00000000000E+00  0.13997382753E+04  0.26492978002E+04  0.22493358120E+04 0.  0.
        4    1    3    3  502    0 -0.10994222271E+04  0.12313824647E+03  0.46142657358E+03  0.11986694110E+04  0.12699999809E+01 0. -1.
       -4    1    3    3    0  502  0.10994222271E+04 -0.12313824647E+03  0.93831170170E+03  0.14506283892E+04  0.12699999809E+01 0.  1.
</event>
<event>
 5   0  0.4436695E-05  0.2311864E+04  0.7818609E-02  0.8473258E-01
        2   -1    0    0  501    0  0.00000000000E+00  0.00000000000E+00  0.11050904891E+04  0.11050904891E+04  0.25500000920E-02 0.  1.
       -2   -1    0    0    0  501  0.00000000000E+00  0.00000000000E+00 -0.12091122800E+04  0.12091122800E+04  0.25500000920E-02 0. -1.
    10030    2    1    2    0    0  0.00000000000E+00  0.00000000000E+00 -0.10402179090E+03  0.23142027691E+04  0.23118637338E+04 0.  0.
        5    1    3    3  502    0  0.42075074913E+03  0.62850497312E+03  0.82300547788E+03  0.11177700125E+04  0.46999998093E+01 0.  1.
       -5    1    3    3    0  502 -0.42075074913E+03 -0.62850497312E+03 -0.92702726877E+03  0.11964327567E+04  0.46999998093E+01 0. -1.
</event>
<event>
 5   0  0.1968318E-05  0.2272823E+04  0.7818609E-02  0.8488714E-01
        1   -1    0    0  501    0  0.00000000000E+00  0.00000000000E+00  0.11834380724E+04  0.11834380724E+04  0.50400001928E-02 0.  1.
       -1   -1    0    0    0  501  0.00000000000E+00  0.00000000000E+00 -0.10912540598E+04  0.10912540598E+04  0.50400001928E-02 0. -1.
    10030    2    1    2    0    0  0.00000000000E+00  0.00000000000E+00  0.92184012644E+02  0.22746921323E+04  0.22728234433E+04 0.  0.
        3    1    3    3  502    0 -0.48583387929E+03 -0.10195463555E+04 -0.80195184141E+02  0.11322281604E+04  0.10100000352E+00 0.  1.
       -3    1    3    3    0  502  0.48583387929E+03  0.10195463555E+04  0.17237919678E+03  0.11424639719E+04  0.10100000352E+00 0. -1.
</event>
<event>
 5   0  0.4798609E-05  0.2306874E+04  0.7818609E-02  0.8475216E-01
       -2   -1    0    0    0  501  0.00000000000E+00  0.00000000000E+00  0.87427078296E+03  0.87427078296E+03  0.25500000920E-02 0.  1.
        2   -1    0    0  501    0  0.00000000000E+00  0.00000000000E+00 -0.15217443983E+04  0.15217443983E+04  0.25500000920E-02 0. -1.
    10030    2    1    2    0    0  0.00000000000E+00  0.00000000000E+00 -0.64747361533E+03  0.23960151812E+04  0.23068737864E+04 0.  0.
        2    1    3    3  502    0  0.73386969313E+03 -0.58795136963E+02  0.59848987158E+03  0.94879487827E+03  0.25500000920E-02 0.  1.
       -2    1    3    3    0  502 -0.73386969313E+03  0.58795136963E+02 -0.12459634869E+04  0.14472203030E+04  0.25500000920E-02 0. -1.
</event>
<event>
 5   0  0.4505107E-05  0.2326035E+04  0.7818609E-02  0.8467726E-01
       -2   -1    0    0    0  501  0.00000000000E+00  0.00000000000E+00  0.93297786193E+03  0.93297786193E+03  0.25500000920E-02 0.  1.
        2   -1    0    0  501    0  0.00000000000E+00  0.00000000000E+00 -0.14497763389E+04  0.14497763389E+04  0.25500000920E-02 0. -1.
    10030    2    1    2    0    0  0.00000000000E+00  0.00000000000E+00 -0.51679847698E+03  0.23827542008E+04  0.23260345904E+04 0.  0.
        4    1    3    3  502    0 -0.85174036043E+03 -0.77292152843E+03 -0.43505224664E+03  0.12296915877E+04  0.12699999809E+01 0.  1.
       -4    1    3    3    0  502  0.85174036043E+03  0.77292152843E+03 -0.81746230336E+02  0.11530626131E+04  0.12699999809E+01 0. -1.
</event>
<event>
 5   0  0.4798609E-05  0.2314647E+04  0.7818609E-02  0.8472168E-01
       -2   -1    0    0    0  501  0.00000000000E+00  0.00000000000E+00  0.52991399854E+03  0.52991399854E+03  0.25500000920E-02 0. -1.
        2   -1    0    0  501    0  0.00000000000E+00  0.00000000000E+00 -0.25275751803E+04  0.25275751803E+04  0.25500000920E-02 0.  1.
    10030    2    1    2    0    0  0.00000000000E+00  0.00000000000E+00 -0.19976611818E+04  0.30574891789E+04  0.23146468158E+04 0.  0.
        2    1    3    3  502    0 -0.64474505493E+03  0.27684698330E+03 -0.22145588785E+04  0.23230607965E+04  0.25500000920E-02 0.  1.
       -2    1    3    3    0  502  0.64474505493E+03 -0.27684698330E+03  0.21689769667E+03  0.73442838238E+03  0.25500000920E-02 0. -1.
</event>
<event>
 5   0  0.2031860E-05  0.2256856E+04  0.7818609E-02  0.8495129E-01
        1   -1    0    0  501    0  0.00000000000E+00  0.00000000000E+00  0.13989882484E+04  0.13989882484E+04  0.50400001928E-02 0. -1.
       -1   -1    0    0    0  501  0.00000000000E+00  0.00000000000E+00 -0.91019342761E+03  0.91019342762E+03  0.50400001928E-02 0.  1.
    10030    2    1    2    0    0  0.00000000000E+00  0.00000000000E+00  0.48879482082E+03  0.23091816761E+04  0.22568561399E+04 0.  0.
        4    1    3    3  502    0 -0.61159760364E+03  0.17561174592E+02 -0.72573550361E+03  0.94923846200E+03  0.12699999809E+01 0.  1.
       -4    1    3    3    0  502  0.61159760364E+03 -0.17561174592E+02  0.12145303244E+04  0.13599432141E+04  0.12699999809E+01 0. -1.
</event>
<event>
 5   0  0.4436695E-05  0.2294440E+04  0.7818609E-02  0.8480117E-01
        2   -1    0    0  501    0  0.00000000000E+00  0.00000000000E+00  0.25373066838E+04  0.25373066838E+04  0.25500000920E-02 0.  1.
       -2   -1    0    0    0  501  0.00000000000E+00  0.00000000000E+00 -0.51870499338E+03  0.51870499339E+03  0.25500000920E-02 0. -1.
    10030    2    1    2    0    0  0.00000000000E+00  0.00000000000E+00  0.20186016904E+04  0.30560116772E+04  0.22944399287E+04 0.  0.
        5    1    3    3  502    0 -0.65340829285E+03 -0.73873930735E+03  0.22877563804E+03  0.10124418719E+04  0.46999998093E+01 0. -1.
       -5    1    3    3    0  502  0.65340829285E+03  0.73873930735E+03  0.17898260524E+04  0.20435698053E+04  0.46999998093E+01 0.  1.
</event>
<event>
 5   0  0.2042951E-05  0.2302039E+04  0.7818609E-02  0.8477118E-01
        1   -1    0    0  501    0  0.00000000000E+00  0.00000000000E+00  0.16855172294E+04  0.16855172294E+04  0.50400001928E-02 0. -1.
       -1   -1    0    0    0  501  0.00000000000E+00  0.00000000000E+00 -0.78601709673E+03  0.78601709675E+03  0.50400001928E-02 0.  1.
    10030    2    1    2    0    0  0.00000000000E+00  0.00000000000E+00  0.89950013268E+03  0.24715343262E+04  0.23020385394E+04 0.  0.
        2    1    3    3  502    0  0.36696294304E+03  0.10847997411E+04  0.32550067251E+03  0.11905473395E+04  0.25500000920E-02 0.  1.
       -2    1    3    3    0  502 -0.36696294304E+03 -0.10847997411E+04  0.57399946018E+03  0.12809869867E+04  0.25500000920E-02 0. -1.
</event>
<event>
 5   0  0.2085063E-05  0.2280861E+04  0.7818609E-02  0.8485506E-01
        1   -1    0    0  501    0  0.00000000000E+00  0.00000000000E+00  0.14755263113E+04  0.14755263113E+04  0.50400001928E-02 0. -1.
       -1   -1    0    0    0  501  0.00000000000E+00  0.00000000000E+00 -0.88143553459E+03  0.88143553461E+03  0.50400001928E-02 0.  1.
    10030    2    1    2    0    0  0.00000000000E+00  0.00000000000E+00  0.59409077674E+03  0.23569618460E+04  0.22808606473E+04 0.  0.
        1    1    3    3  502    0 -0.61828755181E+02 -0.54224949098E+03 -0.73772623100E+03  0.91765859521E+03  0.50400001928E-02 0.  1.
       -1    1    3    3    0  502  0.61828755181E+02  0.54224949098E+03  0.13318170077E+04  0.14393032507E+04  0.50400001928E-02 0. -1.
</event>
<event>
 5   0  0.2043885E-05  0.2263984E+04  0.7818609E-02  0.8492259E-01
       -1   -1    0    0    0  501  0.00000000000E+00  0.00000000000E+00  0.57239310258E+03  0.57239310260E+03  0.50400001928E-02 0.  1.
        1   -1    0    0  501    0  0.00000000000E+00  0.00000000000E+00 -0.22386809401E+04  0.22386809401E+04  0.50400001928E-02 0. -1.
    10030    2    1    2    0    0  0.00000000000E+00  0.00000000000E+00 -0.16662878375E+04  0.28110740427E+04  0.22639836828E+04 0.  0.
        5    1    3    3  502    0  0.26398408646E+03  0.15148287909E+03 -0.21869112647E+04  0.22079940286E+04  0.46999998093E+01 0. -1.
       -5    1    3    3    0  502 -0.26398408646E+03 -0.15148287909E+03  0.52062342716E+03  0.60308001415E+03  0.46999998093E+01 0.  1.
</event>
<event>
 5   0  0.2031860E-05  0.2316297E+04  0.7818609E-02  0.8471523E-01
        1   -1    0    0  501    0  0.00000000000E+00  0.00000000000E+00  0.76529075031E+03  0.76529075032E+03  0.50400001928E-02 0. -1.
       -1   -1    0    0    0  501  0.00000000000E+00  0.00000000000E+00 -0.17526781821E+04  0.17526781822E+04  0.50400001928E-02 0.  1.
    10030    2    1    2    0    0  0.00000000000E+00  0.00000000000E+00 -0.98738743184E+03  0.25179689325E+04  0.23162973912E+04 0.  0.
        4    1    3    3  502    0  0.47001657655E+03  0.92504840010E+02 -0.16399349739E+04  0.17084674592E+04  0.12699999809E+01 0.  1.
       -4    1    3    3    0  502 -0.47001657655E+03 -0.92504840010E+02  0.65254754206E+03  0.80950147326E+03  0.12699999809E+01 0. -1.
</event>
<event>
 5   0  0.4605516E-05  0.2286036E+04  0.7818609E-02  0.8483447E-01
       -2   -1    0    0    0  501  0.00000000000E+00  0.00000000000E+00  0.10387634946E+04  0.10387634946E+04  0.25500000920E-02 0. -1.
        2   -1    0    0  501    0  0.00000000000E+00  0.00000000000E+00 -0.12577358236E+04  0.12577358236E+04  0.25500000920E-02 0.  1.
    10030    2    1    2    0    0  0.00000000000E+00  0.00000000000E+00 -0.21897232903E+03  0.22964993182E+04  0.22860359222E+04 0.  0.
        1    1    3    3  502    0 -0.66044608676E+03  0.19611401670E+03  0.80674118934E+03  0.10608869344E+04  0.50400001928E-02 0. -1.
       -1    1    3    3    0  502  0.66044608676E+03 -0.19611401670E+03 -0.10257135184E+04  0.12356123837E+04  0.50400001928E-02 0.  1.
</event>
<event>
 5   0  0.2085063E-05  0.2307083E+04  0.7818609E-02  0.8475134E-01
        1   -1    0    0  501    0  0.00000000000E+00  0.00000000000E+00  0.13977670901E+04  0.13977670901E+04  0.50400001928E-02 0.  1.
       -1   -1    0    0    0  501  0.00000000000E+00  0.00000000000E+00 -0.95198809940E+03  0.95198809941E+03  0.50400001928E-02 0. -1.
    10030    2    1    2    0    0  0.00000000000E+00  0.00000000000E+00  0.44577899071E+03  0.23497551895E+04  0.23070826908E+04 0.  0.
        1    1    3    3  502    0  0.84728152197E+03 -0.57320298586E+03 -0.32008462461E+03  0.10718683722E+04  0.50400001928E-02 0. -1.
       -1    1    3    3    0  502 -0.84728152197E+03  0.57320298586E+03  0.76586361532E+03  0.12778868173E+04  0.50400001928E-02 0.  1.
</event>
<event>
 5   0  0.4602447E-05  0.2284565E+04  0.7818609E-02  0.8484032E-01
       -2   -1    0    0    0  501  0.00000000000E+00  0.00000000000E+00  0.73367945696E+03  0.73367945696E+03  0.25500000920E-02 0. -1.
        2   -1    0    0  501    0  0.00000000000E+00  0.00000000000E+00 -0.17784457841E+04  0.17784457841E+04  0.25500000920E-02 0.  1.
    10030    2    1    2    0    0  0.00000000000E+00  0.00000000000E+00 -0.10447663271E+04  0.25121252410E+04  0.22845648488E+04 0.  0.
        3    1    3    3  502    0 -0.27265767704E+03 -0.35338815546E+03  0.63381857021E+03  0.77521054393E+03  0.10100000352E+00 0. -1.
       -3    1    3    3    0  502  0.27265767704E+03  0.35338815546E+03 -0.16785848973E+04  0.17369146971E+04  0.10100000352E+00 0.  1.
</event>
<event>
 5   0  0.4605516E-05  0.2296660E+04  0.7818609E-02  0.8479239E-01
        2   -1    0    0  501    0  0.00000000000E+00  0.00000000000E+00  0.19224309443E+04  0.19224309443E+04  0.25500000920E-02 0.  1.
       -2   -1    0    0    0  501  0.00000000000E+00  0.00000000000E+00 -0.68593449170E+03  0.68593449170E+03  0.25500000920E-02 0. -1.
    10030    2    1    2    0    0  0.00000000000E+00  0.00000000000E+00  0.12364964526E+04  0.26083654360E+04  0.22966599162E+04 0.  0.
        1    1    3    3  502    0 -0.69425648991E+03 -0.29596351095E+03  0.16012050931E+04  0.17701537289E+04  0.50400001928E-02 0.  1.
       -1    1    3    3    0  502  0.69425648991E+03  0.29596351095E+03 -0.36470864047E+03  0.83821170718E+03  0.50400001928E-02 0. -1.
</event>
<event>
 5   0  0.4605516E-05  0.2302437E+04  0.7818609E-02  0.8476961E-01
       -2   -1    0    0    0  501  0.00000000000E+00  0.00000000000E+00  0.14614769072E+04  0.14614769072E+04  0.25500000920E-02 0.  1.
        2   -1    0    0  501    0  0.00000000000E+00  0.00000000000E+00 -0.90682477327E+03  0.90682477328E+03  0.25500000920E-02 0. -1.
    10030    2    1    2    0    0  0.00000000000E+00  0.00000000000E+00  0.55465213393E+03  0.23683016805E+04  0.23024365051E+04 0.  0.
        1    1    3    3  502    0 -0.56701613530E+03 -0.68335903653E+03 -0.47631113254E+03  0.10076503191E+04  0.50400001928E-02 0. -1.
       -1    1    3    3    0  502  0.56701613530E+03  0.68335903653E+03  0.10309632665E+04  0.13606513614E+04  0.50400001928E-02 0.  1.
</event>
<event>
 5   0  0.4436695E-05  0.2350869E+04  0.7818609E-02  0.8458130E-01
        2   -1    0    0  501    0  0.00000000000E+00  0.00000000000E+00  0.15860964869E+04  0.15860964869E+04  0.25500000920E-02 0. -1.
       -2   -1    0    0    0  501  0.00000000000E+00  0.00000000000E+00 -0.87109825035E+03  0.87109825035E+03  0.25500000920E-02 0.  1.
    10030    2    1    2    0    0  0.00000000000E+00  0.00000000000E+00  0.71499823657E+03  0.24571947373E+04  0.23508686689E+04 0.  0.
        5    1    3    3  502    0  0.10209048108E+04 -0.57138333218E+03  0.47620614565E+03  0.12631389188E+04  0.46999998093E+01 0. -1.
       -5    1    3    3    0  502 -0.10209048108E+04  0.57138333218E+03  0.23879209092E+03  0.11940558185E+04  0.46999998093E+01 0.  1.
</event>
<event>
 5   0  0.2043885E-05  0.1872089E+04  0.7818609E-02  0.8668876E-01
       -1   -1    0    0    0  501  0.00000000000E+00  0.00000000000E+00  0.72261331655E+03  0.72261331657E+03  0.50400001928E-02 0.  1.
        1   -1    0    0  501    0  0.00000000000E+00  0.00000000000E+00 -0.12125147879E+04  0.12125147879E+04  0.50400001928E-02 0. -1.
    10030    2    1    2    0    0  0.00000000000E+00  0.00000000000E+00 -0.48990147137E+03  0.19351281045E+04  0.18720890281E+04 0.  0.
        5    1    3    3  502    0  0.74132124799E+03 -0.54917479775E+03 -0.81489487623E+02  0.92618182761E+03  0.46999998093E+01 0. -1.
       -5    1    3    3    0  502 -0.74132124799E+03  0.54917479775E+03 -0.40841198375E+03  0.10089462769E+04  0.46999998093E+01 0.  1.
</event>
<event>
 5   0  0.4602447E-05  0.2326978E+04  0.7818609E-02  0.8467360E-01
       -2   -1    0    0    0  501  0.00000000000E+00  0.00000000000E+00  0.24112493967E+04  0.24112493967E+04  0.25500000920E-02 0. -1.
        2   -1    0    0  501    0  0.00000000000E+00  0.00000000000E+00 -0.56141274024E+03  0.56141274024E+03  0.25500000920E-02 0.  1.
    10030    2    1    2    0    0  0.00000000000E+00  0.00000000000E+00  0.18498366565E+04  0.29726621369E+04  0.23269775514E+04 0.  0.
        3    1    3    3  502    0  0.16085028603E+03  0.10588684490E+02 -0.54707825028E+03  0.57033284746E+03  0.10100000352E+00 0.  1.
       -3    1    3    3    0  502 -0.16085028603E+03 -0.10588684490E+02  0.23969149067E+04  0.24023292895E+04  0.10100000352E+00 0. -1.
</event>
<event>
 5   0  0.2042951E-05  0.2303036E+04  0.7818609E-02  0.8476725E-01
       -1   -1    0    0    0  501  0.00000000000E+00  0.00000000000E+00  0.95353522439E+03  0.95353522440E+03  0.50400001928E-02 0.  1.
        1   -1    0    0  501    0  0.00000000000E+00  0.00000000000E+00 -0.13906082006E+04  0.13906082006E+04  0.50400001928E-02 0. -1.
    10030    2    1    2    0    0  0.00000000000E+00  0.00000000000E+00 -0.43707297619E+03  0.23441434250E+04  0.23030361722E+04 0.  0.
        2    1    3    3  502    0  0.67370747315E+01  0.10817804784E+04  0.18309434418E+03  0.10971863700E+04  0.25500000920E-02 0.  1.
       -2    1    3    3    0  502 -0.67370747315E+01 -0.10817804784E+04 -0.62016732036E+03  0.12469570550E+04  0.25500000920E-02 0. -1.
</event>
<event>
 5   0  0.2085063E-05  0.2283284E+04  0.7818609E-02  0.8484541E-01
       -1   -1    0    0    0  501  0.00000000000E+00  0.00000000000E+00  0.75326633513E+03  0.75326633515E+03  0.50400001928E-02 0.  1.
        1   -1    0    0  501    0  0.00000000000E+00  0.00000000000E+00 -0.17302605171E+04  0.17302605171E+04  0.50400001928E-02 0. -1.
    10030    2    1    2    0    0  0.00000000000E+00  0.00000000000E+00 -0.97699418194E+03  0.24835268522E+04  0.22832844751E+04 0.  0.
        1    1    3    3  502    0 -0.48311805639E+03  0.62053709425E+03 -0.13886480227E+04  0.15958736393E+04  0.50400001928E-02 0. -1.
       -1    1    3    3    0  502  0.48311805639E+03 -0.62053709425E+03  0.41165384074E+03  0.88765321290E+03  0.50400001928E-02 0.  1.
</event>
<event>
 5   0  0.1968318E-05  0.2329546E+04  0.7818609E-02  0.8466362E-01
       -1   -1    0    0    0  501  0.00000000000E+00  0.00000000000E+00  0.11164667230E+04  0.11164667230E+04  0.50400001928E-02 0. -1.
        1   -1    0    0  501    0  0.00000000000E+00  0.00000000000E+00 -0.12151696658E+04  0.12151696658E+04  0.50400001928E-02 0.  1.
    10030    2    1    2    0    0  0.00000000000E+00  0.00000000000E+00 -0.98702942813E+02  0.23316363887E+04  0.23295463031E+04 0.  0.
        3    1    3    3  502    0 -0.79155224530E+03 -0.84097804085E+03 -0.20080630998E+03  0.11722295878E+04  0.10100000352E+00 0.  1.
       -3    1    3    3    0  502  0.79155224530E+03  0.84097804085E+03  0.10210336717E+03  0.11594068009E+04  0.10100000352E+00 0. -1.
</event>
<event>
 5   0  0.1968318E-05  0.2322680E+04  0.7818609E-02  0.8469032E-01
        1   -1    0    0  501    0  0.00000000000E+00  0.00000000000E+00  0.14939627358E+04  0.14939627359E+04  0.50400001928E-02 0. -1.
       -1   -1    0    0    0  501  0.00000000000E+00  0.00000000000E+00 -0.90277389823E+03  0.90277389824E+03  0.50400001928E-02 0.  1.
    10030    2    1    2    0    0  0.00000000000E+00  0.00000000000E+00  0.59118883762E+03  0.23967366341E+04  0.23226799718E+04 0.  0.
        3    1    3    3  502    0  0.54238626183E+03 -0.10198960884E+04  0.17202800738E+03  0.11678889218E+04  0.10100000352E+00 0. -1.
       -3    1    3    3    0  502 -0.54238626183E+03  0.10198960884E+04  0.41916083024E+03  0.12288477123E+04  0.10100000352E+00 0.  1.
</event>
<event>
 5   0  0.4798609E-05  0.2275503E+04  0.7818609E-02  0.8487643E-01
        2   -1    0    0  501    0  0.00000000000E+00  0.00000000000E+00  0.19998339776E+04  0.19998339776E+04  0.25500000920E-02 0. -1.
       -2   -1    0    0    0  501  0.00000000000E+00  0.00000000000E+00 -0.64729290943E+03  0.64729290943E+03  0.25500000920E-02 0.  1.
    10030    2    1    2    0    0  0.00000000000E+00  0.00000000000E+00  0.13525410682E+04  0.26471268871E+04  0.22755028928E+04 0.  0.
        2    1    3    3  502    0  0.51150642676E+03  0.70131797981E+03  0.15319143931E+04  0.17607519534E+04  0.25500000920E-02 0. -1.
       -2    1    3    3    0  502 -0.51150642676E+03 -0.70131797981E+03 -0.17937332491E+03  0.88637493371E+03  0.25500000920E-02 0.  1.
</event>
<event>
 5   0  0.2043885E-05  0.2311673E+04  0.7818609E-02  0.8473333E-01
        1   -1    0    0  501    0  0.00000000000E+00  0.00000000000E+00  0.52827359066E+03  0.52827359068E+03  0.50400001928E-02 0. -1.
       -1   -1    0    0    0  501  0.00000000000E+00  0.00000000000E+00 -0.25289138119E+04  0.25289138119E+04  0.50400001928E-02 0.  1.
    10030    2    1    2    0    0  0.00000000000E+00  0.00000000000E+00 -0.20006402213E+04  0.30571874026E+04  0.23116733160E+04 0.  0.
        5    1    3    3  502    0  0.66198814884E+03  0.89649501068E+03 -0.59483927650E+03  0.12632448172E+04  0.46999998093E+01 0.  1.
       -5    1    3    3    0  502 -0.66198814884E+03 -0.89649501068E+03 -0.14058009448E+04  0.17939425854E+04  0.46999998093E+01 0. -1.
</event>
<event>
 5   0  0.4436695E-05  0.2287581E+04  0.7818609E-02  0.8482834E-01
       -2   -1    0    0    0  501  0.00000000000E+00  0.00000000000E+00  0.14254716491E+04  0.14254716491E+04  0.25500000920E-02 0.  1.
        2   -1    0    0  501    0  0.00000000000E+00  0.00000000000E+00 -0.91777105951E+03  0.91777105951E+03  0.25500000920E-02 0. -1.
    10030    2    1    2    0    0  0.00000000000E+00  0.00000000000E+00  0.50770058957E+03  0.23432427086E+04  0.22875809281E+04 0.  0.
        5    1    3    3  502    0 -0.99147993341E+03 -0.56026373688E+03  0.36277019946E+03  0.11952205741E+04  0.46999998093E+01 0. -1.
       -5    1    3    3    0  502  0.99147993341E+03  0.56026373688E+03  0.14493039010E+03  0.11480221345E+04  0.46999998093E+01 0.  1.
</event>
<event>
 5   0  0.2042951E-05  0.2303548E+04  0.7818609E-02  0.8476524E-01
        1   -1    0    0  501    0  0.00000000000E+00  0.00000000000E+00  0.16837208839E+04  0.16837208840E+04  0.50400001928E-02 0. -1.
       -1   -1    0    0    0  501  0.00000000000E+00  0.00000000000E+00 -0.78788769820E+03  0.78788769822E+03  0.50400001928E-02 0.  1.
    10030    2    1    2    0    0  0.00000000000E+00  0.00000000000E+00  0.89583318575E+03  0.24716085822E+04  0.23035476741E+04 0.  0.
        2    1    3    3  502    0  0.10358971484E+03  0.88116432786E+02  0.16750758003E+04  0.16805874781E+04  0.25500000920E-02 0. -1.
       -2    1    3    3    0  502 -0.10358971484E+03 -0.88116432786E+02 -0.77924261456E+03  0.79102110408E+03  0.25500000920E-02 0.  1.
</event>
<event>
 5   0  0.1604500E-05  0.2223079E+04  0.7818609E-02  0.8508883E-01
       -4   -1    0    0    0  501  0.00000000000E+00  0.00000000000E+00  0.87777712863E+03  0.87777804737E+03  0.12699999809E+01 0.  1.
        4   -1    0    0  501    0  0.00000000000E+00  0.00000000000E+00 -0.14075530006E+04  0.14075535735E+04  0.12699999809E+01 0. -1.
    10030    2    1    2    0    0  0.00000000000E+00  0.00000000000E+00 -0.52977587193E+03  0.22853316209E+04  0.22230785283E+04 0.  0.
        1    1    3    3  502    0 -0.94961243265E+03 -0.67568441726E+02  0.32492992421E+03  0.10059367387E+04  0.50400001928E-02 0. -1.
       -1    1    3    3    0  502  0.94961243265E+03  0.67568441726E+02 -0.85470579614E+03  0.12793948822E+04  0.50400001928E-02 0.  1.
</event>
<event>
 5   0  0.2085063E-05  0.2309022E+04  0.7818609E-02  0.8474372E-01
       -1   -1    0    0    0  501  0.00000000000E+00  0.00000000000E+00  0.58586524856E+03  0.58586524858E+03  0.50400001928E-02 0.  1.
        1   -1    0    0  501    0  0.00000000000E+00  0.00000000000E+00 -0.22750895972E+04  0.22750895972E+04  0.50400001928E-02 0. -1.
    10030    2    1    2    0    0  0.00000000000E+00  0.00000000000E+00 -0.16892243487E+04  0.28609548458E+04  0.23090222454E+04 0.  0.
        1    1    3    3  502    0 -0.11280318033E+04 -0.37556428244E+02 -0.11456479886E+04  0.16082212374E+04  0.50400001928E-02 0.  1.
       -1    1    3    3    0  502  0.11280318033E+04  0.37556428244E+02 -0.54357636005E+03  0.12527336084E+04  0.50400001928E-02 0. -1.
</event>
<event>
 5   0  0.2042951E-05  0.2294291E+04  0.7818609E-02  0.8480175E-01
        1   -1    0    0  501    0  0.00000000000E+00  0.00000000000E+00  0.68668744165E+03  0.68668744167E+03  0.50400001928E-02 0. -1.
       -1   -1    0    0    0  501  0.00000000000E+00  0.00000000000E+00 -0.19163640455E+04  0.19163640455E+04  0.50400001928E-02 0.  1.
    10030    2    1    2    0    0  0.00000000000E+00  0.00000000000E+00 -0.12296766038E+04  0.26030514872E+04  0.22942912838E+04 0.  0.
        2    1    3    3  502    0  0.83446341226E+03 -0.11466449832E+03 -0.14984011140E+04  0.17189191464E+04  0.25500000920E-02 0.  1.
       -2    1    3    3    0  502 -0.83446341226E+03  0.11466449832E+03  0.26872451015E+03  0.88413234073E+03  0.25500000920E-02 0. -1.
</event>
<event>
 5   0  0.4605516E-05  0.2274711E+04  0.7818609E-02  0.8487960E-01
        2   -1    0    0  501    0  0.00000000000E+00  0.00000000000E+00  0.17734440898E+04  0.17734440898E+04  0.25500000920E-02 0. -1.
       -2   -1    0    0    0  501  0.00000000000E+00  0.00000000000E+00 -0.72941522405E+03  0.72941522405E+03  0.25500000920E-02 0.  1.
    10030    2    1    2    0    0  0.00000000000E+00  0.00000000000E+00  0.10440288657E+04  0.25028593138E+04  0.22747106349E+04 0.  0.
        1    1    3    3  502    0 -0.98923231093E+03  0.30133377643E+03  0.10323765925E+01  0.10341100887E+04  0.50400001928E-02 0.  1.
       -1    1    3    3    0  502  0.98923231093E+03 -0.30133377643E+03  0.10429964891E+04  0.14687492251E+04  0.50400001928E-02 0. -1.
</event>
<event>
 5   0  0.4605516E-05  0.2327589E+04  0.7818609E-02  0.8467122E-01
        2   -1    0    0  501    0  0.00000000000E+00  0.00000000000E+00  0.14259412728E+04  0.14259412728E+04  0.25500000920E-02 0. -1.
       -2   -1    0    0    0  501  0.00000000000E+00  0.00000000000E+00 -0.94984089026E+03  0.94984089026E+03  0.25500000920E-02 0.  1.
    10030    2    1    2    0    0  0.00000000000E+00  0.00000000000E+00  0.47610038254E+03  0.23757821631E+04  0.23275887334E+04 0.  0.
        1    1    3    3  502    0 -0.10641504285E+04  0.19606962850E+03 -0.19925728728E+03  0.11002558340E+04  0.50400001928E-02 0. -1.
       -1    1    3    3    0  502  0.10641504285E+04 -0.19606962850E+03  0.67535766982E+03  0.12755263290E+04  0.50400001928E-02 0.  1.
</event>
<event>
 5   0  0.1604500E-05  0.2288006E+04  0.7818609E-02  0.8482665E-01
       -3   -1    0    0    0  501  0.00000000000E+00  0.00000000000E+00  0.14693979355E+04  0.14693979390E+04  0.10100000352E+00 0. -1.
        3   -1    0    0  501    0  0.00000000000E+00  0.00000000000E+00 -0.89066642930E+03  0.89066643502E+03  0.10100000352E+00 0.  1.
    10030    2    1    2    0    0  0.00000000000E+00  0.00000000000E+00  0.57873150623E+03  0.23600643740E+04  0.22880064889E+04 0.  0.
        3    1    3    3  502    0 -0.73359219293E+03 -0.84216587774E+03  0.33891297974E+02  0.11173851178E+04  0.10100000352E+00 0.  1.
       -3    1    3    3    0  502  0.73359219293E+03  0.84216587774E+03  0.54484020826E+03  0.12426792562E+04  0.10100000352E+00 0. -1.
</event>
<event>
 5   0  0.2031860E-05  0.2295262E+04  0.7818609E-02  0.8479792E-01
        1   -1    0    0  501    0  0.00000000000E+00  0.00000000000E+00  0.15799509494E+04  0.15799509494E+04  0.50400001928E-02 0.  1.
       -1   -1    0    0    0  501  0.00000000000E+00  0.00000000000E+00 -0.83360588535E+03  0.83360588537E+03  0.50400001928E-02 0. -1.
    10030    2    1    2    0    0  0.00000000000E+00  0.00000000000E+00  0.74634506400E+03  0.24135568347E+04  0.22952615624E+04 0.  0.
        4    1    3    3  502    0 -0.31794290007E+03  0.10824833752E+04  0.59423805373E+03  0.12751385896E+04  0.12699999809E+01 0.  1.
       -4    1    3    3    0  502  0.31794290007E+03 -0.10824833752E+04  0.15210701027E+03  0.11384182451E+04  0.12699999809E+01 0. -1.
</event>
<event>
 5   0  0.4436695E-05  0.2305413E+04  0.7818609E-02  0.8475790E-01
        2   -1    0    0  501    0  0.00000000000E+00  0.00000000000E+00  0.21269510269E+04  0.21269510269E+04  0.25500000920E-02 0. -1.
       -2   -1    0    0    0  501  0.00000000000E+00  0.00000000000E+00 -0.62471211963E+03  0.62471211963E+03  0.25500000920E-02 0.  1.
    10030    2    1    2    0    0  0.00000000000E+00  0.00000000000E+00  0.15022389073E+04  0.27516631466E+04  0.23054128345E+04 0.  0.
        5    1    3    3  502    0 -0.20348891222E+03 -0.40112440145E+03 -0.51563711594E+03  0.68426036578E+03  0.46999998093E+01 0.  1.
       -5    1    3    3    0  502  0.20348891222E+03  0.40112440145E+03  0.20178760232E+04  0.20674027808E+04  0.46999998093E+01 0. -1.
</event>
<event>
 5   0  0.2043885E-05  0.2010928E+04  0.7818609E-02  0.8601528E-01
        1   -1    0    0  501    0  0.00000000000E+00  0.00000000000E+00  0.10448427833E+04  0.10448427833E+04  0.50400001928E-02 0.  1.
       -1   -1    0    0    0  501  0.00000000000E+00  0.00000000000E+00 -0.96756957624E+03  0.96756957625E+03  0.50400001928E-02 0. -1.
    10030    2    1    2    0    0  0.00000000000E+00  0.00000000000E+00  0.77273207058E+02  0.20124123596E+04  0.20109282325E+04 0.  0.
        5    1    3    3  502    0  0.10347295714E+03  0.64653514211E+03 -0.72496104475E+03  0.97688533065E+03  0.46999998093E+01 0. -1.
       -5    1    3    3    0  502 -0.10347295714E+03 -0.64653514211E+03  0.80223425180E+03  0.10355270289E+04  0.46999998093E+01 0.  1.
</event>
<event>
 5   0  0.2042951E-05  0.2258547E+04  0.7818609E-02  0.8494447E-01
       -1   -1    0    0    0  501  0.00000000000E+00  0.00000000000E+00  0.98870527097E+03  0.98870527098E+03  0.50400001928E-02 0. -1.
        1   -1    0    0  501    0  0.00000000000E+00  0.00000000000E+00 -0.12898268972E+04  0.12898268972E+04  0.50400001928E-02 0.  1.
    10030    2    1    2    0    0  0.00000000000E+00  0.00000000000E+00 -0.30112162620E+03  0.22785321681E+04  0.22585470125E+04 0.  0.
        2    1    3    3  502    0 -0.48687151187E+03  0.22413097236E+03 -0.11533280262E+04  0.12717877566E+04  0.25500000920E-02 0.  1.
       -2    1    3    3    0  502  0.48687151187E+03 -0.22413097236E+03  0.85220640004E+03  0.10067444115E+04  0.25500000920E-02 0. -1.
</event>
<event>
 5   0  0.4436695E-05  0.2292237E+04  0.7818609E-02  0.8480988E-01
        2   -1    0    0  501    0  0.00000000000E+00  0.00000000000E+00  0.96397603882E+03  0.96397603882E+03  0.25500000920E-02 0.  1.
       -2   -1    0    0    0  501  0.00000000000E+00  0.00000000000E+00 -0.13626765545E+04  0.13626765545E+04  0.25500000920E-02 0. -1.
    10030    2    1    2    0    0  0.00000000000E+00  0.00000000000E+00 -0.39870051573E+03  0.23266525934E+04  0.22922369400E+04 0.  0.
        5    1    3    3  502    0 -0.83777959355E+03  0.46062318691E+03  0.44221334052E+03  0.10533864895E+04  0.46999998093E+01 0.  1.
       -5    1    3    3    0  502  0.83777959355E+03 -0.46062318691E+03 -0.84091385624E+03  0.12732661039E+04  0.46999998093E+01 0. -1.
</event>
<event>
 5   0  0.4605516E-05  0.2207647E+04  0.7818609E-02  0.8515252E-01
        2   -1    0    0  501    0  0.00000000000E+00  0.00000000000E+00  0.78339313296E+03  0.78339313296E+03  0.25500000920E-02 0.  1.
       -2   -1    0    0    0  501  0.00000000000E+00  0.00000000000E+00 -0.15553192936E+04  0.15553192936E+04  0.25500000920E-02 0. -1.
    10030    2    1    2    0    0  0.00000000000E+00  0.00000000000E+00 -0.77192616066E+03  0.23387124266E+04  0.22076471223E+04 0.  0.
        1    1    3    3  502    0  0.86410263463E+03 -0.67011929878E+03 -0.22637693134E+03  0.11166824763E+04  0.50400001928E-02 0.  1.
       -1    1    3    3    0  502 -0.86410263463E+03  0.67011929878E+03 -0.54554922932E+03  0.12220299503E+04  0.50400001928E-02 0. -1.
</event>
<event>
 5   0  0.2042951E-05  0.2336351E+04  0.7818609E-02  0.8463725E-01
        1   -1    0    0  501    0  0.00000000000E+00  0.00000000000E+00  0.10190131509E+04  0.10190131510E+04  0.50400001928E-02 0.  1.
       -1   -1    0    0    0  501  0.00000000000E+00  0.00000000000E+00 -0.13391717508E+04  0.13391717508E+04  0.50400001928E-02 0. -1.
    10030    2    1    2    0    0  0.00000000000E+00  0.00000000000E+00 -0.32015859989E+03  0.23581849018E+04  0.23363506804E+04 0.  0.
        2    1    3    3  502    0 -0.50205836586E+01 -0.31246004632E+03 -0.12961993229E+04  0.13333376060E+04  0.25500000920E-02 0. -1.
       -2    1    3    3    0  502  0.50205836586E+01  0.31246004632E+03  0.97604072300E+03  0.10248472958E+04  0.25500000920E-02 0.  1.
</event>
<event>
 5   0  0.2043885E-05  0.2303875E+04  0.7818609E-02  0.8476395E-01
       -1   -1    0    0    0  501  0.00000000000E+00  0.00000000000E+00  0.54345491935E+03  0.54345491938E+03  0.50400001928E-02 0.  1.
        1   -1    0    0  501    0  0.00000000000E+00  0.00000000000E+00 -0.24417109184E+04  0.24417109184E+04  0.50400001928E-02 0. -1.
    10030    2    1    2    0    0  0.00000000000E+00  0.00000000000E+00 -0.18982559990E+04  0.29851658378E+04  0.23038748319E+04 0.  0.
        5    1    3    3  502    0 -0.10681818581E+03 -0.80794434219E+03 -0.20039656167E+04  0.21633502878E+04  0.46999998093E+01 0. -1.
       -5    1    3    3    0  502  0.10681818581E+03  0.80794434219E+03  0.10570961765E+03  0.82181554997E+03  0.46999998093E+01 0.  1.
</event>
<event>
 5   0  0.1968318E-05  0.2275614E+04  0.7818609E-02  0.8487599E-01
        1   -1    0    0  501    0  0.00000000000E+00  0.00000000000E+00  0.10935967285E+04  0.10935967285E+04  0.50400001928E-02 0.  1.
       -1   -1    0    0    0  501  0.00000000000E+00  0.00000000000E+00 -0.11838042942E+04  0.11838042942E+04  0.50400001928E-02 0. -1.
    10030    2    1    2    0    0  0.00000000000E+00  0.00000000000E+00 -0.90207565662E+02  0.22774010227E+04  0.22756137663E+04 0.  0.
        3    1    3    3  502    0  0.99134739307E+03  0.39920800640E+03  0.34567415425E+03  0.11232218468E+04  0.10100000352E+00 0.  1.
       -3    1    3    3    0  502 -0.99134739307E+03 -0.39920800640E+03 -0.43588171991E+03  0.11541791759E+04  0.10100000352E+00 0. -1.
</event>
<event>
 5   0  0.1968318E-05  0.2310735E+04  0.7818609E-02  0.8473701E-01
       -1   -1    0    0    0  501  0.00000000000E+00  0.00000000000E+00  0.58945636372E+03  0.58945636374E+03  0.50400001928E-02 0.  1.
        1   -1    0    0  501    0  0.00000000000E+00  0.00000000000E+00 -0.22645841487E+04  0.22645841487E+04  0.50400001928E-02 0. -1.
    10030    2    1    2    0    0  0.00000000000E+00  0.00000000000E+00 -0.16751277850E+04  0.28540405125E+04  0.23107345479E+04 0.  0.
        3    1    3    3  502    0 -0.41845343518E+03  0.55081448534E+03 -0.19805520341E+04  0.20978766038E+04  0.10100000352E+00 0. -1.
       -3    1    3    3    0  502  0.41845343518E+03 -0.55081448534E+03  0.30542424909E+03  0.75616390870E+03  0.10100000352E+00 0.  1.
</event>
<event>
 5   0  0.2043885E-05  0.2320985E+04  0.7818609E-02  0.8469693E-01
        1   -1    0    0  501    0  0.00000000000E+00  0.00000000000E+00  0.86718755732E+03  0.86718755734E+03  0.50400001928E-02 0. -1.
       -1   -1    0    0    0  501  0.00000000000E+00  0.00000000000E+00 -0.15529999841E+04  0.15529999841E+04  0.50400001928E-02 0.  1.
    10030    2    1    2    0    0  0.00000000000E+00  0.00000000000E+00 -0.68581242680E+03  0.24201875415E+04  0.23209845004E+04 0.  0.
        5    1    3    3  502    0 -0.94268694146E+02 -0.97267505066E+03  0.30973423161E+03  0.10251540007E+04  0.46999998093E+01 0. -1.
       -5    1    3    3    0  502  0.94268694146E+02  0.97267505066E+03 -0.99554665841E+03  0.13950335408E+04  0.46999998093E+01 0.  1.
</event>
<event>
 5   0  0.2031860E-05  0.2256447E+04  0.7818609E-02  0.8495294E-01
       -1   -1    0    0    0  501  0.00000000000E+00  0.00000000000E+00  0.69296077153E+03  0.69296077155E+03  0.50400001928E-02 0. -1.
        1   -1    0    0  501    0  0.00000000000E+00  0.00000000000E+00 -0.18368838636E+04  0.18368838636E+04  0.50400001928E-02 0.  1.
    10030    2    1    2    0    0  0.00000000000E+00  0.00000000000E+00 -0.11439230921E+04  0.25298446352E+04  0.22564471715E+04 0.  0.
        4    1    3    3  502    0  0.67320874034E+03 -0.42254775785E+03 -0.14696834219E+04  0.16708463691E+04  0.12699999809E+01 0. -1.
       -4    1    3    3    0  502 -0.67320874034E+03  0.42254775785E+03  0.32576032979E+03  0.85899826606E+03  0.12699999809E+01 0.  1.
</event>
<event>
 5   0  0.2043885E-05  0.2309330E+04  0.7818609E-02  0.8474251E-01
        1   -1    0    0  501    0  0.00000000000E+00  0.00000000000E+00  0.12225123677E+04  0.12225123677E+04  0.50400001928E-02 0. -1.
       -1   -1    0    0    0  501  0.00000000000E+00  0.00000000000E+00 -0.10905833061E+04  0.10905833061E+04  0.50400001928E-02 0.  1.
    10030    2    1    2    0    0  0.00000000000E+00  0.00000000000E+00  0.13192906161E+03  0.23130956739E+04  0.23093302750E+04 0.  0.
        5    1    3    3  502    0  0.86961526551E+02 -0.10235345005E+04 -0.46219430822E+03  0.11264239208E+04  0.46999998093E+01 0.  1.
       -5    1    3    3    0  502 -0.86961526551E+02  0.10235345005E+04  0.59412336983E+03  0.11866717530E+04  0.46999998093E+01 0. -1.
</event>
<event>
 5   0  0.4505107E-05  0.2303961E+04  0.7818609E-02  0.8476361E-01
       -2   -1    0    0    0  501  0.00000000000E+00  0.00000000000E+00  0.20575465501E+04  0.20575465501E+04  0.25500000920E-02 0. -1.
        2   -1    0    0  501    0  0.00000000000E+00  0.00000000000E+00 -0.64497143029E+03  0.64497143029E+03  0.25500000920E-02 0.  1.
    10030    2    1    2    0    0  0.00000000000E+00  0.00000000000E+00  0.14125751198E+04  0.27025179804E+04  0.23039607126E+04 0.  0.
        4    1    3    3  502    0  0.67569873257E+03  0.21103573593E+02 -0.38782972507E+03  0.77937644728E+03  0.12699999809E+01 0.  1.
       -4    1    3    3    0  502 -0.67569873257E+03 -0.21103573593E+02  0.18004048449E+04  0.19231415331E+04  0.12699999809E+01 0. -1.
</event>
<event>
 5   0  0.2043885E-05  0.2281068E+04  0.7818609E-02  0.8485423E-01
        1   -1    0    0  501    0  0.00000000000E+00  0.00000000000E+00  0.16453397940E+04  0.16453397940E+04  0.50400001928E-02 0. -1.
       -1   -1    0    0    0  501  0.00000000000E+00  0.00000000000E+00 -0.79060760916E+03  0.79060760918E+03  0.50400001928E-02 0.  1.
    10030    2    1    2    0    0  0.00000000000E+00  0.00000000000E+00  0.85473218479E+03  0.24359474031E+04  0.22810683118E+04 0.  0.
        5    1    3    3  502    0 -0.88754439877E+03  0.48116650063E+03  0.99399603679E+03  0.14167944354E+04  0.46999998093E+01 0. -1.
       -5    1    3    3    0  502  0.88754439877E+03 -0.48116650063E+03 -0.13926385200E+03  0.10191529677E+04  0.46999998093E+01 0.  1.
</event>
<event>
 5   0  0.4602447E-05  0.2310627E+04  0.7818609E-02  0.8473743E-01
       -2   -1    0    0    0  501  0.00000000000E+00  0.00000000000E+00  0.11621184293E+04  0.11621184293E+04  0.25500000920E-02 0. -1.
        2   -1    0    0  501    0  0.00000000000E+00  0.00000000000E+00 -0.11485487892E+04  0.11485487892E+04  0.25500000920E-02 0.  1.
    10030    2    1    2    0    0  0.00000000000E+00  0.00000000000E+00  0.13569640128E+02  0.23106672184E+04  0.23106273735E+04 0.  0.
        3    1    3    3  502    0  0.70189408168E+03 -0.88027987917E+03 -0.25245262853E+03  0.11538112096E+04  0.10100000352E+00 0.  1.
       -3    1    3    3    0  502 -0.70189408168E+03  0.88027987917E+03  0.26602226866E+03  0.11568560088E+04  0.10100000352E+00 0. -1.
</event>
<event>
 5   0  0.4602447E-05  0.2309271E+04  0.7818609E-02  0.8474275E-01
        2   -1    0    0  501    0  0.00000000000E+00  0.00000000000E+00  0.15890348884E+04  0.15890348884E+04  0.25500000920E-02 0. -1.
       -2   -1    0    0    0  501  0.00000000000E+00  0.00000000000E+00 -0.83898933465E+03  0.83898933465E+03  0.25500000920E-02 0.  1.
    10030    2    1    2    0    0  0.00000000000E+00  0.00000000000E+00  0.75004555379E+03  0.24280242231E+04  0.23092711610E+04 0.  0.
        3    1    3    3  502    0 -0.11165649012E+04 -0.26316953452E+03  0.23709796136E+03  0.11714054960E+04  0.10100000352E+00 0.  1.
       -3    1    3    3    0  502  0.11165649012E+04  0.26316953452E+03  0.51294759243E+03  0.12566187271E+04  0.10100000352E+00 0. -1.
</event>
<event>
 5   0  0.1604500E-05  0.2308779E+04  0.7818609E-02  0.8474468E-01
       -4   -1    0    0    0  501  0.00000000000E+00  0.00000000000E+00  0.11133050529E+04  0.11133057773E+04  0.12699999809E+01 0. -1.
        4   -1    0    0  501    0  0.00000000000E+00  0.00000000000E+00 -0.11969885080E+04  0.11969891817E+04  0.12699999809E+01 0.  1.
    10030    2    1    2    0    0  0.00000000000E+00  0.00000000000E+00 -0.83683455084E+02  0.23102949590E+04  0.23087788714E+04 0.  0.
        3    1    3    3  502    0  0.12648196754E+03 -0.14124459835E+03 -0.11813024500E+04  0.11964210017E+04  0.10100000352E+00 0.  1.
       -3    1    3    3    0  502 -0.12648196754E+03  0.14124459835E+03  0.10976189949E+04  0.11138739573E+04  0.10100000352E+00 0. -1.
</event>
<event>
 5   0  0.4436695E-05  0.2313612E+04  0.7818609E-02  0.8472573E-01
       -2   -1    0    0    0  501  0.00000000000E+00  0.00000000000E+00  0.97547400117E+03  0.97547400118E+03  0.25500000920E-02 0. -1.
        2   -1    0    0  501    0  0.00000000000E+00  0.00000000000E+00 -0.13718457142E+04  0.13718457142E+04  0.25500000920E-02 0.  1.
    10030    2    1    2    0    0  0.00000000000E+00  0.00000000000E+00 -0.39637171300E+03  0.23473197154E+04  0.23136117460E+04 0.  0.
        5    1    3    3  502    0  0.10761181353E+02 -0.10852116526E+04 -0.60449222199E+03  0.12422693228E+04  0.46999998093E+01 0.  1.
       -5    1    3    3    0  502 -0.10761181353E+02  0.10852116526E+04  0.20812050898E+03  0.11050503926E+04  0.46999998093E+01 0. -1.
</event>
<event>
 5   0  0.2043885E-05  0.2615893E+04  0.7818609E-02  0.8362823E-01
       -1   -1    0    0    0  501  0.00000000000E+00  0.00000000000E+00  0.12421002258E+04  0.12421002258E+04  0.50400001928E-02 0.  1.
        1   -1    0    0  501    0  0.00000000000E+00  0.00000000000E+00 -0.13772834997E+04  0.13772834997E+04  0.50400001928E-02 0. -1.
    10030    2    1    2    0    0  0.00000000000E+00  0.00000000000E+00 -0.13518327393E+03  0.26193837255E+04  0.26158930757E+04 0.  0.
        5    1    3    3  502    0 -0.68260629693E+03 -0.10221948722E+04  0.38007130254E+03  0.12865885117E+04  0.46999998093E+01 0.  1.
       -5    1    3    3    0  502  0.68260629693E+03  0.10221948722E+04 -0.51525457648E+03  0.13327952138E+04  0.46999998093E+01 0. -1.
</event>
<event>
 5   0  0.2042951E-05  0.2338511E+04  0.7818609E-02  0.8462890E-01
        1   -1    0    0  501    0  0.00000000000E+00  0.00000000000E+00  0.17043186273E+04  0.17043186273E+04  0.50400001928E-02 0. -1.
       -1   -1    0    0    0  501  0.00000000000E+00  0.00000000000E+00 -0.80217324238E+03  0.80217324240E+03  0.50400001928E-02 0.  1.
    10030    2    1    2    0    0  0.00000000000E+00  0.00000000000E+00  0.90214538488E+03  0.25064918697E+04  0.23385113207E+04 0.  0.
        2    1    3    3  502    0  0.11885066234E+03 -0.11618221897E+04  0.39041684536E+03  0.12314144686E+04  0.25500000920E-02 0.  1.
       -2    1    3    3    0  502 -0.11885066234E+03  0.11618221897E+04  0.51172853952E+03  0.12750774010E+04  0.25500000920E-02 0. -1.
</event>
<event>
 5   0  0.4436695E-05  0.2296280E+04  0.7818609E-02  0.8479389E-01
        2   -1    0    0  501    0  0.00000000000E+00  0.00000000000E+00  0.14741068707E+04  0.14741068707E+04  0.25500000920E-02 0.  1.
       -2   -1    0    0    0  501  0.00000000000E+00  0.00000000000E+00 -0.89425376368E+03  0.89425376369E+03  0.25500000920E-02 0. -1.
    10030    2    1    2    0    0  0.00000000000E+00  0.00000000000E+00  0.57985310706E+03  0.23683606344E+04  0.22962801373E+04 0.  0.
        5    1    3    3  502    0  0.85491239433E+03 -0.73722164628E+03  0.73992354606E+02  0.11313124751E+04  0.46999998093E+01 0. -1.
       -5    1    3    3    0  502 -0.85491239433E+03  0.73722164628E+03  0.50586075245E+03  0.12370481594E+04  0.46999998093E+01 0.  1.
</event>
<event>
 5   0  0.4605516E-05  0.2303503E+04  0.7818609E-02  0.8476541E-01
        2   -1    0    0  501    0  0.00000000000E+00  0.00000000000E+00  0.16388723955E+04  0.16388723955E+04  0.25500000920E-02 0. -1.
       -2   -1    0    0    0  501  0.00000000000E+00  0.00000000000E+00 -0.80941748536E+03  0.80941748537E+03  0.25500000920E-02 0.  1.
    10030    2    1    2    0    0  0.00000000000E+00  0.00000000000E+00  0.82945491018E+03  0.24482898809E+04  0.23035033955E+04 0.  0.
        1    1    3    3  502    0 -0.47851778055E+03 -0.28861070926E+03  0.14851318773E+04  0.15867867219E+04  0.50400001928E-02 0. -1.
       -1    1    3    3    0  502  0.47851778055E+03  0.28861070926E+03 -0.65567696710E+03  0.86150315903E+03  0.50400001928E-02 0.  1.
</event>
<event>
 5   0  0.2042951E-05  0.2294440E+04  0.7818609E-02  0.8480117E-01
       -1   -1    0    0    0  501  0.00000000000E+00  0.00000000000E+00  0.19006020729E+04  0.19006020729E+04  0.50400001928E-02 0. -1.
        1   -1    0    0  501    0  0.00000000000E+00  0.00000000000E+00 -0.69247203629E+03  0.69247203631E+03  0.50400001928E-02 0.  1.
    10030    2    1    2    0    0  0.00000000000E+00  0.00000000000E+00  0.12081300366E+04  0.25930741092E+04  0.22944400516E+04 0.  0.
        2    1    3    3  502    0  0.14498207371E+03 -0.21992526264E+03 -0.65783187978E+03  0.70861110978E+03  0.25500000920E-02 0.  1.
       -2    1    3    3    0  502 -0.14498207371E+03  0.21992526264E+03  0.18659619163E+04  0.18844629994E+04  0.25500000920E-02 0. -1.
</event>
<event>
 5   0  0.4605516E-05  0.2293036E+04  0.7818609E-02  0.8480672E-01
        2   -1    0    0  501    0  0.00000000000E+00  0.00000000000E+00  0.15705061726E+04  0.15705061726E+04  0.25500000920E-02 0. -1.
       -2   -1    0    0    0  501  0.00000000000E+00  0.00000000000E+00 -0.83699363297E+03  0.83699363298E+03  0.25500000920E-02 0.  1.
    10030    2    1    2    0    0  0.00000000000E+00  0.00000000000E+00  0.73351253959E+03  0.24074998055E+04  0.22930361244E+04 0.  0.
        1    1    3    3  502    0  0.67468966879E+03  0.69559702551E+03  0.10100761354E+04  0.13997553967E+04  0.50400001928E-02 0.  1.
       -1    1    3    3    0  502 -0.67468966879E+03 -0.69559702551E+03 -0.27656359583E+03  0.10077444089E+04  0.50400001928E-02 0. -1.
</event>
<event>
 5   0  0.2031860E-05  0.2289752E+04  0.7818609E-02  0.8481973E-01
       -1   -1    0    0    0  501  0.00000000000E+00  0.00000000000E+00  0.10203217309E+04  0.10203217309E+04  0.50400001928E-02 0. -1.
        1   -1    0    0  501    0  0.00000000000E+00  0.00000000000E+00 -0.12846346394E+04  0.12846346394E+04  0.50400001928E-02 0.  1.
    10030    2    1    2    0    0  0.00000000000E+00  0.00000000000E+00 -0.26431290851E+03  0.23049563703E+04  0.22897516361E+04 0.  0.
        4    1    3    3  502    0  0.26226763442E+03 -0.61329315620E+03  0.80452020328E+03  0.10450680255E+04  0.12699999809E+01 0. -1.
       -4    1    3    3    0  502 -0.26226763442E+03  0.61329315620E+03 -0.10688331118E+04  0.12598883448E+04  0.12699999809E+01 0.  1.
</event>
<event>
 5   0  0.4602447E-05  0.2278613E+04  0.7818609E-02  0.8486402E-01
        2   -1    0    0  501    0  0.00000000000E+00  0.00000000000E+00  0.15279358462E+04  0.15279358462E+04  0.25500000920E-02 0. -1.
       -2   -1    0    0    0  501  0.00000000000E+00  0.00000000000E+00 -0.84952507561E+03  0.84952507561E+03  0.25500000920E-02 0.  1.
    10030    2    1    2    0    0  0.00000000000E+00  0.00000000000E+00  0.67841077061E+03  0.23774609218E+04  0.22786134515E+04 0.  0.
        3    1    3    3  502    0  0.45921679702E+03 -0.10400217073E+04  0.41654646870E+03  0.12107998138E+04  0.10100000352E+00 0.  1.
       -3    1    3    3    0  502 -0.45921679702E+03  0.10400217073E+04  0.26186430191E+03  0.11666611081E+04  0.10100000352E+00 0. -1.
</event>
<event>
 5   0  0.2031860E-05  0.2263407E+04  0.7818609E-02  0.8492491E-01
        1   -1    0    0  501    0  0.00000000000E+00  0.00000000000E+00  0.22080550674E+04  0.22080550674E+04  0.50400001928E-02 0. -1.
       -1   -1    0    0    0  501  0.00000000000E+00  0.00000000000E+00 -0.58003659352E+03  0.58003659354E+03  0.50400001928E-02 0.  1.
    10030    2    1    2    0    0  0.00000000000E+00  0.00000000000E+00  0.16280184738E+04  0.27880916609E+04  0.22634069361E+04 0.  0.
        4    1    3    3  502    0  0.62306548557E+03 -0.17545534132E+03  0.19575102416E+04  0.20617572930E+04  0.12699999809E+01 0. -1.
       -4    1    3    3    0  502 -0.62306548557E+03  0.17545534132E+03 -0.32949176779E+03  0.72633436794E+03  0.12699999809E+01 0.  1.
</event>
<event>
 5   0  0.4602447E-05  0.2299009E+04  0.7818609E-02  0.8478312E-01
       -2   -1    0    0    0  501  0.00000000000E+00  0.00000000000E+00  0.12555836489E+04  0.12555836489E+04  0.25500000920E-02 0. -1.
        2   -1    0    0  501    0  0.00000000000E+00  0.00000000000E+00 -0.10523875031E+04  0.10523875031E+04  0.25500000920E-02 0.  1.
    10030    2    1    2    0    0  0.00000000000E+00  0.00000000000E+00  0.20319614582E+03  0.23079711519E+04  0.22990089527E+04 0.  0.
        3    1    3    3  502    0 -0.68571705171E+02 -0.52278659882E+03 -0.92383015861E+03  0.10637058234E+04  0.10100000352E+00 0.  1.
       -3    1    3    3    0  502  0.68571705171E+02  0.52278659882E+03  0.11270263044E+04  0.12442653285E+04  0.10100000352E+00 0. -1.
</event>
<event>
 5   0  0.4505107E-05  0.2253423E+04  0.7818609E-02  0.8496516E-01
        2   -1    0    0  501    0  0.00000000000E+00  0.00000000000E+00  0.15393203673E+04  0.15393203673E+04  0.25500000920E-02 0.  1.
       -2   -1    0    0    0  501  0.00000000000E+00  0.00000000000E+00 -0.82470057080E+03  0.82470057080E+03  0.25500000920E-02 0. -1.
    10030    2    1    2    0    0  0.00000000000E+00  0.00000000000E+00  0.71461979648E+03  0.23640209381E+04  0.22534226284E+04 0.  0.
        4    1    3    3  502    0  0.32781766509E+03  0.10531104850E+04  0.11586037653E+03  0.11090227026E+04  0.12699999809E+01 0. -1.
       -4    1    3    3    0  502 -0.32781766509E+03 -0.10531104850E+04  0.59875941995E+03  0.12549982355E+04  0.12699999809E+01 0.  1.
</event>
<event>
 5   0  0.4798609E-05  0.2303995E+04  0.7818609E-02  0.8476348E-01
        2   -1    0    0  501    0  0.00000000000E+00  0.00000000000E+00  0.25176162387E+04  0.25176162387E+04  0.25500000920E-02 0. -1.
       -2   -1    0    0    0  501  0.00000000000E+00  0.00000000000E+00 -0.52712477240E+03  0.52712477240E+03  0.25500000920E-02 0.  1.
    10030    2    1    2    0    0  0.00000000000E+00  0.00000000000E+00  0.19904914664E+04  0.30447410111E+04  0.23039946934E+04 0.  0.
        2    1    3    3  502    0 -0.18067063077E+03  0.50150111126E+03  0.23448336384E+04  0.24046600660E+04  0.25500000920E-02 0. -1.
       -2    1    3    3    0  502  0.18067063077E+03 -0.50150111126E+03 -0.35434217204E+03  0.64008094512E+03  0.25500000920E-02 0.  1.
</event>
<event>
 5   0  0.4798609E-05  0.2203736E+04  0.7818609E-02  0.8516875E-01
       -2   -1    0    0    0  501  0.00000000000E+00  0.00000000000E+00  0.11666719926E+04  0.11666719926E+04  0.25500000920E-02 0.  1.
        2   -1    0    0  501    0  0.00000000000E+00  0.00000000000E+00 -0.10406636813E+04  0.10406636813E+04  0.25500000920E-02 0. -1.
    10030    2    1    2    0    0  0.00000000000E+00  0.00000000000E+00  0.12600831139E+03  0.22073356739E+04  0.22037360737E+04 0.  0.
        2    1    3    3  502    0  0.70199535929E+03 -0.64200650925E+03  0.61991893146E+03  0.11354599614E+04  0.25500000920E-02 0.  1.
       -2    1    3    3    0  502 -0.70199535929E+03  0.64200650925E+03 -0.49391062007E+03  0.10718757125E+04  0.25500000920E-02 0. -1.
</event>
<event>
 5   0  0.2031860E-05  0.2318369E+04  0.7818609E-02  0.8470714E-01
        1   -1    0    0  501    0  0.00000000000E+00  0.00000000000E+00  0.94066333143E+03  0.94066333144E+03  0.50400001928E-02 0. -1.
       -1   -1    0    0    0  501  0.00000000000E+00  0.00000000000E+00 -0.14284688103E+04  0.14284688103E+04  0.50400001928E-02 0.  1.
    10030    2    1    2    0    0  0.00000000000E+00  0.00000000000E+00 -0.48780547891E+03  0.23691321418E+04  0.23183685902E+04 0.  0.
        4    1    3    3  502    0  0.28461197810E+02 -0.70599573672E+03 -0.11829728948E+04  0.13779210800E+04  0.12699999809E+01 0.  1.
       -4    1    3    3    0  502 -0.28461197810E+02  0.70599573672E+03  0.69516741586E+03  0.99121106179E+03  0.12699999809E+01 0. -1.
</event>
<event>
 5   0  0.4798609E-05  0.2314367E+04  0.7818609E-02  0.8472278E-01
       -2   -1    0    0    0  501  0.00000000000E+00  0.00000000000E+00  0.10475534541E+04  0.10475534541E+04  0.25500000920E-02 0.  1.
        2   -1    0    0  501    0  0.00000000000E+00  0.00000000000E+00 -0.12782862732E+04  0.12782862732E+04  0.25500000920E-02 0. -1.
    10030    2    1    2    0    0  0.00000000000E+00  0.00000000000E+00 -0.23073281904E+03  0.23258397273E+04  0.23143666096E+04 0.  0.
        2    1    3    3  502    0 -0.37720090964E+03  0.76231944795E+03 -0.90389729753E+03  0.12411453547E+04  0.25500000920E-02 0. -1.
       -2    1    3    3    0  502  0.37720090964E+03 -0.76231944795E+03  0.67316447849E+03  0.10846943727E+04  0.25500000920E-02 0.  1.
</event>
<event>
 5   0  0.4436695E-05  0.2296857E+04  0.7818609E-02  0.8479161E-01
       -2   -1    0    0    0  501  0.00000000000E+00  0.00000000000E+00  0.76446211731E+03  0.76446211732E+03  0.25500000920E-02 0. -1.
        2   -1    0    0  501    0  0.00000000000E+00  0.00000000000E+00 -0.17252498541E+04  0.17252498541E+04  0.25500000920E-02 0.  1.
    10030    2    1    2    0    0  0.00000000000E+00  0.00000000000E+00 -0.96078773674E+03  0.24897119714E+04  0.22968571190E+04 0.  0.
        5    1    3    3  502    0 -0.82246226146E+03  0.61134805193E+03 -0.10422551734E+04  0.14616800432E+04  0.46999998093E+01 0.  1.
       -5    1    3    3    0  502  0.82246226146E+03 -0.61134805193E+03  0.81467436681E+02  0.10280319282E+04  0.46999998093E+01 0. -1.
</event>
<event>
 5   0  0.4436695E-05  0.2274294E+04  0.7818609E-02  0.8488126E-01
       -2   -1    0    0    0  501  0.00000000000E+00  0.00000000000E+00  0.12590922293E+04  0.12590922293E+04  0.25500000920E-02 0. -1.
        2   -1    0    0  501    0  0.00000000000E+00  0.00000000000E+00 -0.10270123563E+04  0.10270123563E+04  0.25500000920E-02 0.  1.
    10030    2    1    2    0    0  0.00000000000E+00  0.00000000000E+00  0.23207987308E+03  0.22861045856E+04  0.22742939803E+04 0.  0.
        5    1    3    3  502    0  0.10559935623E+04 -0.37991674496E+03 -0.68275449576E+02  0.11243410354E+04  0.46999998093E+01 0. -1.
       -5    1    3    3    0  502 -0.10559935623E+04  0.37991674496E+03  0.30035532266E+03  0.11617635502E+04  0.46999998093E+01 0.  1.
</event>
<event>
 5   0  0.4602447E-05  0.2330360E+04  0.7818609E-02  0.8466046E-01
       -2   -1    0    0    0  501  0.00000000000E+00  0.00000000000E+00  0.80033918465E+03  0.80033918465E+03  0.25500000920E-02 0.  1.
        2   -1    0    0  501    0  0.00000000000E+00  0.00000000000E+00 -0.16963360575E+04  0.16963360575E+04  0.25500000920E-02 0. -1.
    10030    2    1    2    0    0  0.00000000000E+00  0.00000000000E+00 -0.89599687283E+03  0.24966752421E+04  0.23303598153E+04 0.  0.
        3    1    3    3  502    0 -0.10906991027E+04  0.25559326565E+03 -0.79132457110E+03  0.13715491377E+04  0.10100000352E+00 0.  1.
       -3    1    3    3    0  502  0.10906991027E+04 -0.25559326565E+03 -0.10467230172E+03  0.11251261045E+04  0.10100000352E+00 0. -1.
</event>
<event>
 5   0  0.2043885E-05  0.2267246E+04  0.7818609E-02  0.8490949E-01
        1   -1    0    0  501    0  0.00000000000E+00  0.00000000000E+00  0.12019856400E+04  0.12019856400E+04  0.50400001928E-02 0.  1.
       -1   -1    0    0    0  501  0.00000000000E+00  0.00000000000E+00 -0.10691482362E+04  0.10691482362E+04  0.50400001928E-02 0. -1.
    10030    2    1    2    0    0  0.00000000000E+00  0.00000000000E+00  0.13283740379E+03  0.22711338762E+04  0.22672457537E+04 0.  0.
        5    1    3    3  502    0  0.50788392480E+03  0.25161096598E+03  0.10498479861E+04  0.11930871901E+04  0.46999998093E+01 0.  1.
       -5    1    3    3    0  502 -0.50788392480E+03 -0.25161096598E+03 -0.91701058234E+03  0.10780466861E+04  0.46999998093E+01 0. -1.
</event>
<event>
 5   0  0.2085063E-05  0.2332350E+04  0.7818609E-02  0.8465274E-01
       -1   -1    0    0    0  501  0.00000000000E+00  0.00000000000E+00  0.89109082759E+03  0.89109082761E+03  0.50400001928E-02 0.  1.
        1   -1    0    0  501    0  0.00000000000E+00  0.00000000000E+00 -0.15261783809E+04  0.15261783809E+04  0.50400001928E-02 0. -1.
    10030    2    1    2    0    0  0.00000000000E+00  0.00000000000E+00 -0.63508755331E+03  0.24172692085E+04  0.23323495077E+04 0.  0.
        1    1    3    3  502    0 -0.88500946046E+03 -0.66573825709E+03 -0.69624387503E+03  0.13081302327E+04  0.50400001928E-02 0.  1.
       -1    1    3    3    0  502  0.88500946046E+03  0.66573825709E+03  0.61156321721E+02  0.11091389759E+04  0.50400001928E-02 0. -1.
</event>
<event>
 5   0  0.4602447E-05  0.2171107E+04  0.7818609E-02  0.8530551E-01
        2   -1    0    0  501    0  0.00000000000E+00  0.00000000000E+00  0.12046709358E+04  0.12046709358E+04  0.25500000920E-02 0. -1.
       -2   -1    0    0    0  501  0.00000000000E+00  0.00000000000E+00 -0.97821423621E+03  0.97821423621E+03  0.25500000920E-02 0.  1.
    10030    2    1    2    0    0  0.00000000000E+00  0.00000000000E+00  0.22645669958E+03  0.21828851720E+04  0.21711068692E+04 0.  0.
        3    1    3    3  502    0  0.50719635311E+03 -0.63404430258E+03 -0.61121225077E+03  0.10162877269E+04  0.10100000352E+00 0.  1.
       -3    1    3    3    0  502 -0.50719635311E+03  0.63404430258E+03  0.83766895035E+03  0.11665974451E+04  0.10100000352E+00 0. -1.
</event>
<event>
 5   0  0.2042951E-05  0.2307391E+04  0.7818609E-02  0.8475013E-01
       -1   -1    0    0    0  501  0.00000000000E+00  0.00000000000E+00  0.94513674179E+03  0.94513674180E+03  0.50400001928E-02 0.  1.
        1   -1    0    0  501    0  0.00000000000E+00  0.00000000000E+00 -0.14082758158E+04  0.14082758158E+04  0.50400001928E-02 0. -1.
    10030    2    1    2    0    0  0.00000000000E+00  0.00000000000E+00 -0.46313907405E+03  0.23534125576E+04  0.23073909215E+04 0.  0.
        2    1    3    3  502    0  0.67574067755E+03 -0.38305494377E+03  0.63847231088E+03  0.10054866707E+04  0.25500000920E-02 0.  1.
       -2    1    3    3    0  502 -0.67574067755E+03  0.38305494377E+03 -0.11016113849E+04  0.13479258869E+04  0.25500000920E-02 0. -1.
</event>
<event>
 5   0  0.4505107E-05  0.2291358E+04  0.7818609E-02  0.8481336E-01
       -2   -1    0    0    0  501  0.00000000000E+00  0.00000000000E+00  0.65895787316E+03  0.65895787316E+03  0.25500000920E-02 0.  1.
        2   -1    0    0  501    0  0.00000000000E+00  0.00000000000E+00 -0.19919025950E+04  0.19919025950E+04  0.25500000920E-02 0. -1.
    10030    2    1    2    0    0  0.00000000000E+00  0.00000000000E+00 -0.13329447218E+04  0.26508604682E+04  0.22913575867E+04 0.  0.
        4    1    3    3  502    0 -0.50695146552E+03 -0.67507199708E+03  0.22954744389E+03  0.87488035270E+03  0.12699999809E+01 0.  1.
       -4    1    3    3    0  502  0.50695146552E+03  0.67507199708E+03 -0.15624921657E+04  0.17759801155E+04  0.12699999809E+01 0. -1.
</event>
<event>
 5   0  0.2031860E-05  0.2303790E+04  0.7818609E-02  0.8476428E-01
        1   -1    0    0  501    0  0.00000000000E+00  0.00000000000E+00  0.13768965447E+04  0.13768965447E+04  0.50400001928E-02 0. -1.
       -1   -1    0    0    0  501  0.00000000000E+00  0.00000000000E+00 -0.96366178274E+03  0.96366178275E+03  0.50400001928E-02 0.  1.
    10030    2    1    2    0    0  0.00000000000E+00  0.00000000000E+00  0.41323476196E+03  0.23405583275E+04  0.23037904236E+04 0.  0.
        4    1    3    3  502    0  0.70292258851E+03  0.62316465396E+03 -0.47067552869E+03  0.10507004414E+04  0.12699999809E+01 0.  1.
       -4    1    3    3    0  502 -0.70292258851E+03 -0.62316465396E+03  0.88391029065E+03  0.12898578860E+04  0.12699999809E+01 0. -1.
</event>
<event>
 5   0  0.4505107E-05  0.2310187E+04  0.7818609E-02  0.8473915E-01
       -2   -1    0    0    0  501  0.00000000000E+00  0.00000000000E+00  0.95829065532E+03  0.95829065532E+03  0.25500000920E-02 0. -1.
        2   -1    0    0  501    0  0.00000000000E+00  0.00000000000E+00 -0.13923140144E+04  0.13923140144E+04  0.25500000920E-02 0.  1.
    10030    2    1    2    0    0  0.00000000000E+00  0.00000000000E+00 -0.43402335912E+03  0.23506046698E+04  0.23101874463E+04 0.  0.
        4    1    3    3  502    0 -0.11167003426E+04 -0.15158473480E+03  0.40883335197E+02  0.11276837531E+04  0.12699999809E+01 0. -1.
       -4    1    3    3    0  502  0.11167003426E+04  0.15158473480E+03 -0.47490669432E+03  0.12229209166E+04  0.12699999809E+01 0.  1.
</event>
<event>
 5   0  0.4605516E-05  0.2192752E+04  0.7818609E-02  0.8521451E-01
        2   -1    0    0  501    0  0.00000000000E+00  0.00000000000E+00  0.14358588472E+04  0.14358588472E+04  0.25500000920E-02 0. -1.
       -2   -1    0    0    0  501  0.00000000000E+00  0.00000000000E+00 -0.83715777263E+03  0.83715777263E+03  0.25500000920E-02 0.  1.
    10030    2    1    2    0    0  0.00000000000E+00  0.00000000000E+00  0.59870107457E+03  0.22730166198E+04  0.21927520556E+04 0.  0.
        1    1    3    3  502    0 -0.41216182122E+03  0.94573505718E+03 -0.85379501655E+02  0.10351723647E+04  0.50400001928E-02 0. -1.
       -1    1    3    3    0  502  0.41216182122E+03 -0.94573505718E+03  0.68408057623E+03  0.12378442552E+04  0.50400001928E-02 0.  1.
</event>
<event>
 5   0  0.4798609E-05  0.2309539E+04  0.7818609E-02  0.8474170E-01
       -2   -1    0    0    0  501  0.00000000000E+00  0.00000000000E+00  0.92203843039E+03  0.92203843039E+03  0.25500000920E-02 0. -1.
        2   -1    0    0  501    0  0.00000000000E+00  0.00000000000E+00 -0.14462437344E+04  0.14462437344E+04  0.25500000920E-02 0.  1.
    10030    2    1    2    0    0  0.00000000000E+00  0.00000000000E+00 -0.52420530406E+03  0.23682821648E+04  0.23095387443E+04 0.  0.
        2    1    3    3  502    0  0.12388602933E+03  0.61547645822E+03 -0.12559462575E+04  0.14041225091E+04  0.25500000920E-02 0.  1.
       -2    1    3    3    0  502 -0.12388602933E+03 -0.61547645822E+03  0.73174095340E+03  0.96415965575E+03  0.25500000920E-02 0. -1.
</event>
<event>
 5   0  0.1968318E-05  0.2294341E+04  0.7818609E-02  0.8480156E-01
       -1   -1    0    0    0  501  0.00000000000E+00  0.00000000000E+00  0.22079157186E+04  0.22079157186E+04  0.50400001928E-02 0. -1.
        1   -1    0    0  501    0  0.00000000000E+00  0.00000000000E+00 -0.59603717614E+03  0.59603717616E+03  0.50400001928E-02 0.  1.
    10030    2    1    2    0    0  0.00000000000E+00  0.00000000000E+00  0.16118785425E+04  0.28039528948E+04  0.22943407333E+04 0.  0.
        3    1    3    3  502    0  0.61514358942E+03  0.83873074946E+03  0.21459507073E+03  0.10620367038E+04  0.10100000352E+00 0.  1.
       -3    1    3    3    0  502 -0.61514358942E+03 -0.83873074946E+03  0.13972834718E+04  0.17419161910E+04  0.10100000352E+00 0. -1.
</event>
<event>
 5   0  0.2085063E-05  0.2294156E+04  0.7818609E-02  0.8480229E-01
        1   -1    0    0  501    0  0.00000000000E+00  0.00000000000E+00  0.13426622473E+04  0.13426622473E+04  0.50400001928E-02 0.  1.
       -1   -1    0    0    0  501  0.00000000000E+00  0.00000000000E+00 -0.97998461828E+03  0.97998461829E+03  0.50400001928E-02 0. -1.
    10030    2    1    2    0    0  0.00000000000E+00  0.00000000000E+00  0.36267762904E+03  0.23226468656E+04  0.22941563591E+04 0.  0.
        1    1    3    3  502    0 -0.81787980271E+03 -0.10607292204E+03  0.98849088512E+03  0.12873589501E+04  0.50400001928E-02 0.  1.
       -1    1    3    3    0  502  0.81787980271E+03  0.10607292204E+03 -0.62581325608E+03  0.10352879155E+04  0.50400001928E-02 0. -1.
</event>
<event>
 5   0  0.2042951E-05  0.2268134E+04  0.7818609E-02  0.8490592E-01
        1   -1    0    0  501    0  0.00000000000E+00  0.00000000000E+00  0.19213513816E+04  0.19213513816E+04  0.50400001928E-02 0.  1.
       -1   -1    0    0    0  501  0.00000000000E+00  0.00000000000E+00 -0.66937702600E+03  0.66937702601E+03  0.50400001928E-02 0. -1.
    10030    2    1    2    0    0  0.00000000000E+00  0.00000000000E+00  0.12519743556E+04  0.25907284076E+04  0.22681344526E+04 0.  0.
        2    1    3    3  502    0 -0.15167144134E+03  0.16111770060E+02 -0.65760794285E+03  0.67506445749E+03  0.25500000920E-02 0. -1.
       -2    1    3    3    0  502  0.15167144134E+03 -0.16111770060E+02  0.19095822985E+04  0.19156639501E+04  0.25500000920E-02 0.  1.
</event>
<event>
 5   0  0.4798609E-05  0.2007960E+04  0.7818609E-02  0.8602908E-01
        2   -1    0    0  501    0  0.00000000000E+00  0.00000000000E+00  0.14703613407E+04  0.14703613407E+04  0.25500000920E-02 0.  1.
       -2   -1    0    0    0  501  0.00000000000E+00  0.00000000000E+00 -0.68552910601E+03  0.68552910601E+03  0.25500000920E-02 0. -1.
    10030    2    1    2    0    0  0.00000000000E+00  0.00000000000E+00  0.78483223470E+03  0.21558904467E+04  0.20079596564E+04 0.  0.
        2    1    3    3  502    0 -0.64917220688E+03  0.71011912037E+03  0.70039684029E+03  0.11900627938E+04  0.25500000920E-02 0.  1.
       -2    1    3    3    0  502  0.64917220688E+03 -0.71011912037E+03  0.84435394407E+02  0.96582765291E+03  0.25500000920E-02 0. -1.
</event>
<event>
 5   0  0.4436695E-05  0.2309820E+04  0.7818609E-02  0.8474059E-01
        2   -1    0    0  501    0  0.00000000000E+00  0.00000000000E+00  0.15132224052E+04  0.15132224052E+04  0.25500000920E-02 0. -1.
       -2   -1    0    0    0  501  0.00000000000E+00  0.00000000000E+00 -0.88144193410E+03  0.88144193411E+03  0.25500000920E-02 0.  1.
    10030    2    1    2    0    0  0.00000000000E+00  0.00000000000E+00  0.63178047111E+03  0.23946643393E+04  0.23098204983E+04 0.  0.
        5    1    3    3  502    0 -0.21438024168E+03  0.86370362236E+02 -0.85721054852E+03  0.88783486189E+03  0.46999998093E+01 0.  1.
       -5    1    3    3    0  502  0.21438024168E+03 -0.86370362236E+02  0.14889910196E+04  0.15068294774E+04  0.46999998093E+01 0. -1.
</event>
<event>
 5   0  0.2085063E-05  0.2285313E+04  0.7818609E-02  0.8483734E-01
        1   -1    0    0  501    0  0.00000000000E+00  0.00000000000E+00  0.24879657537E+04  0.24879657537E+04  0.50400001928E-02 0.  1.
       -1   -1    0    0    0  501  0.00000000000E+00  0.00000000000E+00 -0.52479189757E+03  0.52479189759E+03  0.50400001928E-02 0. -1.
    10030    2    1    2    0    0  0.00000000000E+00  0.00000000000E+00  0.19631738561E+04  0.30127576513E+04  0.22853133431E+04 0.  0.
        1    1    3    3  502    0 -0.17113781906E+03 -0.25703570552E+03  0.24319159295E+04  0.24514425540E+04  0.50400001928E-02 0.  1.
       -1    1    3    3    0  502  0.17113781906E+03  0.25703570552E+03 -0.46874207344E+03  0.56131509730E+03  0.50400001928E-02 0. -1.
</event>
<event>
 5   0  0.4605516E-05  0.2312225E+04  0.7818609E-02  0.8473116E-01
        2   -1    0    0  501    0  0.00000000000E+00  0.00000000000E+00  0.24417479203E+04  0.24417479203E+04  0.25500000920E-02 0.  1.
       -2   -1    0    0    0  501  0.00000000000E+00  0.00000000000E+00 -0.54739325460E+03  0.54739325461E+03  0.25500000920E-02 0. -1.
    10030    2    1    2    0    0  0.00000000000E+00  0.00000000000E+00  0.18943546657E+04  0.29891411749E+04  0.23122251975E+04 0.  0.
        1    1    3    3  502    0 -0.70499704315E+03 -0.84604386278E+03  0.49234553332E+03  0.12063229969E+04  0.50400001928E-02 0. -1.
       -1    1    3    3    0  502  0.70499704315E+03  0.84604386278E+03  0.14020091324E+04  0.17828181780E+04  0.50400001928E-02 0.  1.
</event>
<event>
 5   0  0.2085063E-05  0.2307945E+04  0.7818609E-02  0.8474795E-01
        1   -1    0    0  501    0  0.00000000000E+00  0.00000000000E+00  0.25921969121E+04  0.25921969121E+04  0.50400001928E-02 0. -1.
       -1   -1    0    0    0  501  0.00000000000E+00  0.00000000000E+00 -0.51371565618E+03  0.51371565621E+03  0.50400001928E-02 0.  1.
    10030    2    1    2    0    0  0.00000000000E+00  0.00000000000E+00  0.20784812559E+04  0.31059125683E+04  0.23079446594E+04 0.  0.
        1    1    3    3  502    0  0.93032027072E+03  0.79713923622E+02  0.12670616827E+03  0.94228688245E+03  0.50400001928E-02 0.  1.
       -1    1    3    3    0  502 -0.93032027072E+03 -0.79713923622E+02  0.19517750876E+04  0.21636256858E+04  0.50400001928E-02 0. -1.
</event>
<event>
 5   0  0.4436695E-05  0.2415421E+04  0.7818609E-02  0.8433753E-01
       -2   -1    0    0    0  501  0.00000000000E+00  0.00000000000E+00  0.12548746073E+04  0.12548746073E+04  0.25500000920E-02 0. -1.
        2   -1    0    0  501    0  0.00000000000E+00  0.00000000000E+00 -0.11623191414E+04  0.11623191414E+04  0.25500000920E-02 0.  1.
    10030    2    1    2    0    0  0.00000000000E+00  0.00000000000E+00  0.92555465909E+02  0.24171937488E+04  0.24154211030E+04 0.  0.
        5    1    3    3  502    0  0.12210536997E+03 -0.68907641637E+03 -0.93872438276E+03  0.11708806881E+04  0.46999998093E+01 0.  1.
       -5    1    3    3    0  502 -0.12210536997E+03  0.68907641637E+03  0.10312798487E+04  0.12463130607E+04  0.46999998093E+01 0. -1.
</event>
<event>
 5   0  0.4605516E-05  0.2243625E+04  0.7818609E-02  0.8500487E-01
        2   -1    0    0  501    0  0.00000000000E+00  0.00000000000E+00  0.13071301417E+04  0.13071301417E+04  0.25500000920E-02 0.  1.
       -2   -1    0    0    0  501  0.00000000000E+00  0.00000000000E+00 -0.96276773902E+03  0.96276773902E+03  0.25500000920E-02 0. -1.
    10030    2    1    2    0    0  0.00000000000E+00  0.00000000000E+00  0.34436240267E+03  0.22698978807E+04  0.22436245061E+04 0.  0.
        1    1    3    3  502    0 -0.20562055832E+03 -0.29381464494E+03  0.12475753468E+04  0.12980951836E+04  0.50400001928E-02 0.  1.
       -1    1    3    3    0  502  0.20562055832E+03  0.29381464494E+03 -0.90321294417E+03  0.97180269712E+03  0.50400001928E-02 0. -1.
</event>
<event>
 5   0  0.4436695E-05  0.2295296E+04  0.7818609E-02  0.8479778E-01
        2   -1    0    0  501    0  0.00000000000E+00  0.00000000000E+00  0.68636215517E+03  0.68636215518E+03  0.25500000920E-02 0. -1.
       -2   -1    0    0    0  501  0.00000000000E+00  0.00000000000E+00 -0.19189515160E+04  0.19189515160E+04  0.25500000920E-02 0.  1.
    10030    2    1    2    0    0  0.00000000000E+00  0.00000000000E+00 -0.12325893608E+04  0.26053136711E+04  0.22952957963E+04 0.  0.
        5    1    3    3  502    0 -0.42860500500E+03 -0.91858663175E+03 -0.54959740756E+01  0.10136843424E+04  0.46999998093E+01 0. -1.
       -5    1    3    3    0  502  0.42860500500E+03  0.91858663175E+03 -0.12270933867E+04  0.15916293287E+04  0.46999998093E+01 0.  1.
</event>
<event>
 5   0  0.4436695E-05  0.2313737E+04  0.7818609E-02  0.8472524E-01
        2   -1    0    0  501    0  0.00000000000E+00  0.00000000000E+00  0.12680798998E+04  0.12680798998E+04  0.25500000920E-02 0.  1.
       -2   -1    0    0    0  501  0.00000000000E+00  0.00000000000E+00 -0.10554107455E+04  0.10554107455E+04  0.25500000920E-02 0. -1.
    10030    2    1    2    0    0  0.00000000000E+00  0.00000000000E+00  0.21266915434E+03  0.23234906454E+04  0.23137373684E+04 0.  0.
        5    1    3    3  502    0 -0.29440238051E+03  0.16984951806E+03 -0.10041303302E+04  0.10601044432E+04  0.46999998093E+01 0. -1.
       -5    1    3    3    0  502  0.29440238051E+03 -0.16984951806E+03  0.12167994845E+04  0.12633862022E+04  0.46999998093E+01 0.  1.
</event>
<event>
 5   0  0.1604500E-05  0.2318081E+04  0.7818609E-02  0.8470826E-01
       -4   -1    0    0    0  501  0.00000000000E+00  0.00000000000E+00  0.18444260615E+04  0.18444264988E+04  0.12699999809E+01 0. -1.
        4   -1    0    0  501    0  0.00000000000E+00  0.00000000000E+00 -0.72834194112E+03  0.72834304836E+03  0.12699999809E+01 0.  1.
    10030    2    1    2    0    0  0.00000000000E+00  0.00000000000E+00  0.11160841204E+04  0.25727695471E+04  0.23180809690E+04 0.  0.
        3    1    3    3  502    0  0.10552797149E+04 -0.34451472658E+03  0.92792902858E+03  0.14468441401E+04  0.10100000352E+00 0. -1.
       -3    1    3    3    0  502 -0.10552797149E+04  0.34451472658E+03  0.18815509181E+03  0.11259254070E+04  0.10100000352E+00 0.  1.
</event>
<event>
 5   0  0.4605516E-05  0.2308868E+04  0.7818609E-02  0.8474433E-01
        2   -1    0    0  501    0  0.00000000000E+00  0.00000000000E+00  0.11690210787E+04  0.11690210787E+04  0.25500000920E-02 0. -1.
       -2   -1    0    0    0  501  0.00000000000E+00  0.00000000000E+00 -0.11400286976E+04  0.11400286976E+04  0.25500000920E-02 0.  1.
    10030    2    1    2    0    0  0.00000000000E+00  0.00000000000E+00  0.28992381150E+02  0.23090497763E+04  0.23088677552E+04 0.  0.
        1    1    3    3  502    0 -0.25963304325E+03 -0.89187307801E+03  0.70002136252E+03  0.11631323280E+04  0.50400001928E-02 0. -1.
       -1    1    3    3    0  502  0.25963304325E+03  0.89187307801E+03 -0.67102898137E+03  0.11459174483E+04  0.50400001928E-02 0.  1.
</event>
<event>
 5   0  0.2042951E-05  0.2229601E+04  0.7818609E-02  0.8506208E-01
        1   -1    0    0  501    0  0.00000000000E+00  0.00000000000E+00  0.18790143361E+04  0.18790143361E+04  0.50400001928E-02 0.  1.
       -1   -1    0    0    0  501  0.00000000000E+00  0.00000000000E+00 -0.66140008668E+03  0.66140008670E+03  0.50400001928E-02 0. -1.
    10030    2    1    2    0    0  0.00000000000E+00  0.00000000000E+00  0.12176142494E+04  0.25404144228E+04  0.22296010808E+04 0.  0.
        2    1    3    3  502    0 -0.13960552194E+03 -0.63075393614E+03 -0.42638310101E+03  0.77404313740E+03  0.25500000920E-02 0. -1.
       -2    1    3    3    0  502  0.13960552194E+03  0.63075393614E+03  0.16439973505E+04  0.17663712854E+04  0.25500000920E-02 0.  1.
</event>
<event>
 5   0  0.4505107E-05  0.2288401E+04  0.7818609E-02  0.8482509E-01
        2   -1    0    0  501    0  0.00000000000E+00  0.00000000000E+00  0.93872766205E+03  0.93872766205E+03  0.25500000920E-02 0. -1.
       -2   -1    0    0    0  501  0.00000000000E+00  0.00000000000E+00 -0.13946479380E+04  0.13946479380E+04  0.25500000920E-02 0.  1.
    10030    2    1    2    0    0  0.00000000000E+00  0.00000000000E+00 -0.45592027597E+03  0.23333756001E+04  0.22884008375E+04 0.  0.
        4    1    3    3  502    0 -0.32518196811E+02  0.94209676110E+03  0.43331414857E+03  0.10374808454E+04  0.12699999809E+01 0. -1.
       -4    1    3    3    0  502  0.32518196811E+02 -0.94209676110E+03 -0.88923442454E+03  0.12958947546E+04  0.12699999809E+01 0.  1.
</event>
<event>
 5   0  0.1968318E-05  0.2295224E+04  0.7818609E-02  0.8479807E-01
       -1   -1    0    0    0  501  0.00000000000E+00  0.00000000000E+00  0.95246503236E+03  0.95246503237E+03  0.50400001928E-02 0.  1.
        1   -1    0    0  501    0  0.00000000000E+00  0.00000000000E+00 -0.13827419947E+04  0.13827419947E+04  0.50400001928E-02 0. -1.
    10030    2    1    2    0    0  0.00000000000E+00  0.00000000000E+00 -0.43027696237E+03  0.23352070271E+04  0.22952240839E+04 0.  0.
        3    1    3    3  502    0 -0.44759256874E+03 -0.35413970069E+03 -0.12281023285E+04  0.13542486385E+04  0.10100000352E+00 0.  1.
       -3    1    3    3    0  502  0.44759256874E+03  0.35413970069E+03  0.79782536616E+03  0.98095838866E+03  0.10100000352E+00 0. -1.
</event>
<event>
 5   0  0.4602447E-05  0.2292760E+04  0.7818609E-02  0.8480781E-01
        2   -1    0    0  501    0  0.00000000000E+00  0.00000000000E+00  0.13788510610E+04  0.13788510610E+04  0.25500000920E-02 0. -1.
       -2   -1    0    0    0  501  0.00000000000E+00  0.00000000000E+00 -0.95310285329E+03  0.95310285329E+03  0.25500000920E-02 0.  1.
    10030    2    1    2    0    0  0.00000000000E+00  0.00000000000E+00  0.42574820771E+03  0.23319539143E+04  0.22927598047E+04 0.  0.
        3    1    3    3  502    0 -0.11214028626E+04  0.23497872274E+03  0.17444609172E+03  0.11589610993E+04  0.10100000352E+00 0.  1.
       -3    1    3    3    0  502  0.11214028626E+04 -0.23497872274E+03  0.25130211599E+03  0.11729928151E+04  0.10100000352E+00 0. -1.
</event>
<event>
 5   0  0.2031860E-05  0.2309717E+04  0.7818609E-02  0.8474100E-01
       -1   -1    0    0    0  501  0.00000000000E+00  0.00000000000E+00  0.98376399225E+03  0.98376399227E+03  0.50400001928E-02 0.  1.
        1   -1    0    0  501    0  0.00000000000E+00  0.00000000000E+00 -0.13557089090E+04  0.13557089090E+04  0.50400001928E-02 0. -1.
    10030    2    1    2    0    0  0.00000000000E+00  0.00000000000E+00 -0.37194491672E+03  0.23394729013E+04  0.23097165269E+04 0.  0.
        4    1    3    3  502    0  0.78093463076E+03  0.76391293071E+02 -0.10442386461E+04  0.13061893010E+04  0.12699999809E+01 0. -1.
       -4    1    3    3    0  502 -0.78093463076E+03 -0.76391293071E+02  0.67229372934E+03  0.10332836003E+04  0.12699999809E+01 0.  1.
</event>
<event>
 5   0  0.4605516E-05  0.2309550E+04  0.7818609E-02  0.8474165E-01
       -2   -1    0    0    0  501  0.00000000000E+00  0.00000000000E+00  0.15071111003E+04  0.15071111003E+04  0.25500000920E-02 0. -1.
        2   -1    0    0  501    0  0.00000000000E+00  0.00000000000E+00 -0.88480926771E+03  0.88480926771E+03  0.25500000920E-02 0.  1.
    10030    2    1    2    0    0  0.00000000000E+00  0.00000000000E+00  0.62230183258E+03  0.23919203680E+04  0.23095504922E+04 0.  0.
        1    1    3    3  502    0  0.10497320695E+04  0.45103780370E+03  0.48486298287E+03  0.12411545554E+04  0.50400001928E-02 0.  1.
       -1    1    3    3    0  502 -0.10497320695E+04 -0.45103780370E+03  0.13743884971E+03  0.11507658126E+04  0.50400001928E-02 0. -1.
</event>
<event>
 5   0  0.2043885E-05  0.2307324E+04  0.7818609E-02  0.8475039E-01
       -1   -1    0    0    0  501  0.00000000000E+00  0.00000000000E+00  0.56953259607E+03  0.56953259609E+03  0.50400001928E-02 0. -1.
        1   -1    0    0  501    0  0.00000000000E+00  0.00000000000E+00 -0.23368917083E+04  0.23368917083E+04  0.50400001928E-02 0.  1.
    10030    2    1    2    0    0  0.00000000000E+00  0.00000000000E+00 -0.17673591122E+04  0.29064243044E+04  0.23073239923E+04 0.  0.
        5    1    3    3  502    0  0.62964758521E+03  0.98410685290E+00 -0.21013508369E+04  0.21936623440E+04  0.46999998093E+01 0.  1.
       -5    1    3    3    0  502 -0.62964758521E+03 -0.98410685290E+00  0.33399172464E+03  0.71276196037E+03  0.46999998093E+01 0. -1.
</event>
<event>
 5   0  0.2031860E-05  0.2306253E+04  0.7818609E-02  0.8475460E-01
        1   -1    0    0  501    0  0.00000000000E+00  0.00000000000E+00  0.17607762512E+04  0.17607762512E+04  0.50400001928E-02 0.  1.
       -1   -1    0    0    0  501  0.00000000000E+00  0.00000000000E+00 -0.75517847041E+03  0.75517847043E+03  0.50400001928E-02 0. -1.
    10030    2    1    2    0    0  0.00000000000E+00  0.00000000000E+00  0.10055977808E+04  0.25159547217E+04  0.23062526455E+04 0.  0.
        4    1    3    3  502    0 -0.14872666348E+03 -0.19701870395E+03 -0.72601508751E+03  0.76683473469E+03  0.12699999809E+01 0. -1.
       -4    1    3    3    0  502  0.14872666348E+03  0.19701870395E+03  0.17316128683E+04  0.17491199870E+04  0.12699999809E+01 0.  1.
</event>
<event>
 5   0  0.4602447E-05  0.2314734E+04  0.7818609E-02  0.8472134E-01
        2   -1    0    0  501    0  0.00000000000E+00  0.00000000000E+00  0.15112003608E+04  0.15112003608E+04  0.25500000920E-02 0.  1.
       -2   -1    0    0    0  501  0.00000000000E+00  0.00000000000E+00 -0.88638052907E+03  0.88638052907E+03  0.25500000920E-02 0. -1.
    10030    2    1    2    0    0  0.00000000000E+00  0.00000000000E+00  0.62481983171E+03  0.23975808898E+04  0.23147341751E+04 0.  0.
        3    1    3    3  502    0  0.97702495984E+03  0.62004661506E+03  0.29012263618E+03  0.11929822845E+04  0.10100000352E+00 0.  1.
       -3    1    3    3    0  502 -0.97702495984E+03 -0.62004661506E+03  0.33469719554E+03  0.12045986053E+04  0.10100000352E+00 0. -1.
</event>
<event>
 5   0  0.2043885E-05  0.2311738E+04  0.7818609E-02  0.8473307E-01
       -1   -1    0    0    0  501  0.00000000000E+00  0.00000000000E+00  0.15651769620E+04  0.15651769620E+04  0.50400001928E-02 0.  1.
        1   -1    0    0  501    0  0.00000000000E+00  0.00000000000E+00 -0.85359904561E+03  0.85359904562E+03  0.50400001928E-02 0. -1.
    10030    2    1    2    0    0  0.00000000000E+00  0.00000000000E+00  0.71157791643E+03  0.24187760077E+04  0.23117383598E+04 0.  0.
        5    1    3    3  502    0 -0.23442828101E+03  0.13670117689E+03  0.15313627604E+04  0.15552291872E+04  0.46999998093E+01 0.  1.
       -5    1    3    3    0  502  0.23442828101E+03 -0.13670117689E+03 -0.81978484399E+03  0.86354682047E+03  0.46999998093E+01 0. -1.
</event>
<event>
 5   0  0.1968318E-05  0.2298919E+04  0.7818609E-02  0.8478347E-01
        1   -1    0    0  501    0  0.00000000000E+00  0.00000000000E+00  0.17384862444E+04  0.17384862444E+04  0.50400001928E-02 0. -1.
       -1   -1    0    0    0  501  0.00000000000E+00  0.00000000000E+00 -0.76000468385E+03  0.76000468387E+03  0.50400001928E-02 0.  1.
    10030    2    1    2    0    0  0.00000000000E+00  0.00000000000E+00  0.97848156055E+03  0.24984909283E+04  0.22989194754E+04 0.  0.
        3    1    3    3  502    0 -0.58600513002E+03  0.29088643664E+02 -0.58500440166E+03  0.82853987337E+03  0.10100000352E+00 0.  1.
       -3    1    3    3    0  502  0.58600513002E+03 -0.29088643664E+02  0.15634859622E+04  0.16699510549E+04  0.10100000352E+00 0. -1.
</event>
<event>
 5   0  0.2042951E-05  0.2294713E+04  0.7818609E-02  0.8480009E-01
        1   -1    0    0  501    0  0.00000000000E+00  0.00000000000E+00  0.13819072767E+04  0.13819072767E+04  0.50400001928E-02 0. -1.
       -1   -1    0    0    0  501  0.00000000000E+00  0.00000000000E+00 -0.95261565752E+03  0.95261565754E+03  0.50400001928E-02 0.  1.
    10030    2    1    2    0    0  0.00000000000E+00  0.00000000000E+00  0.42929161917E+03  0.23345229342E+04  0.22947126261E+04 0.  0.
        2    1    3    3  502    0  0.21720706784E+03  0.24244646504E+03 -0.90465385150E+03  0.96143527591E+03  0.25500000920E-02 0.  1.
       -2    1    3    3    0  502 -0.21720706784E+03 -0.24244646504E+03  0.13339454707E+04  0.13730876583E+04  0.25500000920E-02 0. -1.
</event>
<event>
 5   0  0.4798609E-05  0.2292519E+04  0.7818609E-02  0.8480877E-01
        2   -1    0    0  501    0  0.00000000000E+00  0.00000000000E+00  0.12418648936E+04  0.12418648936E+04  0.25500000920E-02 0. -1.
       -2   -1    0    0    0  501  0.00000000000E+00  0.00000000000E+00 -0.10580139081E+04  0.10580139081E+04  0.25500000920E-02 0.  1.
    10030    2    1    2    0    0  0.00000000000E+00  0.00000000000E+00  0.18385098548E+03  0.22998788017E+04  0.22925185534E+04 0.  0.
        2    1    3    3  502    0  0.57511040122E+03  0.34934574973E+03  0.10228680755E+04  0.12243584142E+04  0.25500000920E-02 0. -1.
       -2    1    3    3    0  502 -0.57511040122E+03 -0.34934574973E+03 -0.83901709007E+03  0.10755203875E+04  0.25500000920E-02 0.  1.
</event>
<event>
 5   0  0.2042951E-05  0.2209125E+04  0.7818609E-02  0.8514640E-01
        1   -1    0    0  501    0  0.00000000000E+00  0.00000000000E+00  0.98094706204E+03  0.98094706205E+03  0.50400001928E-02 0.  1.
       -1   -1    0    0    0  501  0.00000000000E+00  0.00000000000E+00 -0.12437556159E+04  0.12437556159E+04  0.50400001928E-02 0. -1.
    10030    2    1    2    0    0  0.00000000000E+00  0.00000000000E+00 -0.26280855387E+03  0.22247026780E+04  0.22091250914E+04 0.  0.
        2    1    3    3  502    0 -0.46227512007E+03  0.76721122653E+03  0.51948688207E+03  0.10354602713E+04  0.25500000920E-02 0.  1.
       -2    1    3    3    0  502  0.46227512007E+03 -0.76721122653E+03 -0.78229543594E+03  0.11892424067E+04  0.25500000920E-02 0. -1.
</event>
<event>
 5   0  0.2042951E-05  0.2181757E+04  0.7818609E-02  0.8526060E-01
       -1   -1    0    0    0  501  0.00000000000E+00  0.00000000000E+00  0.12080350763E+04  0.12080350763E+04  0.50400001928E-02 0. -1.
        1   -1    0    0  501    0  0.00000000000E+00  0.00000000000E+00 -0.98508347122E+03  0.98508347123E+03  0.50400001928E-02 0.  1.
    10030    2    1    2    0    0  0.00000000000E+00  0.00000000000E+00  0.22295160512E+03  0.21931185476E+04  0.21817565275E+04 0.  0.
        2    1    3    3  502    0 -0.96235122408E+03  0.12274230824E+03 -0.38995042735E+03  0.10455844722E+04  0.25500000920E-02 0.  1.
       -2    1    3    3    0  502  0.96235122408E+03 -0.12274230824E+03  0.61290203247E+03  0.11475340754E+04  0.25500000920E-02 0. -1.
</event>
<event>
 5   0  0.1968318E-05  0.2301056E+04  0.7818609E-02  0.8477505E-01
        1   -1    0    0  501    0  0.00000000000E+00  0.00000000000E+00  0.23569150934E+04  0.23569150934E+04  0.50400001928E-02 0. -1.
       -1   -1    0    0    0  501  0.00000000000E+00  0.00000000000E+00 -0.56162999050E+03  0.56162999052E+03  0.50400001928E-02 0.  1.
    10030    2    1    2    0    0  0.00000000000E+00  0.00000000000E+00  0.17952851029E+04  0.29185450839E+04  0.23010555852E+04 0.  0.
        3    1    3    3  502    0  0.53647110094E+03 -0.79270260702E+03  0.87946477758E+02  0.96120406703E+03  0.10100000352E+00 0.  1.
       -3    1    3    3    0  502 -0.53647110094E+03  0.79270260702E+03  0.17073386251E+04  0.19573410169E+04  0.10100000352E+00 0. -1.
</event>
<event>
 5   0  0.4605516E-05  0.2292271E+04  0.7818609E-02  0.8480975E-01
        2   -1    0    0  501    0  0.00000000000E+00  0.00000000000E+00  0.18407762002E+04  0.18407762002E+04  0.25500000920E-02 0.  1.
       -2   -1    0    0    0  501  0.00000000000E+00  0.00000000000E+00 -0.71362660472E+03  0.71362660472E+03  0.25500000920E-02 0. -1.
    10030    2    1    2    0    0  0.00000000000E+00  0.00000000000E+00  0.11271495955E+04  0.25544028049E+04  0.22922712490E+04 0.  0.
        1    1    3    3  502    0  0.16748228518E+03 -0.67583495653E+03 -0.45093079760E+03  0.82954312038E+03  0.50400001928E-02 0. -1.
       -1    1    3    3    0  502 -0.16748228518E+03  0.67583495653E+03  0.15780803931E+04  0.17248596845E+04  0.50400001928E-02 0.  1.
</event>
<event>
 5   0  0.4505107E-05  0.2126938E+04  0.7818609E-02  0.8549469E-01
        2   -1    0    0  501    0  0.00000000000E+00  0.00000000000E+00  0.20873373982E+04  0.20873373982E+04  0.25500000920E-02 0.  1.
       -2   -1    0    0    0  501  0.00000000000E+00  0.00000000000E+00 -0.54182272868E+03  0.54182272869E+03  0.25500000920E-02 0. -1.
    10030    2    1    2    0    0  0.00000000000E+00  0.00000000000E+00  0.15455146695E+04  0.26291601269E+04  0.21269384992E+04 0.  0.
        4    1    3    3  502    0 -0.18749658590E+03 -0.32919680268E+03  0.20010939644E+04  0.20366404130E+04  0.12699999809E+01 0.  1.
       -4    1    3    3    0  502  0.18749658590E+03  0.32919680268E+03 -0.45557929484E+03  0.59251971394E+03  0.12699999809E+01 0. -1.
</event>
<event>
 5   0  0.2085063E-05  0.2302792E+04  0.7818609E-02  0.8476821E-01
        1   -1    0    0  501    0  0.00000000000E+00  0.00000000000E+00  0.13136826980E+04  0.13136826980E+04  0.50400001928E-02 0.  1.
       -1   -1    0    0    0  501  0.00000000000E+00  0.00000000000E+00 -0.10091571560E+04  0.10091571560E+04  0.50400001928E-02 0. -1.
    10030    2    1    2    0    0  0.00000000000E+00  0.00000000000E+00  0.30452554205E+03  0.23228398540E+04  0.23027916062E+04 0.  0.
        1    1    3    3  502    0  0.49295071668E+03 -0.91449032755E+02  0.11977947361E+04  0.12984897245E+04  0.50400001928E-02 0.  1.
       -1    1    3    3    0  502 -0.49295071668E+03  0.91449032755E+02 -0.89326919408E+03  0.10243501295E+04  0.50400001928E-02 0. -1.
</event>
<event>
 5   0  0.4605516E-05  0.2300092E+04  0.7818609E-02  0.8477885E-01
       -2   -1    0    0    0  501  0.00000000000E+00  0.00000000000E+00  0.77748340149E+03  0.77748340150E+03  0.25500000920E-02 0.  1.
        2   -1    0    0  501    0  0.00000000000E+00  0.00000000000E+00 -0.17011374469E+04  0.17011374469E+04  0.25500000920E-02 0. -1.
    10030    2    1    2    0    0  0.00000000000E+00  0.00000000000E+00 -0.92365404536E+03  0.24786208484E+04  0.23000922839E+04 0.  0.
        1    1    3    3  502    0 -0.11109430736E+04 -0.26714059516E+03 -0.60252745101E+03  0.12917422110E+04  0.50400001928E-02 0.  1.
       -1    1    3    3    0  502  0.11109430736E+04  0.26714059516E+03 -0.32112659434E+03  0.11868786374E+04  0.50400001928E-02 0. -1.
</event>
<event>
 5   0  0.4505107E-05  0.2293932E+04  0.7818609E-02  0.8480318E-01
       -2   -1    0    0    0  501  0.00000000000E+00  0.00000000000E+00  0.15125095633E+04  0.15125095633E+04  0.25500000920E-02 0. -1.
        2   -1    0    0  501    0  0.00000000000E+00  0.00000000000E+00 -0.86976671605E+03  0.86976671606E+03  0.25500000920E-02 0.  1.
    10030    2    1    2    0    0  0.00000000000E+00  0.00000000000E+00  0.64274284729E+03  0.23822762794E+04  0.22939315386E+04 0.  0.
        4    1    3    3  502    0  0.35910281497E+03  0.11311689035E+03 -0.80376392117E+03  0.88757440053E+03  0.12699999809E+01 0.  1.
       -4    1    3    3    0  502 -0.35910281497E+03 -0.11311689035E+03  0.14465067685E+04  0.14947018789E+04  0.12699999809E+01 0. -1.
</event>
<event>
 5   0  0.4436695E-05  0.2180459E+04  0.7818609E-02  0.8526606E-01
        2   -1    0    0  501    0  0.00000000000E+00  0.00000000000E+00  0.49047372575E+03  0.49047372575E+03  0.25500000920E-02 0.  1.
       -2   -1    0    0    0  501  0.00000000000E+00  0.00000000000E+00 -0.24233718637E+04  0.24233718637E+04  0.25500000920E-02 0. -1.
    10030    2    1    2    0    0  0.00000000000E+00  0.00000000000E+00 -0.19328981379E+04  0.29138455894E+04  0.21804588754E+04 0.  0.
        5    1    3    3  502    0 -0.27917874402E+03  0.10289590735E+04 -0.66206558043E+03  0.12550101469E+04  0.46999998093E+01 0.  1.
       -5    1    3    3    0  502  0.27917874402E+03 -0.10289590735E+04 -0.12708325575E+04  0.16588354425E+04  0.46999998093E+01 0. -1.
</event>
<event>
 5   0  0.4605516E-05  0.2176133E+04  0.7818609E-02  0.8528428E-01
       -2   -1    0    0    0  501  0.00000000000E+00  0.00000000000E+00  0.15327883812E+04  0.15327883812E+04  0.25500000920E-02 0.  1.
        2   -1    0    0  501    0  0.00000000000E+00  0.00000000000E+00 -0.77237605821E+03  0.77237605821E+03  0.25500000920E-02 0. -1.
    10030    2    1    2    0    0  0.00000000000E+00  0.00000000000E+00  0.76041232298E+03  0.23051644394E+04  0.21761333120E+04 0.  0.
        1    1    3    3  502    0 -0.10316692242E+04 -0.24976822746E+03  0.63347151975E+03  0.12361277126E+04  0.50400001928E-02 0.  1.
       -1    1    3    3    0  502  0.10316692242E+04  0.24976822746E+03  0.12694080323E+03  0.10690367268E+04  0.50400001928E-02 0. -1.
</event>
<event>
 5   0  0.4436695E-05  0.2322930E+04  0.7818609E-02  0.8468935E-01
        2   -1    0    0  501    0  0.00000000000E+00  0.00000000000E+00  0.18938757381E+04  0.18938757381E+04  0.25500000920E-02 0. -1.
       -2   -1    0    0    0  501  0.00000000000E+00  0.00000000000E+00 -0.71229639033E+03  0.71229639034E+03  0.25500000920E-02 0.  1.
    10030    2    1    2    0    0  0.00000000000E+00  0.00000000000E+00  0.11815793478E+04  0.26061721284E+04  0.23229299189E+04 0.  0.
        5    1    3    3  502    0  0.14178766123E+03 -0.10597040926E+04  0.81696185529E+02  0.10722746204E+04  0.46999998093E+01 0.  1.
       -5    1    3    3    0  502 -0.14178766123E+03  0.10597040926E+04  0.10998831622E+04  0.15338975081E+04  0.46999998093E+01 0. -1.
</event>
<event>
 5   0  0.4605516E-05  0.2315969E+04  0.7818609E-02  0.8471651E-01
       -2   -1    0    0    0  501  0.00000000000E+00  0.00000000000E+00  0.10622958267E+04  0.10622958267E+04  0.25500000920E-02 0.  1.
        2   -1    0    0  501    0  0.00000000000E+00  0.00000000000E+00 -0.12622930741E+04  0.12622930741E+04  0.25500000920E-02 0. -1.
    10030    2    1    2    0    0  0.00000000000E+00  0.00000000000E+00 -0.19999724732E+03  0.23245889008E+04  0.23159694857E+04 0.  0.
        1    1    3    3  502    0  0.10861594048E+04 -0.38366134048E+03  0.18722556008E+02  0.11520802103E+04  0.50400001928E-02 0.  1.
       -1    1    3    3    0  502 -0.10861594048E+04  0.38366134048E+03 -0.21871980333E+03  0.11725086905E+04  0.50400001928E-02 0. -1.
</event>
<event>
 5   0  0.2031860E-05  0.2323677E+04  0.7818609E-02  0.8468644E-01
        1   -1    0    0  501    0  0.00000000000E+00  0.00000000000E+00  0.10025789206E+04  0.10025789206E+04  0.50400001928E-02 0.  1.
       -1   -1    0    0    0  501  0.00000000000E+00  0.00000000000E+00 -0.13463968706E+04  0.13463968706E+04  0.50400001928E-02 0. -1.
    10030    2    1    2    0    0  0.00000000000E+00  0.00000000000E+00 -0.34381795000E+03  0.23489757912E+04  0.23236773625E+04 0.  0.
        4    1    3    3  502    0 -0.96438149026E+03 -0.86507156076E+02 -0.82104686112E+03  0.12695017558E+04  0.12699999809E+01 0. -1.
       -4    1    3    3    0  502  0.96438149026E+03  0.86507156076E+02  0.47722891112E+03  0.10794740355E+04  0.12699999809E+01 0.  1.
</event>
<event>
 5   0  0.1968318E-05  0.2276551E+04  0.7818609E-02  0.8487224E-01
        1   -1    0    0  501    0  0.00000000000E+00  0.00000000000E+00  0.11060143530E+04  0.11060143530E+04  0.50400001928E-02 0. -1.
       -1   -1    0    0    0  501  0.00000000000E+00  0.00000000000E+00 -0.11714777449E+04  0.11714777449E+04  0.50400001928E-02 0.  1.
    10030    2    1    2    0    0  0.00000000000E+00  0.00000000000E+00 -0.65463391905E+02  0.22774920979E+04  0.22765510757E+04 0.  0.
        3    1    3    3  502    0  0.19614425120E+03 -0.11163714723E+04 -0.13724189869E+03  0.11417500516E+04  0.10100000352E+00 0.  1.
       -3    1    3    3    0  502 -0.19614425120E+03  0.11163714723E+04  0.71778506786E+02  0.11357420463E+04  0.10100000352E+00 0. -1.
</event>
<event>
 5   0  0.4605516E-05  0.2303420E+04  0.7818609E-02  0.8476574E-01
        2   -1    0    0  501    0  0.00000000000E+00  0.00000000000E+00  0.21591638069E+04  0.21591638070E+04  0.25500000920E-02 0.  1.
       -2   -1    0    0    0  501  0.00000000000E+00  0.00000000000E+00 -0.61432850245E+03  0.61432850246E+03  0.25500000920E-02 0. -1.
    10030    2    1    2    0    0  0.00000000000E+00  0.00000000000E+00  0.15448353045E+04  0.27734923094E+04  0.23034199514E+04 0.  0.
        1    1    3    3  502    0 -0.84452565880E+02 -0.77043309440E+03 -0.25333658227E+03  0.81540101347E+03  0.50400001928E-02 0. -1.
       -1    1    3    3    0  502  0.84452565880E+02  0.77043309440E+03  0.17981718868E+04  0.19580912959E+04  0.50400001928E-02 0.  1.
</event>
<event>
 5   0  0.2042951E-05  0.2291020E+04  0.7818609E-02  0.8481470E-01
       -1   -1    0    0    0  501  0.00000000000E+00  0.00000000000E+00  0.76325832679E+03  0.76325832681E+03  0.50400001928E-02 0.  1.
        1   -1    0    0  501    0  0.00000000000E+00  0.00000000000E+00 -0.17191989937E+04  0.17191989937E+04  0.50400001928E-02 0. -1.
    10030    2    1    2    0    0  0.00000000000E+00  0.00000000000E+00 -0.95594066688E+03  0.24824573205E+04  0.22910198143E+04 0.  0.
        2    1    3    3  502    0  0.11017341875E+04  0.42662114896E+02 -0.14127306710E+03  0.11115738192E+04  0.25500000920E-02 0. -1.
       -2    1    3    3    0  502 -0.11017341875E+04 -0.42662114896E+02 -0.81466759977E+03  0.13708835013E+04  0.25500000920E-02 0.  1.
</event>
<event>
 5   0  0.4798609E-05  0.2301364E+04  0.7818609E-02  0.8477384E-01
       -2   -1    0    0    0  501  0.00000000000E+00  0.00000000000E+00  0.11145357496E+04  0.11145357496E+04  0.25500000920E-02 0. -1.
        2   -1    0    0  501    0  0.00000000000E+00  0.00000000000E+00 -0.11880002546E+04  0.11880002546E+04  0.25500000920E-02 0.  1.
    10030    2    1    2    0    0  0.00000000000E+00  0.00000000000E+00 -0.73464505016E+02  0.23025360042E+04  0.23013637299E+04 0.  0.
        2    1    3    3  502    0  0.11565131641E+03  0.54624581043E+03  0.96991595295E+03  0.11191499757E+04  0.25500000920E-02 0. -1.
       -2    1    3    3    0  502 -0.11565131641E+03 -0.54624581043E+03 -0.10433804580E+04  0.11833860285E+04  0.25500000920E-02 0.  1.
</event>
<event>
 5   0  0.2031860E-05  0.2307205E+04  0.7818609E-02  0.8475086E-01
       -1   -1    0    0    0  501  0.00000000000E+00  0.00000000000E+00  0.65880328032E+03  0.65880328034E+03  0.50400001928E-02 0.  1.
        1   -1    0    0  501    0  0.00000000000E+00  0.00000000000E+00 -0.20200241094E+04  0.20200241094E+04  0.50400001928E-02 0. -1.
    10030    2    1    2    0    0  0.00000000000E+00  0.00000000000E+00 -0.13612208291E+04  0.26788273898E+04  0.23072048107E+04 0.  0.
        4    1    3    3  502    0  0.96332930968E+03  0.63448131544E+03 -0.66311719259E+03  0.13305246794E+04  0.12699999809E+01 0. -1.
       -4    1    3    3    0  502 -0.96332930968E+03 -0.63448131544E+03 -0.69810363651E+03  0.13483027103E+04  0.12699999809E+01 0.  1.
</event>
<event>
 5   0  0.4436695E-05  0.2319880E+04  0.7818609E-02  0.8470124E-01
       -2   -1    0    0    0  501  0.00000000000E+00  0.00000000000E+00  0.15066017272E+04  0.15066017272E+04  0.25500000920E-02 0. -1.
        2   -1    0    0  501    0  0.00000000000E+00  0.00000000000E+00 -0.89304308821E+03  0.89304308821E+03  0.25500000920E-02 0.  1.
    10030    2    1    2    0    0  0.00000000000E+00  0.00000000000E+00  0.61355863895E+03  0.23996448154E+04  0.23198795306E+04 0.  0.
        5    1    3    3  502    0 -0.23416762366E+03 -0.14218628697E+03 -0.85908902209E+03  0.90172471079E+03  0.46999998093E+01 0.  1.
       -5    1    3    3    0  502  0.23416762366E+03  0.14218628697E+03  0.14726476610E+04  0.14979201046E+04  0.46999998093E+01 0. -1.
</event>
<event>
 5   0  0.2031860E-05  0.2289518E+04  0.7818609E-02  0.8482066E-01
       -1   -1    0    0    0  501  0.00000000000E+00  0.00000000000E+00  0.12272383909E+04  0.12272383909E+04  0.50400001928E-02 0. -1.
        1   -1    0    0  501    0  0.00000000000E+00  0.00000000000E+00 -0.10678224996E+04  0.10678224997E+04  0.50400001928E-02 0.  1.
    10030    2    1    2    0    0  0.00000000000E+00  0.00000000000E+00  0.15941589121E+03  0.22950608905E+04  0.22895176489E+04 0.  0.
        4    1    3    3  502    0 -0.11147363353E+04 -0.24904709847E+03  0.15611321032E+03  0.11528375870E+04  0.12699999809E+01 0.  1.
       -4    1    3    3    0  502  0.11147363353E+04  0.24904709847E+03  0.33026808896E+01  0.11422233036E+04  0.12699999809E+01 0. -1.
</event>
<event>
 5   0  0.4605516E-05  0.2299780E+04  0.7818609E-02  0.8478008E-01
        2   -1    0    0  501    0  0.00000000000E+00  0.00000000000E+00  0.25327498272E+04  0.25327498272E+04  0.25500000920E-02 0. -1.
       -2   -1    0    0    0  501  0.00000000000E+00  0.00000000000E+00 -0.52205966557E+03  0.52205966558E+03  0.25500000920E-02 0.  1.
    10030    2    1    2    0    0  0.00000000000E+00  0.00000000000E+00  0.20106901617E+04  0.30548094928E+04  0.22997795788E+04 0.  0.
        1    1    3    3  502    0 -0.77894820890E+03 -0.84048841820E+03  0.11318164528E+04  0.16106488060E+04  0.50400001928E-02 0. -1.
       -1    1    3    3    0  502  0.77894820890E+03  0.84048841820E+03  0.87887370883E+03  0.14441606868E+04  0.50400001928E-02 0.  1.
</event>
<event>
 5   0  0.2042951E-05  0.2283156E+04  0.7818609E-02  0.8484592E-01
       -1   -1    0    0    0  501  0.00000000000E+00  0.00000000000E+00  0.71134635901E+03  0.71134635903E+03  0.50400001928E-02 0.  1.
        1   -1    0    0  501    0  0.00000000000E+00  0.00000000000E+00 -0.18320195784E+04  0.18320195784E+04  0.50400001928E-02 0. -1.
    10030    2    1    2    0    0  0.00000000000E+00  0.00000000000E+00 -0.11206732194E+04  0.25433659374E+04  0.22831561110E+04 0.  0.
        2    1    3    3  502    0 -0.29975081220E+03 -0.86805079596E+02 -0.17835818810E+04  0.18106766684E+04  0.25500000920E-02 0. -1.
       -2    1    3    3    0  502  0.29975081220E+03  0.86805079596E+02  0.66290866163E+03  0.73268926902E+03  0.25500000920E-02 0.  1.
</event>
<event>
 5   0  0.2042951E-05  0.2329967E+04  0.7818609E-02  0.8466198E-01
        1   -1    0    0  501    0  0.00000000000E+00  0.00000000000E+00  0.17696130445E+04  0.17696130445E+04  0.50400001928E-02 0.  1.
       -1   -1    0    0    0  501  0.00000000000E+00  0.00000000000E+00 -0.76693988059E+03  0.76693988061E+03  0.50400001928E-02 0. -1.
    10030    2    1    2    0    0  0.00000000000E+00  0.00000000000E+00  0.10026731639E+04  0.25365529251E+04  0.23299672247E+04 0.  0.
        2    1    3    3  502    0 -0.50356493673E+02 -0.45004967941E+03  0.16698680093E+04  0.17301848626E+04  0.25500000920E-02 0.  1.
       -2    1    3    3    0  502  0.50356493673E+02  0.45004967941E+03 -0.66719484542E+03  0.80636806245E+03  0.25500000920E-02 0. -1.
</event>
<event>
 5   0  0.1968318E-05  0.2299612E+04  0.7818609E-02  0.8478074E-01
        1   -1    0    0  501    0  0.00000000000E+00  0.00000000000E+00  0.97617886117E+03  0.97617886118E+03  0.50400001928E-02 0.  1.
       -1   -1    0    0    0  501  0.00000000000E+00  0.00000000000E+00 -0.13543153774E+04  0.13543153774E+04  0.50400001928E-02 0. -1.
    10030    2    1    2    0    0  0.00000000000E+00  0.00000000000E+00 -0.37813651622E+03  0.23304942386E+04  0.22996121784E+04 0.  0.
        3    1    3    3  502    0 -0.37304931964E+03  0.69649662080E+03  0.65748231609E+03  0.10278892663E+04  0.10100000352E+00 0.  1.
       -3    1    3    3    0  502  0.37304931964E+03 -0.69649662080E+03 -0.10356188323E+04  0.13026049722E+04  0.10100000352E+00 0. -1.
</event>
<event>
 5   0  0.2043885E-05  0.2301805E+04  0.7818609E-02  0.8477210E-01
        1   -1    0    0  501    0  0.00000000000E+00  0.00000000000E+00  0.51171511750E+03  0.51171511753E+03  0.50400001928E-02 0. -1.
       -1   -1    0    0    0  501  0.00000000000E+00  0.00000000000E+00 -0.25885039209E+04  0.25885039209E+04  0.50400001928E-02 0.  1.
    10030    2    1    2    0    0  0.00000000000E+00  0.00000000000E+00 -0.20767888034E+04  0.31002190384E+04  0.23018050205E+04 0.  0.
        5    1    3    3  502    0  0.99656235571E+03 -0.41245099170E+02 -0.26501181145E+03  0.10320324788E+04  0.46999998093E+01 0. -1.
       -5    1    3    3    0  502 -0.99656235571E+03  0.41245099170E+02 -0.18117769920E+04  0.20681865597E+04  0.46999998093E+01 0.  1.
</event>
<event>
 5   0  0.2031860E-05  0.2300979E+04  0.7818609E-02  0.8477535E-01
       -1   -1    0    0    0  501  0.00000000000E+00  0.00000000000E+00  0.10097029251E+04  0.10097029251E+04  0.50400001928E-02 0.  1.
        1   -1    0    0  501    0  0.00000000000E+00  0.00000000000E+00 -0.13109063661E+04  0.13109063661E+04  0.50400001928E-02 0. -1.
    10030    2    1    2    0    0  0.00000000000E+00  0.00000000000E+00 -0.30120344098E+03  0.23206092912E+04  0.23009789155E+04 0.  0.
        4    1    3    3  502    0 -0.33942264154E+03 -0.47624701929E+03  0.84861078994E+03  0.10306118759E+04  0.12699999809E+01 0.  1.
       -4    1    3    3    0  502  0.33942264154E+03  0.47624701929E+03 -0.11498142309E+04  0.12899974153E+04  0.12699999809E+01 0. -1.
</event>
<event>
 5   0  0.4505107E-05  0.2257495E+04  0.7818609E-02  0.8494871E-01
       -2   -1    0    0    0  501  0.00000000000E+00  0.00000000000E+00  0.12960284195E+04  0.12960284195E+04  0.25500000920E-02 0. -1.
        2   -1    0    0  501    0  0.00000000000E+00  0.00000000000E+00 -0.98305772136E+03  0.98305772136E+03  0.25500000920E-02 0.  1.
    10030    2    1    2    0    0  0.00000000000E+00  0.00000000000E+00  0.31297069812E+03  0.22790861408E+04  0.22574948459E+04 0.  0.
        4    1    3    3  502    0 -0.59001531133E+03 -0.72353062409E+03  0.79694587374E+03  0.12274929614E+04  0.12699999809E+01 0. -1.
       -4    1    3    3    0  502  0.59001531133E+03  0.72353062409E+03 -0.48397517563E+03  0.10515931795E+04  0.12699999809E+01 0.  1.
</event>
<event>
 5   0  0.4605516E-05  0.2295911E+04  0.7818609E-02  0.8479535E-01
        2   -1    0    0  501    0  0.00000000000E+00  0.00000000000E+00  0.24215781523E+04  0.24215781523E+04  0.25500000920E-02 0. -1.
       -2   -1    0    0    0  501  0.00000000000E+00  0.00000000000E+00 -0.54419119414E+03  0.54419119415E+03  0.25500000920E-02 0.  1.
    10030    2    1    2    0    0  0.00000000000E+00  0.00000000000E+00  0.18773869581E+04  0.29657693464E+04  0.22959107181E+04 0.  0.
        1    1    3    3  502    0  0.36543105680E+03 -0.91208174755E+03  0.17054914181E+04  0.19682819790E+04  0.50400001928E-02 0. -1.
       -1    1    3    3    0  502 -0.36543105680E+03  0.91208174755E+03  0.17189554001E+03  0.99748736743E+03  0.50400001928E-02 0.  1.
</event>
<event>
 5   0  0.4436695E-05  0.2296601E+04  0.7818609E-02  0.8479262E-01
        2   -1    0    0  501    0  0.00000000000E+00  0.00000000000E+00  0.14249862369E+04  0.14249862369E+04  0.25500000920E-02 0.  1.
       -2   -1    0    0    0  501  0.00000000000E+00  0.00000000000E+00 -0.92533840919E+03  0.92533840919E+03  0.25500000920E-02 0. -1.
    10030    2    1    2    0    0  0.00000000000E+00  0.00000000000E+00  0.49964782771E+03  0.23503246461E+04  0.22966014000E+04 0.  0.
        5    1    3    3  502    0  0.76724440011E+03  0.67373434748E+03  0.78746106386E+03  0.12894568460E+04  0.46999998093E+01 0.  1.
       -5    1    3    3    0  502 -0.76724440011E+03 -0.67373434748E+03 -0.28781323615E+03  0.10608678001E+04  0.46999998093E+01 0. -1.
</event>
<event>
 5   0  0.4798609E-05  0.2266300E+04  0.7818609E-02  0.8491328E-01
       -2   -1    0    0    0  501  0.00000000000E+00  0.00000000000E+00  0.11372881910E+04  0.11372881911E+04  0.25500000920E-02 0.  1.
        2   -1    0    0  501    0  0.00000000000E+00  0.00000000000E+00 -0.11290271970E+04  0.11290271970E+04  0.25500000920E-02 0. -1.
    10030    2    1    2    0    0  0.00000000000E+00  0.00000000000E+00  0.82609940484E+01  0.22663153881E+04  0.22663003318E+04 0.  0.
        2    1    3    3  502    0  0.90144250207E+02 -0.10020288979E+04 -0.51725708670E+03  0.11312571731E+04  0.25500000920E-02 0. -1.
       -2    1    3    3    0  502 -0.90144250207E+02  0.10020288979E+04  0.52551808075E+03  0.11350582149E+04  0.25500000920E-02 0.  1.
</event>
<event>
 5   0  0.2042951E-05  0.2346853E+04  0.7818609E-02  0.8459673E-01
       -1   -1    0    0    0  501  0.00000000000E+00  0.00000000000E+00  0.11730238437E+04  0.11730238437E+04  0.50400001928E-02 0. -1.
        1   -1    0    0  501    0  0.00000000000E+00  0.00000000000E+00 -0.11738297805E+04  0.11738297805E+04  0.50400001928E-02 0.  1.
    10030    2    1    2    0    0  0.00000000000E+00  0.00000000000E+00 -0.80593681005E+00  0.23468536242E+04  0.23468534859E+04 0.  0.
        2    1    3    3  502    0 -0.58148323789E+02 -0.54030557923E+03 -0.10404121520E+04  0.11737839634E+04  0.25500000920E-02 0.  1.
       -2    1    3    3    0  502  0.58148323789E+02  0.54030557923E+03  0.10396062152E+04  0.11730696609E+04  0.25500000920E-02 0. -1.
</event>
<event>
 5   0  0.2085063E-05  0.2288737E+04  0.7818609E-02  0.8482375E-01
        1   -1    0    0  501    0  0.00000000000E+00  0.00000000000E+00  0.13926158153E+04  0.13926158153E+04  0.50400001928E-02 0.  1.
       -1   -1    0    0    0  501  0.00000000000E+00  0.00000000000E+00 -0.94037359784E+03  0.94037359785E+03  0.50400001928E-02 0. -1.
    10030    2    1    2    0    0  0.00000000000E+00  0.00000000000E+00  0.45224221743E+03  0.23329894131E+04  0.22887368959E+04 0.  0.
        1    1    3    3  502    0 -0.25727296177E+03 -0.10298281547E+04 -0.20974885736E+03  0.10820027672E+04  0.50400001928E-02 0. -1.
       -1    1    3    3    0  502  0.25727296177E+03  0.10298281547E+04  0.66199107479E+03  0.12509866459E+04  0.50400001928E-02 0.  1.
</event>
<event>
 5   0  0.4436695E-05  0.2665084E+04  0.7818609E-02  0.8346424E-01
        2   -1    0    0  501    0  0.00000000000E+00  0.00000000000E+00  0.12056264955E+04  0.12056264955E+04  0.25500000920E-02 0.  1.
       -2   -1    0    0    0  501  0.00000000000E+00  0.00000000000E+00 -0.14728179885E+04  0.14728179885E+04  0.25500000920E-02 0. -1.
    10030    2    1    2    0    0  0.00000000000E+00  0.00000000000E+00 -0.26719149300E+03  0.26784444841E+04  0.26650841563E+04 0.  0.
        5    1    3    3  502    0 -0.12921357721E+04 -0.32098291332E+03 -0.78535923409E+02  0.13337296823E+04  0.46999998093E+01 0.  1.
       -5    1    3    3    0  502  0.12921357721E+04  0.32098291332E+03 -0.18865556959E+03  0.13447148018E+04  0.46999998093E+01 0. -1.
</event>
<event>
 5   0  0.4605516E-05  0.2316160E+04  0.7818609E-02  0.8471577E-01
        2   -1    0    0  501    0  0.00000000000E+00  0.00000000000E+00  0.18700344716E+04  0.18700344716E+04  0.25500000920E-02 0. -1.
       -2   -1    0    0    0  501  0.00000000000E+00  0.00000000000E+00 -0.71717880866E+03  0.71717880866E+03  0.25500000920E-02 0.  1.
    10030    2    1    2    0    0  0.00000000000E+00  0.00000000000E+00  0.11528556630E+04  0.25872132803E+04  0.23161598343E+04 0.  0.
        1    1    3    3  502    0 -0.57734913243E+03 -0.24603938860E+03 -0.51075673340E+03  0.80915996083E+03  0.50400001928E-02 0.  1.
       -1    1    3    3    0  502  0.57734913243E+03  0.24603938860E+03  0.16636123964E+04  0.17780533195E+04  0.50400001928E-02 0. -1.
</event>
<event>
 5   0  0.2043885E-05  0.2297580E+04  0.7818609E-02  0.8478876E-01
        1   -1    0    0  501    0  0.00000000000E+00  0.00000000000E+00  0.16155638933E+04  0.16155638933E+04  0.50400001928E-02 0. -1.
       -1   -1    0    0    0  501  0.00000000000E+00  0.00000000000E+00 -0.81687758789E+03  0.81687758791E+03  0.50400001928E-02 0.  1.
    10030    2    1    2    0    0  0.00000000000E+00  0.00000000000E+00  0.79868630538E+03  0.24324414812E+04  0.22975795405E+04 0.  0.
        5    1    3    3  502    0 -0.24764414188E+03  0.43566074251E+03 -0.69504886378E+03  0.85687975622E+03  0.46999998093E+01 0.  1.
       -5    1    3    3    0  502  0.24764414188E+03 -0.43566074251E+03  0.14937351692E+04  0.15755617250E+04  0.46999998093E+01 0. -1.
</event>
<event>
 5   0  0.1968318E-05  0.2289042E+04  0.7818609E-02  0.8482254E-01
        1   -1    0    0  501    0  0.00000000000E+00  0.00000000000E+00  0.11412784803E+04  0.11412784803E+04  0.50400001928E-02 0.  1.
       -1   -1    0    0    0  501  0.00000000000E+00  0.00000000000E+00 -0.11477730953E+04  0.11477730953E+04  0.50400001928E-02 0. -1.
    10030    2    1    2    0    0  0.00000000000E+00  0.00000000000E+00 -0.64946150107E+01  0.22890515756E+04  0.22890423622E+04 0.  0.
        3    1    3    3  502    0 -0.30222504500E+03  0.94111161684E+03 -0.58022248067E+03  0.11461628115E+04  0.10100000352E+00 0. -1.
       -3    1    3    3    0  502  0.30222504500E+03 -0.94111161684E+03  0.57372786565E+03  0.11428887641E+04  0.10100000352E+00 0.  1.
</event>
<event>
 5   0  0.4436695E-05  0.2290356E+04  0.7818609E-02  0.8481733E-01
       -2   -1    0    0    0  501  0.00000000000E+00  0.00000000000E+00  0.12793592746E+04  0.12793592746E+04  0.25500000920E-02 0. -1.
        2   -1    0    0  501    0  0.00000000000E+00  0.00000000000E+00 -0.10250697775E+04  0.10250697775E+04  0.25500000920E-02 0.  1.
    10030    2    1    2    0    0  0.00000000000E+00  0.00000000000E+00  0.25428949710E+03  0.23044290521E+04  0.22903558911E+04 0.  0.
        5    1    3    3  502    0  0.77547855991E+03  0.47846506466E+01  0.97494946641E+03  0.12457682135E+04  0.46999998093E+01 0. -1.
       -5    1    3    3    0  502 -0.77547855991E+03 -0.47846506466E+01 -0.72065996931E+03  0.10586608386E+04  0.46999998093E+01 0.  1.
</event>
<event>
 5   0  0.1968318E-05  0.2257349E+04  0.7818609E-02  0.8494930E-01
        1   -1    0    0  501    0  0.00000000000E+00  0.00000000000E+00  0.91351839821E+03  0.91351839822E+03  0.50400001928E-02 0. -1.
       -1   -1    0    0    0  501  0.00000000000E+00  0.00000000000E+00 -0.13945047311E+04  0.13945047311E+04  0.50400001928E-02 0.  1.
    10030    2    1    2    0    0  0.00000000000E+00  0.00000000000E+00 -0.48098633289E+03  0.23080231293E+04  0.22573486468E+04 0.  0.
        3    1    3    3  502    0  0.70433022475E+03  0.83428035535E+03  0.51935986494E+02  0.10930700498E+04  0.10100000352E+00 0. -1.
       -3    1    3    3    0  502 -0.70433022475E+03 -0.83428035535E+03 -0.53292231939E+03  0.12149530796E+04  0.10100000352E+00 0.  1.
</event>
<event>
 5   0  0.4436695E-05  0.2276902E+04  0.7818609E-02  0.8487084E-01
       -2   -1    0    0    0  501  0.00000000000E+00  0.00000000000E+00  0.11101967612E+04  0.11101967612E+04  0.25500000920E-02 0.  1.
        2   -1    0    0  501    0  0.00000000000E+00  0.00000000000E+00 -0.11674247404E+04  0.11674247404E+04  0.25500000920E-02 0. -1.
    10030    2    1    2    0    0  0.00000000000E+00  0.00000000000E+00 -0.57227979127E+02  0.22776215016E+04  0.22769024272E+04 0.  0.
        5    1    3    3  502    0 -0.49230789347E+02  0.59057223231E+03 -0.10009548396E+04  0.11632419839E+04  0.46999998093E+01 0. -1.
       -5    1    3    3    0  502  0.49230789347E+02 -0.59057223231E+03  0.94372686051E+03  0.11143795177E+04  0.46999998093E+01 0.  1.
</event>
<event>
 5   0  0.2042951E-05  0.2329057E+04  0.7818609E-02  0.8466552E-01
       -1   -1    0    0    0  501  0.00000000000E+00  0.00000000000E+00  0.72418207098E+03  0.72418207100E+03  0.50400001928E-02 0.  1.
        1   -1    0    0  501    0  0.00000000000E+00  0.00000000000E+00 -0.18726319191E+04  0.18726319191E+04  0.50400001928E-02 0. -1.
    10030    2    1    2    0    0  0.00000000000E+00  0.00000000000E+00 -0.11484498481E+04  0.25968139901E+04  0.23290568575E+04 0.  0.
        2    1    3    3  502    0 -0.65074699449E+03  0.88155222845E+03 -0.10139229786E+04  0.14928649600E+04  0.25500000920E-02 0. -1.
       -2    1    3    3    0  502  0.65074699449E+03 -0.88155222845E+03 -0.13452686950E+03  0.11039490301E+04  0.25500000920E-02 0.  1.
</event>
<event>
 5   0  0.4605516E-05  0.2297517E+04  0.7818609E-02  0.8478901E-01
        2   -1    0    0  501    0  0.00000000000E+00  0.00000000000E+00  0.87986727587E+03  0.87986727587E+03  0.25500000920E-02 0.  1.
       -2   -1    0    0    0  501  0.00000000000E+00  0.00000000000E+00 -0.14998241628E+04  0.14998241628E+04  0.25500000920E-02 0. -1.
    10030    2    1    2    0    0  0.00000000000E+00  0.00000000000E+00 -0.61995688698E+03  0.23796914387E+04  0.22975170950E+04 0.  0.
        1    1    3    3  502    0 -0.53650738210E+03 -0.60809470630E+03 -0.11527302671E+04  0.14093993088E+04  0.50400001928E-02 0. -1.
       -1    1    3    3    0  502  0.53650738210E+03  0.60809470630E+03  0.53277338011E+03  0.97029212995E+03  0.50400001928E-02 0.  1.
</event>
<event>
 5   0  0.2042951E-05  0.2334698E+04  0.7818609E-02  0.8464365E-01
        1   -1    0    0  501    0  0.00000000000E+00  0.00000000000E+00  0.10876861098E+04  0.10876861098E+04  0.50400001928E-02 0. -1.
       -1   -1    0    0    0  501  0.00000000000E+00  0.00000000000E+00 -0.12528462012E+04  0.12528462012E+04  0.50400001928E-02 0.  1.
    10030    2    1    2    0    0  0.00000000000E+00  0.00000000000E+00 -0.16516009140E+03  0.23405323110E+04  0.23346977627E+04 0.  0.
        2    1    3    3  502    0  0.61473841750E+03  0.18648111515E+03  0.89454796682E+03  0.11013149382E+04  0.25500000920E-02 0. -1.
       -2    1    3    3    0  502 -0.61473841750E+03 -0.18648111515E+03 -0.10597080582E+04  0.12392173727E+04  0.25500000920E-02 0.  1.
</event>
<event>
 5   0  0.4505107E-05  0.2309008E+04  0.7818609E-02  0.8474378E-01
        2   -1    0    0  501    0  0.00000000000E+00  0.00000000000E+00  0.93275462757E+03  0.93275462757E+03  0.25500000920E-02 0.  1.
       -2   -1    0    0    0  501  0.00000000000E+00  0.00000000000E+00 -0.14289714126E+04  0.14289714126E+04  0.25500000920E-02 0. -1.
    10030    2    1    2    0    0  0.00000000000E+00  0.00000000000E+00 -0.49621678499E+03  0.23617260401E+04  0.23090081834E+04 0.  0.
        4    1    3    3  502    0 -0.91369621098E+03 -0.11485387403E+03  0.46409807414E+03  0.10312229699E+04  0.12699999809E+01 0.  1.
       -4    1    3    3    0  502  0.91369621098E+03  0.11485387403E+03 -0.96031485913E+03  0.13305030702E+04  0.12699999809E+01 0. -1.
</event>
<event>
 5   0  0.2031860E-05  0.2259717E+04  0.7818609E-02  0.8493976E-01
        1   -1    0    0  501    0  0.00000000000E+00  0.00000000000E+00  0.14415938190E+04  0.14415938190E+04  0.50400001928E-02 0.  1.
       -1   -1    0    0    0  501  0.00000000000E+00  0.00000000000E+00 -0.88553400538E+03  0.88553400540E+03  0.50400001928E-02 0. -1.
    10030    2    1    2    0    0  0.00000000000E+00  0.00000000000E+00  0.55605981362E+03  0.23271278244E+04  0.22597171050E+04 0.  0.
        4    1    3    3  502    0  0.55864445316E+03  0.97915385216E+03  0.19991975436E+03  0.11448997390E+04  0.12699999809E+01 0. -1.
       -4    1    3    3    0  502 -0.55864445316E+03 -0.97915385216E+03  0.35614005926E+03  0.11822280854E+04  0.12699999809E+01 0.  1.
</event>
<event>
 5   0  0.1604500E-05  0.2320800E+04  0.7818609E-02  0.8469765E-01
       -4   -1    0    0    0  501  0.00000000000E+00  0.00000000000E+00  0.15305043529E+04  0.15305048799E+04  0.12699999809E+01 0. -1.
        4   -1    0    0  501    0  0.00000000000E+00  0.00000000000E+00 -0.87979224691E+03  0.87979316355E+03  0.12699999809E+01 0.  1.
    10030    2    1    2    0    0  0.00000000000E+00  0.00000000000E+00  0.65071210602E+03  0.24102980434E+04  0.23207995202E+04 0.  0.
        5    1    3    3  502    0  0.22337512664E+03 -0.11172260781E+04  0.96836747676E+02  0.11434552910E+04  0.46999998093E+01 0.  1.
       -5    1    3    3    0  502 -0.22337512664E+03  0.11172260781E+04  0.55387535834E+03  0.12668427524E+04  0.46999998093E+01 0. -1.
</event>
<event>
 5   0  0.2043885E-05  0.2311717E+04  0.7818609E-02  0.8473316E-01
       -1   -1    0    0    0  501  0.00000000000E+00  0.00000000000E+00  0.58029985104E+03  0.58029985106E+03  0.50400001928E-02 0. -1.
        1   -1    0    0  501    0  0.00000000000E+00  0.00000000000E+00 -0.23022727125E+04  0.23022727125E+04  0.50400001928E-02 0.  1.
    10030    2    1    2    0    0  0.00000000000E+00  0.00000000000E+00 -0.17219728614E+04  0.28825725635E+04  0.23117166887E+04 0.  0.
        5    1    3    3  502    0 -0.11330497126E+04 -0.17893617041E+03 -0.68390942259E+03  0.13355051451E+04  0.46999998093E+01 0. -1.
       -5    1    3    3    0  502  0.11330497126E+04  0.17893617041E+03 -0.10380634388E+04  0.15470674185E+04  0.46999998093E+01 0.  1.
</event>
<event>
 5   0  0.2042951E-05  0.2302184E+04  0.7818609E-02  0.8477061E-01
       -1   -1    0    0    0  501  0.00000000000E+00  0.00000000000E+00  0.12097321218E+04  0.12097321218E+04  0.50400001928E-02 0.  1.
        1   -1    0    0  501    0  0.00000000000E+00  0.00000000000E+00 -0.10952941243E+04  0.10952941243E+04  0.50400001928E-02 0. -1.
    10030    2    1    2    0    0  0.00000000000E+00  0.00000000000E+00  0.11443799750E+03  0.23050262462E+04  0.23021837329E+04 0.  0.
        2    1    3    3  502    0  0.20975116752E+03 -0.12495340687E+03  0.11835095044E+04  0.12084302435E+04  0.25500000920E-02 0.  1.
       -2    1    3    3    0  502 -0.20975116752E+03  0.12495340687E+03 -0.10690715069E+04  0.10965960027E+04  0.25500000920E-02 0. -1.
</event>
<event>
 5   0  0.1968318E-05  0.1863008E+04  0.7818609E-02  0.8673492E-01
       -1   -1    0    0    0  501  0.00000000000E+00  0.00000000000E+00  0.15495086564E+04  0.15495086564E+04  0.50400001928E-02 0.  1.
        1   -1    0    0  501    0  0.00000000000E+00  0.00000000000E+00 -0.55998406381E+03  0.55998406383E+03  0.50400001928E-02 0. -1.
    10030    2    1    2    0    0  0.00000000000E+00  0.00000000000E+00  0.98952459260E+03  0.21094927203E+04  0.18630084856E+04 0.  0.
        3    1    3    3  502    0  0.37322638429E+03 -0.13896877505E+03 -0.45872265842E+03  0.60748394376E+03  0.10100000352E+00 0. -1.
       -3    1    3    3    0  502 -0.37322638429E+03  0.13896877505E+03  0.14482472510E+04  0.15020087765E+04  0.10100000352E+00 0.  1.
</event>
<event>
 5   0  0.2043885E-05  0.2265404E+04  0.7818609E-02  0.8491688E-01
        1   -1    0    0  501    0  0.00000000000E+00  0.00000000000E+00  0.87752191178E+03  0.87752191179E+03  0.50400001928E-02 0.  1.
       -1   -1    0    0    0  501  0.00000000000E+00  0.00000000000E+00 -0.14620871722E+04  0.14620871722E+04  0.50400001928E-02 0. -1.
    10030    2    1    2    0    0  0.00000000000E+00  0.00000000000E+00 -0.58456526040E+03  0.23396090840E+04  0.22654037437E+04 0.  0.
        5    1    3    3  502    0 -0.31134322744E+03  0.29561469912E+03  0.79022527829E+03  0.89933349546E+03  0.46999998093E+01 0.  1.
       -5    1    3    3    0  502  0.31134322744E+03 -0.29561469912E+03 -0.13747905387E+04  0.14402755885E+04  0.46999998093E+01 0. -1.
</event>
<event>
 5   0  0.2043885E-05  0.2267915E+04  0.7818609E-02  0.8490680E-01
        1   -1    0    0  501    0  0.00000000000E+00  0.00000000000E+00  0.10744639805E+04  0.10744639805E+04  0.50400001928E-02 0.  1.
       -1   -1    0    0    0  501  0.00000000000E+00  0.00000000000E+00 -0.11967456447E+04  0.11967456447E+04  0.50400001928E-02 0. -1.
    10030    2    1    2    0    0  0.00000000000E+00  0.00000000000E+00 -0.12228166416E+03  0.22712096252E+04  0.22679154209E+04 0.  0.
        5    1    3    3  502    0  0.31360113080E+03  0.73940697128E+03 -0.86278444415E+03  0.11787652122E+04  0.46999998093E+01 0. -1.
       -5    1    3    3    0  502 -0.31360113080E+03 -0.73940697128E+03  0.74050277999E+03  0.10924444130E+04  0.46999998093E+01 0.  1.
</event>
<event>
 5   0  0.2043885E-05  0.2400533E+04  0.7818609E-02  0.8439304E-01
       -1   -1    0    0    0  501  0.00000000000E+00  0.00000000000E+00  0.86224611728E+03  0.86224611729E+03  0.50400001928E-02 0.  1.
        1   -1    0    0  501    0  0.00000000000E+00  0.00000000000E+00 -0.16707987108E+04  0.16707987108E+04  0.50400001928E-02 0. -1.
    10030    2    1    2    0    0  0.00000000000E+00  0.00000000000E+00 -0.80855259349E+03  0.25330448281E+04  0.24005330251E+04 0.  0.
        5    1    3    3  502    0  0.19851347637E+03 -0.74886230565E+03 -0.13716229977E+04  0.15753012699E+04  0.46999998093E+01 0. -1.
       -5    1    3    3    0  502 -0.19851347637E+03  0.74886230565E+03  0.56307040421E+03  0.95774355817E+03  0.46999998093E+01 0.  1.
</event>
<event>
 5   0  0.4505107E-05  0.2331563E+04  0.7818609E-02  0.8465579E-01
       -2   -1    0    0    0  501  0.00000000000E+00  0.00000000000E+00  0.13722743832E+04  0.13722743832E+04  0.25500000920E-02 0. -1.
        2   -1    0    0  501    0  0.00000000000E+00  0.00000000000E+00 -0.99036093368E+03  0.99036093369E+03  0.25500000920E-02 0.  1.
    10030    2    1    2    0    0  0.00000000000E+00  0.00000000000E+00  0.38191344955E+03  0.23626353169E+04  0.23315633720E+04 0.  0.
        4    1    3    3  502    0  0.30336848346E+03 -0.12963749705E+03 -0.94207072642E+03  0.99816691183E+03  0.12699999809E+01 0.  1.
       -4    1    3    3    0  502 -0.30336848346E+03  0.12963749705E+03  0.13239841760E+04  0.13644684051E+04  0.12699999809E+01 0. -1.
</event>
<event>
 5   0  0.2031860E-05  0.2318811E+04  0.7818609E-02  0.8470541E-01
       -1   -1    0    0    0  501  0.00000000000E+00  0.00000000000E+00  0.10052328286E+04  0.10052328286E+04  0.50400001928E-02 0.  1.
        1   -1    0    0  501    0  0.00000000000E+00  0.00000000000E+00 -0.13372233011E+04  0.13372233011E+04  0.50400001928E-02 0. -1.
    10030    2    1    2    0    0  0.00000000000E+00  0.00000000000E+00 -0.33199047256E+03  0.23424561297E+04  0.23188106964E+04 0.  0.
        4    1    3    3  502    0  0.99661784442E+03  0.62673227776E+02  0.42911647344E+03  0.10868843646E+04  0.12699999809E+01 0.  1.
       -4    1    3    3    0  502 -0.99661784442E+03 -0.62673227776E+02 -0.76110694600E+03  0.12555717652E+04  0.12699999809E+01 0. -1.
</event>
<event>
 5   0  0.4602447E-05  0.2335363E+04  0.7818609E-02  0.8464107E-01
       -2   -1    0    0    0  501  0.00000000000E+00  0.00000000000E+00  0.78374124648E+03  0.78374124649E+03  0.25500000920E-02 0. -1.
        2   -1    0    0  501    0  0.00000000000E+00  0.00000000000E+00 -0.17397069293E+04  0.17397069293E+04  0.25500000920E-02 0.  1.
    10030    2    1    2    0    0  0.00000000000E+00  0.00000000000E+00 -0.95596568285E+03  0.25234481758E+04  0.23353629930E+04 0.  0.
        3    1    3    3  502    0  0.76532766482E+03  0.53373160912E+03  0.28061647188E+03  0.97434156209E+03  0.10100000352E+00 0. -1.
       -3    1    3    3    0  502 -0.76532766482E+03 -0.53373160912E+03 -0.12365821547E+04  0.15491066137E+04  0.10100000352E+00 0.  1.
</event>
<event>
 5   0  0.4605516E-05  0.2292156E+04  0.7818609E-02  0.8481020E-01
        2   -1    0    0  501    0  0.00000000000E+00  0.00000000000E+00  0.16104521943E+04  0.16104521943E+04  0.25500000920E-02 0. -1.
       -2   -1    0    0    0  501  0.00000000000E+00  0.00000000000E+00 -0.81560632810E+03  0.81560632811E+03  0.25500000920E-02 0.  1.
    10030    2    1    2    0    0  0.00000000000E+00  0.00000000000E+00  0.79484586623E+03  0.24260585224E+04  0.22921561908E+04 0.  0.
        1    1    3    3  502    0  0.70878265291E+02  0.22686474954E+02  0.16078920994E+04  0.16096134343E+04  0.50400001928E-02 0. -1.
       -1    1    3    3    0  502 -0.70878265291E+02 -0.22686474954E+02 -0.81304623316E+03  0.81644508812E+03  0.50400001928E-02 0.  1.
</event>
<event>
 5   0  0.2031860E-05  0.2292227E+04  0.7818609E-02  0.8480992E-01
       -1   -1    0    0    0  501  0.00000000000E+00  0.00000000000E+00  0.74729249722E+03  0.74729249724E+03  0.50400001928E-02 0. -1.
        1   -1    0    0  501    0  0.00000000000E+00  0.00000000000E+00 -0.17577797106E+04  0.17577797106E+04  0.50400001928E-02 0.  1.
    10030    2    1    2    0    0  0.00000000000E+00  0.00000000000E+00 -0.10104872133E+04  0.25050722078E+04  0.22922265067E+04 0.  0.
        4    1    3    3  502    0  0.97897834913E+03 -0.19152630844E+03  0.11151141285E+03  0.10037516341E+04  0.12699999809E+01 0. -1.
       -4    1    3    3    0  502 -0.97897834913E+03  0.19152630844E+03 -0.11219986262E+04  0.15013205737E+04  0.12699999809E+01 0.  1.
</event>
<event>
 5   0  0.4605516E-05  0.2650000E+04  0.7818609E-02  0.8351413E-01
        2   -1    0    0  501    0  0.00000000000E+00  0.00000000000E+00  0.11314316426E+04  0.11314316427E+04  0.25500000920E-02 0.  1.
       -2   -1    0    0    0  501  0.00000000000E+00  0.00000000000E+00 -0.15516850511E+04  0.15516850512E+04  0.25500000920E-02 0. -1.
    10030    2    1    2    0    0  0.00000000000E+00  0.00000000000E+00 -0.42025340850E+03  0.26831166938E+04  0.26500004274E+04 0.  0.
        1    1    3    3  502    0 -0.93566206613E+03  0.81036735821E+02 -0.11564700114E+04  0.14897829848E+04  0.50400001928E-02 0. -1.
       -1    1    3    3    0  502  0.93566206613E+03 -0.81036735821E+02  0.73621660291E+03  0.11933337090E+04  0.50400001928E-02 0.  1.
</event>
<event>
 5   0  0.4602447E-05  0.2318607E+04  0.7818609E-02  0.8470621E-01
       -2   -1    0    0    0  501  0.00000000000E+00  0.00000000000E+00  0.89794544976E+03  0.89794544976E+03  0.25500000920E-02 0. -1.
        2   -1    0    0  501    0  0.00000000000E+00  0.00000000000E+00 -0.14967325764E+04  0.14967325764E+04  0.25500000920E-02 0.  1.
    10030    2    1    2    0    0  0.00000000000E+00  0.00000000000E+00 -0.59878712666E+03  0.23946780262E+04  0.23186066562E+04 0.  0.
        3    1    3    3  502    0 -0.76422375980E+02 -0.95976621363E+03 -0.96632968762E+03  0.13641058023E+04  0.10100000352E+00 0.  1.
       -3    1    3    3    0  502  0.76422375980E+02  0.95976621363E+03  0.36754256097E+03  0.10305722239E+04  0.10100000352E+00 0. -1.
</event>
<event>
 5   0  0.2042951E-05  0.2305203E+04  0.7818609E-02  0.8475873E-01
       -1   -1    0    0    0  501  0.00000000000E+00  0.00000000000E+00  0.76323569382E+03  0.76323569384E+03  0.50400001928E-02 0. -1.
        1   -1    0    0  501    0  0.00000000000E+00  0.00000000000E+00 -0.17406022616E+04  0.17406022616E+04  0.50400001928E-02 0.  1.
    10030    2    1    2    0    0  0.00000000000E+00  0.00000000000E+00 -0.97736656778E+03  0.25038379555E+04  0.23052026157E+04 0.  0.
        2    1    3    3  502    0 -0.75405831404E+03  0.86021256330E+03 -0.33538272368E+03  0.11920785068E+04  0.25500000920E-02 0. -1.
       -2    1    3    3    0  502  0.75405831404E+03 -0.86021256330E+03 -0.64198384411E+03  0.13117594487E+04  0.25500000920E-02 0.  1.
</event>
<event>
 5   0  0.4602447E-05  0.2308585E+04  0.7818609E-02  0.8474544E-01
       -2   -1    0    0    0  501  0.00000000000E+00  0.00000000000E+00  0.68026022583E+03  0.68026022584E+03  0.25500000920E-02 0. -1.
        2   -1    0    0  501    0  0.00000000000E+00  0.00000000000E+00 -0.19586491309E+04  0.19586491309E+04  0.25500000920E-02 0.  1.
    10030    2    1    2    0    0  0.00000000000E+00  0.00000000000E+00 -0.12783889051E+04  0.26389093568E+04  0.23085849347E+04 0.  0.
        3    1    3    3  502    0 -0.33819411927E+03  0.39926192248E+03 -0.18152984851E+04  0.18892045800E+04  0.10100000352E+00 0.  1.
       -3    1    3    3    0  502  0.33819411927E+03 -0.39926192248E+03  0.53690957996E+03  0.74970477676E+03  0.10100000352E+00 0. -1.
</event>
<event>
 5   0  0.2031860E-05  0.2306742E+04  0.7818609E-02  0.8475268E-01
        1   -1    0    0  501    0  0.00000000000E+00  0.00000000000E+00  0.17870702029E+04  0.17870702029E+04  0.50400001928E-02 0.  1.
       -1   -1    0    0    0  501  0.00000000000E+00  0.00000000000E+00 -0.74438275041E+03  0.74438275043E+03  0.50400001928E-02 0. -1.
    10030    2    1    2    0    0  0.00000000000E+00  0.00000000000E+00  0.10426874525E+04  0.25314529533E+04  0.23067416265E+04 0.  0.
        4    1    3    3  502    0  0.95965136528E+03  0.28807704618E+03 -0.10557087685E+03  0.10075048141E+04  0.12699999809E+01 0.  1.
       -4    1    3    3    0  502 -0.95965136528E+03 -0.28807704618E+03  0.11482583293E+04  0.15239481393E+04  0.12699999809E+01 0. -1.
</event>
<event>
 5   0  0.2042951E-05  0.2281404E+04  0.7818609E-02  0.8485290E-01
       -1   -1    0    0    0  501  0.00000000000E+00  0.00000000000E+00  0.11813603520E+04  0.11813603520E+04  0.50400001928E-02 0. -1.
        1   -1    0    0  501    0  0.00000000000E+00  0.00000000000E+00 -0.11014429351E+04  0.11014429351E+04  0.50400001928E-02 0.  1.
    10030    2    1    2    0    0  0.00000000000E+00  0.00000000000E+00  0.79917416918E+02  0.22828032872E+04  0.22814039656E+04 0.  0.
        2    1    3    3  502    0 -0.60431565432E+03 -0.26067965203E+03 -0.89230461419E+03  0.11087645447E+04  0.25500000920E-02 0.  1.
       -2    1    3    3    0  502  0.60431565432E+03  0.26067965203E+03  0.97222203111E+03  0.11740387425E+04  0.25500000920E-02 0. -1.
</event>
<event>
 5   0  0.2085063E-05  0.2159505E+04  0.7818609E-02  0.8535475E-01
        1   -1    0    0  501    0  0.00000000000E+00  0.00000000000E+00  0.21675892262E+04  0.21675892262E+04  0.50400001928E-02 0.  1.
       -1   -1    0    0    0  501  0.00000000000E+00  0.00000000000E+00 -0.53786254792E+03  0.53786254794E+03  0.50400001928E-02 0. -1.
    10030    2    1    2    0    0  0.00000000000E+00  0.00000000000E+00  0.16297266783E+04  0.27054517741E+04  0.21595046322E+04 0.  0.
        1    1    3    3  502    0 -0.88626099320E+03 -0.53301878666E+03  0.12036336917E+04  0.15869157630E+04  0.50400001928E-02 0.  1.
       -1    1    3    3    0  502  0.88626099320E+03  0.53301878666E+03  0.42609298655E+03  0.11185360111E+04  0.50400001928E-02 0. -1.
</event>
<event>
 5   0  0.4605516E-05  0.2304713E+04  0.7818609E-02  0.8476065E-01
        2   -1    0    0  501    0  0.00000000000E+00  0.00000000000E+00  0.11132932282E+04  0.11132932282E+04  0.25500000920E-02 0.  1.
       -2   -1    0    0    0  501  0.00000000000E+00  0.00000000000E+00 -0.11927901648E+04  0.11927901648E+04  0.25500000920E-02 0. -1.
    10030    2    1    2    0    0  0.00000000000E+00  0.00000000000E+00 -0.79496936679E+02  0.23060833930E+04  0.23047127484E+04 0.  0.
        1    1    3    3  502    0 -0.95871236926E+03 -0.29136714235E+03 -0.60920993839E+03  0.11726725748E+04  0.50400001928E-02 0. -1.
       -1    1    3    3    0  502  0.95871236926E+03  0.29136714235E+03  0.52971300171E+03  0.11334108182E+04  0.50400001928E-02 0.  1.
</event>
<event>
 5   0  0.2085063E-05  0.2276780E+04  0.7818609E-02  0.8487133E-01
        1   -1    0    0  501    0  0.00000000000E+00  0.00000000000E+00  0.10366970172E+04  0.10366970172E+04  0.50400001928E-02 0.  1.
       -1   -1    0    0    0  501  0.00000000000E+00  0.00000000000E+00 -0.12500579330E+04  0.12500579330E+04  0.50400001928E-02 0. -1.
    10030    2    1    2    0    0  0.00000000000E+00  0.00000000000E+00 -0.21336091587E+03  0.22867549502E+04  0.22767795945E+04 0.  0.
        1    1    3    3  502    0 -0.86495847403E+02  0.62493553073E+03 -0.10584108206E+04  0.12321766977E+04  0.50400001928E-02 0. -1.
       -1    1    3    3    0  502  0.86495847403E+02 -0.62493553073E+03  0.84504990471E+03  0.10545782525E+04  0.50400001928E-02 0.  1.
</event>
<event>
 5   0  0.2031860E-05  0.2305939E+04  0.7818609E-02  0.8475583E-01
       -1   -1    0    0    0  501  0.00000000000E+00  0.00000000000E+00  0.74219114994E+03  0.74219114996E+03  0.50400001928E-02 0. -1.
        1   -1    0    0  501    0  0.00000000000E+00  0.00000000000E+00 -0.17911007534E+04  0.17911007534E+04  0.50400001928E-02 0.  1.
    10030    2    1    2    0    0  0.00000000000E+00  0.00000000000E+00 -0.10489096035E+04  0.25332919034E+04  0.23059393989E+04 0.  0.
        4    1    3    3  502    0 -0.12121996190E+03  0.53410689760E+03  0.59015727413E+03  0.80514078169E+03  0.12699999809E+01 0. -1.
       -4    1    3    3    0  502  0.12121996190E+03 -0.53410689760E+03 -0.16390668776E+04  0.17281511217E+04  0.12699999809E+01 0.  1.
</event>
<event>
 5   0  0.4798609E-05  0.2289134E+04  0.7818609E-02  0.8482218E-01
       -2   -1    0    0    0  501  0.00000000000E+00  0.00000000000E+00  0.12430728838E+04  0.12430728838E+04  0.25500000920E-02 0. -1.
        2   -1    0    0  501    0  0.00000000000E+00  0.00000000000E+00 -0.10538672905E+04  0.10538672905E+04  0.25500000920E-02 0.  1.
    10030    2    1    2    0    0  0.00000000000E+00  0.00000000000E+00  0.18920559327E+03  0.22969401743E+04  0.22891342048E+04 0.  0.
        2    1    3    3  502    0  0.80556118487E+03 -0.70239328624E+03 -0.31636520790E+03  0.11146174662E+04  0.25500000920E-02 0.  1.
       -2    1    3    3    0  502 -0.80556118487E+03  0.70239328624E+03  0.50557080117E+03  0.11823227081E+04  0.25500000920E-02 0. -1.
</event>
<event>
 5   0  0.4798609E-05  0.2274442E+04  0.7818609E-02  0.8488067E-01
        2   -1    0    0  501    0  0.00000000000E+00  0.00000000000E+00  0.10832733855E+04  0.10832733855E+04  0.25500000920E-02 0. -1.
       -2   -1    0    0    0  501  0.00000000000E+00  0.00000000000E+00 -0.11938555515E+04  0.11938555515E+04  0.25500000920E-02 0.  1.
    10030    2    1    2    0    0  0.00000000000E+00  0.00000000000E+00 -0.11058216604E+03  0.22771289370E+04  0.22744423010E+04 0.  0.
        2    1    3    3  502    0  0.72446073947E+03  0.85690157200E+03 -0.24030189202E+03  0.11475489822E+04  0.25500000920E-02 0.  1.
       -2    1    3    3    0  502 -0.72446073947E+03 -0.85690157200E+03  0.12971972598E+03  0.11295799549E+04  0.25500000920E-02 0. -1.
</event>
<event>
 5   0  0.4436695E-05  0.2258947E+04  0.7818609E-02  0.8494286E-01
       -2   -1    0    0    0  501  0.00000000000E+00  0.00000000000E+00  0.91728283419E+03  0.91728283419E+03  0.25500000920E-02 0. -1.
        2   -1    0    0  501    0  0.00000000000E+00  0.00000000000E+00 -0.13907496951E+04  0.13907496951E+04  0.25500000920E-02 0.  1.
    10030    2    1    2    0    0  0.00000000000E+00  0.00000000000E+00 -0.47346686095E+03  0.23080325293E+04  0.22589473850E+04 0.  0.
        5    1    3    3  502    0 -0.46265610995E+03  0.70874247759E+03  0.52739581479E+03  0.99726376204E+03  0.46999998093E+01 0. -1.
       -5    1    3    3    0  502  0.46265610995E+03 -0.70874247759E+03 -0.10008626757E+04  0.13107687673E+04  0.46999998093E+01 0.  1.
</event>
<event>
 5   0  0.4605516E-05  0.2300327E+04  0.7818609E-02  0.8477792E-01
        2   -1    0    0  501    0  0.00000000000E+00  0.00000000000E+00  0.22855087218E+04  0.22855087218E+04  0.25500000920E-02 0.  1.
       -2   -1    0    0    0  501  0.00000000000E+00  0.00000000000E+00 -0.57881046810E+03  0.57881046810E+03  0.25500000920E-02 0. -1.
    10030    2    1    2    0    0  0.00000000000E+00  0.00000000000E+00  0.17066982537E+04  0.28643191899E+04  0.23003272577E+04 0.  0.
        1    1    3    3  502    0 -0.46893715372E+03 -0.20840282492E+03 -0.42836447900E+03  0.66845337793E+03  0.50400001928E-02 0. -1.
       -1    1    3    3    0  502  0.46893715372E+03  0.20840282492E+03  0.21350627327E+04  0.21958658120E+04  0.50400001928E-02 0.  1.
</event>
<event>
 5   0  0.1968318E-05  0.2271094E+04  0.7818609E-02  0.8489406E-01
       -1   -1    0    0    0  501  0.00000000000E+00  0.00000000000E+00  0.71782480563E+03  0.71782480565E+03  0.50400001928E-02 0.  1.
        1   -1    0    0  501    0  0.00000000000E+00  0.00000000000E+00 -0.17963536306E+04  0.17963536306E+04  0.50400001928E-02 0. -1.
    10030    2    1    2    0    0  0.00000000000E+00  0.00000000000E+00 -0.10785288250E+04  0.25141784363E+04  0.22710941819E+04 0.  0.
        3    1    3    3  502    0 -0.26470136563E+03 -0.66117536167E+03 -0.15183779340E+04  0.16771079967E+04  0.10100000352E+00 0. -1.
       -3    1    3    3    0  502  0.26470136563E+03  0.66117536167E+03  0.43984910906E+03  0.83707043956E+03  0.10100000352E+00 0.  1.
</event>
<event>
 5   0  0.4505107E-05  0.2309133E+04  0.7818609E-02  0.8474329E-01
       -2   -1    0    0    0  501  0.00000000000E+00  0.00000000000E+00  0.58483195337E+03  0.58483195338E+03  0.25500000920E-02 0. -1.
        2   -1    0    0  501    0  0.00000000000E+00  0.00000000000E+00 -0.22793285031E+04  0.22793285031E+04  0.25500000920E-02 0.  1.
    10030    2    1    2    0    0  0.00000000000E+00  0.00000000000E+00 -0.16944965497E+04  0.28641604565E+04  0.23091332927E+04 0.  0.
        4    1    3    3  502    0 -0.81249776240E+02 -0.11184488335E+04 -0.50644615809E+03  0.12304546490E+04  0.12699999809E+01 0. -1.
       -4    1    3    3    0  502  0.81249776240E+02  0.11184488335E+04 -0.11880503916E+04  0.16337058075E+04  0.12699999809E+01 0.  1.
</event>
<event>
 5   0  0.4436695E-05  0.2332758E+04  0.7818609E-02  0.8465116E-01
       -2   -1    0    0    0  501  0.00000000000E+00  0.00000000000E+00  0.11106706159E+04  0.11106706159E+04  0.25500000920E-02 0. -1.
        2   -1    0    0  501    0  0.00000000000E+00  0.00000000000E+00 -0.12248811034E+04  0.12248811034E+04  0.25500000920E-02 0.  1.
    10030    2    1    2    0    0  0.00000000000E+00  0.00000000000E+00 -0.11421048757E+03  0.23355517193E+04  0.23327575524E+04 0.  0.
        5    1    3    3  502    0  0.54829339633E+03 -0.39970509834E+03  0.89272891803E+03  0.11213281523E+04  0.46999998093E+01 0. -1.
       -5    1    3    3    0  502 -0.54829339633E+03  0.39970509834E+03 -0.10069394056E+04  0.12142235670E+04  0.46999998093E+01 0.  1.
</event>
<event>
 5   0  0.4602447E-05  0.2294813E+04  0.7818609E-02  0.8479969E-01
       -2   -1    0    0    0  501  0.00000000000E+00  0.00000000000E+00  0.15776083361E+04  0.15776083361E+04  0.25500000920E-02 0. -1.
        2   -1    0    0  501    0  0.00000000000E+00  0.00000000000E+00 -0.83451712286E+03  0.83451712286E+03  0.25500000920E-02 0.  1.
    10030    2    1    2    0    0  0.00000000000E+00  0.00000000000E+00  0.74309121327E+03  0.24121254590E+04  0.22948125585E+04 0.  0.
        3    1    3    3  502    0 -0.24797884920E+03  0.64912617439E+03 -0.58819332190E+03  0.91040084252E+03  0.10100000352E+00 0.  1.
       -3    1    3    3    0  502  0.24797884920E+03 -0.64912617439E+03  0.13312845352E+04  0.15017246165E+04  0.10100000352E+00 0. -1.
</event>
<event>
 5   0  0.2085063E-05  0.2264753E+04  0.7818609E-02  0.8491950E-01
        1   -1    0    0  501    0  0.00000000000E+00  0.00000000000E+00  0.23922405384E+04  0.23922405384E+04  0.50400001928E-02 0.  1.
       -1   -1    0    0    0  501  0.00000000000E+00  0.00000000000E+00 -0.53601486548E+03  0.53601486550E+03  0.50400001928E-02 0. -1.
    10030    2    1    2    0    0  0.00000000000E+00  0.00000000000E+00  0.18562256730E+04  0.29282554039E+04  0.22647529582E+04 0.  0.
        1    1    3    3  502    0 -0.57182176091E+03  0.33292828921E+03 -0.26005120291E+03  0.71094866211E+03  0.50400001928E-02 0. -1.
       -1    1    3    3    0  502  0.57182176091E+03 -0.33292828921E+03  0.21162768759E+04  0.22173067418E+04  0.50400001928E-02 0.  1.
</event>
<event>
 5   0  0.2042951E-05  0.2301965E+04  0.7818609E-02  0.8477147E-01
        1   -1    0    0  501    0  0.00000000000E+00  0.00000000000E+00  0.84079360326E+03  0.84079360327E+03  0.50400001928E-02 0.  1.
       -1   -1    0    0    0  501  0.00000000000E+00  0.00000000000E+00 -0.15756076653E+04  0.15756076654E+04  0.50400001928E-02 0. -1.
    10030    2    1    2    0    0  0.00000000000E+00  0.00000000000E+00 -0.73481406209E+03  0.24164012686E+04  0.23019651138E+04 0.  0.
        2    1    3    3  502    0  0.53063379035E+03  0.74947008218E+03 -0.10957918688E+04  0.14296983749E+04  0.25500000920E-02 0. -1.
       -2    1    3    3    0  502 -0.53063379035E+03 -0.74947008218E+03  0.36097780668E+03  0.98670289372E+03  0.25500000920E-02 0.  1.
</event>
<event>
 5   0  0.2042951E-05  0.2274203E+04  0.7818609E-02  0.8488163E-01
       -1   -1    0    0    0  501  0.00000000000E+00  0.00000000000E+00  0.47031835988E+03  0.47031835991E+03  0.50400001928E-02 0. -1.
        1   -1    0    0  501    0  0.00000000000E+00  0.00000000000E+00 -0.27492001303E+04  0.27492001303E+04  0.50400001928E-02 0.  1.
    10030    2    1    2    0    0  0.00000000000E+00  0.00000000000E+00 -0.22788817704E+04  0.32195184902E+04  0.22742025383E+04 0.  0.
        2    1    3    3  502    0  0.53800839954E+03  0.92107550021E+03 -0.58179266594E+03  0.12150373744E+04  0.25500000920E-02 0. -1.
       -2    1    3    3    0  502 -0.53800839954E+03 -0.92107550021E+03 -0.16970891045E+04  0.20044811158E+04  0.25500000920E-02 0.  1.
</event>
<event>
 5   0  0.4798609E-05  0.2275902E+04  0.7818609E-02  0.8487484E-01
        2   -1    0    0  501    0  0.00000000000E+00  0.00000000000E+00  0.85871842378E+03  0.85871842378E+03  0.25500000920E-02 0.  1.
       -2   -1    0    0    0  501  0.00000000000E+00  0.00000000000E+00 -0.15079830914E+04  0.15079830914E+04  0.25500000920E-02 0. -1.
    10030    2    1    2    0    0  0.00000000000E+00  0.00000000000E+00 -0.64926466761E+03  0.23667015152E+04  0.22759023383E+04 0.  0.
        2    1    3    3  502    0 -0.60890922678E+03  0.93716868072E+03 -0.54736745415E+03  0.12444543834E+04  0.25500000920E-02 0.  1.
       -2    1    3    3    0  502  0.60890922678E+03 -0.93716868072E+03 -0.10189721347E+03  0.11222471317E+04  0.25500000920E-02 0. -1.
</event>
<event>
 5   0  0.4505107E-05  0.2318098E+04  0.7818609E-02  0.8470819E-01
        2   -1    0    0  501    0  0.00000000000E+00  0.00000000000E+00  0.11341307602E+04  0.11341307602E+04  0.25500000920E-02 0. -1.
       -2   -1    0    0    0  501  0.00000000000E+00  0.00000000000E+00 -0.11845150913E+04  0.11845150913E+04  0.25500000920E-02 0.  1.
    10030    2    1    2    0    0  0.00000000000E+00  0.00000000000E+00 -0.50384331153E+02  0.23186458515E+04  0.23180983594E+04 0.  0.
        4    1    3    3  502    0  0.48605131517E+02  0.19590813861E+03 -0.11667990714E+04  0.11841301210E+04  0.12699999809E+01 0.  1.
       -4    1    3    3    0  502 -0.48605131517E+02 -0.19590813861E+03  0.11164147402E+04  0.11345157305E+04  0.12699999809E+01 0. -1.
</event>
<event>
 5   0  0.4436695E-05  0.2285786E+04  0.7818609E-02  0.8483547E-01
       -2   -1    0    0    0  501  0.00000000000E+00  0.00000000000E+00  0.47936284355E+03  0.47936284356E+03  0.25500000920E-02 0. -1.
        2   -1    0    0  501    0  0.00000000000E+00  0.00000000000E+00 -0.27248760857E+04  0.27248760857E+04  0.25500000920E-02 0.  1.
    10030    2    1    2    0    0  0.00000000000E+00  0.00000000000E+00 -0.22455132422E+04  0.32042389293E+04  0.22857859469E+04 0.  0.
        5    1    3    3  502    0  0.58446350393E+03 -0.98199180709E+03 -0.11460773818E+04  0.16184625271E+04  0.46999998093E+01 0. -1.
       -5    1    3    3    0  502 -0.58446350393E+03  0.98199180709E+03 -0.10994358603E+04  0.15857764021E+04  0.46999998093E+01 0.  1.
</event>
<event>
 5   0  0.2085063E-05  0.2309336E+04  0.7818609E-02  0.8474249E-01
       -1   -1    0    0    0  501  0.00000000000E+00  0.00000000000E+00  0.62885955364E+03  0.62885955366E+03  0.50400001928E-02 0. -1.
        1   -1    0    0  501    0  0.00000000000E+00  0.00000000000E+00 -0.21201214918E+04  0.21201214918E+04  0.50400001928E-02 0.  1.
    10030    2    1    2    0    0  0.00000000000E+00  0.00000000000E+00 -0.14912619382E+04  0.27489810455E+04  0.23093364025E+04 0.  0.
        1    1    3    3  502    0 -0.66967438722E+03  0.76715930934E+03 -0.13935520736E+04  0.17259735145E+04  0.50400001928E-02 0.  1.
       -1    1    3    3    0  502  0.66967438722E+03 -0.76715930934E+03 -0.97709864568E+02  0.10230075310E+04  0.50400001928E-02 0. -1.
</event>
<event>
 5   0  0.2031860E-05  0.1894909E+04  0.7818609E-02  0.8657395E-01
       -1   -1    0    0    0  501  0.00000000000E+00  0.00000000000E+00  0.57472418872E+03  0.57472418874E+03  0.50400001928E-02 0. -1.
        1   -1    0    0  501    0  0.00000000000E+00  0.00000000000E+00 -0.15619142257E+04  0.15619142257E+04  0.50400001928E-02 0.  1.
    10030    2    1    2    0    0  0.00000000000E+00  0.00000000000E+00 -0.98719003697E+03  0.21366384144E+04  0.18949088487E+04 0.  0.
        4    1    3    3  502    0 -0.19953165263E+03  0.42627749545E+03 -0.14207705270E+04  0.14967016693E+04  0.12699999809E+01 0.  1.
       -4    1    3    3    0  502  0.19953165263E+03 -0.42627749545E+03  0.43358049005E+03  0.63993674514E+03  0.12699999809E+01 0. -1.
</event>
<event>
 5   0  0.4798609E-05  0.2290296E+04  0.7818609E-02  0.8481757E-01
        2   -1    0    0  501    0  0.00000000000E+00  0.00000000000E+00  0.14278539029E+04  0.14278539029E+04  0.25500000920E-02 0. -1.
       -2   -1    0    0    0  501  0.00000000000E+00  0.00000000000E+00 -0.91841596197E+03  0.91841596197E+03  0.25500000920E-02 0.  1.
    10030    2    1    2    0    0  0.00000000000E+00  0.00000000000E+00  0.50943794092E+03  0.23462698649E+04  0.22902958899E+04 0.  0.
        2    1    3    3  502    0 -0.19623176025E+03 -0.78141137567E+03  0.10883970705E+04  0.13541487455E+04  0.25500000920E-02 0. -1.
       -2    1    3    3    0  502  0.19623176025E+03  0.78141137567E+03 -0.57895912960E+03  0.99212111938E+03  0.25500000920E-02 0.  1.
</event>
<event>
 5   0  0.4605516E-05  0.2275173E+04  0.7818609E-02  0.8487775E-01
       -2   -1    0    0    0  501  0.00000000000E+00  0.00000000000E+00  0.75239543302E+03  0.75239543303E+03  0.25500000920E-02 0. -1.
        2   -1    0    0  501    0  0.00000000000E+00  0.00000000000E+00 -0.17199779772E+04  0.17199779772E+04  0.25500000920E-02 0.  1.
    10030    2    1    2    0    0  0.00000000000E+00  0.00000000000E+00 -0.96758254415E+03  0.24723734102E+04  0.22751734659E+04 0.  0.
        1    1    3    3  502    0 -0.71355507156E+03  0.16794357777E+01 -0.14465506483E+04  0.16129700675E+04  0.50400001928E-02 0.  1.
       -1    1    3    3    0  502  0.71355507156E+03 -0.16794357777E+01  0.47896810411E+03  0.85940334270E+03  0.50400001928E-02 0. -1.
</event>
<event>
 5   0  0.4605516E-05  0.2292000E+04  0.7818609E-02  0.8481082E-01
       -2   -1    0    0    0  501  0.00000000000E+00  0.00000000000E+00  0.60772736141E+03  0.60772736141E+03  0.25500000920E-02 0.  1.
        2   -1    0    0  501    0  0.00000000000E+00  0.00000000000E+00 -0.21610287297E+04  0.21610287297E+04  0.25500000920E-02 0. -1.
    10030    2    1    2    0    0  0.00000000000E+00  0.00000000000E+00 -0.15533013683E+04  0.27687560911E+04  0.22920002512E+04 0.  0.
        1    1    3    3  502    0 -0.10724371628E+04  0.33168659627E+03 -0.49807744576E+03  0.12280955208E+04  0.50400001928E-02 0.  1.
       -1    1    3    3    0  502  0.10724371628E+04 -0.33168659627E+03 -0.10552239225E+04  0.15406605703E+04  0.50400001928E-02 0. -1.
</event>
<event>
 5   0  0.2042951E-05  0.2297079E+04  0.7818609E-02  0.8479074E-01
       -1   -1    0    0    0  501  0.00000000000E+00  0.00000000000E+00  0.12375864183E+04  0.12375864183E+04  0.50400001928E-02 0. -1.
        1   -1    0    0  501    0  0.00000000000E+00  0.00000000000E+00 -0.10659000705E+04  0.10659000705E+04  0.50400001928E-02 0.  1.
    10030    2    1    2    0    0  0.00000000000E+00  0.00000000000E+00  0.17168634780E+03  0.23034864888E+04  0.22970794070E+04 0.  0.
        2    1    3    3  502    0 -0.71099445822E+03  0.70402083939E+03  0.65131760191E+03  0.11938898946E+04  0.25500000920E-02 0. -1.
       -2    1    3    3    0  502  0.71099445822E+03 -0.70402083939E+03 -0.47963125411E+03  0.11095965942E+04  0.25500000920E-02 0.  1.
</event>
<event>
 5   0  0.4436695E-05  0.2287551E+04  0.7818609E-02  0.8482846E-01
        2   -1    0    0  501    0  0.00000000000E+00  0.00000000000E+00  0.16217232381E+04  0.16217232381E+04  0.25500000920E-02 0.  1.
       -2   -1    0    0    0  501  0.00000000000E+00  0.00000000000E+00 -0.80668631343E+03  0.80668631344E+03  0.25500000920E-02 0. -1.
    10030    2    1    2    0    0  0.00000000000E+00  0.00000000000E+00  0.81503692466E+03  0.24284095515E+04  0.22875506030E+04 0.  0.
        5    1    3    3  502    0 -0.13203006479E+02  0.11236097182E+04  0.63402694015E+03  0.12902268673E+04  0.46999998093E+01 0.  1.
       -5    1    3    3    0  502  0.13203006479E+02 -0.11236097182E+04  0.18100998452E+03  0.11381826843E+04  0.46999998093E+01 0. -1.
</event>
<event>
 5   0  0.2031860E-05  0.2328860E+04  0.7818609E-02  0.8466628E-01
        1   -1    0    0  501    0  0.00000000000E+00  0.00000000000E+00  0.31586412224E+04  0.31586412224E+04  0.50400001928E-02 0.  1.
       -1   -1    0    0    0  501  0.00000000000E+00  0.00000000000E+00 -0.42926595288E+03  0.42926595291E+03  0.50400001928E-02 0. -1.
    10030    2    1    2    0    0  0.00000000000E+00  0.00000000000E+00  0.27293752695E+04  0.35879071753E+04  0.23288599221E+04 0.  0.
        4    1    3    3  502    0  0.18645462055E+03  0.10610684879E+04  0.68390453416E+03  0.12760715835E+04  0.12699999809E+01 0. -1.
       -4    1    3    3    0  502 -0.18645462055E+03 -0.10610684879E+04  0.20454707353E+04  0.23118355918E+04  0.12699999809E+01 0.  1.
</event>
<event>
 5   0  0.2085063E-05  0.2304407E+04  0.7818609E-02  0.8476185E-01
        1   -1    0    0  501    0  0.00000000000E+00  0.00000000000E+00  0.16885428877E+04  0.16885428877E+04  0.50400001928E-02 0.  1.
       -1   -1    0    0    0  501  0.00000000000E+00  0.00000000000E+00 -0.78622410824E+03  0.78622410825E+03  0.50400001928E-02 0. -1.
    10030    2    1    2    0    0  0.00000000000E+00  0.00000000000E+00  0.90231877944E+03  0.24747669959E+04  0.23044071915E+04 0.  0.
        1    1    3    3  502    0 -0.47881986770E+03  0.10315057182E+04  0.65005538484E+03  0.13099024833E+04  0.50400001928E-02 0.  1.
       -1    1    3    3    0  502  0.47881986770E+03 -0.10315057182E+04  0.25226339461E+03  0.11648645126E+04  0.50400001928E-02 0. -1.
</event>
<event>
 5   0  0.2085063E-05  0.2309502E+04  0.7818609E-02  0.8474184E-01
        1   -1    0    0  501    0  0.00000000000E+00  0.00000000000E+00  0.13792169896E+04  0.13792169896E+04  0.50400001928E-02 0.  1.
       -1   -1    0    0    0  501  0.00000000000E+00  0.00000000000E+00 -0.96681654476E+03  0.96681654478E+03  0.50400001928E-02 0. -1.
    10030    2    1    2    0    0  0.00000000000E+00  0.00000000000E+00  0.41240044482E+03  0.23460335344E+04  0.23095019414E+04 0.  0.
        1    1    3    3  502    0  0.11043675930E+04  0.72108937558E+02 -0.12859205455E+03  0.11141648872E+04  0.50400001928E-02 0. -1.
       -1    1    3    3    0  502 -0.11043675930E+04 -0.72108937558E+02  0.54099249937E+03  0.12318686471E+04  0.50400001928E-02 0.  1.
</event>
<event>
 5   0  0.2042951E-05  0.2292932E+04  0.7818609E-02  0.8480713E-01
       -1   -1    0    0    0  501  0.00000000000E+00  0.00000000000E+00  0.10861693855E+04  0.10861693855E+04  0.50400001928E-02 0. -1.
        1   -1    0    0  501    0  0.00000000000E+00  0.00000000000E+00 -0.12101096607E+04  0.12101096607E+04  0.50400001928E-02 0.  1.
    10030    2    1    2    0    0  0.00000000000E+00  0.00000000000E+00 -0.12394027514E+03  0.22962790462E+04  0.22929318059E+04 0.  0.
        2    1    3    3  502    0  0.57296641850E+03 -0.58749685290E+03  0.73978647464E+03  0.11048651940E+04  0.25500000920E-02 0. -1.
       -2    1    3    3    0  502 -0.57296641850E+03  0.58749685290E+03 -0.86372674978E+03  0.11914138522E+04  0.25500000920E-02 0.  1.
</event>
<event>
 5   0  0.1968318E-05  0.2428895E+04  0.7818609E-02  0.8428764E-01
       -1   -1    0    0    0  501  0.00000000000E+00  0.00000000000E+00  0.13150794019E+04  0.13150794019E+04  0.50400001928E-02 0. -1.
        1   -1    0    0  501    0  0.00000000000E+00  0.00000000000E+00 -0.11215157086E+04  0.11215157087E+04  0.50400001928E-02 0.  1.
    10030    2    1    2    0    0  0.00000000000E+00  0.00000000000E+00  0.19356369329E+03  0.24365951106E+04  0.24288945695E+04 0.  0.
        3    1    3    3  502    0  0.73389287575E+03  0.13744262188E+02 -0.87380535524E+03  0.11411938779E+04  0.10100000352E+00 0.  1.
       -3    1    3    3    0  502 -0.73389287575E+03 -0.13744262188E+02  0.10673690485E+04  0.12954012327E+04  0.10100000352E+00 0. -1.
</event>
<event>
 5   0  0.4602447E-05  0.2288904E+04  0.7818609E-02  0.8482309E-01
        2   -1    0    0  501    0  0.00000000000E+00  0.00000000000E+00  0.12914842022E+04  0.12914842022E+04  0.25500000920E-02 0. -1.
       -2   -1    0    0    0  501  0.00000000000E+00  0.00000000000E+00 -0.10141592673E+04  0.10141592673E+04  0.25500000920E-02 0.  1.
    10030    2    1    2    0    0  0.00000000000E+00  0.00000000000E+00  0.27732493497E+03  0.23056434695E+04  0.22889042551E+04 0.  0.
        3    1    3    3  502    0  0.10254399056E+04 -0.50375870662E+03  0.20601570631E+03  0.11609230448E+04  0.10100000352E+00 0. -1.
       -3    1    3    3    0  502 -0.10254399056E+04  0.50375870662E+03  0.71309228663E+02  0.11447204247E+04  0.10100000352E+00 0.  1.
</event>
<event>
 5   0  0.1968318E-05  0.2296363E+04  0.7818609E-02  0.8479356E-01
       -1   -1    0    0    0  501  0.00000000000E+00  0.00000000000E+00  0.19415421449E+04  0.19415421449E+04  0.50400001928E-02 0. -1.
        1   -1    0    0  501    0  0.00000000000E+00  0.00000000000E+00 -0.67900708658E+03  0.67900708659E+03  0.50400001928E-02 0.  1.
    10030    2    1    2    0    0  0.00000000000E+00  0.00000000000E+00  0.12625350584E+04  0.26205492315E+04  0.22963631031E+04 0.  0.
        3    1    3    3  502    0  0.65142508943E+03 -0.80794189425E+03  0.70817474789E+02  0.10402595237E+04  0.10100000352E+00 0.  1.
       -3    1    3    3    0  502 -0.65142508943E+03  0.80794189425E+03  0.11917175836E+04  0.15802897079E+04  0.10100000352E+00 0. -1.
</event>
<event>
 5   0  0.4505107E-05  0.2288001E+04  0.7818609E-02  0.8482667E-01
        2   -1    0    0  501    0  0.00000000000E+00  0.00000000000E+00  0.20778082790E+04  0.20778082790E+04  0.25500000920E-02 0. -1.
       -2   -1    0    0    0  501  0.00000000000E+00  0.00000000000E+00 -0.62986451840E+03  0.62986451840E+03  0.25500000920E-02 0.  1.
    10030    2    1    2    0    0  0.00000000000E+00  0.00000000000E+00  0.14479437606E+04  0.27076727974E+04  0.22880014956E+04 0.  0.
        4    1    3    3  502    0  0.22976435096E+03 -0.24885241258E+02 -0.60195017749E+03  0.64479187439E+03  0.12699999809E+01 0.  1.
       -4    1    3    3    0  502 -0.22976435096E+03  0.24885241258E+02  0.20498939381E+04  0.20628809230E+04  0.12699999809E+01 0. -1.
</event>
<event>
 5   0  0.4602447E-05  0.2332012E+04  0.7818609E-02  0.8465405E-01
       -2   -1    0    0    0  501  0.00000000000E+00  0.00000000000E+00  0.16196607577E+04  0.16196607577E+04  0.25500000920E-02 0.  1.
        2   -1    0    0  501    0  0.00000000000E+00  0.00000000000E+00 -0.83941669814E+03  0.83941669814E+03  0.25500000920E-02 0. -1.
    10030    2    1    2    0    0  0.00000000000E+00  0.00000000000E+00  0.78024405951E+03  0.24590774558E+04  0.23320122515E+04 0.  0.
        3    1    3    3  502    0  0.10259190110E+04 -0.51629396294E+03  0.17790791648E+03  0.11622050208E+04  0.10100000352E+00 0. -1.
       -3    1    3    3    0  502 -0.10259190110E+04  0.51629396294E+03  0.60233614304E+03  0.12968724350E+04  0.10100000352E+00 0.  1.
</event>
<event>
 5   0  0.4798609E-05  0.2294369E+04  0.7818609E-02  0.8480145E-01
       -2   -1    0    0    0  501  0.00000000000E+00  0.00000000000E+00  0.91422922281E+03  0.91422922281E+03  0.25500000920E-02 0. -1.
        2   -1    0    0  501    0  0.00000000000E+00  0.00000000000E+00 -0.14394990420E+04  0.14394990420E+04  0.25500000920E-02 0.  1.
    10030    2    1    2    0    0  0.00000000000E+00  0.00000000000E+00 -0.52526981914E+03  0.23537282648E+04  0.22943688373E+04 0.  0.
        2    1    3    3  502    0  0.78904202277E+03 -0.29952936971E+03  0.53446610653E+03  0.99897906688E+03  0.25500000920E-02 0. -1.
       -2    1    3    3    0  502 -0.78904202277E+03  0.29952936971E+03 -0.10597359257E+04  0.13547491979E+04  0.25500000920E-02 0.  1.
</event>
<event>
 5   0  0.2043885E-05  0.2296924E+04  0.7818609E-02  0.8479135E-01
       -1   -1    0    0    0  501  0.00000000000E+00  0.00000000000E+00  0.60148735347E+03  0.60148735350E+03  0.50400001928E-02 0.  1.
        1   -1    0    0  501    0  0.00000000000E+00  0.00000000000E+00 -0.21928400077E+04  0.21928400077E+04  0.50400001928E-02 0. -1.
    10030    2    1    2    0    0  0.00000000000E+00  0.00000000000E+00 -0.15913526542E+04  0.27943273612E+04  0.22969244941E+04 0.  0.
        5    1    3    3  502    0 -0.24080789371E+03 -0.14234595970E+03  0.55939658944E+03  0.62545779089E+03  0.46999998093E+01 0.  1.
       -5    1    3    3    0  502  0.24080789371E+03  0.14234595970E+03 -0.21507492437E+04  0.21688695703E+04  0.46999998093E+01 0. -1.
</event>
<event>
 5   0  0.2085063E-05  0.2258697E+04  0.7818609E-02  0.8494387E-01
       -1   -1    0    0    0  501  0.00000000000E+00  0.00000000000E+00  0.85536668654E+03  0.85536668655E+03  0.50400001928E-02 0. -1.
        1   -1    0    0  501    0  0.00000000000E+00  0.00000000000E+00 -0.14910888070E+04  0.14910888071E+04  0.50400001928E-02 0.  1.
    10030    2    1    2    0    0  0.00000000000E+00  0.00000000000E+00 -0.63572212051E+03  0.23464554936E+04  0.22586966970E+04 0.  0.
        1    1    3    3  502    0 -0.10129521133E+04  0.44693297070E+03 -0.54924022995E+03  0.12359150029E+04  0.50400001928E-02 0. -1.
       -1    1    3    3    0  502  0.10129521133E+04 -0.44693297070E+03 -0.86481890565E+02  0.11105404907E+04  0.50400001928E-02 0.  1.
</event>
<event>
 5   0  0.4505107E-05  0.2393927E+04  0.7818609E-02  0.8441781E-01
        2   -1    0    0  501    0  0.00000000000E+00  0.00000000000E+00  0.24598600371E+04  0.24598600371E+04  0.25500000920E-02 0.  1.
       -2   -1    0    0    0  501  0.00000000000E+00  0.00000000000E+00 -0.58244011058E+03  0.58244011058E+03  0.25500000920E-02 0. -1.
    10030    2    1    2    0    0  0.00000000000E+00  0.00000000000E+00  0.18774199266E+04  0.30423001477E+04  0.23939266088E+04 0.  0.
        4    1    3    3  502    0 -0.11229161466E+04  0.62767418490E+02  0.41806961623E+03  0.11998600911E+04  0.12699999809E+01 0. -1.
       -4    1    3    3    0  502  0.11229161466E+04 -0.62767418490E+02  0.14593503103E+04  0.18424400567E+04  0.12699999809E+01 0.  1.
</event>
<event>
 5   0  0.4505107E-05  0.2294279E+04  0.7818609E-02  0.8480180E-01
       -2   -1    0    0    0  501  0.00000000000E+00  0.00000000000E+00  0.18716009521E+04  0.18716009521E+04  0.25500000920E-02 0.  1.
        2   -1    0    0  501    0  0.00000000000E+00  0.00000000000E+00 -0.70310316496E+03  0.70310316496E+03  0.25500000920E-02 0. -1.
    10030    2    1    2    0    0  0.00000000000E+00  0.00000000000E+00  0.11684977872E+04  0.25747041171E+04  0.22942785820E+04 0.  0.
        4    1    3    3  502    0 -0.87636080640E+03  0.52741496665E+03  0.13897444389E+01  0.10228286046E+04  0.12699999809E+01 0. -1.
       -4    1    3    3    0  502  0.87636080640E+03 -0.52741496665E+03  0.11671080427E+04  0.15518755125E+04  0.12699999809E+01 0.  1.
</event>
<event>
 5   0  0.4436695E-05  0.2318698E+04  0.7818609E-02  0.8470585E-01
        2   -1    0    0  501    0  0.00000000000E+00  0.00000000000E+00  0.92193789370E+03  0.92193789370E+03  0.25500000920E-02 0. -1.
       -2   -1    0    0    0  501  0.00000000000E+00  0.00000000000E+00 -0.14578963387E+04  0.14578963387E+04  0.25500000920E-02 0.  1.
    10030    2    1    2    0    0  0.00000000000E+00  0.00000000000E+00 -0.53595844505E+03  0.23798342325E+04  0.23186978068E+04 0.  0.
        5    1    3    3  502    0  0.89570877477E+02 -0.11415193972E+04 -0.45436671980E+03  0.12318931295E+04  0.46999998093E+01 0.  1.
       -5    1    3    3    0  502 -0.89570877477E+02  0.11415193972E+04 -0.81591725244E+02  0.11479411030E+04  0.46999998093E+01 0. -1.
</event>
<event>
 5   0  0.4602447E-05  0.2125965E+04  0.7818609E-02  0.8549891E-01
        2   -1    0    0  501    0  0.00000000000E+00  0.00000000000E+00  0.32879108626E+04  0.32879108626E+04  0.25500000920E-02 0.  1.
       -2   -1    0    0    0  501  0.00000000000E+00  0.00000000000E+00 -0.34366265790E+03  0.34366265791E+03  0.25500000920E-02 0. -1.
    10030    2    1    2    0    0  0.00000000000E+00  0.00000000000E+00  0.29442482047E+04  0.36315735205E+04  0.21259653676E+04 0.  0.
        3    1    3    3  502    0 -0.33333701827E+03  0.10087132548E+04  0.15340961576E+04  0.18660297503E+04  0.10100000352E+00 0. -1.
       -3    1    3    3    0  502  0.33333701827E+03 -0.10087132548E+04  0.14101520472E+04  0.17655437702E+04  0.10100000352E+00 0.  1.
</event>
<event>
 5   0  0.4505107E-05  0.2289006E+04  0.7818609E-02  0.8482268E-01
        2   -1    0    0  501    0  0.00000000000E+00  0.00000000000E+00  0.14312634087E+04  0.14312634087E+04  0.25500000920E-02 0. -1.
       -2   -1    0    0    0  501  0.00000000000E+00  0.00000000000E+00 -0.91519647540E+03  0.91519647541E+03  0.25500000920E-02 0.  1.
    10030    2    1    2    0    0  0.00000000000E+00  0.00000000000E+00  0.51606693335E+03  0.23464598842E+04  0.22890060962E+04 0.  0.
        4    1    3    3  502    0 -0.76735023151E+03  0.44700353050E+03 -0.48206243972E+03  0.10104574918E+04  0.12699999809E+01 0.  1.
       -4    1    3    3    0  502  0.76735023151E+03 -0.44700353050E+03  0.99812937306E+03  0.13360023923E+04  0.12699999809E+01 0. -1.
</event>
<event>
 5   0  0.2043885E-05  0.2140143E+04  0.7818609E-02  0.8543763E-01
       -1   -1    0    0    0  501  0.00000000000E+00  0.00000000000E+00  0.81698675090E+03  0.81698675092E+03  0.50400001928E-02 0.  1.
        1   -1    0    0  501    0  0.00000000000E+00  0.00000000000E+00 -0.14015568582E+04  0.14015568582E+04  0.50400001928E-02 0. -1.
    10030    2    1    2    0    0  0.00000000000E+00  0.00000000000E+00 -0.58457010729E+03  0.22185436091E+04  0.21401433445E+04 0.  0.
        5    1    3    3  502    0  0.43346665453E+03 -0.81281485777E+03 -0.85672202717E+03  0.12579968424E+04  0.46999998093E+01 0. -1.
       -5    1    3    3    0  502 -0.43346665453E+03  0.81281485777E+03  0.27215191988E+03  0.96054676674E+03  0.46999998093E+01 0.  1.
</event>
<event>
 5   0  0.2042951E-05  0.2325046E+04  0.7818609E-02  0.8468111E-01
       -1   -1    0    0    0  501  0.00000000000E+00  0.00000000000E+00  0.15442461433E+04  0.15442461434E+04  0.50400001928E-02 0. -1.
        1   -1    0    0  501    0  0.00000000000E+00  0.00000000000E+00 -0.87515790070E+03  0.87515790071E+03  0.50400001928E-02 0.  1.
    10030    2    1    2    0    0  0.00000000000E+00  0.00000000000E+00  0.66908824265E+03  0.24194040441E+04  0.23250455591E+04 0.  0.
        2    1    3    3  502    0 -0.30564584798E+03  0.37151261871E+03  0.14358031334E+04  0.15142561369E+04  0.25500000920E-02 0. -1.
       -2    1    3    3    0  502  0.30564584798E+03 -0.37151261871E+03 -0.76671489072E+03  0.90514790720E+03  0.25500000920E-02 0.  1.
</event>
<event>
 5   0  0.4505107E-05  0.2342710E+04  0.7818609E-02  0.8461269E-01
       -2   -1    0    0    0  501  0.00000000000E+00  0.00000000000E+00  0.60469446321E+03  0.60469446321E+03  0.25500000920E-02 0. -1.
        2   -1    0    0  501    0  0.00000000000E+00  0.00000000000E+00 -0.22690345213E+04  0.22690345213E+04  0.25500000920E-02 0.  1.
    10030    2    1    2    0    0  0.00000000000E+00  0.00000000000E+00 -0.16643400581E+04  0.28737289845E+04  0.23427100647E+04 0.  0.
        4    1    3    3  502    0  0.42118555751E+03  0.23364031170E+03 -0.21419431026E+04  0.21954286453E+04  0.12699999809E+01 0.  1.
       -4    1    3    3    0  502 -0.42118555751E+03 -0.23364031170E+03  0.47760304450E+03  0.67830033917E+03  0.12699999809E+01 0. -1.
</event>
<event>
 5   0  0.4602447E-05  0.2287865E+04  0.7818609E-02  0.8482721E-01
       -2   -1    0    0    0  501  0.00000000000E+00  0.00000000000E+00  0.70301851562E+03  0.70301851563E+03  0.25500000920E-02 0. -1.
        2   -1    0    0  501    0  0.00000000000E+00  0.00000000000E+00 -0.18613759139E+04  0.18613759139E+04  0.25500000920E-02 0.  1.
    10030    2    1    2    0    0  0.00000000000E+00  0.00000000000E+00 -0.11583573983E+04  0.25643944296E+04  0.22878651464E+04 0.  0.
        3    1    3    3  502    0 -0.29892554208E+03  0.10807630684E+04 -0.83274375653E+03  0.13967345717E+04  0.10100000352E+00 0.  1.
       -3    1    3    3    0  502  0.29892554208E+03 -0.10807630684E+04 -0.32561364178E+03  0.11676598578E+04  0.10100000352E+00 0. -1.
</event>
<event>
 5   0  0.1604500E-05  0.2300109E+04  0.7818609E-02  0.8477878E-01
       -3   -1    0    0    0  501  0.00000000000E+00  0.00000000000E+00  0.12826247124E+04  0.12826247164E+04  0.10100000352E+00 0. -1.
        3   -1    0    0  501    0  0.00000000000E+00  0.00000000000E+00 -0.10311869204E+04  0.10311869254E+04  0.10100000352E+00 0.  1.
    10030    2    1    2    0    0  0.00000000000E+00  0.00000000000E+00  0.25143779195E+03  0.23138116417E+04  0.23001094214E+04 0.  0.
        4    1    3    3  502    0  0.64800604425E+03  0.23722785795E+03  0.10512188412E+04  0.12574782523E+04  0.12699999809E+01 0. -1.
       -4    1    3    3    0  502 -0.64800604425E+03 -0.23722785795E+03 -0.79978104927E+03  0.10563333894E+04  0.12699999809E+01 0.  1.
</event>
<event>
 5   0  0.4798609E-05  0.2312350E+04  0.7818609E-02  0.8473067E-01
       -2   -1    0    0    0  501  0.00000000000E+00  0.00000000000E+00  0.13797073428E+04  0.13797073428E+04  0.25500000920E-02 0.  1.
        2   -1    0    0  501    0  0.00000000000E+00  0.00000000000E+00 -0.96885833831E+03  0.96885833831E+03  0.25500000920E-02 0. -1.
    10030    2    1    2    0    0  0.00000000000E+00  0.00000000000E+00  0.41084900449E+03  0.23485656811E+04  0.23123502879E+04 0.  0.
        2    1    3    3  502    0  0.52520449362E+03 -0.99910815917E+03  0.45971360406E+03  0.12187671934E+04  0.25500000920E-02 0.  1.
       -2    1    3    3    0  502 -0.52520449362E+03  0.99910815917E+03 -0.48864599575E+02  0.11297984878E+04  0.25500000920E-02 0. -1.
</event>
<event>
 5   0  0.4505107E-05  0.2235212E+04  0.7818609E-02  0.8503913E-01
       -2   -1    0    0    0  501  0.00000000000E+00  0.00000000000E+00  0.10598268480E+04  0.10598268480E+04  0.25500000920E-02 0.  1.
        2   -1    0    0  501    0  0.00000000000E+00  0.00000000000E+00 -0.11785349828E+04  0.11785349828E+04  0.25500000920E-02 0. -1.
    10030    2    1    2    0    0  0.00000000000E+00  0.00000000000E+00 -0.11870813477E+03  0.22383618308E+04  0.22352118612E+04 0.  0.
        4    1    3    3  502    0 -0.80360824690E+03  0.57695533750E+03 -0.58006543000E+03  0.11467960551E+04  0.12699999809E+01 0. -1.
       -4    1    3    3    0  502  0.80360824690E+03 -0.57695533750E+03  0.46135729524E+03  0.10915657757E+04  0.12699999809E+01 0.  1.
</event>
<event>
 5   0  0.2085063E-05  0.2154408E+04  0.7818609E-02  0.8537648E-01
        1   -1    0    0  501    0  0.00000000000E+00  0.00000000000E+00  0.17029864164E+04  0.17029864164E+04  0.50400001928E-02 0.  1.
       -1   -1    0    0    0  501  0.00000000000E+00  0.00000000000E+00 -0.68137279421E+03  0.68137279423E+03  0.50400001928E-02 0. -1.
    10030    2    1    2    0    0  0.00000000000E+00  0.00000000000E+00  0.10216136222E+04  0.23843592106E+04  0.21544081443E+04 0.  0.
        1    1    3    3  502    0  0.24561315824E+03  0.56009849807E+03 -0.47059488456E+03  0.77168367641E+03  0.50400001928E-02 0. -1.
       -1    1    3    3    0  502 -0.24561315824E+03 -0.56009849807E+03  0.14922085067E+04  0.16126755342E+04  0.50400001928E-02 0.  1.
</event>
<event>
 5   0  0.4798609E-05  0.2291096E+04  0.7818609E-02  0.8481440E-01
       -2   -1    0    0    0  501  0.00000000000E+00  0.00000000000E+00  0.18548494832E+04  0.18548494832E+04  0.25500000920E-02 0.  1.
        2   -1    0    0  501    0  0.00000000000E+00  0.00000000000E+00 -0.70748609013E+03  0.70748609014E+03  0.25500000920E-02 0. -1.
    10030    2    1    2    0    0  0.00000000000E+00  0.00000000000E+00  0.11473633931E+04  0.25623355734E+04  0.22910959898E+04 0.  0.
        2    1    3    3  502    0  0.75293674008E+03 -0.29456741620E+03  0.14812983037E+04  0.16875806238E+04  0.25500000920E-02 0.  1.
       -2    1    3    3    0  502 -0.75293674008E+03  0.29456741620E+03 -0.33393491061E+03  0.87475494956E+03  0.25500000920E-02 0. -1.
</event>
<event>
 5   0  0.2043885E-05  0.2300493E+04  0.7818609E-02  0.8477727E-01
        1   -1    0    0  501    0  0.00000000000E+00  0.00000000000E+00  0.87703747916E+03  0.87703747917E+03  0.50400001928E-02 0. -1.
       -1   -1    0    0    0  501  0.00000000000E+00  0.00000000000E+00 -0.15085640917E+04  0.15085640917E+04  0.50400001928E-02 0.  1.
    10030    2    1    2    0    0  0.00000000000E+00  0.00000000000E+00 -0.63152661250E+03  0.23856015708E+04  0.23004932064E+04 0.  0.
        5    1    3    3  502    0  0.10609876572E+04  0.52830313401E+02 -0.77317047060E+03  0.13138875589E+04  0.46999998093E+01 0. -1.
       -5    1    3    3    0  502 -0.10609876572E+04 -0.52830313401E+02  0.14164385810E+03  0.10717140119E+04  0.46999998093E+01 0.  1.
</event>
<event>
 5   0  0.1968318E-05  0.2311281E+04  0.7818609E-02  0.8473486E-01
        1   -1    0    0  501    0  0.00000000000E+00  0.00000000000E+00  0.17843275044E+04  0.17843275044E+04  0.50400001928E-02 0.  1.
       -1   -1    0    0    0  501  0.00000000000E+00  0.00000000000E+00 -0.74846402072E+03  0.74846402073E+03  0.50400001928E-02 0. -1.
    10030    2    1    2    0    0  0.00000000000E+00  0.00000000000E+00  0.10358634837E+04  0.25327915251E+04  0.23112809766E+04 0.  0.
        3    1    3    3  502    0  0.35940598563E+03 -0.68602377186E+02  0.17191760813E+04  0.17576818135E+04  0.10100000352E+00 0.  1.
       -3    1    3    3    0  502 -0.35940598563E+03  0.68602377186E+02 -0.68331259769E+03  0.77510971161E+03  0.10100000352E+00 0. -1.
</event>
<event>
 5   0  0.4436695E-05  0.1855554E+04  0.7818609E-02  0.8677302E-01
       -2   -1    0    0    0  501  0.00000000000E+00  0.00000000000E+00  0.47274511588E+03  0.47274511589E+03  0.25500000920E-02 0.  1.
        2   -1    0    0  501    0  0.00000000000E+00  0.00000000000E+00 -0.18207904295E+04  0.18207904295E+04  0.25500000920E-02 0. -1.
    10030    2    1    2    0    0  0.00000000000E+00  0.00000000000E+00 -0.13480453136E+04  0.22935355454E+04  0.18555535914E+04 0.  0.
        5    1    3    3  502    0 -0.48498922461E+03 -0.28784941717E+03  0.23652404144E+03  0.61158609135E+03  0.46999998093E+01 0.  1.
       -5    1    3    3    0  502  0.48498922461E+03  0.28784941717E+03 -0.15845693550E+04  0.16819494540E+04  0.46999998093E+01 0. -1.
</event>
<event>
 5   0  0.2043885E-05  0.2279358E+04  0.7818609E-02  0.8486105E-01
       -1   -1    0    0    0  501  0.00000000000E+00  0.00000000000E+00  0.10646346569E+04  0.10646346569E+04  0.50400001928E-02 0. -1.
        1   -1    0    0  501    0  0.00000000000E+00  0.00000000000E+00 -0.12200126974E+04  0.12200126974E+04  0.50400001928E-02 0.  1.
    10030    2    1    2    0    0  0.00000000000E+00  0.00000000000E+00 -0.15537804046E+03  0.22846473543E+04  0.22793576284E+04 0.  0.
        5    1    3    3  502    0  0.28518109639E+03  0.50486985787E+03  0.90572188204E+03  0.10754422573E+04  0.46999998093E+01 0. -1.
       -5    1    3    3    0  502 -0.28518109639E+03 -0.50486985787E+03 -0.10610999225E+04  0.12092050970E+04  0.46999998093E+01 0.  1.
</event>
<event>
 5   0  0.4602447E-05  0.2310092E+04  0.7818609E-02  0.8473953E-01
       -2   -1    0    0    0  501  0.00000000000E+00  0.00000000000E+00  0.20609114742E+04  0.20609114742E+04  0.25500000920E-02 0.  1.
        2   -1    0    0  501    0  0.00000000000E+00  0.00000000000E+00 -0.64734988004E+03  0.64734988004E+03  0.25500000920E-02 0. -1.
    10030    2    1    2    0    0  0.00000000000E+00  0.00000000000E+00  0.14135615941E+04  0.27082613542E+04  0.23100915961E+04 0.  0.
        3    1    3    3  502    0 -0.81045652938E+03 -0.11590568258E+03 -0.24842863033E+03  0.85556455504E+03  0.10100000352E+00 0. -1.
       -3    1    3    3    0  502  0.81045652938E+03  0.11590568258E+03  0.16619902245E+04  0.18526967992E+04  0.10100000352E+00 0.  1.
</event>
<event>
 5   0  0.2085063E-05  0.2241413E+04  0.7818609E-02  0.8501386E-01
        1   -1    0    0  501    0  0.00000000000E+00  0.00000000000E+00  0.26527450845E+04  0.26527450845E+04  0.50400001928E-02 0. -1.
       -1   -1    0    0    0  501  0.00000000000E+00  0.00000000000E+00 -0.47346558593E+03  0.47346558596E+03  0.50400001928E-02 0.  1.
    10030    2    1    2    0    0  0.00000000000E+00  0.00000000000E+00  0.21792794986E+04  0.31262106705E+04  0.22414133986E+04 0.  0.
        1    1    3    3  502    0 -0.81736750302E+03 -0.29406939585E+03  0.20772732912E+04  0.22515840582E+04  0.50400001928E-02 0.  1.
       -1    1    3    3    0  502  0.81736750302E+03  0.29406939585E+03  0.10200620734E+03  0.87462661229E+03  0.50400001928E-02 0. -1.
</event>
<event>
 5   0  0.2043885E-05  0.2023335E+04  0.7818609E-02  0.8595788E-01
       -1   -1    0    0    0  501  0.00000000000E+00  0.00000000000E+00  0.61339685046E+03  0.61339685048E+03  0.50400001928E-02 0. -1.
        1   -1    0    0  501    0  0.00000000000E+00  0.00000000000E+00 -0.16685302704E+04  0.16685302704E+04  0.50400001928E-02 0.  1.
    10030    2    1    2    0    0  0.00000000000E+00  0.00000000000E+00 -0.10551334199E+04  0.22819271209E+04  0.20233350813E+04 0.  0.
        5    1    3    3  502    0 -0.27522002630E+03  0.73003726625E+03 -0.12538841107E+04  0.14768032794E+04  0.46999998093E+01 0.  1.
       -5    1    3    3    0  502  0.27522002630E+03 -0.73003726625E+03  0.19875069079E+03  0.80512384146E+03  0.46999998093E+01 0. -1.
</event>
<event>
 5   0  0.4602447E-05  0.2244466E+04  0.7818609E-02  0.8500145E-01
        2   -1    0    0  501    0  0.00000000000E+00  0.00000000000E+00  0.79274568747E+03  0.79274568747E+03  0.25500000920E-02 0.  1.
       -2   -1    0    0    0  501  0.00000000000E+00  0.00000000000E+00 -0.15886641494E+04  0.15886641494E+04  0.25500000920E-02 0. -1.
    10030    2    1    2    0    0  0.00000000000E+00  0.00000000000E+00 -0.79591846189E+03  0.23814098368E+04  0.22444657745E+04 0.  0.
        3    1    3    3  502    0  0.31257566494E+02 -0.50644737678E+03  0.66408390637E+03  0.83574722603E+03  0.10100000352E+00 0.  1.
       -3    1    3    3    0  502 -0.31257566494E+02  0.50644737678E+03 -0.14600023683E+04  0.15456626108E+04  0.10100000352E+00 0. -1.
</event>
<event>
 5   0  0.4436695E-05  0.2314317E+04  0.7818609E-02  0.8472297E-01
       -2   -1    0    0    0  501  0.00000000000E+00  0.00000000000E+00  0.90910839033E+03  0.90910839034E+03  0.25500000920E-02 0.  1.
        2   -1    0    0  501    0  0.00000000000E+00  0.00000000000E+00 -0.14728893570E+04  0.14728893570E+04  0.25500000920E-02 0. -1.
    10030    2    1    2    0    0  0.00000000000E+00  0.00000000000E+00 -0.56378096664E+03  0.23819977473E+04  0.23143172405E+04 0.  0.
        5    1    3    3  502    0 -0.75475232002E+03  0.85544458597E+03 -0.48135546797E+03  0.12382090618E+04  0.46999998093E+01 0. -1.
       -5    1    3    3    0  502  0.75475232002E+03 -0.85544458597E+03 -0.82425498675E+02  0.11437886855E+04  0.46999998093E+01 0.  1.
</event>
<event>
 5   0  0.4436695E-05  0.2324823E+04  0.7818609E-02  0.8468197E-01
       -2   -1    0    0    0  501  0.00000000000E+00  0.00000000000E+00  0.10799508456E+04  0.10799508456E+04  0.25500000920E-02 0.  1.
        2   -1    0    0  501    0  0.00000000000E+00  0.00000000000E+00 -0.12511687624E+04  0.12511687624E+04  0.25500000920E-02 0. -1.
    10030    2    1    2    0    0  0.00000000000E+00  0.00000000000E+00 -0.17121791678E+03  0.23311196080E+04  0.23248232302E+04 0.  0.
        5    1    3    3  502    0  0.39317464236E+03  0.10889342616E+04 -0.18988362157E+03  0.11732186519E+04  0.46999998093E+01 0. -1.
       -5    1    3    3    0  502 -0.39317464236E+03 -0.10889342616E+04  0.18665704792E+02  0.11579009561E+04  0.46999998093E+01 0.  1.
</event>
<event>
 5   0  0.2031860E-05  0.2303575E+04  0.7818609E-02  0.8476513E-01
        1   -1    0    0  501    0  0.00000000000E+00  0.00000000000E+00  0.19104389332E+04  0.19104389332E+04  0.50400001928E-02 0. -1.
       -1   -1    0    0    0  501  0.00000000000E+00  0.00000000000E+00 -0.69440274943E+03  0.69440274945E+03  0.50400001928E-02 0.  1.
    10030    2    1    2    0    0  0.00000000000E+00  0.00000000000E+00  0.12160361837E+04  0.26048416826E+04  0.23035746550E+04 0.  0.
        4    1    3    3  502    0 -0.53384293781E+03 -0.10105997668E+04  0.44685773990E+03  0.12271852442E+04  0.12699999809E+01 0. -1.
       -4    1    3    3    0  502  0.53384293781E+03  0.10105997668E+04  0.76917844385E+03  0.13776564384E+04  0.12699999809E+01 0.  1.
</event>
<event>
 5   0  0.1604500E-05  0.2300563E+04  0.7818609E-02  0.8477699E-01
        3   -1    0    0  501    0  0.00000000000E+00  0.00000000000E+00  0.11989792724E+04  0.11989792767E+04  0.10100000352E+00 0. -1.
       -3   -1    0    0    0  501  0.00000000000E+00  0.00000000000E+00 -0.11035616383E+04  0.11035616429E+04  0.10100000352E+00 0.  1.
    10030    2    1    2    0    0  0.00000000000E+00  0.00000000000E+00  0.95417634142E+02  0.23025409195E+04  0.23005630096E+04 0.  0.
        2    1    3    3  502    0  0.76354248260E+03 -0.31546952966E+03  0.84879022972E+03  0.11844673913E+04  0.25500000920E-02 0. -1.
       -2    1    3    3    0  502 -0.76354248260E+03  0.31546952966E+03 -0.75337259558E+03  0.11180735283E+04  0.25500000920E-02 0.  1.
</event>
<event>
 5   0  0.2031860E-05  0.2308096E+04  0.7818609E-02  0.8474736E-01
        1   -1    0    0  501    0  0.00000000000E+00  0.00000000000E+00  0.20361888710E+04  0.20361888710E+04  0.50400001928E-02 0.  1.
       -1   -1    0    0    0  501  0.00000000000E+00  0.00000000000E+00 -0.65407825400E+03  0.65407825402E+03  0.50400001928E-02 0. -1.
    10030    2    1    2    0    0  0.00000000000E+00  0.00000000000E+00  0.13821106170E+04  0.26902671250E+04  0.23080960652E+04 0.  0.
        4    1    3    3  502    0  0.13894113033E+02  0.11295004595E+04  0.41557183887E+03  0.12036053757E+04  0.12699999809E+01 0.  1.
       -4    1    3    3    0  502 -0.13894113033E+02 -0.11295004595E+04  0.96653877813E+03  0.14866617493E+04  0.12699999809E+01 0. -1.
</event>
<event>
 5   0  0.1968318E-05  0.2312742E+04  0.7818609E-02  0.8472914E-01
       -1   -1    0    0    0  501  0.00000000000E+00  0.00000000000E+00  0.53834176413E+03  0.53834176416E+03  0.50400001928E-02 0. -1.
        1   -1    0    0  501    0  0.00000000000E+00  0.00000000000E+00 -0.24839127214E+04  0.24839127214E+04  0.50400001928E-02 0.  1.
    10030    2    1    2    0    0  0.00000000000E+00  0.00000000000E+00 -0.19455709572E+04  0.30222544855E+04  0.23127420577E+04 0.  0.
        3    1    3    3  502    0 -0.75969930261E+03  0.62038306310E+03 -0.17235941019E+03  0.99585438286E+03  0.10100000352E+00 0. -1.
       -3    1    3    3    0  502  0.75969930261E+03 -0.62038306310E+03 -0.17732115470E+04  0.20264001027E+04  0.10100000352E+00 0.  1.
</event>
<event>
 5   0  0.2031860E-05  0.2274114E+04  0.7818609E-02  0.8488198E-01
        1   -1    0    0  501    0  0.00000000000E+00  0.00000000000E+00  0.15749866636E+04  0.15749866636E+04  0.50400001928E-02 0. -1.
       -1   -1    0    0    0  501  0.00000000000E+00  0.00000000000E+00 -0.82089516156E+03  0.82089516157E+03  0.50400001928E-02 0.  1.
    10030    2    1    2    0    0  0.00000000000E+00  0.00000000000E+00  0.75409150207E+03  0.23958818252E+04  0.22741142730E+04 0.  0.
        4    1    3    3  502    0  0.90491742220E+03  0.27780602104E+03  0.10407336355E+04  0.14068332663E+04  0.12699999809E+01 0. -1.
       -4    1    3    3    0  502 -0.90491742220E+03 -0.27780602104E+03 -0.28664213339E+03  0.98904855890E+03  0.12699999809E+01 0.  1.
</event>
<event>
 5   0  0.4602447E-05  0.2267413E+04  0.7818609E-02  0.8490882E-01
       -2   -1    0    0    0  501  0.00000000000E+00  0.00000000000E+00  0.60290731377E+03  0.60290731377E+03  0.25500000920E-02 0.  1.
        2   -1    0    0  501    0  0.00000000000E+00  0.00000000000E+00 -0.21318202576E+04  0.21318202576E+04  0.25500000920E-02 0. -1.
    10030    2    1    2    0    0  0.00000000000E+00  0.00000000000E+00 -0.15289129438E+04  0.27347275714E+04  0.22674126444E+04 0.  0.
        3    1    3    3  502    0  0.64174775562E+03  0.61921210102E+03  0.79836469601E+02  0.89534221389E+03  0.10100000352E+00 0.  1.
       -3    1    3    3    0  502 -0.64174775562E+03 -0.61921210102E+03 -0.16087494134E+04  0.18393853575E+04  0.10100000352E+00 0. -1.
</event>
<event>
 5   0  0.4436695E-05  0.2299737E+04  0.7818609E-02  0.8478025E-01
        2   -1    0    0  501    0  0.00000000000E+00  0.00000000000E+00  0.94354911854E+03  0.94354911854E+03  0.25500000920E-02 0.  1.
       -2   -1    0    0    0  501  0.00000000000E+00  0.00000000000E+00 -0.14013026450E+04  0.14013026450E+04  0.25500000920E-02 0. -1.
    10030    2    1    2    0    0  0.00000000000E+00  0.00000000000E+00 -0.45775352649E+03  0.23448517636E+04  0.22997372681E+04 0.  0.
        5    1    3    3  502    0  0.30408806635E+03 -0.37044320393E+03  0.83684425917E+03  0.96437965736E+03  0.46999998093E+01 0.  1.
       -5    1    3    3    0  502 -0.30408806635E+03  0.37044320393E+03 -0.12945977857E+04  0.13804721062E+04  0.46999998093E+01 0. -1.
</event>
<event>
 5   0  0.4436695E-05  0.1960453E+04  0.7818609E-02  0.8625337E-01
        2   -1    0    0  501    0  0.00000000000E+00  0.00000000000E+00  0.16431843144E+04  0.16431843145E+04  0.25500000920E-02 0. -1.
       -2   -1    0    0    0  501  0.00000000000E+00  0.00000000000E+00 -0.58474484373E+03  0.58474484373E+03  0.25500000920E-02 0.  1.
    10030    2    1    2    0    0  0.00000000000E+00  0.00000000000E+00  0.10584394707E+04  0.22279291582E+04  0.19604525551E+04 0.  0.
        5    1    3    3  502    0  0.36327439968E+03 -0.51345151370E+03  0.13836056451E+04  0.15198642760E+04  0.46999998093E+01 0. -1.
       -5    1    3    3    0  502 -0.36327439968E+03  0.51345151370E+03 -0.32516617439E+03  0.70806488216E+03  0.46999998093E+01 0.  1.
</event>
<event>
 5   0  0.2085063E-05  0.2307283E+04  0.7818609E-02  0.8475055E-01
       -1   -1    0    0    0  501  0.00000000000E+00  0.00000000000E+00  0.72701452984E+03  0.72701452986E+03  0.50400001928E-02 0.  1.
        1   -1    0    0  501    0  0.00000000000E+00  0.00000000000E+00 -0.18306224263E+04  0.18306224263E+04  0.50400001928E-02 0. -1.
    10030    2    1    2    0    0  0.00000000000E+00  0.00000000000E+00 -0.11036078965E+04  0.25576369562E+04  0.23072833399E+04 0.  0.
        1    1    3    3  502    0 -0.66400476819E+03  0.93238809696E+03 -0.39255210325E+03  0.12101020822E+04  0.50400001928E-02 0.  1.
       -1    1    3    3    0  502  0.66400476819E+03 -0.93238809696E+03 -0.71105579322E+03  0.13475348740E+04  0.50400001928E-02 0. -1.
</event>
<event>
 5   0  0.4605516E-05  0.2324129E+04  0.7818609E-02  0.8468468E-01
       -2   -1    0    0    0  501  0.00000000000E+00  0.00000000000E+00  0.10572592673E+04  0.10572592673E+04  0.25500000920E-02 0.  1.
        2   -1    0    0  501    0  0.00000000000E+00  0.00000000000E+00 -0.12772587840E+04  0.12772587841E+04  0.25500000920E-02 0. -1.
    10030    2    1    2    0    0  0.00000000000E+00  0.00000000000E+00 -0.21999951678E+03  0.23345180513E+04  0.23241288141E+04 0.  0.
        1    1    3    3  502    0 -0.10862201241E+04  0.20662812562E+03 -0.46912326311E+03  0.12011019842E+04  0.50400001928E-02 0. -1.
       -1    1    3    3    0  502  0.10862201241E+04 -0.20662812562E+03  0.24912374633E+03  0.11334160672E+04  0.50400001928E-02 0.  1.
</event>
<event>
 5   0  0.4605516E-05  0.2296956E+04  0.7818609E-02  0.8479122E-01
        2   -1    0    0  501    0  0.00000000000E+00  0.00000000000E+00  0.10731507546E+04  0.10731507546E+04  0.25500000920E-02 0.  1.
       -2   -1    0    0    0  501  0.00000000000E+00  0.00000000000E+00 -0.12290927906E+04  0.12290927906E+04  0.25500000920E-02 0. -1.
    10030    2    1    2    0    0  0.00000000000E+00  0.00000000000E+00 -0.15594203604E+03  0.23022435452E+04  0.22969561213E+04 0.  0.
        1    1    3    3  502    0  0.72223198063E+03  0.62315108999E+03 -0.71902560701E+03  0.11945434853E+04  0.50400001928E-02 0. -1.
       -1    1    3    3    0  502 -0.72223198063E+03 -0.62315108999E+03  0.56308357097E+03  0.11077000599E+04  0.50400001928E-02 0.  1.
</event>
<event>
 5   0  0.1968318E-05  0.2364977E+04  0.7818609E-02  0.8452733E-01
        1   -1    0    0  501    0  0.00000000000E+00  0.00000000000E+00  0.15091696052E+04  0.15091696052E+04  0.50400001928E-02 0.  1.
       -1   -1    0    0    0  501  0.00000000000E+00  0.00000000000E+00 -0.92652237109E+03  0.92652237111E+03  0.50400001928E-02 0. -1.
    10030    2    1    2    0    0  0.00000000000E+00  0.00000000000E+00  0.58264723406E+03  0.24356919763E+04  0.23649772946E+04 0.  0.
        3    1    3    3  502    0  0.59987584168E+02 -0.55019670009E+03  0.13675401119E+04  0.14752901026E+04  0.10100000352E+00 0.  1.
       -3    1    3    3    0  502 -0.59987584168E+02  0.55019670009E+03 -0.78489287783E+03  0.96040187365E+03  0.10100000352E+00 0. -1.
</event>
<event>
 5   0  0.4505107E-05  0.2297943E+04  0.7818609E-02  0.8478733E-01
       -2   -1    0    0    0  501  0.00000000000E+00  0.00000000000E+00  0.79664415313E+03  0.79664415313E+03  0.25500000920E-02 0. -1.
        2   -1    0    0  501    0  0.00000000000E+00  0.00000000000E+00 -0.16571205756E+04  0.16571205756E+04  0.25500000920E-02 0.  1.
    10030    2    1    2    0    0  0.00000000000E+00  0.00000000000E+00 -0.86047642244E+03  0.24537647287E+04  0.22979429214E+04 0.  0.
        4    1    3    3  502    0  0.10834088722E+04 -0.34136087291E+03 -0.24580750524E+03  0.11622069404E+04  0.12699999809E+01 0. -1.
       -4    1    3    3    0  502 -0.10834088722E+04  0.34136087291E+03 -0.61466891719E+03  0.12915577883E+04  0.12699999809E+01 0.  1.
</event>
<event>
 5   0  0.2042951E-05  0.2307660E+04  0.7818609E-02  0.8474907E-01
        1   -1    0    0  501    0  0.00000000000E+00  0.00000000000E+00  0.16121626313E+04  0.16121626313E+04  0.50400001928E-02 0.  1.
       -1   -1    0    0    0  501  0.00000000000E+00  0.00000000000E+00 -0.82579977085E+03  0.82579977086E+03  0.50400001928E-02 0. -1.
    10030    2    1    2    0    0  0.00000000000E+00  0.00000000000E+00  0.78636286045E+03  0.24379624022E+04  0.23076598809E+04 0.  0.
        2    1    3    3  502    0  0.11041789291E+04 -0.31576091765E+03  0.51085983380E+03  0.12569382779E+04  0.25500000920E-02 0.  1.
       -2    1    3    3    0  502 -0.11041789291E+04  0.31576091765E+03  0.27550302665E+03  0.11810241243E+04  0.25500000920E-02 0. -1.
</event>
<event>
 5   0  0.4798609E-05  0.2279698E+04  0.7818609E-02  0.8485969E-01
        2   -1    0    0  501    0  0.00000000000E+00  0.00000000000E+00  0.13214046416E+04  0.13214046416E+04  0.25500000920E-02 0. -1.
       -2   -1    0    0    0  501  0.00000000000E+00  0.00000000000E+00 -0.98323854744E+03  0.98323854744E+03  0.25500000920E-02 0.  1.
    10030    2    1    2    0    0  0.00000000000E+00  0.00000000000E+00  0.33816609417E+03  0.23046431891E+04  0.22796982084E+04 0.  0.
        2    1    3    3  502    0  0.50976984941E+02  0.60565977976E+03  0.11439131830E+04  0.12953608733E+04  0.25500000920E-02 0. -1.
       -2    1    3    3    0  502 -0.50976984941E+02 -0.60565977976E+03 -0.80574708880E+03  0.10092823158E+04  0.25500000920E-02 0.  1.
</event>
<event>
 5   0  0.2085063E-05  0.2324923E+04  0.7818609E-02  0.8468159E-01
        1   -1    0    0  501    0  0.00000000000E+00  0.00000000000E+00  0.29318864714E+04  0.29318864714E+04  0.50400001928E-02 0. -1.
       -1   -1    0    0    0  501  0.00000000000E+00  0.00000000000E+00 -0.46090340776E+03  0.46090340778E+03  0.50400001928E-02 0.  1.
    10030    2    1    2    0    0  0.00000000000E+00  0.00000000000E+00  0.24709830636E+04  0.33927898791E+04  0.23249227650E+04 0.  0.
        1    1    3    3  502    0 -0.11586787128E+04  0.92741382582E+02  0.12550235640E+04  0.17106202004E+04  0.50400001928E-02 0. -1.
       -1    1    3    3    0  502  0.11586787128E+04 -0.92741382582E+02  0.12159594995E+04  0.16821696788E+04  0.50400001928E-02 0.  1.
</event>
<event>
 5   0  0.4798609E-05  0.2296627E+04  0.7818609E-02  0.8479252E-01
       -2   -1    0    0    0  501  0.00000000000E+00  0.00000000000E+00  0.71850453533E+03  0.71850453534E+03  0.25500000920E-02 0. -1.
        2   -1    0    0  501    0  0.00000000000E+00  0.00000000000E+00 -0.18352344736E+04  0.18352344736E+04  0.25500000920E-02 0.  1.
    10030    2    1    2    0    0  0.00000000000E+00  0.00000000000E+00 -0.11167299383E+04  0.25537390090E+04  0.22966273470E+04 0.  0.
        2    1    3    3  502    0  0.30829089719E+03  0.20349927429E+02  0.67141902967E+03  0.73909465581E+03  0.25500000920E-02 0. -1.
       -2    1    3    3    0  502 -0.30829089719E+03 -0.20349927429E+02 -0.17881489680E+04  0.18146443532E+04  0.25500000920E-02 0.  1.
</event>
<event>
 5   0  0.4436695E-05  0.2289334E+04  0.7818609E-02  0.8482139E-01
       -2   -1    0    0    0  501  0.00000000000E+00  0.00000000000E+00  0.91279993618E+03  0.91279993618E+03  0.25500000920E-02 0.  1.
        2   -1    0    0  501    0  0.00000000000E+00  0.00000000000E+00 -0.14354317966E+04  0.14354317966E+04  0.25500000920E-02 0. -1.
    10030    2    1    2    0    0  0.00000000000E+00  0.00000000000E+00 -0.52263186040E+03  0.23482317328E+04  0.22893335732E+04 0.  0.
        5    1    3    3  502    0  0.10507389447E+04  0.42697865927E+03 -0.41981271419E+03  0.12093915455E+04  0.46999998093E+01 0.  1.
       -5    1    3    3    0  502 -0.10507389447E+04 -0.42697865927E+03 -0.10281914621E+03  0.11388401873E+04  0.46999998093E+01 0. -1.
</event>
<event>
 5   0  0.4436695E-05  0.2263300E+04  0.7818609E-02  0.8492533E-01
        2   -1    0    0  501    0  0.00000000000E+00  0.00000000000E+00  0.80672958261E+03  0.80672958261E+03  0.25500000920E-02 0.  1.
       -2   -1    0    0    0  501  0.00000000000E+00  0.00000000000E+00 -0.15874368527E+04  0.15874368527E+04  0.25500000920E-02 0. -1.
    10030    2    1    2    0    0  0.00000000000E+00  0.00000000000E+00 -0.78070727008E+03  0.23941664353E+04  0.22633004834E+04 0.  0.
        5    1    3    3  502    0 -0.72893348127E+02  0.68170396024E+03  0.56202383448E+03  0.88652501946E+03  0.46999998093E+01 0.  1.
       -5    1    3    3    0  502  0.72893348127E+02 -0.68170396024E+03 -0.13427311046E+04  0.15076414158E+04  0.46999998093E+01 0. -1.
</event>
<event>
 5   0  0.4436695E-05  0.2309366E+04  0.7818609E-02  0.8474237E-01
       -2   -1    0    0    0  501  0.00000000000E+00  0.00000000000E+00  0.10834431137E+04  0.10834431137E+04  0.25500000920E-02 0.  1.
        2   -1    0    0  501    0  0.00000000000E+00  0.00000000000E+00 -0.12306071917E+04  0.12306071917E+04  0.25500000920E-02 0. -1.
    10030    2    1    2    0    0  0.00000000000E+00  0.00000000000E+00 -0.14716407805E+03  0.23140503054E+04  0.23093660494E+04 0.  0.
        5    1    3    3  502    0  0.72636581352E+03  0.17538064874E+03  0.80849047059E+03  0.11009289705E+04  0.46999998093E+01 0.  1.
       -5    1    3    3    0  502 -0.72636581352E+03 -0.17538064874E+03 -0.95565454864E+03  0.12131213350E+04  0.46999998093E+01 0. -1.
</event>
<event>
 5   0  0.2085063E-05  0.2280036E+04  0.7818609E-02  0.8485834E-01
        1   -1    0    0  501    0  0.00000000000E+00  0.00000000000E+00  0.13303343000E+04  0.13303343000E+04  0.50400001928E-02 0. -1.
       -1   -1    0    0    0  501  0.00000000000E+00  0.00000000000E+00 -0.97692837177E+03  0.97692837178E+03  0.50400001928E-02 0.  1.
    10030    2    1    2    0    0  0.00000000000E+00  0.00000000000E+00  0.35340592821E+03  0.23072626718E+04  0.22800362467E+04 0.  0.
        1    1    3    3  502    0 -0.99478556592E+03  0.39491757223E+03 -0.22051859094E+03  0.10927884791E+04  0.50400001928E-02 0.  1.
       -1    1    3    3    0  502  0.99478556592E+03 -0.39491757223E+03  0.57392451915E+03  0.12144741927E+04  0.50400001928E-02 0. -1.
</event>
<event>
 5   0  0.1968318E-05  0.2380570E+04  0.7818609E-02  0.8446814E-01
       -1   -1    0    0    0  501  0.00000000000E+00  0.00000000000E+00  0.93899610996E+03  0.93899610997E+03  0.50400001928E-02 0. -1.
        1   -1    0    0  501    0  0.00000000000E+00  0.00000000000E+00 -0.15088222542E+04  0.15088222542E+04  0.50400001928E-02 0.  1.
    10030    2    1    2    0    0  0.00000000000E+00  0.00000000000E+00 -0.56982614420E+03  0.24478183641E+04  0.23805698707E+04 0.  0.
        3    1    3    3  502    0  0.66949560460E+03 -0.77410462406E+02 -0.12937303072E+04  0.14587511310E+04  0.10100000352E+00 0.  1.
       -3    1    3    3    0  502 -0.66949560460E+03  0.77410462406E+02  0.72390416299E+03  0.98906723313E+03  0.10100000352E+00 0. -1.
</event>
<event>
 5   0  0.1968318E-05  0.2066204E+04  0.7818609E-02  0.8576279E-01
       -1   -1    0    0    0  501  0.00000000000E+00  0.00000000000E+00  0.13873682662E+04  0.13873682662E+04  0.50400001928E-02 0.  1.
        1   -1    0    0  501    0  0.00000000000E+00  0.00000000000E+00 -0.76929782056E+03  0.76929782057E+03  0.50400001928E-02 0. -1.
    10030    2    1    2    0    0  0.00000000000E+00  0.00000000000E+00  0.61807044564E+03  0.21566660868E+04  0.20662036526E+04 0.  0.
        3    1    3    3  502    0 -0.93750870769E+03  0.34989490840E+03  0.57708678009E+03  0.11551528842E+04  0.10100000352E+00 0.  1.
       -3    1    3    3    0  502  0.93750870769E+03 -0.34989490840E+03  0.40983665551E+02  0.10015132026E+04  0.10100000352E+00 0. -1.
</event>
<event>
 5   0  0.4605516E-05  0.2317595E+04  0.7818609E-02  0.8471016E-01
       -2   -1    0    0    0  501  0.00000000000E+00  0.00000000000E+00  0.81105346811E+03  0.81105346812E+03  0.25500000920E-02 0. -1.
        2   -1    0    0  501    0  0.00000000000E+00  0.00000000000E+00 -0.16556392233E+04  0.16556392233E+04  0.25500000920E-02 0.  1.
    10030    2    1    2    0    0  0.00000000000E+00  0.00000000000E+00 -0.84458575516E+03  0.24666926914E+04  0.23175952485E+04 0.  0.
        1    1    3    3  502    0 -0.62455478382E+02 -0.72127472086E+03 -0.13853076755E+04  0.15630787778E+04  0.50400001928E-02 0.  1.
       -1    1    3    3    0  502  0.62455478382E+02  0.72127472086E+03  0.54072192033E+03  0.90361391361E+03  0.50400001928E-02 0. -1.
</event>
<event>
 5   0  0.2043885E-05  0.2277583E+04  0.7818609E-02  0.8486813E-01
       -1   -1    0    0    0  501  0.00000000000E+00  0.00000000000E+00  0.52531123412E+03  0.52531123414E+03  0.50400001928E-02 0. -1.
        1   -1    0    0  501    0  0.00000000000E+00  0.00000000000E+00 -0.24687190223E+04  0.24687190223E+04  0.50400001928E-02 0.  1.
    10030    2    1    2    0    0  0.00000000000E+00  0.00000000000E+00 -0.19434077881E+04  0.29940302564E+04  0.22775827856E+04 0.  0.
        5    1    3    3  502    0 -0.10838187640E+04  0.34951445568E+03 -0.97101018999E+03  0.14965648489E+04  0.46999998093E+01 0. -1.
       -5    1    3    3    0  502  0.10838187640E+04 -0.34951445568E+03 -0.97239759815E+03  0.14974654075E+04  0.46999998093E+01 0.  1.
</event>
<event>
 5   0  0.4605516E-05  0.2382114E+04  0.7818609E-02  0.8446230E-01
       -2   -1    0    0    0  501  0.00000000000E+00  0.00000000000E+00  0.12527320032E+04  0.12527320032E+04  0.25500000920E-02 0.  1.
        2   -1    0    0  501    0  0.00000000000E+00  0.00000000000E+00 -0.11324180100E+04  0.11324180100E+04  0.25500000920E-02 0. -1.
    10030    2    1    2    0    0  0.00000000000E+00  0.00000000000E+00  0.12031399317E+03  0.23851500132E+04  0.23821135843E+04 0.  0.
        1    1    3    3  502    0 -0.51339765493E+03  0.10612361864E+04 -0.10981475964E+03  0.11840011305E+04  0.50400001928E-02 0. -1.
       -1    1    3    3    0  502  0.51339765493E+03 -0.10612361864E+04  0.23012875282E+03  0.12011488827E+04  0.50400001928E-02 0.  1.
</event>
<event>
 5   0  0.4602447E-05  0.2318140E+04  0.7818609E-02  0.8470803E-01
       -2   -1    0    0    0  501  0.00000000000E+00  0.00000000000E+00  0.85334951926E+03  0.85334951927E+03  0.25500000920E-02 0. -1.
        2   -1    0    0  501    0  0.00000000000E+00  0.00000000000E+00 -0.15743180591E+04  0.15743180591E+04  0.25500000920E-02 0.  1.
    10030    2    1    2    0    0  0.00000000000E+00  0.00000000000E+00 -0.72096853985E+03  0.24276675784E+04  0.23181402537E+04 0.  0.
        3    1    3    3  502    0 -0.10187497758E+04  0.49165007843E+03 -0.62515563335E+03  0.12924358713E+04  0.10100000352E+00 0.  1.
       -3    1    3    3    0  502  0.10187497758E+04 -0.49165007843E+03 -0.95812906491E+02  0.11352317070E+04  0.10100000352E+00 0. -1.
</event>
<event>
 5   0  0.4798609E-05  0.2388819E+04  0.7818609E-02  0.8443701E-01
        2   -1    0    0  501    0  0.00000000000E+00  0.00000000000E+00  0.20370820635E+04  0.20370820635E+04  0.25500000920E-02 0.  1.
       -2   -1    0    0    0  501  0.00000000000E+00  0.00000000000E+00 -0.70032230996E+03  0.70032230997E+03  0.25500000920E-02 0. -1.
    10030    2    1    2    0    0  0.00000000000E+00  0.00000000000E+00  0.13367597536E+04  0.27374043735E+04  0.23888189687E+04 0.  0.
        2    1    3    3  502    0 -0.10574663419E+04  0.53383561828E+03  0.49309292701E+03  0.12831041136E+04  0.25500000920E-02 0. -1.
       -2    1    3    3    0  502  0.10574663419E+04 -0.53383561828E+03  0.84366682654E+03  0.14543002599E+04  0.25500000920E-02 0.  1.
</event>
<event>
 5   0  0.2042951E-05  0.2300919E+04  0.7818609E-02  0.8477559E-01
        1   -1    0    0  501    0  0.00000000000E+00  0.00000000000E+00  0.90938139803E+03  0.90938139804E+03  0.50400001928E-02 0.  1.
       -1   -1    0    0    0  501  0.00000000000E+00  0.00000000000E+00 -0.14554471993E+04  0.14554471993E+04  0.50400001928E-02 0. -1.
    10030    2    1    2    0    0  0.00000000000E+00  0.00000000000E+00 -0.54606580130E+03  0.23648285974E+04  0.23009186069E+04 0.  0.
        2    1    3    3  502    0  0.30982891138E+01  0.14846398798E+03 -0.14455560035E+04  0.14531632098E+04  0.25500000920E-02 0. -1.
       -2    1    3    3    0  502 -0.30982891138E+01 -0.14846398798E+03  0.89949020217E+03  0.91166538759E+03  0.25500000920E-02 0.  1.
</event>
<event>
 5   0  0.4436695E-05  0.2188299E+04  0.7818609E-02  0.8523314E-01
       -2   -1    0    0    0  501  0.00000000000E+00  0.00000000000E+00  0.71019468100E+03  0.71019468101E+03  0.25500000920E-02 0. -1.
        2   -1    0    0  501    0  0.00000000000E+00  0.00000000000E+00 -0.16856836604E+04  0.16856836604E+04  0.25500000920E-02 0.  1.
    10030    2    1    2    0    0  0.00000000000E+00  0.00000000000E+00 -0.97548897943E+03  0.23958783414E+04  0.21882994032E+04 0.  0.
        5    1    3    3  502    0 -0.10626998628E+04 -0.10656759113E+03 -0.74788304486E+03  0.13038553557E+04  0.46999998093E+01 0.  1.
       -5    1    3    3    0  502  0.10626998628E+04  0.10656759113E+03 -0.22760593457E+03  0.10920229857E+04  0.46999998093E+01 0. -1.
</event>
<event>
 5   0  0.1604500E-05  0.2114278E+04  0.7818609E-02  0.8554980E-01
        3   -1    0    0  501    0  0.00000000000E+00  0.00000000000E+00  0.95662039220E+03  0.95662039754E+03  0.10100000352E+00 0.  1.
       -3   -1    0    0    0  501  0.00000000000E+00  0.00000000000E+00 -0.11682199016E+04  0.11682199060E+04  0.10100000352E+00 0. -1.
    10030    2    1    2    0    0  0.00000000000E+00  0.00000000000E+00 -0.21159950939E+03  0.21248403035E+04  0.21142781186E+04 0.  0.
        3    1    3    3  502    0 -0.95105179175E+03  0.45266928309E+03 -0.15160567985E+02  0.10533939640E+04  0.10100000352E+00 0. -1.
       -3    1    3    3    0  502  0.95105179175E+03 -0.45266928309E+03 -0.19643894141E+03  0.10714463395E+04  0.10100000352E+00 0.  1.
</event>
<event>
 5   0  0.4436695E-05  0.2269129E+04  0.7818609E-02  0.8490194E-01
       -2   -1    0    0    0  501  0.00000000000E+00  0.00000000000E+00  0.86802771274E+03  0.86802771274E+03  0.25500000920E-02 0.  1.
        2   -1    0    0  501    0  0.00000000000E+00  0.00000000000E+00 -0.14829437195E+04  0.14829437195E+04  0.25500000920E-02 0. -1.
    10030    2    1    2    0    0  0.00000000000E+00  0.00000000000E+00 -0.61491600680E+03  0.23509714323E+04  0.22691286830E+04 0.  0.
        5    1    3    3  502    0  0.89212482417E+03  0.58211754726E+03 -0.71201116956E+03  0.12812999400E+04  0.46999998093E+01 0.  1.
       -5    1    3    3    0  502 -0.89212482417E+03 -0.58211754726E+03  0.97095162753E+02  0.10696714923E+04  0.46999998093E+01 0. -1.
</event>
<event>
 5   0  0.4605516E-05  0.2317977E+04  0.7818609E-02  0.8470867E-01
       -2   -1    0    0    0  501  0.00000000000E+00  0.00000000000E+00  0.81455472303E+03  0.81455472304E+03  0.25500000920E-02 0. -1.
        2   -1    0    0  501    0  0.00000000000E+00  0.00000000000E+00 -0.16490656707E+04  0.16490656707E+04  0.25500000920E-02 0.  1.
    10030    2    1    2    0    0  0.00000000000E+00  0.00000000000E+00 -0.83451094765E+03  0.24636203937E+04  0.23179769030E+04 0.  0.
        1    1    3    3  502    0  0.10702446668E+04 -0.98221323868E+02  0.43801992613E+02  0.10756345522E+04  0.50400001928E-02 0. -1.
       -1    1    3    3    0  502 -0.10702446668E+04  0.98221323868E+02 -0.87831294027E+03  0.13879858415E+04  0.50400001928E-02 0.  1.
</event>
<event>
 5   0  0.4505107E-05  0.2265464E+04  0.7818609E-02  0.8491664E-01
        2   -1    0    0  501    0  0.00000000000E+00  0.00000000000E+00  0.12518426487E+04  0.12518426487E+04  0.25500000920E-02 0.  1.
       -2   -1    0    0    0  501  0.00000000000E+00  0.00000000000E+00 -0.10249548232E+04  0.10249548232E+04  0.25500000920E-02 0. -1.
    10030    2    1    2    0    0  0.00000000000E+00  0.00000000000E+00  0.22688782548E+03  0.22767974718E+04  0.22654643326E+04 0.  0.
        4    1    3    3  502    0  0.97954446188E+03 -0.50022276544E+03 -0.15874369899E+03  0.11112746478E+04  0.12699999809E+01 0.  1.
       -4    1    3    3    0  502 -0.97954446188E+03  0.50022276544E+03  0.38563152448E+03  0.11655228241E+04  0.12699999809E+01 0. -1.
</event>
<event>
 5   0  0.2042951E-05  0.2296444E+04  0.7818609E-02  0.8479325E-01
       -1   -1    0    0    0  501  0.00000000000E+00  0.00000000000E+00  0.12231146046E+04  0.12231146046E+04  0.50400001928E-02 0.  1.
        1   -1    0    0  501    0  0.00000000000E+00  0.00000000000E+00 -0.10779149926E+04  0.10779149926E+04  0.50400001928E-02 0. -1.
    10030    2    1    2    0    0  0.00000000000E+00  0.00000000000E+00  0.14519961202E+03  0.23010295972E+04  0.22964438334E+04 0.  0.
        2    1    3    3  502    0 -0.23727555096E+03 -0.77491772572E+03 -0.74242252512E+03  0.10990852444E+04  0.25500000920E-02 0. -1.
       -2    1    3    3    0  502  0.23727555096E+03  0.77491772572E+03  0.88762213715E+03  0.12019443527E+04  0.25500000920E-02 0.  1.
</event>
<event>
 5   0  0.2042951E-05  0.2338309E+04  0.7818609E-02  0.8462968E-01
        1   -1    0    0  501    0  0.00000000000E+00  0.00000000000E+00  0.15072800062E+04  0.15072800062E+04  0.50400001928E-02 0. -1.
       -1   -1    0    0    0  501  0.00000000000E+00  0.00000000000E+00 -0.90687994038E+03  0.90687994040E+03  0.50400001928E-02 0.  1.
    10030    2    1    2    0    0  0.00000000000E+00  0.00000000000E+00  0.60040006582E+03  0.24141599466E+04  0.23383087924E+04 0.  0.
        2    1    3    3  502    0  0.20545354664E+03  0.10678076217E+04  0.74366537634E+03  0.13173695263E+04  0.25500000920E-02 0. -1.
       -2    1    3    3    0  502 -0.20545354664E+03 -0.10678076217E+04 -0.14326531052E+03  0.10967904203E+04  0.25500000920E-02 0.  1.
</event>
<event>
 5   0  0.4436695E-05  0.2044466E+04  0.7818609E-02  0.8586109E-01
       -2   -1    0    0    0  501  0.00000000000E+00  0.00000000000E+00  0.15578253950E+04  0.15578253950E+04  0.25500000920E-02 0. -1.
        2   -1    0    0  501    0  0.00000000000E+00  0.00000000000E+00 -0.67078152674E+03  0.67078152674E+03  0.25500000920E-02 0.  1.
    10030    2    1    2    0    0  0.00000000000E+00  0.00000000000E+00  0.88704386825E+03  0.22286069217E+04  0.20444661864E+04 0.  0.
        5    1    3    3  502    0  0.46573807825E+03 -0.64353660825E+03  0.11448068205E+04  0.13934331954E+04  0.46999998093E+01 0. -1.
       -5    1    3    3    0  502 -0.46573807825E+03  0.64353660825E+03 -0.25776295223E+03  0.83517372638E+03  0.46999998093E+01 0.  1.
</event>
<event>
 5   0  0.4602447E-05  0.2365555E+04  0.7818609E-02  0.8452513E-01
       -2   -1    0    0    0  501  0.00000000000E+00  0.00000000000E+00  0.79990717036E+03  0.79990717037E+03  0.25500000920E-02 0. -1.
        2   -1    0    0  501    0  0.00000000000E+00  0.00000000000E+00 -0.17489067266E+04  0.17489067266E+04  0.25500000920E-02 0.  1.
    10030    2    1    2    0    0  0.00000000000E+00  0.00000000000E+00 -0.94899955622E+03  0.25488138969E+04  0.23655553520E+04 0.  0.
        3    1    3    3  502    0  0.25376227003E+03  0.38157886992E+03  0.70036964514E+03  0.83696796456E+03  0.10100000352E+00 0. -1.
       -3    1    3    3    0  502 -0.25376227003E+03 -0.38157886992E+03 -0.16493692014E+04  0.17118459324E+04  0.10100000352E+00 0.  1.
</event>
<event>
 5   0  0.2042951E-05  0.2310430E+04  0.7818609E-02  0.8473820E-01
       -1   -1    0    0    0  501  0.00000000000E+00  0.00000000000E+00  0.73560611751E+03  0.73560611753E+03  0.50400001928E-02 0.  1.
        1   -1    0    0  501    0  0.00000000000E+00  0.00000000000E+00 -0.18141790028E+04  0.18141790028E+04  0.50400001928E-02 0. -1.
    10030    2    1    2    0    0  0.00000000000E+00  0.00000000000E+00 -0.10785728853E+04  0.25497851204E+04  0.23104295469E+04 0.  0.
        2    1    3    3  502    0 -0.91764748625E+03 -0.55725912118E+03 -0.68596407681E+02  0.10757881317E+04  0.25500000920E-02 0.  1.
       -2    1    3    3    0  502  0.91764748625E+03  0.55725912118E+03 -0.10099764776E+04  0.14739969886E+04  0.25500000920E-02 0. -1.
</event>
<event>
 5   0  0.4505107E-05  0.2312618E+04  0.7818609E-02  0.8472963E-01
        2   -1    0    0  501    0  0.00000000000E+00  0.00000000000E+00  0.10861713208E+04  0.10861713208E+04  0.25500000920E-02 0.  1.
       -2   -1    0    0    0  501  0.00000000000E+00  0.00000000000E+00 -0.12309753451E+04  0.12309753451E+04  0.25500000920E-02 0. -1.
    10030    2    1    2    0    0  0.00000000000E+00  0.00000000000E+00 -0.14480402431E+03  0.23171466660E+04  0.23126176654E+04 0.  0.
        4    1    3    3  502    0  0.83603288249E+03 -0.31662358959E+03  0.66241477706E+03  0.11126528784E+04  0.12699999809E+01 0.  1.
       -4    1    3    3    0  502 -0.83603288249E+03  0.31662358959E+03 -0.80721880137E+03  0.12044937876E+04  0.12699999809E+01 0. -1.
</event>
<event>
 5   0  0.2031860E-05  0.2353916E+04  0.7818609E-02  0.8456961E-01
       -1   -1    0    0    0  501  0.00000000000E+00  0.00000000000E+00  0.58610769003E+03  0.58610769005E+03  0.50400001928E-02 0. -1.
        1   -1    0    0  501    0  0.00000000000E+00  0.00000000000E+00 -0.23634390533E+04  0.23634390534E+04  0.50400001928E-02 0.  1.
    10030    2    1    2    0    0  0.00000000000E+00  0.00000000000E+00 -0.17773313633E+04  0.29495467434E+04  0.23539157199E+04 0.  0.
        4    1    3    3  502    0  0.78763148608E+03  0.20102482008E+03 -0.19551874837E+04  0.21174357240E+04  0.12699999809E+01 0.  1.
       -4    1    3    3    0  502 -0.78763148608E+03 -0.20102482008E+03  0.17785612035E+03  0.83211101939E+03  0.12699999809E+01 0. -1.
</event>
<event>
 5   0  0.1968318E-05  0.2288285E+04  0.7818609E-02  0.8482555E-01
        1   -1    0    0  501    0  0.00000000000E+00  0.00000000000E+00  0.12436255642E+04  0.12436255642E+04  0.50400001928E-02 0.  1.
       -1   -1    0    0    0  501  0.00000000000E+00  0.00000000000E+00 -0.10526175541E+04  0.10526175541E+04  0.50400001928E-02 0. -1.
    10030    2    1    2    0    0  0.00000000000E+00  0.00000000000E+00  0.19100801012E+03  0.22962431183E+04  0.22882850343E+04 0.  0.
        3    1    3    3  502    0 -0.10351962629E+04  0.47693186715E+03  0.19568496781E+03  0.11564548955E+04  0.10100000352E+00 0.  1.
       -3    1    3    3    0  502  0.10351962629E+04 -0.47693186715E+03 -0.46769576887E+01  0.11397882227E+04  0.10100000352E+00 0. -1.
</event>
<event>
 5   0  0.4605516E-05  0.2268779E+04  0.7818609E-02  0.8490334E-01
        2   -1    0    0  501    0  0.00000000000E+00  0.00000000000E+00  0.18989003748E+04  0.18989003748E+04  0.25500000920E-02 0.  1.
       -2   -1    0    0    0  501  0.00000000000E+00  0.00000000000E+00 -0.67767600476E+03  0.67767600476E+03  0.25500000920E-02 0. -1.
    10030    2    1    2    0    0  0.00000000000E+00  0.00000000000E+00  0.12212243701E+04  0.25765763796E+04  0.22687787195E+04 0.  0.
        1    1    3    3  502    0  0.14235468065E+03  0.10103752515E+04  0.11735595492E+04  0.15551093272E+04  0.50400001928E-02 0.  1.
       -1    1    3    3    0  502 -0.14235468065E+03 -0.10103752515E+04  0.47664820919E+02  0.10214670524E+04  0.50400001928E-02 0. -1.
</event>
<event>
 5   0  0.2042951E-05  0.2280789E+04  0.7818609E-02  0.8485535E-01
       -1   -1    0    0    0  501  0.00000000000E+00  0.00000000000E+00  0.10701879986E+04  0.10701879986E+04  0.50400001928E-02 0. -1.
        1   -1    0    0  501    0  0.00000000000E+00  0.00000000000E+00 -0.12152063191E+04  0.12152063191E+04  0.50400001928E-02 0.  1.
    10030    2    1    2    0    0  0.00000000000E+00  0.00000000000E+00 -0.14501832048E+03  0.22853943177E+04  0.22807886518E+04 0.  0.
        2    1    3    3  502    0 -0.81146086859E+03 -0.32420706518E+03  0.66171892719E+03  0.10961071576E+04  0.25500000920E-02 0. -1.
       -2    1    3    3    0  502  0.81146086859E+03  0.32420706518E+03 -0.80673724767E+03  0.11892871601E+04  0.25500000920E-02 0.  1.
</event>
<event>
 5   0  0.4605516E-05  0.2282883E+04  0.7818609E-02  0.8484701E-01
        2   -1    0    0  501    0  0.00000000000E+00  0.00000000000E+00  0.10935379793E+04  0.10935379793E+04  0.25500000920E-02 0.  1.
       -2   -1    0    0    0  501  0.00000000000E+00  0.00000000000E+00 -0.11914430333E+04  0.11914430333E+04  0.25500000920E-02 0. -1.
    10030    2    1    2    0    0  0.00000000000E+00  0.00000000000E+00 -0.97905054056E+02  0.22849810126E+04  0.22828825700E+04 0.  0.
        1    1    3    3  502    0  0.24777702311E+03  0.27232850324E+03 -0.11303770352E+04  0.11888265259E+04  0.50400001928E-02 0. -1.
       -1    1    3    3    0  502 -0.24777702311E+03 -0.27232850324E+03  0.10324719812E+04  0.10961544867E+04  0.50400001928E-02 0.  1.
</event>
<event>
 5   0  0.4602447E-05  0.2301654E+04  0.7818609E-02  0.8477269E-01
        2   -1    0    0  501    0  0.00000000000E+00  0.00000000000E+00  0.17315803934E+04  0.17315803934E+04  0.25500000920E-02 0.  1.
       -2   -1    0    0    0  501  0.00000000000E+00  0.00000000000E+00 -0.76485221044E+03  0.76485221045E+03  0.25500000920E-02 0. -1.
    10030    2    1    2    0    0  0.00000000000E+00  0.00000000000E+00  0.96672818300E+03  0.24964326039E+04  0.23016542673E+04 0.  0.
        3    1    3    3  502    0 -0.48878034117E+03  0.72332536433E+03 -0.32995833450E+03  0.93326219108E+03  0.10100000352E+00 0. -1.
       -3    1    3    3    0  502  0.48878034117E+03 -0.72332536433E+03  0.12966865175E+04  0.15631704128E+04  0.10100000352E+00 0.  1.
</event>
<event>
 5   0  0.2085063E-05  0.2308269E+04  0.7818609E-02  0.8474668E-01
        1   -1    0    0  501    0  0.00000000000E+00  0.00000000000E+00  0.15213902573E+04  0.15213902573E+04  0.50400001928E-02 0.  1.
       -1   -1    0    0    0  501  0.00000000000E+00  0.00000000000E+00 -0.87553251385E+03  0.87553251387E+03  0.50400001928E-02 0. -1.
    10030    2    1    2    0    0  0.00000000000E+00  0.00000000000E+00  0.64585774347E+03  0.23969227712E+04  0.23082691668E+04 0.  0.
        1    1    3    3  502    0 -0.84302249526E+03  0.76315407760E+03  0.11802940901E+03  0.11432506353E+04  0.50400001928E-02 0. -1.
       -1    1    3    3    0  502  0.84302249526E+03 -0.76315407760E+03  0.52782833447E+03  0.12536721359E+04  0.50400001928E-02 0.  1.
</event>
<event>
 5   0  0.2085063E-05  0.2254909E+04  0.7818609E-02  0.8495915E-01
       -1   -1    0    0    0  501  0.00000000000E+00  0.00000000000E+00  0.55374393696E+03  0.55374393699E+03  0.50400001928E-02 0. -1.
        1   -1    0    0  501    0  0.00000000000E+00  0.00000000000E+00 -0.22955612756E+04  0.22955612756E+04  0.50400001928E-02 0.  1.
    10030    2    1    2    0    0  0.00000000000E+00  0.00000000000E+00 -0.17418173386E+04  0.28493052126E+04  0.22549085465E+04 0.  0.
        1    1    3    3  502    0  0.96532890433E+03  0.50888381749E+03 -0.12290465742E+04  0.16435869660E+04  0.50400001928E-02 0.  1.
       -1    1    3    3    0  502 -0.96532890433E+03 -0.50888381749E+03 -0.51277076441E+03  0.12057182466E+04  0.50400001928E-02 0. -1.
</event>
<event>
 5   0  0.4605516E-05  0.2308969E+04  0.7818609E-02  0.8474393E-01
       -2   -1    0    0    0  501  0.00000000000E+00  0.00000000000E+00  0.72246642277E+03  0.72246642277E+03  0.25500000920E-02 0.  1.
        2   -1    0    0  501    0  0.00000000000E+00  0.00000000000E+00 -0.18448389401E+04  0.18448389401E+04  0.25500000920E-02 0. -1.
    10030    2    1    2    0    0  0.00000000000E+00  0.00000000000E+00 -0.11223725173E+04  0.25673053629E+04  0.23089687652E+04 0.  0.
        1    1    3    3  502    0 -0.10074077176E+04  0.11189531267E+03 -0.11756903592E+04  0.15523010955E+04  0.50400001928E-02 0. -1.
       -1    1    3    3    0  502  0.10074077176E+04 -0.11189531267E+03  0.53317841886E+02  0.10150042673E+04  0.50400001928E-02 0.  1.
</event>
<event>
 5   0  0.2042951E-05  0.2355453E+04  0.7818609E-02  0.8456372E-01
        1   -1    0    0  501    0  0.00000000000E+00  0.00000000000E+00  0.13288037468E+04  0.13288037468E+04  0.50400001928E-02 0. -1.
       -1   -1    0    0    0  501  0.00000000000E+00  0.00000000000E+00 -0.10438256949E+04  0.10438256949E+04  0.50400001928E-02 0.  1.
    10030    2    1    2    0    0  0.00000000000E+00  0.00000000000E+00  0.28497805192E+03  0.23726294417E+04  0.23554528180E+04 0.  0.
        2    1    3    3  502    0  0.10302266760E+04 -0.56880571584E+03  0.95972752322E+02  0.11807276213E+04  0.25500000920E-02 0.  1.
       -2    1    3    3    0  502 -0.10302266760E+04  0.56880571584E+03  0.18900529960E+03  0.11919018205E+04  0.25500000920E-02 0. -1.
</event>
<event>
 5   0  0.2085063E-05  0.2303649E+04  0.7818609E-02  0.8476484E-01
        1   -1    0    0  501    0  0.00000000000E+00  0.00000000000E+00  0.16406134136E+04  0.16406134136E+04  0.50400001928E-02 0. -1.
       -1   -1    0    0    0  501  0.00000000000E+00  0.00000000000E+00 -0.80866085219E+03  0.80866085221E+03  0.50400001928E-02 0.  1.
    10030    2    1    2    0    0  0.00000000000E+00  0.00000000000E+00  0.83195256142E+03  0.24492742658E+04  0.23036491410E+04 0.  0.
        1    1    3    3  502    0  0.98170226968E+03 -0.56836275008E+03  0.62841791182E+03  0.12967978385E+04  0.50400001928E-02 0. -1.
       -1    1    3    3    0  502 -0.98170226968E+03  0.56836275008E+03  0.20353464960E+03  0.11524764273E+04  0.50400001928E-02 0.  1.
</event>
<event>
 5   0  0.4602447E-05  0.2133602E+04  0.7818609E-02  0.8546584E-01
       -2   -1    0    0    0  501  0.00000000000E+00  0.00000000000E+00  0.78915775036E+03  0.78915775037E+03  0.25500000920E-02 0.  1.
        2   -1    0    0  501    0  0.00000000000E+00  0.00000000000E+00 -0.14421253996E+04  0.14421253996E+04  0.25500000920E-02 0. -1.
    10030    2    1    2    0    0  0.00000000000E+00  0.00000000000E+00 -0.65296764922E+03  0.22312831500E+04  0.21336020586E+04 0.  0.
        3    1    3    3  502    0  0.69166398557E+03 -0.20489263960E+03  0.49542674927E+03  0.87511584192E+03  0.10100000352E+00 0.  1.
       -3    1    3    3    0  502 -0.69166398557E+03  0.20489263960E+03 -0.11483943985E+04  0.13561673080E+04  0.10100000352E+00 0. -1.
</event>
<event>
 5   0  0.2031860E-05  0.2303220E+04  0.7818609E-02  0.8476652E-01
       -1   -1    0    0    0  501  0.00000000000E+00  0.00000000000E+00  0.83168142297E+03  0.83168142299E+03  0.50400001928E-02 0.  1.
        1   -1    0    0  501    0  0.00000000000E+00  0.00000000000E+00 -0.15946081446E+04  0.15946081446E+04  0.50400001928E-02 0. -1.
    10030    2    1    2    0    0  0.00000000000E+00  0.00000000000E+00 -0.76292672167E+03  0.24262895676E+04  0.23032203289E+04 0.  0.
        4    1    3    3  502    0  0.84300793581E+03 -0.73155361114E+03 -0.68010999264E+03  0.13070517514E+04  0.12699999809E+01 0.  1.
       -4    1    3    3    0  502 -0.84300793581E+03  0.73155361114E+03 -0.82816729023E+02  0.11192378162E+04  0.12699999809E+01 0. -1.
</event>
<event>
 5   0  0.2085063E-05  0.2397737E+04  0.7818609E-02  0.8440351E-01
       -1   -1    0    0    0  501  0.00000000000E+00  0.00000000000E+00  0.71976589393E+03  0.71976589395E+03  0.50400001928E-02 0.  1.
        1   -1    0    0  501    0  0.00000000000E+00  0.00000000000E+00 -0.19968785685E+04  0.19968785685E+04  0.50400001928E-02 0. -1.
    10030    2    1    2    0    0  0.00000000000E+00  0.00000000000E+00 -0.12771126746E+04  0.27166444625E+04  0.23977365059E+04 0.  0.
        1    1    3    3  502    0 -0.10389808964E+04  0.11235421020E+03 -0.13042192485E+04  0.16712548040E+04  0.50400001928E-02 0. -1.
       -1    1    3    3    0  502  0.10389808964E+04 -0.11235421020E+03  0.27106573906E+02  0.10453896585E+04  0.50400001928E-02 0.  1.
</event>
<event>
 5   0  0.2031860E-05  0.2287338E+04  0.7818609E-02  0.8482930E-01
       -1   -1    0    0    0  501  0.00000000000E+00  0.00000000000E+00  0.80622010074E+03  0.80622010075E+03  0.50400001928E-02 0. -1.
        1   -1    0    0  501    0  0.00000000000E+00  0.00000000000E+00 -0.16223590232E+04  0.16223590232E+04  0.50400001928E-02 0.  1.
    10030    2    1    2    0    0  0.00000000000E+00  0.00000000000E+00 -0.81613892244E+03  0.24285791239E+04  0.22873377146E+04 0.  0.
        4    1    3    3  502    0  0.18181144462E+03 -0.33427096622E+03  0.73703799902E+03  0.82946917071E+03  0.12699999809E+01 0. -1.
       -4    1    3    3    0  502 -0.18181144462E+03  0.33427096622E+03 -0.15531769215E+04  0.15991099532E+04  0.12699999809E+01 0.  1.
</event>
<event>
 5   0  0.4798609E-05  0.2304223E+04  0.7818609E-02  0.8476258E-01
        2   -1    0    0  501    0  0.00000000000E+00  0.00000000000E+00  0.27376614323E+04  0.27376614323E+04  0.25500000920E-02 0. -1.
       -2   -1    0    0    0  501  0.00000000000E+00  0.00000000000E+00 -0.48485192774E+03  0.48485192775E+03  0.25500000920E-02 0.  1.
    10030    2    1    2    0    0  0.00000000000E+00  0.00000000000E+00  0.22528095046E+04  0.32225133601E+04  0.23042225786E+04 0.  0.
        2    1    3    3  502    0 -0.49964325347E+03  0.20915318008E+03  0.25484869036E+04  0.26054124301E+04  0.25500000920E-02 0. -1.
       -2    1    3    3    0  502  0.49964325347E+03 -0.20915318008E+03 -0.29567739897E+03  0.61710092995E+03  0.25500000920E-02 0.  1.
</event>
<event>
 5   0  0.4505107E-05  0.2300957E+04  0.7818609E-02  0.8477544E-01
        2   -1    0    0  501    0  0.00000000000E+00  0.00000000000E+00  0.11026070051E+04  0.11026070051E+04  0.25500000920E-02 0. -1.
       -2   -1    0    0    0  501  0.00000000000E+00  0.00000000000E+00 -0.12004280021E+04  0.12004280021E+04  0.25500000920E-02 0.  1.
    10030    2    1    2    0    0  0.00000000000E+00  0.00000000000E+00 -0.97820997016E+02  0.23030350072E+04  0.23009566048E+04 0.  0.
        4    1    3    3  502    0  0.13401620898E+03  0.90670540583E+03 -0.74489726620E+03  0.11810794162E+04  0.12699999809E+01 0.  1.
       -4    1    3    3    0  502 -0.13401620898E+03 -0.90670540583E+03  0.64707626918E+03  0.11219555910E+04  0.12699999809E+01 0. -1.
</event>
<event>
 5   0  0.4602447E-05  0.2310590E+04  0.7818609E-02  0.8473757E-01
        2   -1    0    0  501    0  0.00000000000E+00  0.00000000000E+00  0.10948219548E+04  0.10948219548E+04  0.25500000920E-02 0.  1.
       -2   -1    0    0    0  501  0.00000000000E+00  0.00000000000E+00 -0.12191079921E+04  0.12191079921E+04  0.25500000920E-02 0. -1.
    10030    2    1    2    0    0  0.00000000000E+00  0.00000000000E+00 -0.12428603727E+03  0.23139299469E+04  0.23105897040E+04 0.  0.
        3    1    3    3  502    0  0.45843984566E+03  0.65488441834E+03  0.77312836601E+03  0.11121007931E+04  0.10100000352E+00 0.  1.
       -3    1    3    3    0  502 -0.45843984566E+03 -0.65488441834E+03 -0.89741440328E+03  0.12018291538E+04  0.10100000352E+00 0. -1.
</event>
<event>
 5   0  0.1968318E-05  0.2316868E+04  0.7818609E-02  0.8471300E-01
       -1   -1    0    0    0  501  0.00000000000E+00  0.00000000000E+00  0.13890764483E+04  0.13890764483E+04  0.50400001928E-02 0.  1.
        1   -1    0    0  501    0  0.00000000000E+00  0.00000000000E+00 -0.96608748596E+03  0.96608748597E+03  0.50400001928E-02 0. -1.
    10030    2    1    2    0    0  0.00000000000E+00  0.00000000000E+00  0.42298896230E+03  0.23551639342E+04  0.23168680357E+04 0.  0.
        3    1    3    3  502    0  0.10729068697E+03 -0.39417177730E+03 -0.89043752185E+03  0.97967426834E+03  0.10100000352E+00 0. -1.
       -3    1    3    3    0  502 -0.10729068697E+03  0.39417177730E+03  0.13134264841E+04  0.13754896659E+04  0.10100000352E+00 0.  1.
</event>
<event>
 5   0  0.4436695E-05  0.2336504E+04  0.7818609E-02  0.8463666E-01
       -2   -1    0    0    0  501  0.00000000000E+00  0.00000000000E+00  0.80162712558E+03  0.80162712558E+03  0.25500000920E-02 0. -1.
        2   -1    0    0  501    0  0.00000000000E+00  0.00000000000E+00 -0.17025530958E+04  0.17025530958E+04  0.25500000920E-02 0.  1.
    10030    2    1    2    0    0  0.00000000000E+00  0.00000000000E+00 -0.90092597018E+03  0.25041802213E+04  0.23365040075E+04 0.  0.
        5    1    3    3  502    0 -0.16297439908E+03 -0.58385576332E+03 -0.15208016209E+04  0.16371645816E+04  0.46999998093E+01 0.  1.
       -5    1    3    3    0  502  0.16297439908E+03  0.58385576332E+03  0.61987565075E+03  0.86701563971E+03  0.46999998093E+01 0. -1.
</event>
<event>
 5   0  0.4798609E-05  0.2296734E+04  0.7818609E-02  0.8479210E-01
        2   -1    0    0  501    0  0.00000000000E+00  0.00000000000E+00  0.17357171865E+04  0.17357171865E+04  0.25500000920E-02 0. -1.
       -2   -1    0    0    0  501  0.00000000000E+00  0.00000000000E+00 -0.75977029341E+03  0.75977029341E+03  0.25500000920E-02 0.  1.
    10030    2    1    2    0    0  0.00000000000E+00  0.00000000000E+00  0.97594689313E+03  0.24954874800E+04  0.22967336425E+04 0.  0.
        2    1    3    3  502    0 -0.10529948056E+03  0.11412058249E+04  0.40881531675E+03  0.12167862090E+04  0.25500000920E-02 0. -1.
       -2    1    3    3    0  502  0.10529948056E+03 -0.11412058249E+04  0.56713157638E+03  0.12787012709E+04  0.25500000920E-02 0.  1.
</event>
<event>
 5   0  0.1968318E-05  0.2361866E+04  0.7818609E-02  0.8453920E-01
        1   -1    0    0  501    0  0.00000000000E+00  0.00000000000E+00  0.93648331188E+03  0.93648331190E+03  0.50400001928E-02 0.  1.
       -1   -1    0    0    0  501  0.00000000000E+00  0.00000000000E+00 -0.14891918670E+04  0.14891918670E+04  0.50400001928E-02 0. -1.
    10030    2    1    2    0    0  0.00000000000E+00  0.00000000000E+00 -0.55270855507E+03  0.24256751789E+04  0.23618664921E+04 0.  0.
        3    1    3    3  502    0 -0.23553057904E+03 -0.11563499522E+04 -0.23061507880E+03  0.12024155648E+04  0.10100000352E+00 0.  1.
       -3    1    3    3    0  502  0.23553057904E+03  0.11563499522E+04 -0.32209347627E+03  0.12232596141E+04  0.10100000352E+00 0. -1.
</event>
<event>
 5   0  0.4436695E-05  0.2286929E+04  0.7818609E-02  0.8483093E-01
       -2   -1    0    0    0  501  0.00000000000E+00  0.00000000000E+00  0.63046663425E+03  0.63046663425E+03  0.25500000920E-02 0.  1.
        2   -1    0    0  501    0  0.00000000000E+00  0.00000000000E+00 -0.20738779170E+04  0.20738779170E+04  0.25500000920E-02 0. -1.
    10030    2    1    2    0    0  0.00000000000E+00  0.00000000000E+00 -0.14434112828E+04  0.27043445513E+04  0.22869287966E+04 0.  0.
        5    1    3    3  502    0 -0.14718485470E+03 -0.65251658647E+03 -0.18183620712E+04  0.19374994165E+04  0.46999998093E+01 0. -1.
       -5    1    3    3    0  502  0.14718485470E+03  0.65251658647E+03  0.37495078837E+03  0.76684513480E+03  0.46999998093E+01 0.  1.
</event>
<event>
 5   0  0.1604500E-05  0.2312533E+04  0.7818609E-02  0.8472996E-01
       -3   -1    0    0    0  501  0.00000000000E+00  0.00000000000E+00  0.14482952998E+04  0.14482953033E+04  0.10100000352E+00 0. -1.
        3   -1    0    0  501    0  0.00000000000E+00  0.00000000000E+00 -0.92312139829E+03  0.92312140382E+03  0.10100000352E+00 0.  1.
    10030    2    1    2    0    0  0.00000000000E+00  0.00000000000E+00  0.52517390148E+03  0.23714167071E+04  0.23125331505E+04 0.  0.
        2    1    3    3  502    0 -0.66611266007E+03  0.87880074374E+03 -0.94055342838E+02  0.11067263576E+04  0.25500000920E-02 0. -1.
       -2    1    3    3    0  502  0.66611266007E+03 -0.87880074374E+03  0.61922924431E+03  0.12646903495E+04  0.25500000920E-02 0.  1.
</event>
<event>
 5   0  0.4436695E-05  0.2289775E+04  0.7818609E-02  0.8481964E-01
       -2   -1    0    0    0  501  0.00000000000E+00  0.00000000000E+00  0.65492532486E+03  0.65492532486E+03  0.25500000920E-02 0. -1.
        2   -1    0    0  501    0  0.00000000000E+00  0.00000000000E+00 -0.20013991366E+04  0.20013991366E+04  0.25500000920E-02 0.  1.
    10030    2    1    2    0    0  0.00000000000E+00  0.00000000000E+00 -0.13464738118E+04  0.26563244615E+04  0.22897746437E+04 0.  0.
        5    1    3    3  502    0 -0.28039801134E+03  0.72445603628E+03  0.30239432644E+03  0.83362102416E+03  0.46999998093E+01 0. -1.
       -5    1    3    3    0  502  0.28039801134E+03 -0.72445603628E+03 -0.16488681382E+04  0.18227034373E+04  0.46999998093E+01 0.  1.
</event>
<event>
 5   0  0.4605516E-05  0.2288666E+04  0.7818609E-02  0.8482403E-01
        2   -1    0    0  501    0  0.00000000000E+00  0.00000000000E+00  0.12173130562E+04  0.12173130562E+04  0.25500000920E-02 0.  1.
       -2   -1    0    0    0  501  0.00000000000E+00  0.00000000000E+00 -0.10757281367E+04  0.10757281367E+04  0.25500000920E-02 0. -1.
    10030    2    1    2    0    0  0.00000000000E+00  0.00000000000E+00  0.14158491945E+03  0.22930411929E+04  0.22886659046E+04 0.  0.
        1    1    3    3  502    0  0.56162102221E+03 -0.84582803474E+03 -0.45809420728E+03  0.11138642376E+04  0.50400001928E-02 0.  1.
       -1    1    3    3    0  502 -0.56162102221E+03  0.84582803474E+03  0.59967912673E+03  0.11791769553E+04  0.50400001928E-02 0. -1.
</event>
<event>
 5   0  0.4505107E-05  0.2333912E+04  0.7818609E-02  0.8464669E-01
       -2   -1    0    0    0  501  0.00000000000E+00  0.00000000000E+00  0.95311293206E+03  0.95311293206E+03  0.25500000920E-02 0.  1.
        2   -1    0    0  501    0  0.00000000000E+00  0.00000000000E+00 -0.14287780638E+04  0.14287780638E+04  0.25500000920E-02 0. -1.
    10030    2    1    2    0    0  0.00000000000E+00  0.00000000000E+00 -0.47566513171E+03  0.23818909958E+04  0.23339124659E+04 0.  0.
        4    1    3    3  502    0 -0.53193265836E+03  0.79066846936E+03  0.44956872565E+03  0.10536710272E+04  0.12699999809E+01 0.  1.
       -4    1    3    3    0  502  0.53193265836E+03 -0.79066846936E+03 -0.92523385736E+03  0.13282199687E+04  0.12699999809E+01 0. -1.
</event>
<event>
 5   0  0.1968318E-05  0.2311372E+04  0.7818609E-02  0.8473451E-01
        1   -1    0    0  501    0  0.00000000000E+00  0.00000000000E+00  0.11986359869E+04  0.11986359869E+04  0.50400001928E-02 0.  1.
       -1   -1    0    0    0  501  0.00000000000E+00  0.00000000000E+00 -0.11142750203E+04  0.11142750203E+04  0.50400001928E-02 0. -1.
    10030    2    1    2    0    0  0.00000000000E+00  0.00000000000E+00  0.84360966609E+02  0.23129110072E+04  0.23113720069E+04 0.  0.
        3    1    3    3  502    0 -0.11371015597E+04 -0.18216795087E+03  0.13932761004E+03  0.11599988416E+04  0.10100000352E+00 0.  1.
       -3    1    3    3    0  502  0.11371015597E+04  0.18216795087E+03 -0.54966643432E+02  0.11529121656E+04  0.10100000352E+00 0. -1.
</event>
<event>
 5   0  0.2031860E-05  0.2285741E+04  0.7818609E-02  0.8483564E-01
       -1   -1    0    0    0  501  0.00000000000E+00  0.00000000000E+00  0.98613840050E+03  0.98613840051E+03  0.50400001928E-02 0.  1.
        1   -1    0    0  501    0  0.00000000000E+00  0.00000000000E+00 -0.13245131626E+04  0.13245131626E+04  0.50400001928E-02 0. -1.
    10030    2    1    2    0    0  0.00000000000E+00  0.00000000000E+00 -0.33837476210E+03  0.23106515631E+04  0.22857412729E+04 0.  0.
        4    1    3    3  502    0  0.12604619273E+02  0.10358969507E+04 -0.65705472266E+03  0.12267696973E+04  0.12699999809E+01 0. -1.
       -4    1    3    3    0  502 -0.12604619273E+02 -0.10358969507E+04  0.31867996056E+03  0.10838818658E+04  0.12699999809E+01 0.  1.
</event>
<event>
 5   0  0.4605516E-05  0.2326260E+04  0.7818609E-02  0.8467639E-01
        2   -1    0    0  501    0  0.00000000000E+00  0.00000000000E+00  0.16961688924E+04  0.16961688924E+04  0.25500000920E-02 0. -1.
       -2   -1    0    0    0  501  0.00000000000E+00  0.00000000000E+00 -0.79760399934E+03  0.79760399935E+03  0.25500000920E-02 0.  1.
    10030    2    1    2    0    0  0.00000000000E+00  0.00000000000E+00  0.89856489304E+03  0.24937728917E+04  0.23262597380E+04 0.  0.
        1    1    3    3  502    0  0.14925863316E+03  0.15242006514E+03 -0.77645222504E+03  0.80522547999E+03  0.50400001928E-02 0.  1.
       -1    1    3    3    0  502 -0.14925863316E+03 -0.15242006514E+03  0.16750171181E+04  0.16885474117E+04  0.50400001928E-02 0. -1.
</event>
<event>
 5   0  0.2085063E-05  0.2290044E+04  0.7818609E-02  0.8481857E-01
        1   -1    0    0  501    0  0.00000000000E+00  0.00000000000E+00  0.21806332541E+04  0.21806332541E+04  0.50400001928E-02 0. -1.
       -1   -1    0    0    0  501  0.00000000000E+00  0.00000000000E+00 -0.60123586593E+03  0.60123586595E+03  0.50400001928E-02 0.  1.
    10030    2    1    2    0    0  0.00000000000E+00  0.00000000000E+00  0.15793973882E+04  0.27818691201E+04  0.22900436003E+04 0.  0.
        1    1    3    3  502    0 -0.10894154660E+04  0.30675551904E+03  0.57876983571E+03  0.12711803683E+04  0.50400001928E-02 0. -1.
       -1    1    3    3    0  502  0.10894154660E+04 -0.30675551904E+03  0.10006275525E+04  0.15106887518E+04  0.50400001928E-02 0.  1.
</event>
<event>
 5   0  0.4505107E-05  0.2297424E+04  0.7818609E-02  0.8478938E-01
       -2   -1    0    0    0  501  0.00000000000E+00  0.00000000000E+00  0.13156938721E+04  0.13156938721E+04  0.25500000920E-02 0.  1.
        2   -1    0    0  501    0  0.00000000000E+00  0.00000000000E+00 -0.10029225794E+04  0.10029225794E+04  0.25500000920E-02 0. -1.
    10030    2    1    2    0    0  0.00000000000E+00  0.00000000000E+00  0.31277129265E+03  0.23186164515E+04  0.22974238546E+04 0.  0.
        4    1    3    3  502    0  0.34324106003E+03  0.77827419225E+03  0.93552548488E+03  0.12644108072E+04  0.12699999809E+01 0.  1.
       -4    1    3    3    0  502 -0.34324106003E+03 -0.77827419225E+03 -0.62275419224E+03  0.10542056443E+04  0.12699999809E+01 0. -1.
</event>
<event>
 5   0  0.4436695E-05  0.2304402E+04  0.7818609E-02  0.8476188E-01
        2   -1    0    0  501    0  0.00000000000E+00  0.00000000000E+00  0.19543347742E+04  0.19543347742E+04  0.25500000920E-02 0.  1.
       -2   -1    0    0    0  501  0.00000000000E+00  0.00000000000E+00 -0.67929344314E+03  0.67929344314E+03  0.25500000920E-02 0. -1.
    10030    2    1    2    0    0  0.00000000000E+00  0.00000000000E+00  0.12750413311E+04  0.26336282173E+04  0.23044016992E+04 0.  0.
        5    1    3    3  502    0 -0.10996595682E+04 -0.31990305005E+03  0.78188256398E+03  0.13867052899E+04  0.46999998093E+01 0.  1.
       -5    1    3    3    0  502  0.10996595682E+04  0.31990305005E+03  0.49315876708E+03  0.12469229274E+04  0.46999998093E+01 0. -1.
</event>
<event>
 5   0  0.4436695E-05  0.2317442E+04  0.7818609E-02  0.8471076E-01
       -2   -1    0    0    0  501  0.00000000000E+00  0.00000000000E+00  0.86627036442E+03  0.86627036443E+03  0.25500000920E-02 0. -1.
        2   -1    0    0  501    0  0.00000000000E+00  0.00000000000E+00 -0.15499020788E+04  0.15499020788E+04  0.25500000920E-02 0.  1.
    10030    2    1    2    0    0  0.00000000000E+00  0.00000000000E+00 -0.68363171442E+03  0.24161724433E+04  0.23174418989E+04 0.  0.
        5    1    3    3  502    0 -0.20020772158E+03 -0.10066269777E+03  0.84345302095E+03  0.87272630249E+03  0.46999998093E+01 0. -1.
       -5    1    3    3    0  502  0.20020772158E+03  0.10066269777E+03 -0.15270847354E+04  0.15434461408E+04  0.46999998093E+01 0.  1.
</event>
<event>
 5   0  0.2031860E-05  0.2293885E+04  0.7818609E-02  0.8480336E-01
       -1   -1    0    0    0  501  0.00000000000E+00  0.00000000000E+00  0.87889516296E+03  0.87889516298E+03  0.50400001928E-02 0.  1.
        1   -1    0    0  501    0  0.00000000000E+00  0.00000000000E+00 -0.14967389552E+04  0.14967389553E+04  0.50400001928E-02 0. -1.
    10030    2    1    2    0    0  0.00000000000E+00  0.00000000000E+00 -0.61784379229E+03  0.23756341182E+04  0.22938845900E+04 0.  0.
        4    1    3    3  502    0 -0.10538780215E+03  0.71536757665E+03 -0.12309408763E+04  0.14276114361E+04  0.12699999809E+01 0. -1.
       -4    1    3    3    0  502  0.10538780215E+03 -0.71536757665E+03  0.61309708401E+03  0.94802268216E+03  0.12699999809E+01 0.  1.
</event>
<event>
 5   0  0.2031860E-05  0.2283777E+04  0.7818609E-02  0.8484345E-01
       -1   -1    0    0    0  501  0.00000000000E+00  0.00000000000E+00  0.68795995231E+03  0.68795995233E+03  0.50400001928E-02 0. -1.
        1   -1    0    0  501    0  0.00000000000E+00  0.00000000000E+00 -0.18953275346E+04  0.18953275346E+04  0.50400001928E-02 0.  1.
    10030    2    1    2    0    0  0.00000000000E+00  0.00000000000E+00 -0.12073675823E+04  0.25832874869E+04  0.22837770822E+04 0.  0.
        4    1    3    3  502    0 -0.86052883164E+03  0.74993995567E+03 -0.63923889489E+03  0.13082613595E+04  0.12699999809E+01 0.  1.
       -4    1    3    3    0  502  0.86052883164E+03 -0.74993995567E+03 -0.56812868739E+03  0.12750261274E+04  0.12699999809E+01 0. -1.
</event>
<event>
 5   0  0.2085063E-05  0.2305656E+04  0.7818609E-02  0.8475694E-01
       -1   -1    0    0    0  501  0.00000000000E+00  0.00000000000E+00  0.10823461542E+04  0.10823461542E+04  0.50400001928E-02 0. -1.
        1   -1    0    0  501    0  0.00000000000E+00  0.00000000000E+00 -0.12278999116E+04  0.12278999116E+04  0.50400001928E-02 0.  1.
    10030    2    1    2    0    0  0.00000000000E+00  0.00000000000E+00 -0.14555375740E+03  0.23102460658E+04  0.23056563032E+04 0.  0.
        1    1    3    3  502    0  0.29238069535E+03 -0.34292271454E+03  0.99043402401E+03  0.10881369469E+04  0.50400001928E-02 0. -1.
       -1    1    3    3    0  502 -0.29238069535E+03  0.34292271454E+03 -0.11359877814E+04  0.12221091190E+04  0.50400001928E-02 0.  1.
</event>
<event>
 5   0  0.4436695E-05  0.2303910E+04  0.7818609E-02  0.8476381E-01
       -2   -1    0    0    0  501  0.00000000000E+00  0.00000000000E+00  0.95927624393E+03  0.95927624393E+03  0.25500000920E-02 0. -1.
        2   -1    0    0  501    0  0.00000000000E+00  0.00000000000E+00 -0.13833343389E+04  0.13833343389E+04  0.25500000920E-02 0.  1.
    10030    2    1    2    0    0  0.00000000000E+00  0.00000000000E+00 -0.42405809498E+03  0.23426105828E+04  0.23039095197E+04 0.  0.
        5    1    3    3  502    0 -0.29430653894E+03  0.59561097255E+03  0.74484697055E+03  0.99809211450E+03  0.46999998093E+01 0. -1.
       -5    1    3    3    0  502  0.29430653894E+03 -0.59561097255E+03 -0.11689050655E+04  0.13445184683E+04  0.46999998093E+01 0.  1.
</event>
<event>
 5   0  0.4505107E-05  0.2283601E+04  0.7818609E-02  0.8484415E-01
       -2   -1    0    0    0  501  0.00000000000E+00  0.00000000000E+00  0.17164369326E+04  0.17164369326E+04  0.25500000920E-02 0. -1.
        2   -1    0    0  501    0  0.00000000000E+00  0.00000000000E+00 -0.75954310735E+03  0.75954310735E+03  0.25500000920E-02 0.  1.
    10030    2    1    2    0    0  0.00000000000E+00  0.00000000000E+00  0.95689382523E+03  0.24759800399E+04  0.22836005267E+04 0.  0.
        4    1    3    3  502    0  0.91395048677E+03  0.19842199869E+03  0.11886303758E+04  0.15124551448E+04  0.12699999809E+01 0. -1.
       -4    1    3    3    0  502 -0.91395048677E+03 -0.19842199869E+03 -0.23173655055E+03  0.96352489516E+03  0.12699999809E+01 0.  1.
</event>
<event>
 5   0  0.4605516E-05  0.2276396E+04  0.7818609E-02  0.8487286E-01
       -2   -1    0    0    0  501  0.00000000000E+00  0.00000000000E+00  0.89381117037E+03  0.89381117037E+03  0.25500000920E-02 0.  1.
        2   -1    0    0  501    0  0.00000000000E+00  0.00000000000E+00 -0.14494054460E+04  0.14494054460E+04  0.25500000920E-02 0. -1.
    10030    2    1    2    0    0  0.00000000000E+00  0.00000000000E+00 -0.55559427562E+03  0.23432166164E+04  0.22763960798E+04 0.  0.
        1    1    3    3  502    0 -0.44076061160E+03 -0.10175111551E+04 -0.54203426621E+03  0.12342609178E+04  0.50400001928E-02 0. -1.
       -1    1    3    3    0  502  0.44076061160E+03  0.10175111551E+04 -0.13560009408E+02  0.11089556985E+04  0.50400001928E-02 0.  1.
</event>
<event>
 5   0  0.4605516E-05  0.2303528E+04  0.7818609E-02  0.8476531E-01
        2   -1    0    0  501    0  0.00000000000E+00  0.00000000000E+00  0.11676088408E+04  0.11676088408E+04  0.25500000920E-02 0.  1.
       -2   -1    0    0    0  501  0.00000000000E+00  0.00000000000E+00 -0.11361343146E+04  0.11361343146E+04  0.25500000920E-02 0. -1.
    10030    2    1    2    0    0  0.00000000000E+00  0.00000000000E+00  0.31474526161E+02  0.23037431555E+04  0.23035281376E+04 0.  0.
        1    1    3    3  502    0  0.67843772730E+03 -0.72754716351E+03 -0.56479762244E+03  0.11439401118E+04  0.50400001928E-02 0. -1.
       -1    1    3    3    0  502 -0.67843772730E+03  0.72754716351E+03  0.59627214860E+03  0.11598030437E+04  0.50400001928E-02 0.  1.
</event>
<event>
 5   0  0.2042951E-05  0.2338003E+04  0.7818609E-02  0.8463086E-01
       -1   -1    0    0    0  501  0.00000000000E+00  0.00000000000E+00  0.52451319145E+03  0.52451319148E+03  0.50400001928E-02 0. -1.
        1   -1    0    0  501    0  0.00000000000E+00  0.00000000000E+00 -0.26053967154E+04  0.26053967154E+04  0.50400001928E-02 0.  1.
    10030    2    1    2    0    0  0.00000000000E+00  0.00000000000E+00 -0.20808835239E+04  0.31299099069E+04  0.23380033757E+04 0.  0.
        2    1    3    3  502    0  0.29495501210E+03  0.28746948278E+03 -0.25050473166E+04  0.25386806064E+04  0.25500000920E-02 0.  1.
       -2    1    3    3    0  502 -0.29495501210E+03 -0.28746948278E+03  0.42416379270E+03  0.59122930047E+03  0.25500000920E-02 0. -1.
</event>
<event>
 5   0  0.2043885E-05  0.2339915E+04  0.7818609E-02  0.8462347E-01
        1   -1    0    0  501    0  0.00000000000E+00  0.00000000000E+00  0.15441584980E+04  0.15441584981E+04  0.50400001928E-02 0.  1.
       -1   -1    0    0    0  501  0.00000000000E+00  0.00000000000E+00 -0.88643787977E+03  0.88643787978E+03  0.50400001928E-02 0. -1.
    10030    2    1    2    0    0  0.00000000000E+00  0.00000000000E+00  0.65772061828E+03  0.24305963778E+04  0.23399150284E+04 0.  0.
        5    1    3    3  502    0  0.86839973475E+03 -0.24612826399E+03 -0.44435331149E+03  0.10060661892E+04  0.46999998093E+01 0. -1.
       -5    1    3    3    0  502 -0.86839973475E+03  0.24612826399E+03  0.11020739298E+04  0.14245301886E+04  0.46999998093E+01 0.  1.
</event>
<event>
 5   0  0.4436695E-05  0.2297539E+04  0.7818609E-02  0.8478892E-01
        2   -1    0    0  501    0  0.00000000000E+00  0.00000000000E+00  0.23355400986E+04  0.23355400986E+04  0.25500000920E-02 0.  1.
       -2   -1    0    0    0  501  0.00000000000E+00  0.00000000000E+00 -0.56503917966E+03  0.56503917966E+03  0.25500000920E-02 0. -1.
    10030    2    1    2    0    0  0.00000000000E+00  0.00000000000E+00  0.17705009189E+04  0.29005792783E+04  0.22975392588E+04 0.  0.
        5    1    3    3  502    0  0.41518639220E+03 -0.10084748958E+04  0.42962530784E+03  0.11721780372E+04  0.46999998093E+01 0. -1.
       -5    1    3    3    0  502 -0.41518639220E+03  0.10084748958E+04  0.13408756111E+04  0.17284012411E+04  0.46999998093E+01 0.  1.
</event>
<event>
 5   0  0.2031860E-05  0.2296819E+04  0.7818609E-02  0.8479176E-01
       -1   -1    0    0    0  501  0.00000000000E+00  0.00000000000E+00  0.15375328082E+04  0.15375328082E+04  0.50400001928E-02 0.  1.
        1   -1    0    0  501    0  0.00000000000E+00  0.00000000000E+00 -0.85776661883E+03  0.85776661885E+03  0.50400001928E-02 0. -1.
    10030    2    1    2    0    0  0.00000000000E+00  0.00000000000E+00  0.67976618933E+03  0.23952994270E+04  0.22968189465E+04 0.  0.
        4    1    3    3  502    0  0.85873762936E+03  0.75938751059E+03  0.26806075983E+03  0.11772671282E+04  0.12699999809E+01 0. -1.
       -4    1    3    3    0  502 -0.85873762936E+03 -0.75938751059E+03  0.41170542950E+03  0.12180322988E+04  0.12699999809E+01 0.  1.
</event>
<event>
 5   0  0.4798609E-05  0.2296305E+04  0.7818609E-02  0.8479380E-01
        2   -1    0    0  501    0  0.00000000000E+00  0.00000000000E+00  0.80711212434E+03  0.80711212434E+03  0.25500000920E-02 0.  1.
       -2   -1    0    0    0  501  0.00000000000E+00  0.00000000000E+00 -0.16332971274E+04  0.16332971274E+04  0.25500000920E-02 0. -1.
    10030    2    1    2    0    0  0.00000000000E+00  0.00000000000E+00 -0.82618500303E+03  0.24404092517E+04  0.22963047830E+04 0.  0.
        2    1    3    3  502    0  0.66238430130E+03  0.27742990738E+03 -0.13651534330E+04  0.15425187881E+04  0.25500000920E-02 0. -1.
       -2    1    3    3    0  502 -0.66238430130E+03 -0.27742990738E+03  0.53896842995E+03  0.89789046359E+03  0.25500000920E-02 0.  1.
</event>
<event>
 5   0  0.2085063E-05  0.2296036E+04  0.7818609E-02  0.8479486E-01
       -1   -1    0    0    0  501  0.00000000000E+00  0.00000000000E+00  0.55940668663E+03  0.55940668665E+03  0.50400001928E-02 0.  1.
        1   -1    0    0  501    0  0.00000000000E+00  0.00000000000E+00 -0.23559700301E+04  0.23559700301E+04  0.50400001928E-02 0. -1.
    10030    2    1    2    0    0  0.00000000000E+00  0.00000000000E+00 -0.17965633434E+04  0.29153767167E+04  0.22960360523E+04 0.  0.
        1    1    3    3  502    0  0.86644047831E+03  0.72894581745E+03 -0.11387439973E+04  0.16058701686E+04  0.50400001928E-02 0. -1.
       -1    1    3    3    0  502 -0.86644047831E+03 -0.72894581745E+03 -0.65781934618E+03  0.13095065481E+04  0.50400001928E-02 0.  1.
</event>
<event>
 5   0  0.4602447E-05  0.2240788E+04  0.7818609E-02  0.8501641E-01
        2   -1    0    0  501    0  0.00000000000E+00  0.00000000000E+00  0.24210590995E+04  0.24210590995E+04  0.25500000920E-02 0.  1.
       -2   -1    0    0    0  501  0.00000000000E+00  0.00000000000E+00 -0.51848484090E+03  0.51848484091E+03  0.25500000920E-02 0. -1.
    10030    2    1    2    0    0  0.00000000000E+00  0.00000000000E+00  0.19025742586E+04  0.29395439404E+04  0.22407877562E+04 0.  0.
        3    1    3    3  502    0 -0.28454556441E+03  0.38407385062E+03  0.22805868403E+04  0.23301406068E+04  0.10100000352E+00 0.  1.
       -3    1    3    3    0  502  0.28454556441E+03 -0.38407385062E+03 -0.37801258169E+03  0.60940333366E+03  0.10100000352E+00 0. -1.
</event>
<event>
 5   0  0.4436695E-05  0.2301405E+04  0.7818609E-02  0.8477367E-01
        2   -1    0    0  501    0  0.00000000000E+00  0.00000000000E+00  0.19767164502E+04  0.19767164502E+04  0.25500000920E-02 0.  1.
       -2   -1    0    0    0  501  0.00000000000E+00  0.00000000000E+00 -0.66985622680E+03  0.66985622680E+03  0.25500000920E-02 0. -1.
    10030    2    1    2    0    0  0.00000000000E+00  0.00000000000E+00  0.13068602234E+04  0.26465726770E+04  0.23014046344E+04 0.  0.
        5    1    3    3  502    0  0.86383765066E+03 -0.50496037007E+03  0.13068921128E+04  0.16459615872E+04  0.46999998093E+01 0.  1.
       -5    1    3    3    0  502 -0.86383765066E+03  0.50496037007E+03 -0.31889381155E-01  0.10006110898E+04  0.46999998093E+01 0. -1.
</event>
<event>
 5   0  0.2085063E-05  0.2296360E+04  0.7818609E-02  0.8479358E-01
       -1   -1    0    0    0  501  0.00000000000E+00  0.00000000000E+00  0.84907372308E+03  0.84907372309E+03  0.50400001928E-02 0.  1.
        1   -1    0    0  501    0  0.00000000000E+00  0.00000000000E+00 -0.15526531844E+04  0.15526531844E+04  0.50400001928E-02 0. -1.
    10030    2    1    2    0    0  0.00000000000E+00  0.00000000000E+00 -0.70357946127E+03  0.24017269075E+04  0.22963597453E+04 0.  0.
        1    1    3    3  502    0 -0.29680305479E+03 -0.10318962682E+04 -0.77716400329E+03  0.13254757070E+04  0.50400001928E-02 0. -1.
       -1    1    3    3    0  502  0.29680305479E+03  0.10318962682E+04  0.73584542020E+02  0.10762512005E+04  0.50400001928E-02 0.  1.
</event>
<event>
 5   0  0.2031860E-05  0.2309440E+04  0.7818609E-02  0.8474208E-01
        1   -1    0    0  501    0  0.00000000000E+00  0.00000000000E+00  0.82828709543E+03  0.82828709545E+03  0.50400001928E-02 0.  1.
       -1   -1    0    0    0  501  0.00000000000E+00  0.00000000000E+00 -0.16098023248E+04  0.16098023248E+04  0.50400001928E-02 0. -1.
    10030    2    1    2    0    0  0.00000000000E+00  0.00000000000E+00 -0.78151522936E+03  0.24380894202E+04  0.23094401848E+04 0.  0.
        4    1    3    3  502    0  0.62730641022E+02  0.13199746741E+03  0.81848342149E+03  0.83142960549E+03  0.12699999809E+01 0.  1.
       -4    1    3    3    0  502 -0.62730641022E+02 -0.13199746741E+03 -0.15999986509E+04  0.16066598148E+04  0.12699999809E+01 0. -1.
</event>
<event>
 5   0  0.1604500E-05  0.2290437E+04  0.7818609E-02  0.8481701E-01
       -3   -1    0    0    0  501  0.00000000000E+00  0.00000000000E+00  0.50294265829E+03  0.50294266843E+03  0.10100000352E+00 0.  1.
        3   -1    0    0  501    0  0.00000000000E+00  0.00000000000E+00 -0.26077043372E+04  0.26077043392E+04  0.10100000352E+00 0. -1.
    10030    2    1    2    0    0  0.00000000000E+00  0.00000000000E+00 -0.21047616789E+04  0.31106470076E+04  0.22904373121E+04 0.  0.
        2    1    3    3  502    0 -0.88876124810E+03  0.30620603861E+03 -0.19407362574E+04  0.21564127423E+04  0.25500000920E-02 0. -1.
       -2    1    3    3    0  502  0.88876124810E+03 -0.30620603861E+03 -0.16402542151E+03  0.95423426533E+03  0.25500000920E-02 0.  1.
</event>
<event>
 5   0  0.2043885E-05  0.2258853E+04  0.7818609E-02  0.8494324E-01
       -1   -1    0    0    0  501  0.00000000000E+00  0.00000000000E+00  0.10185498917E+04  0.10185498917E+04  0.50400001928E-02 0.  1.
        1   -1    0    0  501    0  0.00000000000E+00  0.00000000000E+00 -0.12523733264E+04  0.12523733264E+04  0.50400001928E-02 0. -1.
    10030    2    1    2    0    0  0.00000000000E+00  0.00000000000E+00 -0.23382343476E+03  0.22709232181E+04  0.22588534401E+04 0.  0.
        5    1    3    3  502    0 -0.10395466837E+03 -0.18853278691E+03  0.99771956349E+03  0.10206946665E+04  0.46999998093E+01 0.  1.
       -5    1    3    3    0  502  0.10395466837E+03  0.18853278691E+03 -0.12315429983E+04  0.12502285517E+04  0.46999998093E+01 0. -1.
</event>
<event>
 5   0  0.4436695E-05  0.2310844E+04  0.7818609E-02  0.8473658E-01
       -2   -1    0    0    0  501  0.00000000000E+00  0.00000000000E+00  0.68828310266E+03  0.68828310267E+03  0.25500000920E-02 0. -1.
        2   -1    0    0  501    0  0.00000000000E+00  0.00000000000E+00 -0.19396090497E+04  0.19396090497E+04  0.25500000920E-02 0.  1.
    10030    2    1    2    0    0  0.00000000000E+00  0.00000000000E+00 -0.12513259471E+04  0.26278921524E+04  0.23108441183E+04 0.  0.
        5    1    3    3  502    0 -0.57153906743E+03  0.12359329487E+03  0.50757608606E+03  0.77433053749E+03  0.46999998093E+01 0. -1.
       -5    1    3    3    0  502  0.57153906743E+03 -0.12359329487E+03 -0.17589020331E+04  0.18535616149E+04  0.46999998093E+01 0.  1.
</event>
<event>
 5   0  0.4436695E-05  0.2300707E+04  0.7818609E-02  0.8477642E-01
       -2   -1    0    0    0  501  0.00000000000E+00  0.00000000000E+00  0.14762166803E+04  0.14762166803E+04  0.25500000920E-02 0. -1.
        2   -1    0    0  501    0  0.00000000000E+00  0.00000000000E+00 -0.89642200946E+03  0.89642200947E+03  0.25500000920E-02 0.  1.
    10030    2    1    2    0    0  0.00000000000E+00  0.00000000000E+00  0.57979467088E+03  0.23726386898E+04  0.23007069548E+04 0.  0.
        5    1    3    3  502    0  0.47026827301E+03 -0.10067994474E+04  0.59667686299E+03  0.12612861470E+04  0.46999998093E+01 0. -1.
       -5    1    3    3    0  502 -0.47026827301E+03  0.10067994474E+04 -0.16882192113E+02  0.11113525428E+04  0.46999998093E+01 0.  1.
</event>
<event>
 5   0  0.4602447E-05  0.2295801E+04  0.7818609E-02  0.8479579E-01
        2   -1    0    0  501    0  0.00000000000E+00  0.00000000000E+00  0.13804934678E+04  0.13804934678E+04  0.25500000920E-02 0.  1.
       -2   -1    0    0    0  501  0.00000000000E+00  0.00000000000E+00 -0.95449602328E+03  0.95449602328E+03  0.25500000920E-02 0. -1.
    10030    2    1    2    0    0  0.00000000000E+00  0.00000000000E+00  0.42599744451E+03  0.23349894911E+04  0.22958009715E+04 0.  0.
        3    1    3    3  502    0 -0.13642668395E+03  0.10883350674E+03 -0.94092430115E+03  0.95697205967E+03  0.10100000352E+00 0. -1.
       -3    1    3    3    0  502  0.13642668395E+03 -0.10883350674E+03  0.13669217457E+04  0.13780174314E+04  0.10100000352E+00 0.  1.
</event>
<event>
 5   0  0.4436695E-05  0.2312028E+04  0.7818609E-02  0.8473194E-01
        2   -1    0    0  501    0  0.00000000000E+00  0.00000000000E+00  0.96029290456E+03  0.96029290456E+03  0.25500000920E-02 0.  1.
       -2   -1    0    0    0  501  0.00000000000E+00  0.00000000000E+00 -0.13916260280E+04  0.13916260280E+04  0.25500000920E-02 0. -1.
    10030    2    1    2    0    0  0.00000000000E+00  0.00000000000E+00 -0.43133312342E+03  0.23519189325E+04  0.23120282009E+04 0.  0.
        5    1    3    3  502    0  0.33240289687E+03  0.76609296670E+03  0.59747251118E+03  0.10268328058E+04  0.46999998093E+01 0.  1.
       -5    1    3    3    0  502 -0.33240289687E+03 -0.76609296670E+03 -0.10288056346E+04  0.13250861267E+04  0.46999998093E+01 0. -1.
</event>
<event>
 5   0  0.2042951E-05  0.2313519E+04  0.7818609E-02  0.8472610E-01
        1   -1    0    0  501    0  0.00000000000E+00  0.00000000000E+00  0.24485469467E+04  0.24485469467E+04  0.50400001928E-02 0. -1.
       -1   -1    0    0    0  501  0.00000000000E+00  0.00000000000E+00 -0.54648456362E+03  0.54648456365E+03  0.50400001928E-02 0.  1.
    10030    2    1    2    0    0  0.00000000000E+00  0.00000000000E+00  0.19020623831E+04  0.29950315104E+04  0.23135194918E+04 0.  0.
        2    1    3    3  502    0 -0.10734426599E+04  0.17179874965E+03  0.14628385770E+04  0.18225505910E+04  0.25500000920E-02 0. -1.
       -2    1    3    3    0  502  0.10734426599E+04 -0.17179874965E+03  0.43922380608E+03  0.11724809194E+04  0.25500000920E-02 0.  1.
</event>
<event>
 5   0  0.4602447E-05  0.2290724E+04  0.7818609E-02  0.8481587E-01
       -2   -1    0    0    0  501  0.00000000000E+00  0.00000000000E+00  0.71635035800E+03  0.71635035800E+03  0.25500000920E-02 0. -1.
        2   -1    0    0  501    0  0.00000000000E+00  0.00000000000E+00 -0.18313025554E+04  0.18313025554E+04  0.25500000920E-02 0.  1.
    10030    2    1    2    0    0  0.00000000000E+00  0.00000000000E+00 -0.11149521974E+04  0.25476529134E+04  0.22907241136E+04 0.  0.
        3    1    3    3  502    0  0.58655294271E+03 -0.89092967346E+03 -0.10214672714E+04  0.14768870757E+04  0.10100000352E+00 0.  1.
       -3    1    3    3    0  502 -0.58655294271E+03  0.89092967346E+03 -0.93484926050E+02  0.10707658377E+04  0.10100000352E+00 0. -1.
</event>
<event>
 5   0  0.4505107E-05  0.2328966E+04  0.7818609E-02  0.8466587E-01
        2   -1    0    0  501    0  0.00000000000E+00  0.00000000000E+00  0.15172898890E+04  0.15172898890E+04  0.25500000920E-02 0.  1.
       -2   -1    0    0    0  501  0.00000000000E+00  0.00000000000E+00 -0.89371250195E+03  0.89371250195E+03  0.25500000920E-02 0. -1.
    10030    2    1    2    0    0  0.00000000000E+00  0.00000000000E+00  0.62357738709E+03  0.24110023910E+04  0.23289662453E+04 0.  0.
        4    1    3    3  502    0  0.42257439029E+03 -0.28822716014E+03  0.13947616005E+04  0.14855993896E+04  0.12699999809E+01 0.  1.
       -4    1    3    3    0  502 -0.42257439029E+03  0.28822716014E+03 -0.77118421339E+03  0.92540300143E+03  0.12699999809E+01 0. -1.
</event>
<event>
 5   0  0.4602447E-05  0.2300610E+04  0.7818609E-02  0.8477681E-01
        2   -1    0    0  501    0  0.00000000000E+00  0.00000000000E+00  0.13612689133E+04  0.13612689133E+04  0.25500000920E-02 0.  1.
       -2   -1    0    0    0  501  0.00000000000E+00  0.00000000000E+00 -0.97203565247E+03  0.97203565247E+03  0.25500000920E-02 0. -1.
    10030    2    1    2    0    0  0.00000000000E+00  0.00000000000E+00  0.38923326087E+03  0.23333045658E+04  0.23006102811E+04 0.  0.
        3    1    3    3  502    0  0.37234826475E+03  0.75076748562E+03  0.99379110306E+03  0.12999676205E+04  0.10100000352E+00 0.  1.
       -3    1    3    3    0  502 -0.37234826475E+03 -0.75076748562E+03 -0.60455784219E+03  0.10333369453E+04  0.10100000352E+00 0. -1.
</event>
<event>
 5   0  0.2042951E-05  0.2314655E+04  0.7818609E-02  0.8472165E-01
       -1   -1    0    0    0  501  0.00000000000E+00  0.00000000000E+00  0.51520164498E+03  0.51520164500E+03  0.50400001928E-02 0.  1.
        1   -1    0    0  501    0  0.00000000000E+00  0.00000000000E+00 -0.25997714456E+04  0.25997714456E+04  0.50400001928E-02 0. -1.
    10030    2    1    2    0    0  0.00000000000E+00  0.00000000000E+00 -0.20845698006E+04  0.31149730906E+04  0.23146546398E+04 0.  0.
        2    1    3    3  502    0  0.43230157232E+03  0.15248102838E+03 -0.24723877279E+04  0.25145250427E+04  0.25500000920E-02 0. -1.
       -2    1    3    3    0  502 -0.43230157232E+03 -0.15248102838E+03  0.38781792729E+03  0.60044804786E+03  0.25500000920E-02 0.  1.
</event>
<event>
 5   0  0.4798609E-05  0.2299110E+04  0.7818609E-02  0.8478272E-01
        2   -1    0    0  501    0  0.00000000000E+00  0.00000000000E+00  0.14415904566E+04  0.14415904566E+04  0.25500000920E-02 0. -1.
       -2   -1    0    0    0  501  0.00000000000E+00  0.00000000000E+00 -0.91667996816E+03  0.91667996816E+03  0.25500000920E-02 0.  1.
    10030    2    1    2    0    0  0.00000000000E+00  0.00000000000E+00  0.52491048845E+03  0.23582704248E+04  0.22991103443E+04 0.  0.
        2    1    3    3  502    0 -0.70656796234E+03  0.90118555268E+03  0.36555739775E+03  0.12020839808E+04  0.25500000920E-02 0.  1.
       -2    1    3    3    0  502  0.70656796234E+03 -0.90118555268E+03  0.15935309070E+03  0.11561864440E+04  0.25500000920E-02 0. -1.
</event>
<event>
 5   0  0.2031860E-05  0.2307726E+04  0.7818609E-02  0.8474881E-01
        1   -1    0    0  501    0  0.00000000000E+00  0.00000000000E+00  0.17376176973E+04  0.17376176973E+04  0.50400001928E-02 0.  1.
       -1   -1    0    0    0  501  0.00000000000E+00  0.00000000000E+00 -0.76622116117E+03  0.76622116118E+03  0.50400001928E-02 0. -1.
    10030    2    1    2    0    0  0.00000000000E+00  0.00000000000E+00  0.97139653610E+03  0.25038388585E+04  0.23077256767E+04 0.  0.
        4    1    3    3  502    0 -0.10507898134E+04 -0.11918728441E+03 -0.15080180825E+02  0.10576359797E+04  0.12699999809E+01 0.  1.
       -4    1    3    3    0  502  0.10507898134E+04  0.11918728441E+03  0.98647671692E+03  0.14462028788E+04  0.12699999809E+01 0. -1.
</event>
<event>
 5   0  0.2031860E-05  0.2320443E+04  0.7818609E-02  0.8469904E-01
       -1   -1    0    0    0  501  0.00000000000E+00  0.00000000000E+00  0.83478021529E+03  0.83478021530E+03  0.50400001928E-02 0. -1.
        1   -1    0    0  501    0  0.00000000000E+00  0.00000000000E+00 -0.16125374699E+04  0.16125374699E+04  0.50400001928E-02 0.  1.
    10030    2    1    2    0    0  0.00000000000E+00  0.00000000000E+00 -0.77775725462E+03  0.24473176852E+04  0.23204433855E+04 0.  0.
        4    1    3    3  502    0 -0.37637130575E+03  0.82648719480E+02  0.76531876047E+03  0.85685505697E+03  0.12699999809E+01 0. -1.
       -4    1    3    3    0  502  0.37637130575E+03 -0.82648719480E+02 -0.15430760151E+04  0.15904626283E+04  0.12699999809E+01 0.  1.
</event>
<event>
 5   0  0.4505107E-05  0.2289881E+04  0.7818609E-02  0.8481921E-01
        2   -1    0    0  501    0  0.00000000000E+00  0.00000000000E+00  0.19637015323E+04  0.19637015323E+04  0.25500000920E-02 0.  1.
       -2   -1    0    0    0  501  0.00000000000E+00  0.00000000000E+00 -0.66756036516E+03  0.66756036517E+03  0.25500000920E-02 0. -1.
    10030    2    1    2    0    0  0.00000000000E+00  0.00000000000E+00  0.12961411671E+04  0.26312618974E+04  0.22898814921E+04 0.  0.
        4    1    3    3  502    0 -0.11119520994E+04  0.25823645752E+03  0.54681982204E+03  0.12657555333E+04  0.12699999809E+01 0. -1.
       -4    1    3    3    0  502  0.11119520994E+04 -0.25823645752E+03  0.74932134506E+03  0.13655063641E+04  0.12699999809E+01 0.  1.
</event>
<event>
 5   0  0.1968318E-05  0.2283865E+04  0.7818609E-02  0.8484310E-01
        1   -1    0    0  501    0  0.00000000000E+00  0.00000000000E+00  0.79571790428E+03  0.79571790429E+03  0.50400001928E-02 0.  1.
       -1   -1    0    0    0  501  0.00000000000E+00  0.00000000000E+00 -0.16387837384E+04  0.16387837384E+04  0.50400001928E-02 0. -1.
    10030    2    1    2    0    0  0.00000000000E+00  0.00000000000E+00 -0.84306583415E+03  0.24345016427E+04  0.22838647613E+04 0.  0.
        3    1    3    3  502    0  0.29543137319E+03 -0.28782798338E+03 -0.15566069165E+04  0.16103259754E+04  0.10100000352E+00 0. -1.
       -3    1    3    3    0  502 -0.29543137319E+03  0.28782798338E+03  0.71354108234E+03  0.82417566736E+03  0.10100000352E+00 0.  1.
</event>
<event>
 5   0  0.2042951E-05  0.2331133E+04  0.7818609E-02  0.8465746E-01
        1   -1    0    0  501    0  0.00000000000E+00  0.00000000000E+00  0.10570843260E+04  0.10570843260E+04  0.50400001928E-02 0.  1.
       -1   -1    0    0    0  501  0.00000000000E+00  0.00000000000E+00 -0.12851815180E+04  0.12851815180E+04  0.50400001928E-02 0. -1.
    10030    2    1    2    0    0  0.00000000000E+00  0.00000000000E+00 -0.22809719203E+03  0.23422658440E+04  0.23311329766E+04 0.  0.
        2    1    3    3  502    0  0.55413960270E+03 -0.10244589913E+04 -0.69584409085E+02  0.11668028600E+04  0.25500000920E-02 0.  1.
       -2    1    3    3    0  502 -0.55413960270E+03  0.10244589913E+04 -0.15851278295E+03  0.11754629839E+04  0.25500000920E-02 0. -1.
</event>
<event>
 5   0  0.4602447E-05  0.2272394E+04  0.7818609E-02  0.8488886E-01
       -2   -1    0    0    0  501  0.00000000000E+00  0.00000000000E+00  0.10216645413E+04  0.10216645413E+04  0.25500000920E-02 0. -1.
        2   -1    0    0  501    0  0.00000000000E+00  0.00000000000E+00 -0.12635687221E+04  0.12635687221E+04  0.25500000920E-02 0.  1.
    10030    2    1    2    0    0  0.00000000000E+00  0.00000000000E+00 -0.24190418080E+03  0.22852332634E+04  0.22723937677E+04 0.  0.
        3    1    3    3  502    0  0.12973314805E+03 -0.74772387357E+03  0.72941520436E+03  0.10526006989E+04  0.10100000352E+00 0. -1.
       -3    1    3    3    0  502 -0.12973314805E+03  0.74772387357E+03 -0.97131938516E+03  0.12326325645E+04  0.10100000352E+00 0.  1.
</event>
<event>
 5   0  0.4602447E-05  0.2305710E+04  0.7818609E-02  0.8475673E-01
        2   -1    0    0  501    0  0.00000000000E+00  0.00000000000E+00  0.83836037040E+03  0.83836037041E+03  0.25500000920E-02 0. -1.
       -2   -1    0    0    0  501  0.00000000000E+00  0.00000000000E+00 -0.15853266393E+04  0.15853266393E+04  0.25500000920E-02 0.  1.
    10030    2    1    2    0    0  0.00000000000E+00  0.00000000000E+00 -0.74696626886E+03  0.24236870097E+04  0.23057103274E+04 0.  0.
        3    1    3    3  502    0 -0.53100933873E+03 -0.85082623787E+03  0.22411147210E+03  0.10276683157E+04  0.10100000352E+00 0. -1.
       -3    1    3    3    0  502  0.53100933873E+03  0.85082623787E+03 -0.97107774097E+03  0.13960186940E+04  0.10100000352E+00 0.  1.
</event>
<event>
 5   0  0.4505107E-05  0.2290370E+04  0.7818609E-02  0.8481728E-01
        2   -1    0    0  501    0  0.00000000000E+00  0.00000000000E+00  0.10483456334E+04  0.10483456334E+04  0.25500000920E-02 0.  1.
       -2   -1    0    0    0  501  0.00000000000E+00  0.00000000000E+00 -0.12509698911E+04  0.12509698911E+04  0.25500000920E-02 0. -1.
    10030    2    1    2    0    0  0.00000000000E+00  0.00000000000E+00 -0.20262425765E+03  0.22993155245E+04  0.22903701210E+04 0.  0.
        4    1    3    3  502    0 -0.35682239384E+02  0.36627031514E+03  0.98736791988E+03  0.10537192169E+04  0.12699999809E+01 0.  1.
       -4    1    3    3    0  502  0.35682239384E+02 -0.36627031514E+03 -0.11899921775E+04  0.12455963076E+04  0.12699999809E+01 0. -1.
</event>
<event>
 5   0  0.2085063E-05  0.2344203E+04  0.7818609E-02  0.8460694E-01
        1   -1    0    0  501    0  0.00000000000E+00  0.00000000000E+00  0.11998850714E+04  0.11998850714E+04  0.50400001928E-02 0.  1.
       -1   -1    0    0    0  501  0.00000000000E+00  0.00000000000E+00 -0.11449613144E+04  0.11449613144E+04  0.50400001928E-02 0. -1.
    10030    2    1    2    0    0  0.00000000000E+00  0.00000000000E+00  0.54923757002E+02  0.23448463858E+04  0.23442030530E+04 0.  0.
        1    1    3    3  502    0  0.82584877057E+03 -0.21779039061E+03 -0.77548074911E+03  0.11536157239E+04  0.50400001928E-02 0. -1.
       -1    1    3    3    0  502 -0.82584877057E+03  0.21779039061E+03  0.83040450611E+03  0.11912306619E+04  0.50400001928E-02 0.  1.
</event>
<event>
 5   0  0.4505107E-05  0.2301838E+04  0.7818609E-02  0.8477197E-01
        2   -1    0    0  501    0  0.00000000000E+00  0.00000000000E+00  0.15651957648E+04  0.15651957648E+04  0.25500000920E-02 0.  1.
       -2   -1    0    0    0  501  0.00000000000E+00  0.00000000000E+00 -0.84629296538E+03  0.84629296538E+03  0.25500000920E-02 0. -1.
    10030    2    1    2    0    0  0.00000000000E+00  0.00000000000E+00  0.71890279947E+03  0.24114887302E+04  0.23018376704E+04 0.  0.
        4    1    3    3  502    0 -0.96327563521E+03 -0.61417998569E+03  0.50572914868E+03  0.12493520677E+04  0.12699999809E+01 0.  1.
       -4    1    3    3    0  502  0.96327563521E+03  0.61417998569E+03  0.21317365078E+03  0.11621366626E+04  0.12699999809E+01 0. -1.
</event>
<event>
 5   0  0.1968318E-05  0.2234731E+04  0.7818609E-02  0.8504110E-01
        1   -1    0    0  501    0  0.00000000000E+00  0.00000000000E+00  0.18887216759E+04  0.18887216759E+04  0.50400001928E-02 0. -1.
       -1   -1    0    0    0  501  0.00000000000E+00  0.00000000000E+00 -0.66103225683E+03  0.66103225685E+03  0.50400001928E-02 0.  1.
    10030    2    1    2    0    0  0.00000000000E+00  0.00000000000E+00  0.12276894191E+04  0.25497539328E+04  0.22347312608E+04 0.  0.
        3    1    3    3  502    0 -0.38373291147E+03 -0.73442060402E+03 -0.24140962270E+03  0.86307774105E+03  0.10100000352E+00 0.  1.
       -3    1    3    3    0  502  0.38373291147E+03  0.73442060402E+03  0.14690990418E+04  0.16866761917E+04  0.10100000352E+00 0. -1.
</event>
<event>
 5   0  0.4602447E-05  0.2261191E+04  0.7818609E-02  0.8493382E-01
        2   -1    0    0  501    0  0.00000000000E+00  0.00000000000E+00  0.18624989135E+04  0.18624989135E+04  0.25500000920E-02 0.  1.
       -2   -1    0    0    0  501  0.00000000000E+00  0.00000000000E+00 -0.68630678824E+03  0.68630678825E+03  0.25500000920E-02 0. -1.
    10030    2    1    2    0    0  0.00000000000E+00  0.00000000000E+00  0.11761921253E+04  0.25488057017E+04  0.22611905249E+04 0.  0.
        3    1    3    3  502    0 -0.23828191994E+03  0.10187377069E+04  0.10505481397E+03  0.10514947993E+04  0.10100000352E+00 0. -1.
       -3    1    3    3    0  502  0.23828191994E+03 -0.10187377069E+04  0.10711373113E+04  0.14973109025E+04  0.10100000352E+00 0.  1.
</event>
<event>
 5   0  0.4602447E-05  0.2281428E+04  0.7818609E-02  0.8485280E-01
        2   -1    0    0  501    0  0.00000000000E+00  0.00000000000E+00  0.80166975134E+03  0.80166975135E+03  0.25500000920E-02 0.  1.
       -2   -1    0    0    0  501  0.00000000000E+00  0.00000000000E+00 -0.16231482758E+04  0.16231482758E+04  0.25500000920E-02 0. -1.
    10030    2    1    2    0    0  0.00000000000E+00  0.00000000000E+00 -0.82147852446E+03  0.24248180272E+04  0.22814283900E+04 0.  0.
        3    1    3    3  502    0 -0.50693843081E+03  0.28980532229E+03 -0.14522545208E+04  0.15652529830E+04  0.10100000352E+00 0. -1.
       -3    1    3    3    0  502  0.50693843081E+03 -0.28980532229E+03  0.63077599630E+03  0.85956504417E+03  0.10100000352E+00 0.  1.
</event>
<event>
 5   0  0.2031860E-05  0.2401298E+04  0.7818609E-02  0.8439018E-01
       -1   -1    0    0    0  501  0.00000000000E+00  0.00000000000E+00  0.77146653568E+03  0.77146653570E+03  0.50400001928E-02 0.  1.
        1   -1    0    0  501    0  0.00000000000E+00  0.00000000000E+00 -0.18685950465E+04  0.18685950465E+04  0.50400001928E-02 0. -1.
    10030    2    1    2    0    0  0.00000000000E+00  0.00000000000E+00 -0.10971285108E+04  0.26400615822E+04  0.24012984381E+04 0.  0.
        4    1    3    3  502    0 -0.39278523235E+03 -0.38151744308E+01  0.69882332911E+03  0.80165482130E+03  0.12699999809E+01 0.  1.
       -4    1    3    3    0  502  0.39278523235E+03  0.38151744308E+01 -0.17959518399E+04  0.18384067609E+04  0.12699999809E+01 0. -1.
</event>
<event>
 5   0  0.2085063E-05  0.2270591E+04  0.7818609E-02  0.8489608E-01
        1   -1    0    0  501    0  0.00000000000E+00  0.00000000000E+00  0.84129460422E+03  0.84129460423E+03  0.50400001928E-02 0. -1.
       -1   -1    0    0    0  501  0.00000000000E+00  0.00000000000E+00 -0.15320388934E+04  0.15320388934E+04  0.50400001928E-02 0.  1.
    10030    2    1    2    0    0  0.00000000000E+00  0.00000000000E+00 -0.69074428915E+03  0.23733334976E+04  0.22705911604E+04 0.  0.
        1    1    3    3  502    0 -0.75078684858E+02 -0.10821918815E+04 -0.69536673056E+03  0.12885305458E+04  0.50400001928E-02 0.  1.
       -1    1    3    3    0  502  0.75078684858E+02  0.10821918815E+04  0.46224414073E+01  0.10848029519E+04  0.50400001928E-02 0. -1.
</event>
<event>
 5   0  0.4605516E-05  0.2249335E+04  0.7818609E-02  0.8498170E-01
       -2   -1    0    0    0  501  0.00000000000E+00  0.00000000000E+00  0.82229671681E+03  0.82229671681E+03  0.25500000920E-02 0. -1.
        2   -1    0    0  501    0  0.00000000000E+00  0.00000000000E+00 -0.15382251132E+04  0.15382251132E+04  0.25500000920E-02 0.  1.
    10030    2    1    2    0    0  0.00000000000E+00  0.00000000000E+00 -0.71592839638E+03  0.23605218300E+04  0.22493354221E+04 0.  0.
        1    1    3    3  502    0  0.23270867084E+02  0.99661655792E+02 -0.15333283045E+04  0.15367399482E+04  0.50400001928E-02 0.  1.
       -1    1    3    3    0  502 -0.23270867084E+02 -0.99661655792E+02  0.81739990816E+03  0.82378188180E+03  0.50400001928E-02 0. -1.
</event>
<event>
 5   0  0.2031860E-05  0.2335047E+04  0.7818609E-02  0.8464229E-01
        1   -1    0    0  501    0  0.00000000000E+00  0.00000000000E+00  0.94772079861E+03  0.94772079862E+03  0.50400001928E-02 0.  1.
       -1   -1    0    0    0  501  0.00000000000E+00  0.00000000000E+00 -0.14383047006E+04  0.14383047007E+04  0.50400001928E-02 0. -1.
    10030    2    1    2    0    0  0.00000000000E+00  0.00000000000E+00 -0.49058390203E+03  0.23860254993E+04  0.23350471341E+04 0.  0.
        4    1    3    3  502    0  0.34859264157E+02 -0.75470342138E+03 -0.11548469880E+04  0.13800237683E+04  0.12699999809E+01 0. -1.
       -4    1    3    3    0  502 -0.34859264157E+02  0.75470342138E+03  0.66426308592E+03  0.10060017310E+04  0.12699999809E+01 0.  1.
</event>
<event>
 5   0  0.4436695E-05  0.2402895E+04  0.7818609E-02  0.8438420E-01
       -2   -1    0    0    0  501  0.00000000000E+00  0.00000000000E+00  0.81661707642E+03  0.81661707643E+03  0.25500000920E-02 0.  1.
        2   -1    0    0  501    0  0.00000000000E+00  0.00000000000E+00 -0.17676292382E+04  0.17676292382E+04  0.25500000920E-02 0. -1.
    10030    2    1    2    0    0  0.00000000000E+00  0.00000000000E+00 -0.95101216174E+03  0.25842463146E+04  0.24028951044E+04 0.  0.
        5    1    3    3  502    0  0.85747019295E+03  0.75094302244E+03 -0.66991519259E+02  0.11417882940E+04  0.46999998093E+01 0.  1.
       -5    1    3    3    0  502 -0.85747019295E+03 -0.75094302244E+03 -0.88402064248E+03  0.14424580206E+04  0.46999998093E+01 0. -1.
</event>
<event>
 5   0  0.2042951E-05  0.2266851E+04  0.7818609E-02  0.8491107E-01
        1   -1    0    0  501    0  0.00000000000E+00  0.00000000000E+00  0.18067895667E+04  0.18067895667E+04  0.50400001928E-02 0.  1.
       -1   -1    0    0    0  501  0.00000000000E+00  0.00000000000E+00 -0.71101419037E+03  0.71101419039E+03  0.50400001928E-02 0. -1.
    10030    2    1    2    0    0  0.00000000000E+00  0.00000000000E+00  0.10957753763E+04  0.25178037571E+04  0.22668506973E+04 0.  0.
        2    1    3    3  502    0  0.68993959727E+03  0.83766732220E+03  0.91112379347E+03  0.14169861529E+04  0.25500000920E-02 0.  1.
       -2    1    3    3    0  502 -0.68993959727E+03 -0.83766732220E+03  0.18465158284E+03  0.11008176042E+04  0.25500000920E-02 0. -1.
</event>
<event>
 5   0  0.2043885E-05  0.2297396E+04  0.7818609E-02  0.8478949E-01
       -1   -1    0    0    0  501  0.00000000000E+00  0.00000000000E+00  0.10204551567E+04  0.10204551567E+04  0.50400001928E-02 0. -1.
        1   -1    0    0  501    0  0.00000000000E+00  0.00000000000E+00 -0.12930570988E+04  0.12930570988E+04  0.50400001928E-02 0.  1.
    10030    2    1    2    0    0  0.00000000000E+00  0.00000000000E+00 -0.27260194218E+03  0.23135122555E+04  0.22973957294E+04 0.  0.
        5    1    3    3  502    0  0.10270028439E+04 -0.47494792800E+03  0.63012531403E+02  0.11332709494E+04  0.46999998093E+01 0. -1.
       -5    1    3    3    0  502 -0.10270028439E+04  0.47494792800E+03 -0.33561447358E+03  0.11802413061E+04  0.46999998093E+01 0.  1.
</event>
<event>
 5   0  0.2085063E-05  0.2293660E+04  0.7818609E-02  0.8480425E-01
       -1   -1    0    0    0  501  0.00000000000E+00  0.00000000000E+00  0.16723966511E+04  0.16723966511E+04  0.50400001928E-02 0. -1.
        1   -1    0    0  501    0  0.00000000000E+00  0.00000000000E+00 -0.78642748662E+03  0.78642748663E+03  0.50400001928E-02 0.  1.
    10030    2    1    2    0    0  0.00000000000E+00  0.00000000000E+00  0.88596916447E+03  0.24588241377E+04  0.22936596914E+04 0.  0.
        1    1    3    3  502    0  0.31482241117E+03 -0.69965289736E+03  0.13567686936E+04  0.15586688600E+04  0.50400001928E-02 0. -1.
       -1    1    3    3    0  502 -0.31482241117E+03  0.69965289736E+03 -0.47079952909E+03  0.90015527770E+03  0.50400001928E-02 0.  1.
</event>
<event>
 5   0  0.4436695E-05  0.2217689E+04  0.7818609E-02  0.8511101E-01
       -2   -1    0    0    0  501  0.00000000000E+00  0.00000000000E+00  0.11516258813E+04  0.11516258813E+04  0.25500000920E-02 0.  1.
        2   -1    0    0  501    0  0.00000000000E+00  0.00000000000E+00 -0.10676526216E+04  0.10676526216E+04  0.25500000920E-02 0. -1.
    10030    2    1    2    0    0  0.00000000000E+00  0.00000000000E+00  0.83973259670E+02  0.22192785029E+04  0.22176892400E+04 0.  0.
        5    1    3    3  502    0 -0.47043567179E+03 -0.95629661351E+03 -0.26433952567E+03  0.10980484548E+04  0.46999998093E+01 0. -1.
       -5    1    3    3    0  502  0.47043567179E+03  0.95629661351E+03  0.34831278534E+03  0.11212300481E+04  0.46999998093E+01 0.  1.
</event>
<event>
 5   0  0.2042951E-05  0.2245166E+04  0.7818609E-02  0.8499861E-01
       -1   -1    0    0    0  501  0.00000000000E+00  0.00000000000E+00  0.92577095383E+03  0.92577095385E+03  0.50400001928E-02 0.  1.
        1   -1    0    0  501    0  0.00000000000E+00  0.00000000000E+00 -0.13612359366E+04  0.13612359366E+04  0.50400001928E-02 0. -1.
    10030    2    1    2    0    0  0.00000000000E+00  0.00000000000E+00 -0.43546498276E+03  0.22870068904E+04  0.22451660887E+04 0.  0.
        2    1    3    3  502    0 -0.57443685304E+03 -0.87602384987E+03 -0.62873310948E+03  0.12217613542E+04  0.25500000920E-02 0.  1.
       -2    1    3    3    0  502  0.57443685304E+03  0.87602384987E+03  0.19326812672E+03  0.10652455362E+04  0.25500000920E-02 0. -1.
</event>
<event>
 5   0  0.1968318E-05  0.2264175E+04  0.7818609E-02  0.8492182E-01
       -1   -1    0    0    0  501  0.00000000000E+00  0.00000000000E+00  0.10132638571E+04  0.10132638572E+04  0.50400001928E-02 0. -1.
        1   -1    0    0  501    0  0.00000000000E+00  0.00000000000E+00 -0.12648453971E+04  0.12648453971E+04  0.50400001928E-02 0.  1.
    10030    2    1    2    0    0  0.00000000000E+00  0.00000000000E+00 -0.25158153995E+03  0.22781092543E+04  0.22641750160E+04 0.  0.
        3    1    3    3  502    0  0.70408456638E+03 -0.81528108232E+03 -0.47607667706E+03  0.11777382275E+04  0.10100000352E+00 0.  1.
       -3    1    3    3    0  502 -0.70408456638E+03  0.81528108232E+03  0.22449513711E+03  0.11003710268E+04  0.10100000352E+00 0. -1.
</event>
<event>
 5   0  0.4602447E-05  0.2293057E+04  0.7818609E-02  0.8480664E-01
        2   -1    0    0  501    0  0.00000000000E+00  0.00000000000E+00  0.76855964097E+03  0.76855964097E+03  0.25500000920E-02 0. -1.
       -2   -1    0    0    0  501  0.00000000000E+00  0.00000000000E+00 -0.17103786911E+04  0.17103786911E+04  0.25500000920E-02 0.  1.
    10030    2    1    2    0    0  0.00000000000E+00  0.00000000000E+00 -0.94181905013E+03  0.24789383321E+04  0.22930573763E+04 0.  0.
        3    1    3    3  502    0 -0.37476937977E+03  0.17902644449E+03 -0.16261933576E+04  0.16783942929E+04  0.10100000352E+00 0.  1.
       -3    1    3    3    0  502  0.37476937977E+03 -0.17902644449E+03  0.68437430745E+03  0.80054403922E+03  0.10100000352E+00 0. -1.
</event>
<event>
 5   0  0.4436695E-05  0.2469343E+04  0.7818609E-02  0.8413989E-01
        2   -1    0    0  501    0  0.00000000000E+00  0.00000000000E+00  0.14158633356E+04  0.14158633356E+04  0.25500000920E-02 0. -1.
       -2   -1    0    0    0  501  0.00000000000E+00  0.00000000000E+00 -0.10766669074E+04  0.10766669074E+04  0.25500000920E-02 0.  1.
    10030    2    1    2    0    0  0.00000000000E+00  0.00000000000E+00  0.33919642820E+03  0.24925302431E+04  0.24693425837E+04 0.  0.
        5    1    3    3  502    0 -0.11005691809E+04 -0.17101834447E+02 -0.39498046483E+03  0.11694343301E+04  0.46999998093E+01 0.  1.
       -5    1    3    3    0  502  0.11005691809E+04  0.17101834447E+02  0.73417689303E+03  0.13230959130E+04  0.46999998093E+01 0. -1.
</event>
<event>
 5   0  0.4605516E-05  0.2320386E+04  0.7818609E-02  0.8469926E-01
       -2   -1    0    0    0  501  0.00000000000E+00  0.00000000000E+00  0.91387259808E+03  0.91387259808E+03  0.25500000920E-02 0. -1.
        2   -1    0    0  501    0  0.00000000000E+00  0.00000000000E+00 -0.14729058160E+04  0.14729058160E+04  0.25500000920E-02 0.  1.
    10030    2    1    2    0    0  0.00000000000E+00  0.00000000000E+00 -0.55903321795E+03  0.23867784141E+04  0.23203864030E+04 0.  0.
        1    1    3    3  502    0  0.36081612494E+03 -0.97114324753E+03 -0.81670526116E+03  0.13192099783E+04  0.50400001928E-02 0.  1.
       -1    1    3    3    0  502 -0.36081612494E+03  0.97114324753E+03  0.25767204321E+03  0.10675684358E+04  0.50400001928E-02 0. -1.
</event>
<event>
 5   0  0.2031860E-05  0.2151892E+04  0.7818609E-02  0.8538723E-01
       -1   -1    0    0    0  501  0.00000000000E+00  0.00000000000E+00  0.11937671078E+04  0.11937671078E+04  0.50400001928E-02 0. -1.
        1   -1    0    0  501    0  0.00000000000E+00  0.00000000000E+00 -0.96975371290E+03  0.96975371291E+03  0.50400001928E-02 0.  1.
    10030    2    1    2    0    0  0.00000000000E+00  0.00000000000E+00  0.22401339493E+03  0.21635208207E+04  0.21518922698E+04 0.  0.
        4    1    3    3  502    0  0.64845583063E+03  0.54789585889E+02 -0.74945582596E+03  0.99256360551E+03  0.12699999809E+01 0.  1.
       -4    1    3    3    0  502 -0.64845583063E+03 -0.54789585889E+02  0.97346922090E+03  0.11709572152E+04  0.12699999809E+01 0. -1.
</event>
<event>
 5   0  0.1968318E-05  0.2299165E+04  0.7818609E-02  0.8478250E-01
       -1   -1    0    0    0  501  0.00000000000E+00  0.00000000000E+00  0.80870991126E+03  0.80870991127E+03  0.50400001928E-02 0. -1.
        1   -1    0    0  501    0  0.00000000000E+00  0.00000000000E+00 -0.16341336355E+04  0.16341336355E+04  0.50400001928E-02 0.  1.
    10030    2    1    2    0    0  0.00000000000E+00  0.00000000000E+00 -0.82542372421E+03  0.24428435467E+04  0.22991651244E+04 0.  0.
        3    1    3    3  502    0  0.94404357888E+02  0.74183517457E+03  0.51495246538E+03  0.90796897570E+03  0.10100000352E+00 0. -1.
       -3    1    3    3    0  502 -0.94404357888E+02 -0.74183517457E+03 -0.13403761896E+04  0.15348745710E+04  0.10100000352E+00 0.  1.
</event>
<event>
 5   0  0.2085063E-05  0.2365002E+04  0.7818609E-02  0.8452724E-01
       -1   -1    0    0    0  501  0.00000000000E+00  0.00000000000E+00  0.11365125883E+04  0.11365125883E+04  0.50400001928E-02 0.  1.
        1   -1    0    0  501    0  0.00000000000E+00  0.00000000000E+00 -0.12303502771E+04  0.12303502771E+04  0.50400001928E-02 0. -1.
    10030    2    1    2    0    0  0.00000000000E+00  0.00000000000E+00 -0.93837688812E+02  0.23668628654E+04  0.23650019686E+04 0.  0.
        1    1    3    3  502    0 -0.82156220008E+03 -0.73057919337E+03 -0.48269018202E+03  0.12007082153E+04  0.50400001928E-02 0.  1.
       -1    1    3    3    0  502  0.82156220008E+03  0.73057919337E+03  0.38885249321E+03  0.11661546501E+04  0.50400001928E-02 0. -1.
</event>
<event>
 5   0  0.4798609E-05  0.2283668E+04  0.7818609E-02  0.8484388E-01
       -2   -1    0    0    0  501  0.00000000000E+00  0.00000000000E+00  0.62096345531E+03  0.62096345531E+03  0.25500000920E-02 0.  1.
        2   -1    0    0  501    0  0.00000000000E+00  0.00000000000E+00 -0.20996163636E+04  0.20996163636E+04  0.25500000920E-02 0. -1.
    10030    2    1    2    0    0  0.00000000000E+00  0.00000000000E+00 -0.14786529083E+04  0.27205798189E+04  0.22836681300E+04 0.  0.
        2    1    3    3  502    0  0.10764334633E+04 -0.52941111628E+02 -0.11886820324E+04  0.16045176024E+04  0.25500000920E-02 0. -1.
       -2    1    3    3    0  502 -0.10764334633E+04  0.52941111628E+02 -0.28997087587E+03  0.11160622165E+04  0.25500000920E-02 0.  1.
</event>
<event>
 5   0  0.1968318E-05  0.2288864E+04  0.7818609E-02  0.8482325E-01
       -1   -1    0    0    0  501  0.00000000000E+00  0.00000000000E+00  0.84307786044E+03  0.84307786045E+03  0.50400001928E-02 0. -1.
        1   -1    0    0  501    0  0.00000000000E+00  0.00000000000E+00 -0.15535038608E+04  0.15535038608E+04  0.50400001928E-02 0.  1.
    10030    2    1    2    0    0  0.00000000000E+00  0.00000000000E+00 -0.71042600036E+03  0.23965817213E+04  0.22888640948E+04 0.  0.
        3    1    3    3  502    0  0.54610983574E+03 -0.71750551298E+03  0.38270517256E+03  0.97954753491E+03  0.10100000352E+00 0. -1.
       -3    1    3    3    0  502 -0.54610983574E+03  0.71750551298E+03 -0.10931311729E+04  0.14170341863E+04  0.10100000352E+00 0.  1.
</event>
<event>
 5   0  0.1604500E-05  0.2273842E+04  0.7818609E-02  0.8488307E-01
        4   -1    0    0  501    0  0.00000000000E+00  0.00000000000E+00  0.84843030677E+03  0.84843125729E+03  0.12699999809E+01 0. -1.
       -4   -1    0    0    0  501  0.00000000000E+00  0.00000000000E+00 -0.15235046919E+04  0.15235052212E+04  0.12699999809E+01 0.  1.
    10030    2    1    2    0    0  0.00000000000E+00  0.00000000000E+00 -0.67507438508E+03  0.23719364785E+04  0.22738419542E+04 0.  0.
        5    1    3    3  502    0  0.42133501096E+03 -0.37361802860E+02 -0.14383583641E+04  0.14992718130E+04  0.46999998093E+01 0.  1.
       -5    1    3    3    0  502 -0.42133501096E+03  0.37361802860E+02  0.76328397899E+03  0.87266466547E+03  0.46999998093E+01 0. -1.
</event>
<event>
 5   0  0.2031860E-05  0.2289080E+04  0.7818609E-02  0.8482239E-01
        1   -1    0    0  501    0  0.00000000000E+00  0.00000000000E+00  0.28034985169E+04  0.28034985169E+04  0.50400001928E-02 0.  1.
       -1   -1    0    0    0  501  0.00000000000E+00  0.00000000000E+00 -0.46726322109E+03  0.46726322112E+03  0.50400001928E-02 0. -1.
    10030    2    1    2    0    0  0.00000000000E+00  0.00000000000E+00  0.23362352958E+04  0.32707617380E+04  0.22890799439E+04 0.  0.
        4    1    3    3  502    0  0.73988615574E+03  0.68040323116E+03  0.38603681201E+03  0.10767572213E+04  0.12699999809E+01 0. -1.
       -4    1    3    3    0  502 -0.73988615574E+03 -0.68040323116E+03  0.19501984837E+04  0.21940045167E+04  0.12699999809E+01 0.  1.
</event>
<event>
 5   0  0.4605516E-05  0.2396600E+04  0.7818609E-02  0.8440778E-01
       -2   -1    0    0    0  501  0.00000000000E+00  0.00000000000E+00  0.75291744261E+03  0.75291744261E+03  0.25500000920E-02 0.  1.
        2   -1    0    0  501    0  0.00000000000E+00  0.00000000000E+00 -0.19071447357E+04  0.19071447357E+04  0.25500000920E-02 0. -1.
    10030    2    1    2    0    0  0.00000000000E+00  0.00000000000E+00 -0.11542272931E+04  0.26600621783E+04  0.23965997055E+04 0.  0.
        1    1    3    3  502    0  0.67062061260E+03 -0.59209674486E+03  0.30778253753E+03  0.94606588130E+03  0.50400001928E-02 0.  1.
       -1    1    3    3    0  502 -0.67062061260E+03  0.59209674486E+03 -0.14620098306E+04  0.17139962970E+04  0.50400001928E-02 0. -1.
</event>
<event>
 5   0  0.4602447E-05  0.2334105E+04  0.7818609E-02  0.8464594E-01
        2   -1    0    0  501    0  0.00000000000E+00  0.00000000000E+00  0.15475686820E+04  0.15475686820E+04  0.25500000920E-02 0. -1.
       -2   -1    0    0    0  501  0.00000000000E+00  0.00000000000E+00 -0.88009732242E+03  0.88009732242E+03  0.25500000920E-02 0.  1.
    10030    2    1    2    0    0  0.00000000000E+00  0.00000000000E+00  0.66747135956E+03  0.24276660044E+04  0.23341045849E+04 0.  0.
        3    1    3    3  502    0 -0.47701822569E+03 -0.26510133019E+03  0.14066804900E+04  0.15088323678E+04  0.10100000352E+00 0. -1.
       -3    1    3    3    0  502  0.47701822569E+03  0.26510133019E+03 -0.73920913049E+03  0.91883363658E+03  0.10100000352E+00 0.  1.
</event>
<event>
 5   0  0.2042951E-05  0.2352151E+04  0.7818609E-02  0.8457638E-01
        1   -1    0    0  501    0  0.00000000000E+00  0.00000000000E+00  0.10332270032E+04  0.10332270032E+04  0.50400001928E-02 0.  1.
       -1   -1    0    0    0  501  0.00000000000E+00  0.00000000000E+00 -0.13386732122E+04  0.13386732122E+04  0.50400001928E-02 0. -1.
    10030    2    1    2    0    0  0.00000000000E+00  0.00000000000E+00 -0.30544620902E+03  0.23719002154E+04  0.23521507701E+04 0.  0.
        2    1    3    3  502    0  0.53437155309E+03 -0.96616442991E+03  0.25580393769E+03  0.11333412182E+04  0.25500000920E-02 0.  1.
       -2    1    3    3    0  502 -0.53437155309E+03  0.96616442991E+03 -0.56125014671E+03  0.12385589972E+04  0.25500000920E-02 0. -1.
</event>
<event>
 5   0  0.2043885E-05  0.2310229E+04  0.7818609E-02  0.8473899E-01
        1   -1    0    0  501    0  0.00000000000E+00  0.00000000000E+00  0.16027921133E+04  0.16027921133E+04  0.50400001928E-02 0.  1.
       -1   -1    0    0    0  501  0.00000000000E+00  0.00000000000E+00 -0.83247847126E+03  0.83247847128E+03  0.50400001928E-02 0. -1.
    10030    2    1    2    0    0  0.00000000000E+00  0.00000000000E+00  0.77031364201E+03  0.24352705846E+04  0.23102293637E+04 0.  0.
        5    1    3    3  502    0 -0.18456660671E+03 -0.90857267613E+03  0.11114319024E+04  0.14473673010E+04  0.46999998093E+01 0.  1.
       -5    1    3    3    0  502  0.18456660671E+03  0.90857267613E+03 -0.34111826044E+03  0.98790328359E+03  0.46999998093E+01 0. -1.
</event>
<event>
 5   0  0.4436695E-05  0.2308406E+04  0.7818609E-02  0.8474614E-01
        2   -1    0    0  501    0  0.00000000000E+00  0.00000000000E+00  0.15924639407E+04  0.15924639407E+04  0.25500000920E-02 0.  1.
       -2   -1    0    0    0  501  0.00000000000E+00  0.00000000000E+00 -0.83655532373E+03  0.83655532373E+03  0.25500000920E-02 0. -1.
    10030    2    1    2    0    0  0.00000000000E+00  0.00000000000E+00  0.75590861700E+03  0.24290192645E+04  0.23084056727E+04 0.  0.
        5    1    3    3  502    0  0.66806086239E+02  0.47338156556E+03  0.14833720507E+04  0.15585146424E+04  0.46999998093E+01 0.  1.
       -5    1    3    3    0  502 -0.66806086239E+02 -0.47338156556E+03 -0.72746343367E+03  0.87050462210E+03  0.46999998093E+01 0. -1.
</event>
<event>
 5   0  0.4605516E-05  0.2299626E+04  0.7818609E-02  0.8478069E-01
       -2   -1    0    0    0  501  0.00000000000E+00  0.00000000000E+00  0.11201585040E+04  0.11201585040E+04  0.25500000920E-02 0.  1.
        2   -1    0    0  501    0  0.00000000000E+00  0.00000000000E+00 -0.11802522700E+04  0.11802522700E+04  0.25500000920E-02 0. -1.
    10030    2    1    2    0    0  0.00000000000E+00  0.00000000000E+00 -0.60093765976E+02  0.23004107741E+04  0.22996257236E+04 0.  0.
        1    1    3    3  502    0 -0.74178973540E+03  0.34438211369E+03 -0.83854217390E+03  0.11713257571E+04  0.50400001928E-02 0. -1.
       -1    1    3    3    0  502  0.74178973540E+03 -0.34438211369E+03  0.77844840792E+03  0.11290850170E+04  0.50400001928E-02 0.  1.
</event>
<event>
 5   0  0.1604500E-05  0.2155000E+04  0.7818609E-02  0.8537395E-01
        3   -1    0    0  501    0  0.00000000000E+00  0.00000000000E+00  0.17460810633E+04  0.17460810662E+04  0.10100000352E+00 0. -1.
       -3   -1    0    0    0  501  0.00000000000E+00  0.00000000000E+00 -0.66492122012E+03  0.66492122779E+03  0.10100000352E+00 0.  1.
    10030    2    1    2    0    0  0.00000000000E+00  0.00000000000E+00  0.10811598432E+04  0.24110022940E+04  0.21550001056E+04 0.  0.
        2    1    3    3  502    0  0.98673530519E+02 -0.72610366049E+03  0.14243874882E+04  0.16018248056E+04  0.25500000920E-02 0. -1.
       -2    1    3    3    0  502 -0.98673530519E+02  0.72610366049E+03 -0.34322764501E+03  0.80917748838E+03  0.25500000920E-02 0.  1.
</event>
<event>
 5   0  0.2031860E-05  0.2287699E+04  0.7818609E-02  0.8482787E-01
        1   -1    0    0  501    0  0.00000000000E+00  0.00000000000E+00  0.22829344872E+04  0.22829344872E+04  0.50400001928E-02 0. -1.
       -1   -1    0    0    0  501  0.00000000000E+00  0.00000000000E+00 -0.57311836044E+03  0.57311836046E+03  0.50400001928E-02 0.  1.
    10030    2    1    2    0    0  0.00000000000E+00  0.00000000000E+00  0.17098161267E+04  0.28560528476E+04  0.22876989927E+04 0.  0.
        4    1    3    3  502    0 -0.50113600618E+03  0.10167270999E+04  0.66344957988E+03  0.13134071152E+04  0.12699999809E+01 0.  1.
       -4    1    3    3    0  502  0.50113600618E+03 -0.10167270999E+04  0.10463665469E+04  0.15426457324E+04  0.12699999809E+01 0. -1.
</event>
<event>
 5   0  0.4505107E-05  0.2314339E+04  0.7818609E-02  0.8472289E-01
       -2   -1    0    0    0  501  0.00000000000E+00  0.00000000000E+00  0.92026400646E+03  0.92026400646E+03  0.25500000920E-02 0. -1.
        2   -1    0    0  501    0  0.00000000000E+00  0.00000000000E+00 -0.14550623154E+04  0.14550623154E+04  0.25500000920E-02 0.  1.
    10030    2    1    2    0    0  0.00000000000E+00  0.00000000000E+00 -0.53479830895E+03  0.23753263219E+04  0.23143391938E+04 0.  0.
        4    1    3    3  502    0  0.10450818211E+03 -0.92201806949E+03 -0.97699405209E+03  0.13474265365E+04  0.12699999809E+01 0.  1.
       -4    1    3    3    0  502 -0.10450818211E+03  0.92201806949E+03  0.44219574314E+03  0.10278997854E+04  0.12699999809E+01 0. -1.
</event>
<event>
 5   0  0.4602447E-05  0.2303802E+04  0.7818609E-02  0.8476424E-01
        2   -1    0    0  501    0  0.00000000000E+00  0.00000000000E+00  0.15317689424E+04  0.15317689424E+04  0.25500000920E-02 0.  1.
       -2   -1    0    0    0  501  0.00000000000E+00  0.00000000000E+00 -0.86623753589E+03  0.86623753590E+03  0.25500000920E-02 0. -1.
    10030    2    1    2    0    0  0.00000000000E+00  0.00000000000E+00  0.66553140649E+03  0.23980064783E+04  0.23038018615E+04 0.  0.
        3    1    3    3  502    0 -0.23653424693E+03 -0.49243283265E+03  0.13883529041E+04  0.14919659316E+04  0.10100000352E+00 0.  1.
       -3    1    3    3    0  502  0.23653424693E+03  0.49243283265E+03 -0.72282149758E+03  0.90604054667E+03  0.10100000352E+00 0. -1.
</event>
<event>
 5   0  0.4436695E-05  0.2298663E+04  0.7818609E-02  0.8478448E-01
        2   -1    0    0  501    0  0.00000000000E+00  0.00000000000E+00  0.11438946568E+04  0.11438946568E+04  0.25500000920E-02 0.  1.
       -2   -1    0    0    0  501  0.00000000000E+00  0.00000000000E+00 -0.11547943777E+04  0.11547943777E+04  0.25500000920E-02 0. -1.
    10030    2    1    2    0    0  0.00000000000E+00  0.00000000000E+00 -0.10899720897E+02  0.22986890344E+04  0.22986631926E+04 0.  0.
        5    1    3    3  502    0  0.73190272303E+03  0.88059480473E+03 -0.10450763555E+03  0.11498142206E+04  0.46999998093E+01 0. -1.
       -5    1    3    3    0  502 -0.73190272303E+03 -0.88059480473E+03  0.93607914656E+02  0.11488748138E+04  0.46999998093E+01 0.  1.
</event>
<event>
 5   0  0.4436695E-05  0.2290629E+04  0.7818609E-02  0.8481625E-01
        2   -1    0    0  501    0  0.00000000000E+00  0.00000000000E+00  0.19453981196E+04  0.19453981196E+04  0.25500000920E-02 0. -1.
       -2   -1    0    0    0  501  0.00000000000E+00  0.00000000000E+00 -0.67428131212E+03  0.67428131212E+03  0.25500000920E-02 0.  1.
    10030    2    1    2    0    0  0.00000000000E+00  0.00000000000E+00  0.12711168074E+04  0.26196794317E+04  0.22906292556E+04 0.  0.
        5    1    3    3  502    0 -0.92017111784E+03 -0.25270527327E+03 -0.88787524137E+02  0.95837370356E+03  0.46999998093E+01 0.  1.
       -5    1    3    3    0  502  0.92017111784E+03  0.25270527327E+03  0.13599043316E+04  0.16613057281E+04  0.46999998093E+01 0. -1.
</event>
<event>
 5   0  0.4436695E-05  0.2314414E+04  0.7818609E-02  0.8472260E-01
       -2   -1    0    0    0  501  0.00000000000E+00  0.00000000000E+00  0.90278162661E+03  0.90278162662E+03  0.25500000920E-02 0.  1.
        2   -1    0    0  501    0  0.00000000000E+00  0.00000000000E+00 -0.14833349212E+04  0.14833349212E+04  0.25500000920E-02 0. -1.
    10030    2    1    2    0    0  0.00000000000E+00  0.00000000000E+00 -0.58055329458E+03  0.23861165478E+04  0.23144135438E+04 0.  0.
        5    1    3    3  502    0  0.82524763958E+03 -0.75884450106E+03  0.53593619070E+01  0.11211286528E+04  0.46999998093E+01 0.  1.
       -5    1    3    3    0  502 -0.82524763958E+03  0.75884450106E+03 -0.58591265649E+03  0.12649878950E+04  0.46999998093E+01 0. -1.
</event>
<event>
 5   0  0.2043885E-05  0.2297135E+04  0.7818609E-02  0.8479052E-01
        1   -1    0    0  501    0  0.00000000000E+00  0.00000000000E+00  0.17194700377E+04  0.17194700377E+04  0.50400001928E-02 0. -1.
       -1   -1    0    0    0  501  0.00000000000E+00  0.00000000000E+00 -0.76721714953E+03  0.76721714954E+03  0.50400001928E-02 0.  1.
    10030    2    1    2    0    0  0.00000000000E+00  0.00000000000E+00  0.95225288821E+03  0.24866871873E+04  0.22971346509E+04 0.  0.
        5    1    3    3  502    0 -0.46557387170E+03 -0.30843069392E+02  0.16122404784E+04  0.16784075116E+04  0.46999998093E+01 0. -1.
       -5    1    3    3    0  502  0.46557387170E+03  0.30843069392E+02 -0.65998759016E+03  0.80827967567E+03  0.46999998093E+01 0.  1.
</event>
<event>
 5   0  0.4605516E-05  0.2270365E+04  0.7818609E-02  0.8489698E-01
       -2   -1    0    0    0  501  0.00000000000E+00  0.00000000000E+00  0.14831743964E+04  0.14831743964E+04  0.25500000920E-02 0.  1.
        2   -1    0    0  501    0  0.00000000000E+00  0.00000000000E+00 -0.86883849179E+03  0.86883849179E+03  0.25500000920E-02 0. -1.
    10030    2    1    2    0    0  0.00000000000E+00  0.00000000000E+00  0.61433590460E+03  0.23520128882E+04  0.22703647334E+04 0.  0.
        1    1    3    3  502    0 -0.32063308378E+02 -0.11320110633E+04  0.22584718355E+03  0.11547658003E+04  0.50400001928E-02 0.  1.
       -1    1    3    3    0  502  0.32063308378E+02  0.11320110633E+04  0.38848872105E+03  0.11972470879E+04  0.50400001928E-02 0. -1.
</event>
<event>
 5   0  0.2042951E-05  0.2289378E+04  0.7818609E-02  0.8482121E-01
        1   -1    0    0  501    0  0.00000000000E+00  0.00000000000E+00  0.12244201916E+04  0.12244201916E+04  0.50400001928E-02 0.  1.
       -1   -1    0    0    0  501  0.00000000000E+00  0.00000000000E+00 -0.10701500084E+04  0.10701500084E+04  0.50400001928E-02 0. -1.
    10030    2    1    2    0    0  0.00000000000E+00  0.00000000000E+00  0.15427018317E+03  0.22945702000E+04  0.22893783246E+04 0.  0.
        2    1    3    3  502    0  0.95029893823E+02  0.60794703190E+03 -0.89029116191E+03  0.10822424069E+04  0.25500000920E-02 0. -1.
       -2    1    3    3    0  502 -0.95029893823E+02 -0.60794703190E+03  0.10445613451E+04  0.12123277931E+04  0.25500000920E-02 0.  1.
</event>
<event>
 5   0  0.2042951E-05  0.2306467E+04  0.7818609E-02  0.8475376E-01
        1   -1    0    0  501    0  0.00000000000E+00  0.00000000000E+00  0.25889616337E+04  0.25889616337E+04  0.50400001928E-02 0.  1.
       -1   -1    0    0    0  501  0.00000000000E+00  0.00000000000E+00 -0.51369933524E+03  0.51369933526E+03  0.50400001928E-02 0. -1.
    10030    2    1    2    0    0  0.00000000000E+00  0.00000000000E+00  0.20752622985E+04  0.31026609690E+04  0.23064673163E+04 0.  0.
        2    1    3    3  502    0  0.86096037021E+03  0.45119125260E+03  0.20282442945E+03  0.99295722701E+03  0.25500000920E-02 0. -1.
       -2    1    3    3    0  502 -0.86096037021E+03 -0.45119125260E+03  0.18724378690E+04  0.21097037419E+04  0.25500000920E-02 0.  1.
</event>
<event>
 5   0  0.1968318E-05  0.2297126E+04  0.7818609E-02  0.8479055E-01
       -1   -1    0    0    0  501  0.00000000000E+00  0.00000000000E+00  0.12562799466E+04  0.12562799466E+04  0.50400001928E-02 0.  1.
        1   -1    0    0  501    0  0.00000000000E+00  0.00000000000E+00 -0.10500819428E+04  0.10500819428E+04  0.50400001928E-02 0. -1.
    10030    2    1    2    0    0  0.00000000000E+00  0.00000000000E+00  0.20619800382E+03  0.23063618894E+04  0.22971259321E+04 0.  0.
        3    1    3    3  502    0 -0.17277050130E+02 -0.58784517372E+03 -0.88744583411E+03  0.10646222632E+04  0.10100000352E+00 0. -1.
       -3    1    3    3    0  502  0.17277050130E+02  0.58784517372E+03  0.10936438379E+04  0.12417396262E+04  0.10100000352E+00 0.  1.
</event>
<event>
 5   0  0.4605516E-05  0.2300223E+04  0.7818609E-02  0.8477833E-01
        2   -1    0    0  501    0  0.00000000000E+00  0.00000000000E+00  0.14832259491E+04  0.14832259491E+04  0.25500000920E-02 0.  1.
       -2   -1    0    0    0  501  0.00000000000E+00  0.00000000000E+00 -0.89181046083E+03  0.89181046083E+03  0.25500000920E-02 0. -1.
    10030    2    1    2    0    0  0.00000000000E+00  0.00000000000E+00  0.59141548824E+03  0.23750364099E+04  0.23002229606E+04 0.  0.
        1    1    3    3  502    0  0.31009293447E+02  0.48529095071E+02  0.14817362366E+04  0.14828549910E+04  0.50400001928E-02 0.  1.
       -1    1    3    3    0  502 -0.31009293447E+02 -0.48529095071E+02 -0.89032074835E+03  0.89218141895E+03  0.50400001928E-02 0. -1.
</event>
<event>
 5   0  0.2031860E-05  0.2316240E+04  0.7818609E-02  0.8471546E-01
        1   -1    0    0  501    0  0.00000000000E+00  0.00000000000E+00  0.93480972370E+03  0.93480972371E+03  0.50400001928E-02 0. -1.
       -1   -1    0    0    0  501  0.00000000000E+00  0.00000000000E+00 -0.14347747526E+04  0.14347747526E+04  0.50400001928E-02 0.  1.
    10030    2    1    2    0    0  0.00000000000E+00  0.00000000000E+00 -0.49996502885E+03  0.23695844763E+04  0.23162395300E+04 0.  0.
        4    1    3    3  502    0 -0.48517364565E+03  0.15291118557E+03  0.81439466355E+03  0.96021642249E+03  0.12699999809E+01 0. -1.
       -4    1    3    3    0  502  0.48517364565E+03 -0.15291118557E+03 -0.13143596924E+04  0.14093680538E+04  0.12699999809E+01 0.  1.
</event>
<event>
 5   0  0.2031860E-05  0.2284071E+04  0.7818609E-02  0.8484228E-01
       -1   -1    0    0    0  501  0.00000000000E+00  0.00000000000E+00  0.12748740743E+04  0.12748740743E+04  0.50400001928E-02 0.  1.
        1   -1    0    0  501    0  0.00000000000E+00  0.00000000000E+00 -0.10230382651E+04  0.10230382651E+04  0.50400001928E-02 0. -1.
    10030    2    1    2    0    0  0.00000000000E+00  0.00000000000E+00  0.25183580927E+03  0.22979123394E+04  0.22840708931E+04 0.  0.
        4    1    3    3  502    0 -0.58595319738E+03 -0.58925206472E+03  0.91404516570E+03  0.12353296415E+04  0.12699999809E+01 0.  1.
       -4    1    3    3    0  502  0.58595319738E+03  0.58925206472E+03 -0.66220935643E+03  0.10625826979E+04  0.12699999809E+01 0. -1.
</event>
<event>
 5   0  0.2043885E-05  0.2342997E+04  0.7818609E-02  0.8461159E-01
       -1   -1    0    0    0  501  0.00000000000E+00  0.00000000000E+00  0.13448698948E+04  0.13448698948E+04  0.50400001928E-02 0.  1.
        1   -1    0    0  501    0  0.00000000000E+00  0.00000000000E+00 -0.10204765759E+04  0.10204765759E+04  0.50400001928E-02 0. -1.
    10030    2    1    2    0    0  0.00000000000E+00  0.00000000000E+00  0.32439331890E+03  0.23653464707E+04  0.23429965645E+04 0.  0.
        5    1    3    3  502    0 -0.24668526710E+03  0.96930867387E+03 -0.45351721941E+03  0.10982317080E+04  0.46999998093E+01 0. -1.
       -5    1    3    3    0  502  0.24668526710E+03 -0.96930867387E+03  0.77791053831E+03  0.12671147627E+04  0.46999998093E+01 0.  1.
</event>
<event>
 5   0  0.4798609E-05  0.2146630E+04  0.7818609E-02  0.8540976E-01
        2   -1    0    0  501    0  0.00000000000E+00  0.00000000000E+00  0.18442914605E+04  0.18442914605E+04  0.25500000920E-02 0. -1.
       -2   -1    0    0    0  501  0.00000000000E+00  0.00000000000E+00 -0.62463275778E+03  0.62463275779E+03  0.25500000920E-02 0.  1.
    10030    2    1    2    0    0  0.00000000000E+00  0.00000000000E+00  0.12196587027E+04  0.24689242183E+04  0.21466297875E+04 0.  0.
        2    1    3    3  502    0 -0.21226082270E+03  0.98270078477E+03  0.17757052405E+03  0.10209244733E+04  0.25500000920E-02 0.  1.
       -2    1    3    3    0  502  0.21226082270E+03 -0.98270078477E+03  0.10420881786E+04  0.14479997449E+04  0.25500000920E-02 0. -1.
</event>
<event>
 5   0  0.4505107E-05  0.2044290E+04  0.7818609E-02  0.8586189E-01
       -2   -1    0    0    0  501  0.00000000000E+00  0.00000000000E+00  0.80910206214E+03  0.80910206214E+03  0.25500000920E-02 0.  1.
        2   -1    0    0  501    0  0.00000000000E+00  0.00000000000E+00 -0.12912839353E+04  0.12912839353E+04  0.25500000920E-02 0. -1.
    10030    2    1    2    0    0  0.00000000000E+00  0.00000000000E+00 -0.48218187319E+03  0.21003859975E+04  0.20442900918E+04 0.  0.
        4    1    3    3  502    0 -0.96654456513E+01 -0.61648006997E+03 -0.10787149207E+04  0.12424848452E+04  0.12699999809E+01 0. -1.
       -4    1    3    3    0  502  0.96654456513E+01  0.61648006997E+03  0.59653304747E+03  0.85790115231E+03  0.12699999809E+01 0.  1.
</event>
<event>
 5   0  0.4436695E-05  0.2320719E+04  0.7818609E-02  0.8469796E-01
        2   -1    0    0  501    0  0.00000000000E+00  0.00000000000E+00  0.13658108213E+04  0.13658108213E+04  0.25500000920E-02 0.  1.
       -2   -1    0    0    0  501  0.00000000000E+00  0.00000000000E+00 -0.98581306202E+03  0.98581306202E+03  0.25500000920E-02 0. -1.
    10030    2    1    2    0    0  0.00000000000E+00  0.00000000000E+00  0.37999775924E+03  0.23516238833E+04  0.23207189816E+04 0.  0.
        5    1    3    3  502    0  0.10791491275E+04 -0.38298170977E+03  0.38004438247E+03  0.12065213020E+04  0.46999998093E+01 0.  1.
       -5    1    3    3    0  502 -0.10791491275E+04  0.38298170977E+03 -0.46623227465E-01  0.11451025813E+04  0.46999998093E+01 0. -1.
</event>
<event>
 5   0  0.4602447E-05  0.2152321E+04  0.7818609E-02  0.8538539E-01
       -2   -1    0    0    0  501  0.00000000000E+00  0.00000000000E+00  0.99213532367E+03  0.99213532368E+03  0.25500000920E-02 0.  1.
        2   -1    0    0  501    0  0.00000000000E+00  0.00000000000E+00 -0.11673019889E+04  0.11673019889E+04  0.25500000920E-02 0. -1.
    10030    2    1    2    0    0  0.00000000000E+00  0.00000000000E+00 -0.17516666519E+03  0.21594373125E+04  0.21523211067E+04 0.  0.
        3    1    3    3  502    0 -0.24896923405E+03  0.10082301643E+04  0.19549804495E+03  0.10567559981E+04  0.10100000352E+00 0.  1.
       -3    1    3    3    0  502  0.24896923405E+03 -0.10082301643E+04 -0.37066471014E+03  0.11026813145E+04  0.10100000352E+00 0. -1.
</event>
<event>
 5   0  0.4436695E-05  0.2278058E+04  0.7818609E-02  0.8486623E-01
       -2   -1    0    0    0  501  0.00000000000E+00  0.00000000000E+00  0.20340686624E+04  0.20340686624E+04  0.25500000920E-02 0. -1.
        2   -1    0    0  501    0  0.00000000000E+00  0.00000000000E+00 -0.63782877765E+03  0.63782877765E+03  0.25500000920E-02 0.  1.
    10030    2    1    2    0    0  0.00000000000E+00  0.00000000000E+00  0.13962398848E+04  0.26718974401E+04  0.22780584089E+04 0.  0.
        5    1    3    3  502    0  0.35755121241E+03  0.90368028612E+03  0.13791691926E+01  0.97185643031E+03  0.46999998093E+01 0.  1.
       -5    1    3    3    0  502 -0.35755121241E+03 -0.90368028612E+03  0.13948607156E+04  0.17000410098E+04  0.46999998093E+01 0. -1.
</event>
<event>
 5   0  0.4798609E-05  0.2292033E+04  0.7818609E-02  0.8481069E-01
       -2   -1    0    0    0  501  0.00000000000E+00  0.00000000000E+00  0.97458558291E+03  0.97458558291E+03  0.25500000920E-02 0.  1.
        2   -1    0    0  501    0  0.00000000000E+00  0.00000000000E+00 -0.13476019380E+04  0.13476019380E+04  0.25500000920E-02 0. -1.
    10030    2    1    2    0    0  0.00000000000E+00  0.00000000000E+00 -0.37301635510E+03  0.23221875209E+04  0.22920326527E+04 0.  0.
        2    1    3    3  502    0  0.65619599760E+03 -0.54432823109E+03 -0.96239482868E+03  0.12857255604E+04  0.25500000920E-02 0. -1.
       -2    1    3    3    0  502 -0.65619599760E+03  0.54432823109E+03  0.58937847359E+03  0.10364619605E+04  0.25500000920E-02 0.  1.
</event>
<event>
 5   0  0.2085063E-05  0.2258503E+04  0.7818609E-02  0.8494465E-01
        1   -1    0    0  501    0  0.00000000000E+00  0.00000000000E+00  0.11791881016E+04  0.11791881016E+04  0.50400001928E-02 0.  1.
       -1   -1    0    0    0  501  0.00000000000E+00  0.00000000000E+00 -0.10814293511E+04  0.10814293511E+04  0.50400001928E-02 0. -1.
    10030    2    1    2    0    0  0.00000000000E+00  0.00000000000E+00  0.97758750567E+02  0.22606174527E+04  0.22585027107E+04 0.  0.
        1    1    3    3  502    0  0.56923497787E+03  0.48837989092E+03  0.89386486288E+03  0.11668495066E+04  0.50400001928E-02 0.  1.
       -1    1    3    3    0  502 -0.56923497787E+03 -0.48837989092E+03 -0.79610611231E+03  0.10937679461E+04  0.50400001928E-02 0. -1.
</event>
<event>
 5   0  0.2031860E-05  0.2256911E+04  0.7818609E-02  0.8495107E-01
       -1   -1    0    0    0  501  0.00000000000E+00  0.00000000000E+00  0.49274413057E+03  0.49274413060E+03  0.50400001928E-02 0.  1.
        1   -1    0    0  501    0  0.00000000000E+00  0.00000000000E+00 -0.25843257641E+04  0.25843257641E+04  0.50400001928E-02 0. -1.
    10030    2    1    2    0    0  0.00000000000E+00  0.00000000000E+00 -0.20915816335E+04  0.30770698947E+04  0.22569105891E+04 0.  0.
        4    1    3    3  502    0 -0.44907058166E+03 -0.29921088133E+03 -0.23970137128E+04  0.24570038444E+04  0.12699999809E+01 0. -1.
       -4    1    3    3    0  502  0.44907058166E+03  0.29921088133E+03  0.30543207930E+03  0.62006605034E+03  0.12699999809E+01 0.  1.
</event>
<event>
 5   0  0.4505107E-05  0.2297833E+04  0.7818609E-02  0.8478776E-01
       -2   -1    0    0    0  501  0.00000000000E+00  0.00000000000E+00  0.88261377876E+03  0.88261377876E+03  0.25500000920E-02 0.  1.
        2   -1    0    0  501    0  0.00000000000E+00  0.00000000000E+00 -0.14955682439E+04  0.14955682439E+04  0.25500000920E-02 0. -1.
    10030    2    1    2    0    0  0.00000000000E+00  0.00000000000E+00 -0.61295446515E+03  0.23781820227E+04  0.22978330132E+04 0.  0.
        4    1    3    3  502    0 -0.89092127933E+03  0.48029407252E+03 -0.86916488488E+03  0.13341185600E+04  0.12699999809E+01 0. -1.
       -4    1    3    3    0  502  0.89092127933E+03 -0.48029407252E+03  0.25621041972E+03  0.10440634627E+04  0.12699999809E+01 0.  1.
</event>
<event>
 5   0  0.4505107E-05  0.2259498E+04  0.7818609E-02  0.8494064E-01
        2   -1    0    0  501    0  0.00000000000E+00  0.00000000000E+00  0.11775212519E+04  0.11775212519E+04  0.25500000920E-02 0.  1.
       -2   -1    0    0    0  501  0.00000000000E+00  0.00000000000E+00 -0.10839152145E+04  0.10839152145E+04  0.25500000920E-02 0. -1.
    10030    2    1    2    0    0  0.00000000000E+00  0.00000000000E+00  0.93606037366E+02  0.22614364665E+04  0.22594983518E+04 0.  0.
        4    1    3    3  502    0  0.22100378049E+02 -0.94384835822E+03 -0.57420759893E+03  0.11050131807E+04  0.12699999809E+01 0. -1.
       -4    1    3    3    0  502 -0.22100378049E+02  0.94384835822E+03  0.66781363630E+03  0.11564232857E+04  0.12699999809E+01 0.  1.
</event>
<event>
 5   0  0.2042951E-05  0.2303987E+04  0.7818609E-02  0.8476351E-01
       -1   -1    0    0    0  501  0.00000000000E+00  0.00000000000E+00  0.66706281010E+03  0.66706281012E+03  0.50400001928E-02 0. -1.
        1   -1    0    0  501    0  0.00000000000E+00  0.00000000000E+00 -0.19894510438E+04  0.19894510438E+04  0.50400001928E-02 0.  1.
    10030    2    1    2    0    0  0.00000000000E+00  0.00000000000E+00 -0.13223882337E+04  0.26565138539E+04  0.23039868089E+04 0.  0.
        2    1    3    3  502    0  0.10793781764E+04  0.13204210063E+03 -0.22275338194E+03  0.11100051500E+04  0.25500000920E-02 0. -1.
       -2    1    3    3    0  502 -0.10793781764E+04 -0.13204210063E+03 -0.10996348517E+04  0.15465087039E+04  0.25500000920E-02 0.  1.
</event>
<event>
 5   0  0.2042951E-05  0.2298698E+04  0.7818609E-02  0.8478435E-01
        1   -1    0    0  501    0  0.00000000000E+00  0.00000000000E+00  0.19685927073E+04  0.19685927073E+04  0.50400001928E-02 0.  1.
       -1   -1    0    0    0  501  0.00000000000E+00  0.00000000000E+00 -0.67103917166E+03  0.67103917168E+03  0.50400001928E-02 0. -1.
    10030    2    1    2    0    0  0.00000000000E+00  0.00000000000E+00  0.12975535356E+04  0.26396318790E+04  0.22986977354E+04 0.  0.
        2    1    3    3  502    0 -0.66135597810E+03 -0.16594640803E+02  0.17280325648E+04  0.18503414974E+04  0.25500000920E-02 0.  1.
       -2    1    3    3    0  502  0.66135597810E+03  0.16594640803E+02 -0.43047902920E+03  0.78929038158E+03  0.25500000920E-02 0. -1.
</event>
<event>
 5   0  0.4798609E-05  0.2098948E+04  0.7818609E-02  0.8561707E-01
       -2   -1    0    0    0  501  0.00000000000E+00  0.00000000000E+00  0.85731912802E+03  0.85731912803E+03  0.25500000920E-02 0.  1.
        2   -1    0    0  501    0  0.00000000000E+00  0.00000000000E+00 -0.12846977950E+04  0.12846977950E+04  0.25500000920E-02 0. -1.
    10030    2    1    2    0    0  0.00000000000E+00  0.00000000000E+00 -0.42737866693E+03  0.21420169230E+04  0.20989483017E+04 0.  0.
        2    1    3    3  502    0  0.27821630178E+03 -0.26033419179E+03 -0.12116181550E+04  0.12701168275E+04  0.25500000920E-02 0. -1.
       -2    1    3    3    0  502 -0.27821630178E+03  0.26033419179E+03  0.78423948802E+03  0.87190009552E+03  0.25500000920E-02 0.  1.
</event>
<event>
 5   0  0.4602447E-05  0.2284550E+04  0.7818609E-02  0.8484038E-01
       -2   -1    0    0    0  501  0.00000000000E+00  0.00000000000E+00  0.67566489173E+03  0.67566489174E+03  0.25500000920E-02 0.  1.
        2   -1    0    0  501    0  0.00000000000E+00  0.00000000000E+00 -0.19311235621E+04  0.19311235621E+04  0.25500000920E-02 0. -1.
    10030    2    1    2    0    0  0.00000000000E+00  0.00000000000E+00 -0.12554586703E+04  0.26067884538E+04  0.22845501898E+04 0.  0.
        3    1    3    3  502    0 -0.63130751181E+03  0.90945501222E+03 -0.94871734364E+03  0.14579856659E+04  0.10100000352E+00 0.  1.
       -3    1    3    3    0  502  0.63130751181E+03 -0.90945501222E+03 -0.30674132669E+03  0.11488027879E+04  0.10100000352E+00 0. -1.
</event>
<event>
 5   0  0.4798609E-05  0.2291319E+04  0.7818609E-02  0.8481352E-01
       -2   -1    0    0    0  501  0.00000000000E+00  0.00000000000E+00  0.82020845007E+03  0.82020845008E+03  0.25500000920E-02 0.  1.
        2   -1    0    0  501    0  0.00000000000E+00  0.00000000000E+00 -0.16002471232E+04  0.16002471232E+04  0.25500000920E-02 0. -1.
    10030    2    1    2    0    0  0.00000000000E+00  0.00000000000E+00 -0.78003867308E+03  0.24204555732E+04  0.22913194562E+04 0.  0.
        2    1    3    3  502    0 -0.72817412904E+03  0.87719857321E+03 -0.27040651536E+03  0.11716802391E+04  0.25500000920E-02 0. -1.
       -2    1    3    3    0  502  0.72817412904E+03 -0.87719857321E+03 -0.50963215772E+03  0.12487753342E+04  0.25500000920E-02 0.  1.
</event>
<event>
 5   0  0.4605516E-05  0.2300209E+04  0.7818609E-02  0.8477839E-01
       -2   -1    0    0    0  501  0.00000000000E+00  0.00000000000E+00  0.13685108497E+04  0.13685108497E+04  0.25500000920E-02 0. -1.
        2   -1    0    0  501    0  0.00000000000E+00  0.00000000000E+00 -0.96655433007E+03  0.96655433007E+03  0.25500000920E-02 0.  1.
    10030    2    1    2    0    0  0.00000000000E+00  0.00000000000E+00  0.40195651965E+03  0.23350651798E+04  0.23002087623E+04 0.  0.
        1    1    3    3  502    0  0.94892579213E+03  0.30817235319E+03 -0.37980115084E+03  0.10675576202E+04  0.50400001928E-02 0.  1.
       -1    1    3    3    0  502 -0.94892579213E+03 -0.30817235319E+03  0.78175767049E+03  0.12675075596E+04  0.50400001928E-02 0. -1.
</event>
<event>
 5   0  0.2043885E-05  0.2301377E+04  0.7818609E-02  0.8477378E-01
       -1   -1    0    0    0  501  0.00000000000E+00  0.00000000000E+00  0.10666842849E+04  0.10666842849E+04  0.50400001928E-02 0. -1.
        1   -1    0    0  501    0  0.00000000000E+00  0.00000000000E+00 -0.12413080372E+04  0.12413080372E+04  0.50400001928E-02 0.  1.
    10030    2    1    2    0    0  0.00000000000E+00  0.00000000000E+00 -0.17462375232E+03  0.23079923221E+04  0.23013767844E+04 0.  0.
        5    1    3    3  502    0 -0.10460740642E+04 -0.47866883313E+03 -0.61413499458E+02  0.11520366780E+04  0.46999998093E+01 0. -1.
       -5    1    3    3    0  502  0.10460740642E+04  0.47866883313E+03 -0.11321025286E+03  0.11559556440E+04  0.46999998093E+01 0.  1.
</event>
<event>
 5   0  0.4436695E-05  0.2306844E+04  0.7818609E-02  0.8475227E-01
       -2   -1    0    0    0  501  0.00000000000E+00  0.00000000000E+00  0.70327871310E+03  0.70327871311E+03  0.25500000920E-02 0.  1.
        2   -1    0    0  501    0  0.00000000000E+00  0.00000000000E+00 -0.18916861326E+04  0.18916861326E+04  0.25500000920E-02 0. -1.
    10030    2    1    2    0    0  0.00000000000E+00  0.00000000000E+00 -0.11884074195E+04  0.25949648458E+04  0.23068442418E+04 0.  0.
        5    1    3    3  502    0  0.11661359167E+01 -0.39850584707E+03  0.62336655744E+03  0.73987581725E+03  0.46999998093E+01 0.  1.
       -5    1    3    3    0  502 -0.11661359167E+01  0.39850584707E+03 -0.18117739770E+04  0.18550890285E+04  0.46999998093E+01 0. -1.
</event>
<event>
 5   0  0.4505107E-05  0.2310770E+04  0.7818609E-02  0.8473687E-01
        2   -1    0    0  501    0  0.00000000000E+00  0.00000000000E+00  0.13192201509E+04  0.13192201509E+04  0.25500000920E-02 0.  1.
       -2   -1    0    0    0  501  0.00000000000E+00  0.00000000000E+00 -0.10118963981E+04  0.10118963981E+04  0.25500000920E-02 0. -1.
    10030    2    1    2    0    0  0.00000000000E+00  0.00000000000E+00  0.30732375282E+03  0.23311165490E+04  0.23107696718E+04 0.  0.
        4    1    3    3  502    0  0.84500871829E+03  0.78783949858E+03  0.14006369898E+03  0.11637655529E+04  0.12699999809E+01 0.  1.
       -4    1    3    3    0  502 -0.84500871829E+03 -0.78783949858E+03  0.16726005384E+03  0.11673509961E+04  0.12699999809E+01 0. -1.
</event>
<event>
 5   0  0.4798609E-05  0.2306883E+04  0.7818609E-02  0.8475212E-01
       -2   -1    0    0    0  501  0.00000000000E+00  0.00000000000E+00  0.59985047355E+03  0.59985047355E+03  0.25500000920E-02 0. -1.
        2   -1    0    0  501    0  0.00000000000E+00  0.00000000000E+00 -0.22179310915E+04  0.22179310915E+04  0.25500000920E-02 0.  1.
    10030    2    1    2    0    0  0.00000000000E+00  0.00000000000E+00 -0.16180806180E+04  0.28177815651E+04  0.23068827587E+04 0.  0.
        2    1    3    3  502    0  0.11093203813E+04  0.24731892802E+03 -0.10492338552E+04  0.15468193312E+04  0.25500000920E-02 0.  1.
       -2    1    3    3    0  502 -0.11093203813E+04 -0.24731892802E+03 -0.56884676275E+03  0.12709622339E+04  0.25500000920E-02 0. -1.
</event>
<event>
 5   0  0.1968318E-05  0.2299600E+04  0.7818609E-02  0.8478079E-01
       -1   -1    0    0    0  501  0.00000000000E+00  0.00000000000E+00  0.77213596162E+03  0.77213596163E+03  0.50400001928E-02 0. -1.
        1   -1    0    0  501    0  0.00000000000E+00  0.00000000000E+00 -0.17121848833E+04  0.17121848833E+04  0.50400001928E-02 0.  1.
    10030    2    1    2    0    0  0.00000000000E+00  0.00000000000E+00 -0.94004892164E+03  0.24843208449E+04  0.22995995489E+04 0.  0.
        3    1    3    3  502    0  0.10974608742E+04  0.28189856203E+03 -0.25900813053E+03  0.11623133793E+04  0.10100000352E+00 0. -1.
       -3    1    3    3    0  502 -0.10974608742E+04 -0.28189856203E+03 -0.68104079112E+03  0.13220074656E+04  0.10100000352E+00 0.  1.
</event>
<event>
 5   0  0.2043885E-05  0.2308070E+04  0.7818609E-02  0.8474746E-01
       -1   -1    0    0    0  501  0.00000000000E+00  0.00000000000E+00  0.11474578115E+04  0.11474578115E+04  0.50400001928E-02 0.  1.
        1   -1    0    0  501    0  0.00000000000E+00  0.00000000000E+00 -0.11606497792E+04  0.11606497792E+04  0.50400001928E-02 0. -1.
    10030    2    1    2    0    0  0.00000000000E+00  0.00000000000E+00 -0.13191967625E+02  0.23081075907E+04  0.23080698911E+04 0.  0.
        5    1    3    3  502    0 -0.65519138501E+03 -0.86843616552E+03 -0.39172230885E+03  0.11562549813E+04  0.46999998093E+01 0. -1.
       -5    1    3    3    0  502  0.65519138501E+03  0.86843616552E+03  0.37853034122E+03  0.11518526094E+04  0.46999998093E+01 0.  1.
</event>
<event>
 5   0  0.4605516E-05  0.2310245E+04  0.7818609E-02  0.8473893E-01
       -2   -1    0    0    0  501  0.00000000000E+00  0.00000000000E+00  0.86050228074E+03  0.86050228075E+03  0.25500000920E-02 0.  1.
        2   -1    0    0  501    0  0.00000000000E+00  0.00000000000E+00 -0.15506151161E+04  0.15506151161E+04  0.25500000920E-02 0. -1.
    10030    2    1    2    0    0  0.00000000000E+00  0.00000000000E+00 -0.69011283535E+03  0.24111173968E+04  0.23102448736E+04 0.  0.
        1    1    3    3  502    0  0.41696219615E+03 -0.52916325564E+03  0.63422923158E+03  0.92526641696E+03  0.50400001928E-02 0.  1.
       -1    1    3    3    0  502 -0.41696219615E+03  0.52916325564E+03 -0.13243420669E+04  0.14858509799E+04  0.50400001928E-02 0. -1.
</event>
<event>
 5   0  0.4436695E-05  0.2185985E+04  0.7818609E-02  0.8524284E-01
       -2   -1    0    0    0  501  0.00000000000E+00  0.00000000000E+00  0.86413420027E+03  0.86413420028E+03  0.25500000920E-02 0.  1.
        2   -1    0    0  501    0  0.00000000000E+00  0.00000000000E+00 -0.13824614428E+04  0.13824614429E+04  0.25500000920E-02 0. -1.
    10030    2    1    2    0    0  0.00000000000E+00  0.00000000000E+00 -0.51832724258E+03  0.22465956431E+04  0.21859846416E+04 0.  0.
        5    1    3    3  502    0  0.19079827080E+03 -0.78487180906E+02  0.84393082576E+03  0.86879545716E+03  0.46999998093E+01 0.  1.
       -5    1    3    3    0  502 -0.19079827080E+03  0.78487180906E+02 -0.13622580683E+04  0.13778001860E+04  0.46999998093E+01 0. -1.
</event>
<event>
 5   0  0.4436695E-05  0.2155941E+04  0.7818609E-02  0.8536994E-01
       -2   -1    0    0    0  501  0.00000000000E+00  0.00000000000E+00  0.20705550244E+04  0.20705550244E+04  0.25500000920E-02 0. -1.
        2   -1    0    0  501    0  0.00000000000E+00  0.00000000000E+00 -0.56121195828E+03  0.56121195829E+03  0.25500000920E-02 0.  1.
    10030    2    1    2    0    0  0.00000000000E+00  0.00000000000E+00  0.15093430661E+04  0.26317669827E+04  0.21559408526E+04 0.  0.
        5    1    3    3  502    0  0.47585165076E+03 -0.25157356969E+03  0.18947561339E+04  0.19697327107E+04  0.46999998093E+01 0. -1.
       -5    1    3    3    0  502 -0.47585165076E+03  0.25157356969E+03 -0.38541306780E+03  0.66203427202E+03  0.46999998093E+01 0.  1.
</event>
<event>
 5   0  0.2031860E-05  0.2264333E+04  0.7818609E-02  0.8492118E-01
        1   -1    0    0  501    0  0.00000000000E+00  0.00000000000E+00  0.21072627784E+04  0.21072627784E+04  0.50400001928E-02 0. -1.
       -1   -1    0    0    0  501  0.00000000000E+00  0.00000000000E+00 -0.60827775723E+03  0.60827775725E+03  0.50400001928E-02 0.  1.
    10030    2    1    2    0    0  0.00000000000E+00  0.00000000000E+00  0.14989850211E+04  0.27155405356E+04  0.22643330822E+04 0.  0.
        4    1    3    3  502    0  0.67456729722E+03 -0.73832816604E+03  0.13859294714E+04  0.17090850277E+04  0.12699999809E+01 0. -1.
       -4    1    3    3    0  502 -0.67456729722E+03  0.73832816604E+03  0.11305554974E+03  0.10064555080E+04  0.12699999809E+01 0.  1.
</event>
<event>
 5   0  0.2031860E-05  0.2305493E+04  0.7818609E-02  0.8475758E-01
       -1   -1    0    0    0  501  0.00000000000E+00  0.00000000000E+00  0.14096070357E+04  0.14096070357E+04  0.50400001928E-02 0. -1.
        1   -1    0    0  501    0  0.00000000000E+00  0.00000000000E+00 -0.94269174371E+03  0.94269174372E+03  0.50400001928E-02 0.  1.
    10030    2    1    2    0    0  0.00000000000E+00  0.00000000000E+00  0.46691529202E+03  0.23522987795E+04  0.23054933654E+04 0.  0.
        4    1    3    3  502    0  0.64625155190E+03  0.73861964656E+02 -0.73756012495E+03  0.98340897340E+03  0.12699999809E+01 0.  1.
       -4    1    3    3    0  502 -0.64625155190E+03 -0.73861964656E+02  0.12044754170E+04  0.13688898061E+04  0.12699999809E+01 0. -1.
</event>
<event>
 5   0  0.2042951E-05  0.2337633E+04  0.7818609E-02  0.8463229E-01
       -1   -1    0    0    0  501  0.00000000000E+00  0.00000000000E+00  0.77025917940E+03  0.77025917942E+03  0.50400001928E-02 0.  1.
        1   -1    0    0  501    0  0.00000000000E+00  0.00000000000E+00 -0.17736010392E+04  0.17736010392E+04  0.50400001928E-02 0. -1.
    10030    2    1    2    0    0  0.00000000000E+00  0.00000000000E+00 -0.10033418598E+04  0.25438602186E+04  0.23376334025E+04 0.  0.
        2    1    3    3  502    0  0.21572776718E+03 -0.11479245330E+04 -0.45469713335E+03  0.12534028427E+04  0.25500000920E-02 0.  1.
       -2    1    3    3    0  502 -0.21572776718E+03  0.11479245330E+04 -0.54864472645E+03  0.12904573759E+04  0.25500000920E-02 0. -1.
</event>
<event>
 5   0  0.4605516E-05  0.2222331E+04  0.7818609E-02  0.8509191E-01
        2   -1    0    0  501    0  0.00000000000E+00  0.00000000000E+00  0.86870884766E+03  0.86870884767E+03  0.25500000920E-02 0. -1.
       -2   -1    0    0    0  501  0.00000000000E+00  0.00000000000E+00 -0.14212915310E+04  0.14212915310E+04  0.25500000920E-02 0.  1.
    10030    2    1    2    0    0  0.00000000000E+00  0.00000000000E+00 -0.55258268337E+03  0.22900003787E+04  0.22223307838E+04 0.  0.
        1    1    3    3  502    0  0.54144736387E+03  0.40896319239E+03  0.63042979087E+03  0.92620616593E+03  0.50400001928E-02 0. -1.
       -1    1    3    3    0  502 -0.54144736387E+03 -0.40896319239E+03 -0.11830124742E+04  0.13637942128E+04  0.50400001928E-02 0.  1.
</event>
<event>
 5   0  0.4436695E-05  0.2369276E+04  0.7818609E-02  0.8451096E-01
        2   -1    0    0  501    0  0.00000000000E+00  0.00000000000E+00  0.15251018808E+04  0.15251018808E+04  0.25500000920E-02 0.  1.
       -2   -1    0    0    0  501  0.00000000000E+00  0.00000000000E+00 -0.92017938101E+03  0.92017938102E+03  0.25500000920E-02 0. -1.
    10030    2    1    2    0    0  0.00000000000E+00  0.00000000000E+00  0.60492249974E+03  0.24452812618E+04  0.23692760959E+04 0.  0.
        5    1    3    3  502    0  0.19161646002E+03  0.10169687479E+04 -0.29257792304E+03  0.10754376937E+04  0.46999998093E+01 0. -1.
       -5    1    3    3    0  502 -0.19161646002E+03 -0.10169687479E+04  0.89750042278E+03  0.13698435680E+04  0.46999998093E+01 0.  1.
</event>
<event>
 5   0  0.4602447E-05  0.2316704E+04  0.7818609E-02  0.8471364E-01
        2   -1    0    0  501    0  0.00000000000E+00  0.00000000000E+00  0.13185488944E+04  0.13185488944E+04  0.25500000920E-02 0.  1.
       -2   -1    0    0    0  501  0.00000000000E+00  0.00000000000E+00 -0.10176185830E+04  0.10176185830E+04  0.25500000920E-02 0. -1.
    10030    2    1    2    0    0  0.00000000000E+00  0.00000000000E+00  0.30093031139E+03  0.23361674773E+04  0.23167044330E+04 0.  0.
        3    1    3    3  502    0  0.10784752878E+04 -0.36083439149E+03  0.37247250794E+03  0.11966813209E+04  0.10100000352E+00 0.  1.
       -3    1    3    3    0  502 -0.10784752878E+04  0.36083439149E+03 -0.71542196550E+02  0.11394861564E+04  0.10100000352E+00 0. -1.
</event>
<event>
 5   0  0.2031860E-05  0.2313543E+04  0.7818609E-02  0.8472600E-01
        1   -1    0    0  501    0  0.00000000000E+00  0.00000000000E+00  0.21453088859E+04  0.21453088859E+04  0.50400001928E-02 0.  1.
       -1   -1    0    0    0  501  0.00000000000E+00  0.00000000000E+00 -0.62374242401E+03  0.62374242403E+03  0.50400001928E-02 0. -1.
    10030    2    1    2    0    0  0.00000000000E+00  0.00000000000E+00  0.15215664618E+04  0.27690513099E+04  0.23135428803E+04 0.  0.
        4    1    3    3  502    0 -0.62107746474E+03  0.77392144702E+03  0.14723297003E+04  0.17755134420E+04  0.12699999809E+01 0.  1.
       -4    1    3    3    0  502  0.62107746474E+03 -0.77392144702E+03  0.49236761534E+02  0.99353786790E+03  0.12699999809E+01 0. -1.
</event>
<event>
 5   0  0.4605516E-05  0.2322944E+04  0.7818609E-02  0.8468929E-01
       -2   -1    0    0    0  501  0.00000000000E+00  0.00000000000E+00  0.23122827213E+04  0.23122827213E+04  0.25500000920E-02 0. -1.
        2   -1    0    0  501    0  0.00000000000E+00  0.00000000000E+00 -0.58341343830E+03  0.58341343831E+03  0.25500000920E-02 0.  1.
    10030    2    1    2    0    0  0.00000000000E+00  0.00000000000E+00  0.17288692830E+04  0.28956961596E+04  0.23229436608E+04 0.  0.
        1    1    3    3  502    0 -0.15380479341E+03  0.89608588991E+03  0.17654084092E+04  0.19857725670E+04  0.50400001928E-02 0. -1.
       -1    1    3    3    0  502  0.15380479341E+03 -0.89608588991E+03 -0.36539126219E+02  0.90992359259E+03  0.50400001928E-02 0.  1.
</event>
<event>
 5   0  0.2031860E-05  0.2309923E+04  0.7818609E-02  0.8474019E-01
       -1   -1    0    0    0  501  0.00000000000E+00  0.00000000000E+00  0.64631983957E+03  0.64631983959E+03  0.50400001928E-02 0.  1.
        1   -1    0    0  501    0  0.00000000000E+00  0.00000000000E+00 -0.20638937767E+04  0.20638937767E+04  0.50400001928E-02 0. -1.
    10030    2    1    2    0    0  0.00000000000E+00  0.00000000000E+00 -0.14175739371E+04  0.27102136163E+04  0.23099225049E+04 0.  0.
        4    1    3    3  502    0 -0.30472581196E+03 -0.55909624903E+02 -0.20142293126E+04  0.20379168391E+04  0.12699999809E+01 0. -1.
       -4    1    3    3    0  502  0.30472581196E+03  0.55909624903E+02  0.59665537545E+03  0.67229677716E+03  0.12699999809E+01 0.  1.
</event>
<event>
 5   0  0.4602447E-05  0.2034802E+04  0.7818609E-02  0.8590520E-01
       -2   -1    0    0    0  501  0.00000000000E+00  0.00000000000E+00  0.50771750198E+03  0.50771750199E+03  0.25500000920E-02 0.  1.
        2   -1    0    0  501    0  0.00000000000E+00  0.00000000000E+00 -0.20387412241E+04  0.20387412241E+04  0.25500000920E-02 0. -1.
    10030    2    1    2    0    0  0.00000000000E+00  0.00000000000E+00 -0.15310237221E+04  0.25464587261E+04  0.20348018100E+04 0.  0.
        3    1    3    3  502    0 -0.99926026831E+03  0.10342429075E+03 -0.96686330419E+03  0.13942891834E+04  0.10100000352E+00 0. -1.
       -3    1    3    3    0  502  0.99926026831E+03 -0.10342429075E+03 -0.56416041790E+03  0.11521695427E+04  0.10100000352E+00 0.  1.
</event>
<event>
 5   0  0.4505107E-05  0.2283555E+04  0.7818609E-02  0.8484434E-01
        2   -1    0    0  501    0  0.00000000000E+00  0.00000000000E+00  0.29262239722E+04  0.29262239722E+04  0.25500000920E-02 0. -1.
       -2   -1    0    0    0  501  0.00000000000E+00  0.00000000000E+00 -0.44550785724E+03  0.44550785725E+03  0.25500000920E-02 0.  1.
    10030    2    1    2    0    0  0.00000000000E+00  0.00000000000E+00  0.24807161150E+04  0.33717318294E+04  0.22835549231E+04 0.  0.
        4    1    3    3  502    0  0.85131633119E+03  0.34008407610E+03  0.23538877754E+03  0.94647037146E+03  0.12699999809E+01 0.  1.
       -4    1    3    3    0  502 -0.85131633119E+03 -0.34008407610E+03  0.22453273374E+04  0.24252614580E+04  0.12699999809E+01 0. -1.
</event>
<event>
 5   0  0.2085063E-05  0.2309312E+04  0.7818609E-02  0.8474259E-01
       -1   -1    0    0    0  501  0.00000000000E+00  0.00000000000E+00  0.70823091559E+03  0.70823091561E+03  0.50400001928E-02 0. -1.
        1   -1    0    0  501    0  0.00000000000E+00  0.00000000000E+00 -0.18824799493E+04  0.18824799493E+04  0.50400001928E-02 0.  1.
    10030    2    1    2    0    0  0.00000000000E+00  0.00000000000E+00 -0.11742490337E+04  0.25907108649E+04  0.23093120171E+04 0.  0.
        1    1    3    3  502    0 -0.35426772888E+01  0.70511910404E+03 -0.16128849958E+04  0.17602850653E+04  0.50400001928E-02 0.  1.
       -1    1    3    3    0  502  0.35426772888E+01 -0.70511910404E+03  0.43863596207E+03  0.83042579963E+03  0.50400001928E-02 0. -1.
</event>
<event>
 5   0  0.4605516E-05  0.2302502E+04  0.7818609E-02  0.8476935E-01
       -2   -1    0    0    0  501  0.00000000000E+00  0.00000000000E+00  0.15079698395E+04  0.15079698395E+04  0.25500000920E-02 0. -1.
        2   -1    0    0  501    0  0.00000000000E+00  0.00000000000E+00 -0.87891619097E+03  0.87891619098E+03  0.25500000920E-02 0.  1.
    10030    2    1    2    0    0  0.00000000000E+00  0.00000000000E+00  0.62905364856E+03  0.23868860305E+04  0.23025022106E+04 0.  0.
        1    1    3    3  502    0  0.77947519241E+03 -0.84712307189E+03  0.32843619937E+03  0.11971087718E+04  0.50400001928E-02 0. -1.
       -1    1    3    3    0  502 -0.77947519241E+03  0.84712307189E+03  0.30061744919E+03  0.11897772587E+04  0.50400001928E-02 0.  1.
</event>
<event>
 5   0  0.2043885E-05  0.2366961E+04  0.7818609E-02  0.8451977E-01
        1   -1    0    0  501    0  0.00000000000E+00  0.00000000000E+00  0.12323108631E+04  0.12323108631E+04  0.50400001928E-02 0. -1.
       -1   -1    0    0    0  501  0.00000000000E+00  0.00000000000E+00 -0.11365849147E+04  0.11365849147E+04  0.50400001928E-02 0.  1.
    10030    2    1    2    0    0  0.00000000000E+00  0.00000000000E+00  0.95725948367E+02  0.23688957778E+04  0.23669608677E+04 0.  0.
        5    1    3    3  502    0 -0.75797872927E+03 -0.89008142467E+03 -0.13620896392E+03  0.11770096297E+04  0.46999998093E+01 0. -1.
       -5    1    3    3    0  502  0.75797872927E+03  0.89008142467E+03  0.23193491229E+03  0.11918861481E+04  0.46999998093E+01 0.  1.
</event>
<event>
 5   0  0.2043885E-05  0.2285934E+04  0.7818609E-02  0.8483488E-01
        1   -1    0    0  501    0  0.00000000000E+00  0.00000000000E+00  0.20828702448E+04  0.20828702448E+04  0.50400001928E-02 0.  1.
       -1   -1    0    0    0  501  0.00000000000E+00  0.00000000000E+00 -0.62719894287E+03  0.62719894289E+03  0.50400001928E-02 0. -1.
    10030    2    1    2    0    0  0.00000000000E+00  0.00000000000E+00  0.14556713019E+04  0.27100691877E+04  0.22859343960E+04 0.  0.
        5    1    3    3  502    0 -0.93990034327E+03 -0.11568202646E+03  0.14865420734E+04  0.17625618890E+04  0.46999998093E+01 0.  1.
       -5    1    3    3    0  502  0.93990034327E+03  0.11568202646E+03 -0.30870771501E+02  0.94750729869E+03  0.46999998093E+01 0. -1.
</event>
<event>
 5   0  0.2031860E-05  0.2319002E+04  0.7818609E-02  0.8470466E-01
        1   -1    0    0  501    0  0.00000000000E+00  0.00000000000E+00  0.14826736294E+04  0.14826736294E+04  0.50400001928E-02 0. -1.
       -1   -1    0    0    0  501  0.00000000000E+00  0.00000000000E+00 -0.90676939012E+03  0.90676939014E+03  0.50400001928E-02 0.  1.
    10030    2    1    2    0    0  0.00000000000E+00  0.00000000000E+00  0.57590423924E+03  0.23894430195E+04  0.23190024258E+04 0.  0.
        4    1    3    3  502    0  0.10029148526E+04  0.41483802151E+03  0.70840672154E+03  0.12960595980E+04  0.12699999809E+01 0.  1.
       -4    1    3    3    0  502 -0.10029148526E+04 -0.41483802151E+03 -0.13250248230E+03  0.10933834215E+04  0.12699999809E+01 0. -1.
</event>
<event>
 5   0  0.1968318E-05  0.2308805E+04  0.7818609E-02  0.8474457E-01
       -1   -1    0    0    0  501  0.00000000000E+00  0.00000000000E+00  0.89410517807E+03  0.89410517808E+03  0.50400001928E-02 0. -1.
        1   -1    0    0  501    0  0.00000000000E+00  0.00000000000E+00 -0.14904796384E+04  0.14904796384E+04  0.50400001928E-02 0.  1.
    10030    2    1    2    0    0  0.00000000000E+00  0.00000000000E+00 -0.59637446033E+03  0.23845848165E+04  0.23088053729E+04 0.  0.
        3    1    3    3  502    0  0.37286192548E+03 -0.53675687596E+03 -0.12810037716E+04  0.14380906203E+04  0.10100000352E+00 0.  1.
       -3    1    3    3    0  502 -0.37286192548E+03  0.53675687596E+03  0.68462931123E+03  0.94649419615E+03  0.10100000352E+00 0. -1.
</event>
<event>
 5   0  0.1968318E-05  0.2297238E+04  0.7818609E-02  0.8479011E-01
        1   -1    0    0  501    0  0.00000000000E+00  0.00000000000E+00  0.15611522030E+04  0.15611522030E+04  0.50400001928E-02 0.  1.
       -1   -1    0    0    0  501  0.00000000000E+00  0.00000000000E+00 -0.84509762360E+03  0.84509762362E+03  0.50400001928E-02 0. -1.
    10030    2    1    2    0    0  0.00000000000E+00  0.00000000000E+00  0.71605457942E+03  0.24062498266E+04  0.22972383567E+04 0.  0.
        3    1    3    3  502    0 -0.20544771387E+03 -0.26714147394E+03 -0.79214731362E+03  0.86085463751E+03  0.10100000352E+00 0. -1.
       -3    1    3    3    0  502  0.20544771387E+03  0.26714147394E+03  0.15082018930E+04  0.15453951891E+04  0.10100000352E+00 0.  1.
</event>
<event>
 5   0  0.2031860E-05  0.2281105E+04  0.7818609E-02  0.8485408E-01
        1   -1    0    0  501    0  0.00000000000E+00  0.00000000000E+00  0.20795323941E+04  0.20795323941E+04  0.50400001928E-02 0. -1.
       -1   -1    0    0    0  501  0.00000000000E+00  0.00000000000E+00 -0.62555436482E+03  0.62555436484E+03  0.50400001928E-02 0.  1.
    10030    2    1    2    0    0  0.00000000000E+00  0.00000000000E+00  0.14539780293E+04  0.27050867590E+04  0.22811054916E+04 0.  0.
        4    1    3    3  502    0 -0.56589336749E+03 -0.22737808012E+03  0.18699348605E+04  0.19668741927E+04  0.12699999809E+01 0. -1.
       -4    1    3    3    0  502  0.56589336749E+03  0.22737808012E+03 -0.41595683116E+03  0.73821256625E+03  0.12699999809E+01 0.  1.
</event>
<event>
 5   0  0.1968318E-05  0.2323326E+04  0.7818609E-02  0.8468780E-01
        1   -1    0    0  501    0  0.00000000000E+00  0.00000000000E+00  0.11686959574E+04  0.11686959574E+04  0.50400001928E-02 0.  1.
       -1   -1    0    0    0  501  0.00000000000E+00  0.00000000000E+00 -0.11546721100E+04  0.11546721100E+04  0.50400001928E-02 0. -1.
    10030    2    1    2    0    0  0.00000000000E+00  0.00000000000E+00  0.14023847381E+02  0.23233680674E+04  0.23233257430E+04 0.  0.
        3    1    3    3  502    0  0.16725844158E+03  0.10941032155E+03  0.11513730222E+04  0.11685913962E+04  0.10100000352E+00 0.  1.
       -3    1    3    3    0  502 -0.16725844158E+03 -0.10941032155E+03 -0.11373491748E+04  0.11547766712E+04  0.10100000352E+00 0. -1.
</event>
<event>
 5   0  0.2085063E-05  0.2327808E+04  0.7818609E-02  0.8467037E-01
       -1   -1    0    0    0  501  0.00000000000E+00  0.00000000000E+00  0.12450936818E+04  0.12450936818E+04  0.50400001928E-02 0. -1.
        1   -1    0    0  501    0  0.00000000000E+00  0.00000000000E+00 -0.10880086638E+04  0.10880086639E+04  0.50400001928E-02 0.  1.
    10030    2    1    2    0    0  0.00000000000E+00  0.00000000000E+00  0.15708501793E+03  0.23331023456E+04  0.23278081649E+04 0.  0.
        1    1    3    3  502    0  0.95455326381E+03 -0.53750568148E+03 -0.31552904379E+03  0.11400188019E+04  0.50400001928E-02 0.  1.
       -1    1    3    3    0  502 -0.95455326381E+03  0.53750568148E+03  0.47261406173E+03  0.11930835438E+04  0.50400001928E-02 0. -1.
</event>
<event>
 5   0  0.2043885E-05  0.2325334E+04  0.7818609E-02  0.8467999E-01
        1   -1    0    0  501    0  0.00000000000E+00  0.00000000000E+00  0.10610268958E+04  0.10610268958E+04  0.50400001928E-02 0.  1.
       -1   -1    0    0    0  501  0.00000000000E+00  0.00000000000E+00 -0.12740433940E+04  0.12740433940E+04  0.50400001928E-02 0. -1.
    10030    2    1    2    0    0  0.00000000000E+00  0.00000000000E+00 -0.21301649816E+03  0.23350702898E+04  0.23253337889E+04 0.  0.
        5    1    3    3  502    0  0.66030416231E+03 -0.83495370776E+03  0.36302085513E+03  0.11247024105E+04  0.46999998093E+01 0.  1.
       -5    1    3    3    0  502 -0.66030416231E+03  0.83495370776E+03 -0.57603735328E+03  0.12103678793E+04  0.46999998093E+01 0. -1.
</event>
<event>
 5   0  0.4602447E-05  0.2308973E+04  0.7818609E-02  0.8474392E-01
        2   -1    0    0  501    0  0.00000000000E+00  0.00000000000E+00  0.66130121127E+03  0.66130121127E+03  0.25500000920E-02 0.  1.
       -2   -1    0    0    0  501  0.00000000000E+00  0.00000000000E+00 -0.20154791514E+04  0.20154791514E+04  0.25500000920E-02 0. -1.
    10030    2    1    2    0    0  0.00000000000E+00  0.00000000000E+00 -0.13541779402E+04  0.26767803627E+04  0.23089727622E+04 0.  0.
        3    1    3    3  502    0  0.66209467647E+02  0.85420052025E+02  0.65542383719E+03  0.66427456330E+03  0.10100000352E+00 0.  1.
       -3    1    3    3    0  502 -0.66209467647E+02 -0.85420052025E+02 -0.20096017773E+04  0.20125057994E+04  0.10100000352E+00 0. -1.
</event>
<event>
 5   0  0.4798609E-05  0.2279216E+04  0.7818609E-02  0.8486161E-01
        2   -1    0    0  501    0  0.00000000000E+00  0.00000000000E+00  0.19446385938E+04  0.19446385938E+04  0.25500000920E-02 0.  1.
       -2   -1    0    0    0  501  0.00000000000E+00  0.00000000000E+00 -0.66783951086E+03  0.66783951087E+03  0.25500000920E-02 0. -1.
    10030    2    1    2    0    0  0.00000000000E+00  0.00000000000E+00  0.12767990830E+04  0.26124781047E+04  0.22792160822E+04 0.  0.
        2    1    3    3  502    0 -0.73260570438E+03 -0.41324385685E+03  0.15197396020E+04  0.17369772771E+04  0.25500000920E-02 0.  1.
       -2    1    3    3    0  502  0.73260570438E+03  0.41324385685E+03 -0.24294051903E+03  0.87550082759E+03  0.25500000920E-02 0. -1.
</event>
<event>
 5   0  0.2043885E-05  0.2299413E+04  0.7818609E-02  0.8478153E-01
       -1   -1    0    0    0  501  0.00000000000E+00  0.00000000000E+00  0.10141661575E+04  0.10141661575E+04  0.50400001928E-02 0. -1.
        1   -1    0    0  501    0  0.00000000000E+00  0.00000000000E+00 -0.13033615799E+04  0.13033615799E+04  0.50400001928E-02 0.  1.
    10030    2    1    2    0    0  0.00000000000E+00  0.00000000000E+00 -0.28919542243E+03  0.23175277374E+04  0.22994131471E+04 0.  0.
        5    1    3    3  502    0  0.22993569419E+03  0.10809846360E+04  0.17476588003E+03  0.11189117076E+04  0.46999998093E+01 0. -1.
       -5    1    3    3    0  502 -0.22993569419E+03 -0.10809846360E+04 -0.46396130246E+03  0.11986160298E+04  0.46999998093E+01 0.  1.
</event>
<event>
 5   0  0.4602447E-05  0.2293666E+04  0.7818609E-02  0.8480423E-01
       -2   -1    0    0    0  501  0.00000000000E+00  0.00000000000E+00  0.86315455587E+03  0.86315455587E+03  0.25500000920E-02 0. -1.
        2   -1    0    0  501    0  0.00000000000E+00  0.00000000000E+00 -0.15237433499E+04  0.15237433499E+04  0.25500000920E-02 0.  1.
    10030    2    1    2    0    0  0.00000000000E+00  0.00000000000E+00 -0.66058879407E+03  0.23868979058E+04  0.22936660738E+04 0.  0.
        3    1    3    3  502    0 -0.47188074669E+03 -0.94705377296E+03  0.13000097085E+03  0.10660593560E+04  0.10100000352E+00 0. -1.
       -3    1    3    3    0  502  0.47188074669E+03  0.94705377296E+03 -0.79058976492E+03  0.13208385498E+04  0.10100000352E+00 0.  1.
</event>
<event>
 5   0  0.4605516E-05  0.2328279E+04  0.7818609E-02  0.8466854E-01
        2   -1    0    0  501    0  0.00000000000E+00  0.00000000000E+00  0.15227477655E+04  0.15227477655E+04  0.25500000920E-02 0. -1.
       -2   -1    0    0    0  501  0.00000000000E+00  0.00000000000E+00 -0.88998384598E+03  0.88998384598E+03  0.25500000920E-02 0.  1.
    10030    2    1    2    0    0  0.00000000000E+00  0.00000000000E+00  0.63276391957E+03  0.24127316115E+04  0.23282791180E+04 0.  0.
        1    1    3    3  502    0 -0.53383638204E+03 -0.13362380743E+03 -0.74668630408E+03  0.92756511438E+03  0.50400001928E-02 0.  1.
       -1    1    3    3    0  502  0.53383638204E+03  0.13362380743E+03  0.13794502236E+04  0.14851664971E+04  0.50400001928E-02 0. -1.
</event>
<event>
 5   0  0.4505107E-05  0.2290795E+04  0.7818609E-02  0.8481559E-01
        2   -1    0    0  501    0  0.00000000000E+00  0.00000000000E+00  0.10267155401E+04  0.10267155401E+04  0.25500000920E-02 0. -1.
       -2   -1    0    0    0  501  0.00000000000E+00  0.00000000000E+00 -0.12777983855E+04  0.12777983855E+04  0.25500000920E-02 0.  1.
    10030    2    1    2    0    0  0.00000000000E+00  0.00000000000E+00 -0.25108284538E+03  0.23045139256E+04  0.22907950231E+04 0.  0.
        4    1    3    3  502    0  0.93330539336E+03 -0.60106999643E+03  0.15826464258E+03  0.11213355465E+04  0.12699999809E+01 0. -1.
       -4    1    3    3    0  502 -0.93330539336E+03  0.60106999643E+03 -0.40934748796E+03  0.11831783791E+04  0.12699999809E+01 0.  1.
</event>
<event>
 5   0  0.4798609E-05  0.2305388E+04  0.7818609E-02  0.8475800E-01
       -2   -1    0    0    0  501  0.00000000000E+00  0.00000000000E+00  0.86894478587E+03  0.86894478587E+03  0.25500000920E-02 0. -1.
        2   -1    0    0  501    0  0.00000000000E+00  0.00000000000E+00 -0.15290993904E+04  0.15290993904E+04  0.25500000920E-02 0.  1.
    10030    2    1    2    0    0  0.00000000000E+00  0.00000000000E+00 -0.66015460457E+03  0.23980441763E+04  0.23053875530E+04 0.  0.
        2    1    3    3  502    0  0.93227650059E+03  0.65762159877E+03 -0.50130588361E+03  0.12461593918E+04  0.25500000920E-02 0.  1.
       -2    1    3    3    0  502 -0.93227650059E+03 -0.65762159877E+03 -0.15884872096E+03  0.11518847846E+04  0.25500000920E-02 0. -1.
</event>
<event>
 5   0  0.2043885E-05  0.2338476E+04  0.7818609E-02  0.8462903E-01
        1   -1    0    0  501    0  0.00000000000E+00  0.00000000000E+00  0.17588573127E+04  0.17588573127E+04  0.50400001928E-02 0.  1.
       -1   -1    0    0    0  501  0.00000000000E+00  0.00000000000E+00 -0.77727613190E+03  0.77727613192E+03  0.50400001928E-02 0. -1.
    10030    2    1    2    0    0  0.00000000000E+00  0.00000000000E+00  0.98158118079E+03  0.25361334446E+04  0.23384762634E+04 0.  0.
        5    1    3    3  502    0 -0.62268665310E+02 -0.36352631425E+03  0.16941073664E+04  0.17337965933E+04  0.46999998093E+01 0.  1.
       -5    1    3    3    0  502  0.62268665310E+02  0.36352631425E+03 -0.71252618564E+03  0.80233685136E+03  0.46999998093E+01 0. -1.
</event>
<event>
 5   0  0.4798609E-05  0.2314663E+04  0.7818609E-02  0.8472162E-01
        2   -1    0    0  501    0  0.00000000000E+00  0.00000000000E+00  0.10582690067E+04  0.10582690067E+04  0.25500000920E-02 0. -1.
       -2   -1    0    0    0  501  0.00000000000E+00  0.00000000000E+00 -0.12656673388E+04  0.12656673388E+04  0.25500000920E-02 0.  1.
    10030    2    1    2    0    0  0.00000000000E+00  0.00000000000E+00 -0.20739833208E+03  0.23239363455E+04  0.23146632735E+04 0.  0.
        2    1    3    3  502    0 -0.44873758608E+03  0.40057088446E+03  0.88899549252E+03  0.10733757219E+04  0.25500000920E-02 0. -1.
       -2    1    3    3    0  502  0.44873758608E+03 -0.40057088446E+03 -0.10963938246E+04  0.12505606236E+04  0.25500000920E-02 0.  1.
</event>
<event>
 5   0  0.2043885E-05  0.2309998E+04  0.7818609E-02  0.8473989E-01
       -1   -1    0    0    0  501  0.00000000000E+00  0.00000000000E+00  0.69913935758E+03  0.69913935759E+03  0.50400001928E-02 0. -1.
        1   -1    0    0  501    0  0.00000000000E+00  0.00000000000E+00 -0.19080929757E+04  0.19080929757E+04  0.50400001928E-02 0.  1.
    10030    2    1    2    0    0  0.00000000000E+00  0.00000000000E+00 -0.12089536181E+04  0.26072323333E+04  0.23099981794E+04 0.  0.
        5    1    3    3  502    0 -0.77522981264E+02  0.44874251354E+03 -0.18024774377E+04  0.18591198615E+04  0.46999998093E+01 0.  1.
       -5    1    3    3    0  502  0.77522981264E+02 -0.44874251354E+03  0.59352381956E+03  0.74811247180E+03  0.46999998093E+01 0. -1.
</event>
<event>
 5   0  0.2031860E-05  0.2311209E+04  0.7818609E-02  0.8473515E-01
       -1   -1    0    0    0  501  0.00000000000E+00  0.00000000000E+00  0.13297148233E+04  0.13297148233E+04  0.50400001928E-02 0. -1.
        1   -1    0    0  501    0  0.00000000000E+00  0.00000000000E+00 -0.10042914782E+04  0.10042914783E+04  0.50400001928E-02 0.  1.
    10030    2    1    2    0    0  0.00000000000E+00  0.00000000000E+00  0.32542334504E+03  0.23340063015E+04  0.23112085717E+04 0.  0.
        4    1    3    3  502    0 -0.49116859759E+03  0.28931582633E+03  0.11778482367E+04  0.13085405306E+04  0.12699999809E+01 0. -1.
       -4    1    3    3    0  502  0.49116859759E+03 -0.28931582633E+03 -0.85242489164E+03  0.10254657710E+04  0.12699999809E+01 0.  1.
</event>
<event>
 5   0  0.2042951E-05  0.1917666E+04  0.7818609E-02  0.8646112E-01
        1   -1    0    0  501    0  0.00000000000E+00  0.00000000000E+00  0.83462358803E+03  0.83462358804E+03  0.50400001928E-02 0.  1.
       -1   -1    0    0    0  501  0.00000000000E+00  0.00000000000E+00 -0.11015274710E+04  0.11015274710E+04  0.50400001928E-02 0. -1.
    10030    2    1    2    0    0  0.00000000000E+00  0.00000000000E+00 -0.26690388293E+03  0.19361510590E+04  0.19176660920E+04 0.  0.
        2    1    3    3  502    0 -0.44825072976E+03  0.92965754553E+02 -0.98406299595E+03  0.10853346619E+04  0.25500000920E-02 0. -1.
       -2    1    3    3    0  502  0.44825072976E+03 -0.92965754553E+02  0.71715911302E+03  0.85081639714E+03  0.25500000920E-02 0.  1.
</event>
<event>
 5   0  0.2031860E-05  0.2312128E+04  0.7818609E-02  0.8473155E-01
       -1   -1    0    0    0  501  0.00000000000E+00  0.00000000000E+00  0.98946725388E+03  0.98946725390E+03  0.50400001928E-02 0.  1.
        1   -1    0    0  501    0  0.00000000000E+00  0.00000000000E+00 -0.13507102432E+04  0.13507102432E+04  0.50400001928E-02 0. -1.
    10030    2    1    2    0    0  0.00000000000E+00  0.00000000000E+00 -0.36124298929E+03  0.23401774971E+04  0.23121276393E+04 0.  0.
        4    1    3    3  502    0  0.10618236091E+04 -0.40771955856E+03 -0.38995744368E+03  0.12024030256E+04  0.12699999809E+01 0. -1.
       -4    1    3    3    0  502 -0.10618236091E+04  0.40771955856E+03  0.28714454393E+02  0.11377744715E+04  0.12699999809E+01 0.  1.
</event>
<event>
 5   0  0.4605516E-05  0.2371267E+04  0.7818609E-02  0.8450340E-01
       -2   -1    0    0    0  501  0.00000000000E+00  0.00000000000E+00  0.69676536217E+03  0.69676536218E+03  0.25500000920E-02 0. -1.
        2   -1    0    0  501    0  0.00000000000E+00  0.00000000000E+00 -0.20175036993E+04  0.20175036993E+04  0.25500000920E-02 0.  1.
    10030    2    1    2    0    0  0.00000000000E+00  0.00000000000E+00 -0.13207383371E+04  0.27142690615E+04  0.23712669151E+04 0.  0.
        1    1    3    3  502    0  0.12300985624E+03  0.97020362380E+03  0.10688765617E+03  0.98379442336E+03  0.50400001928E-02 0. -1.
       -1    1    3    3    0  502 -0.12300985624E+03 -0.97020362380E+03 -0.14276259933E+04  0.17304746381E+04  0.50400001928E-02 0.  1.
</event>
<event>
 5   0  0.4505107E-05  0.2314216E+04  0.7818609E-02  0.8472337E-01
       -2   -1    0    0    0  501  0.00000000000E+00  0.00000000000E+00  0.14174538458E+04  0.14174538458E+04  0.25500000920E-02 0.  1.
        2   -1    0    0  501    0  0.00000000000E+00  0.00000000000E+00 -0.94458060593E+03  0.94458060594E+03  0.25500000920E-02 0. -1.
    10030    2    1    2    0    0  0.00000000000E+00  0.00000000000E+00  0.47287323987E+03  0.23620344517E+04  0.23142164225E+04 0.  0.
        4    1    3    3  502    0 -0.22935687678E+03  0.24168999751E+03  0.13674300242E+04  0.14074392050E+04  0.12699999809E+01 0.  1.
       -4    1    3    3    0  502  0.22935687678E+03 -0.24168999751E+03 -0.89455678432E+03  0.95459524674E+03  0.12699999809E+01 0. -1.
</event>
<event>
 5   0  0.1968318E-05  0.2246290E+04  0.7818609E-02  0.8499404E-01
       -1   -1    0    0    0  501  0.00000000000E+00  0.00000000000E+00  0.15256009282E+04  0.15256009282E+04  0.50400001928E-02 0.  1.
        1   -1    0    0  501    0  0.00000000000E+00  0.00000000000E+00 -0.82685762064E+03  0.82685762066E+03  0.50400001928E-02 0. -1.
    10030    2    1    2    0    0  0.00000000000E+00  0.00000000000E+00  0.69874330759E+03  0.23524585489E+04  0.22462900557E+04 0.  0.
        3    1    3    3  502    0  0.22968730612E+03  0.23436921377E+03  0.14742762285E+04  0.15103561153E+04  0.10100000352E+00 0.  1.
       -3    1    3    3    0  502 -0.22968730612E+03 -0.23436921377E+03 -0.77553292093E+03  0.84210243356E+03  0.10100000352E+00 0. -1.
</event>
<event>
 5   0  0.4602447E-05  0.2320870E+04  0.7818609E-02  0.8469738E-01
       -2   -1    0    0    0  501  0.00000000000E+00  0.00000000000E+00  0.21210149143E+04  0.21210149143E+04  0.25500000920E-02 0.  1.
        2   -1    0    0  501    0  0.00000000000E+00  0.00000000000E+00 -0.63488906788E+03  0.63488906788E+03  0.25500000920E-02 0. -1.
    10030    2    1    2    0    0  0.00000000000E+00  0.00000000000E+00  0.14861258464E+04  0.27559039822E+04  0.23208698213E+04 0.  0.
        3    1    3    3  502    0 -0.65767466701E+03  0.18617688218E+03 -0.37048609618E+03  0.77746881400E+03  0.10100000352E+00 0. -1.
       -3    1    3    3    0  502  0.65767466701E+03 -0.18617688218E+03  0.18566119426E+04  0.19784351682E+04  0.10100000352E+00 0.  1.
</event>
<event>
 5   0  0.1968318E-05  0.2297583E+04  0.7818609E-02  0.8478875E-01
        1   -1    0    0  501    0  0.00000000000E+00  0.00000000000E+00  0.21872098310E+04  0.21872098310E+04  0.50400001928E-02 0.  1.
       -1   -1    0    0    0  501  0.00000000000E+00  0.00000000000E+00 -0.60338128142E+03  0.60338128144E+03  0.50400001928E-02 0. -1.
    10030    2    1    2    0    0  0.00000000000E+00  0.00000000000E+00  0.15838285496E+04  0.27905911125E+04  0.22975826171E+04 0.  0.
        3    1    3    3  502    0 -0.22595542395E+03  0.95219857021E+03  0.61163219521E+02  0.98055031505E+03  0.10100000352E+00 0. -1.
       -3    1    3    3    0  502  0.22595542395E+03 -0.95219857021E+03  0.15226653301E+04  0.18100407974E+04  0.10100000352E+00 0.  1.
</event>
<event>
 5   0  0.2042951E-05  0.2020151E+04  0.7818609E-02  0.8597257E-01
       -1   -1    0    0    0  501  0.00000000000E+00  0.00000000000E+00  0.69351569579E+03  0.69351569581E+03  0.50400001928E-02 0.  1.
        1   -1    0    0  501    0  0.00000000000E+00  0.00000000000E+00 -0.14711310211E+04  0.14711310211E+04  0.50400001928E-02 0. -1.
    10030    2    1    2    0    0  0.00000000000E+00  0.00000000000E+00 -0.77761532527E+03  0.21646467169E+04  0.20201509386E+04 0.  0.
        2    1    3    3  502    0 -0.61179297256E+02 -0.98722068612E+03 -0.60815654509E+03  0.11611209984E+04  0.25500000920E-02 0. -1.
       -2    1    3    3    0  502  0.61179297256E+02  0.98722068612E+03 -0.16945878017E+03  0.10035257185E+04  0.25500000920E-02 0.  1.
</event>
<event>
 5   0  0.4798609E-05  0.2313336E+04  0.7818609E-02  0.8472681E-01
        2   -1    0    0  501    0  0.00000000000E+00  0.00000000000E+00  0.13095012173E+04  0.13095012173E+04  0.25500000920E-02 0.  1.
       -2   -1    0    0    0  501  0.00000000000E+00  0.00000000000E+00 -0.10216724169E+04  0.10216724169E+04  0.25500000920E-02 0. -1.
    10030    2    1    2    0    0  0.00000000000E+00  0.00000000000E+00  0.28782880047E+03  0.23311736342E+04  0.23133363557E+04 0.  0.
        2    1    3    3  502    0  0.59141940840E+02  0.51727671808E+02 -0.10189800647E+04  0.10220048402E+04  0.25500000920E-02 0. -1.
       -2    1    3    3    0  502 -0.59141940840E+02 -0.51727671808E+02  0.13068088651E+04  0.13091687940E+04  0.25500000920E-02 0.  1.
</event>
<event>
 5   0  0.2043885E-05  0.2300429E+04  0.7818609E-02  0.8477752E-01
       -1   -1    0    0    0  501  0.00000000000E+00  0.00000000000E+00  0.62877455511E+03  0.62877455513E+03  0.50400001928E-02 0. -1.
        1   -1    0    0  501    0  0.00000000000E+00  0.00000000000E+00 -0.21040818184E+04  0.21040818184E+04  0.50400001928E-02 0.  1.
    10030    2    1    2    0    0  0.00000000000E+00  0.00000000000E+00 -0.14753072633E+04  0.27328563736E+04  0.23004287508E+04 0.  0.
        5    1    3    3  502    0 -0.58467049558E+03 -0.95806074688E+03 -0.43888029075E+03  0.12051381592E+04  0.46999998093E+01 0.  1.
       -5    1    3    3    0  502  0.58467049558E+03  0.95806074688E+03 -0.10364269726E+04  0.15277182144E+04  0.46999998093E+01 0. -1.
</event>
<event>
 5   0  0.2085063E-05  0.2214779E+04  0.7818609E-02  0.8512302E-01
       -1   -1    0    0    0  501  0.00000000000E+00  0.00000000000E+00  0.87004907874E+03  0.87004907875E+03  0.50400001928E-02 0.  1.
        1   -1    0    0  501    0  0.00000000000E+00  0.00000000000E+00 -0.14094735183E+04  0.14094735183E+04  0.50400001928E-02 0. -1.
    10030    2    1    2    0    0  0.00000000000E+00  0.00000000000E+00 -0.53942443959E+03  0.22795225971E+04  0.22147786672E+04 0.  0.
        1    1    3    3  502    0 -0.26681984268E+02 -0.10864880827E+04 -0.51032718052E+02  0.10880131528E+04  0.50400001928E-02 0.  1.
       -1    1    3    3    0  502  0.26681984268E+02  0.10864880827E+04 -0.48839172153E+03  0.11915094443E+04  0.50400001928E-02 0. -1.
</event>
<event>
 5   0  0.4505107E-05  0.1976418E+04  0.7818609E-02  0.8617726E-01
        2   -1    0    0  501    0  0.00000000000E+00  0.00000000000E+00  0.88643748192E+03  0.88643748192E+03  0.25500000920E-02 0.  1.
       -2   -1    0    0    0  501  0.00000000000E+00  0.00000000000E+00 -0.11016652365E+04  0.11016652365E+04  0.25500000920E-02 0. -1.
    10030    2    1    2    0    0  0.00000000000E+00  0.00000000000E+00 -0.21522775461E+03  0.19881027185E+04  0.19764183345E+04 0.  0.
        4    1    3    3  502    0 -0.60260770580E+03  0.36288322615E+02  0.67938143953E+03  0.90885292689E+03  0.12699999809E+01 0.  1.
       -4    1    3    3    0  502  0.60260770580E+03 -0.36288322615E+02 -0.89460919414E+03  0.10792497916E+04  0.12699999809E+01 0. -1.
</event>
<event>
 5   0  0.2085063E-05  0.2282659E+04  0.7818609E-02  0.8484790E-01
       -1   -1    0    0    0  501  0.00000000000E+00  0.00000000000E+00  0.70498185259E+03  0.70498185261E+03  0.50400001928E-02 0. -1.
        1   -1    0    0  501    0  0.00000000000E+00  0.00000000000E+00 -0.18477532185E+04  0.18477532186E+04  0.50400001928E-02 0.  1.
    10030    2    1    2    0    0  0.00000000000E+00  0.00000000000E+00 -0.11427713660E+04  0.25527350712E+04  0.22826585265E+04 0.  0.
        1    1    3    3  502    0  0.67484654205E+03 -0.43395028879E+02 -0.15995873981E+04  0.17366579479E+04  0.50400001928E-02 0.  1.
       -1    1    3    3    0  502 -0.67484654205E+03  0.43395028879E+02  0.45681603215E+03  0.81607712326E+03  0.50400001928E-02 0. -1.
</event>
<event>
 5   0  0.4505107E-05  0.2322262E+04  0.7818609E-02  0.8469195E-01
        2   -1    0    0  501    0  0.00000000000E+00  0.00000000000E+00  0.28220091851E+04  0.28220091851E+04  0.25500000920E-02 0. -1.
       -2   -1    0    0    0  501  0.00000000000E+00  0.00000000000E+00 -0.47775364534E+03  0.47775364535E+03  0.25500000920E-02 0.  1.
    10030    2    1    2    0    0  0.00000000000E+00  0.00000000000E+00  0.23442555397E+04  0.32997628304E+04  0.23222619795E+04 0.  0.
        4    1    3    3  502    0  0.84514138823E+03  0.62540479556E+03  0.18723264495E+04  0.21473246310E+04  0.12699999809E+01 0. -1.
       -4    1    3    3    0  502 -0.84514138823E+03 -0.62540479556E+03  0.47192909020E+03  0.11524381994E+04  0.12699999809E+01 0.  1.
</event>
<event>
 5   0  0.4436695E-05  0.2355974E+04  0.7818609E-02  0.8456173E-01
       -2   -1    0    0    0  501  0.00000000000E+00  0.00000000000E+00  0.72697361555E+03  0.72697361555E+03  0.25500000920E-02 0.  1.
        2   -1    0    0  501    0  0.00000000000E+00  0.00000000000E+00 -0.19088088126E+04  0.19088088126E+04  0.25500000920E-02 0. -1.
    10030    2    1    2    0    0  0.00000000000E+00  0.00000000000E+00 -0.11818351970E+04  0.26357824281E+04  0.23559742306E+04 0.  0.
        5    1    3    3  502    0  0.55893133113E+03  0.14635167278E+03 -0.17393881744E+04  0.18328437894E+04  0.46999998093E+01 0. -1.
       -5    1    3    3    0  502 -0.55893133113E+03 -0.14635167278E+03  0.55755297736E+03  0.80293863875E+03  0.46999998093E+01 0.  1.
</event>
<event>
 5   0  0.2031860E-05  0.2304263E+04  0.7818609E-02  0.8476242E-01
       -1   -1    0    0    0  501  0.00000000000E+00  0.00000000000E+00  0.64889112310E+03  0.64889112312E+03  0.50400001928E-02 0.  1.
        1   -1    0    0  501    0  0.00000000000E+00  0.00000000000E+00 -0.20456545757E+04  0.20456545757E+04  0.50400001928E-02 0. -1.
    10030    2    1    2    0    0  0.00000000000E+00  0.00000000000E+00 -0.13967634526E+04  0.26945456988E+04  0.23042630884E+04 0.  0.
        4    1    3    3  502    0 -0.75390558557E+03 -0.39009829168E+03 -0.16093348297E+04  0.18194808370E+04  0.12699999809E+01 0. -1.
       -4    1    3    3    0  502  0.75390558557E+03  0.39009829168E+03  0.21257137713E+03  0.87506486183E+03  0.12699999809E+01 0.  1.
</event>
<event>
 5   0  0.4436695E-05  0.2310018E+04  0.7818609E-02  0.8473982E-01
       -2   -1    0    0    0  501  0.00000000000E+00  0.00000000000E+00  0.10734477863E+04  0.10734477863E+04  0.25500000920E-02 0.  1.
        2   -1    0    0  501    0  0.00000000000E+00  0.00000000000E+00 -0.12427675079E+04  0.12427675079E+04  0.25500000920E-02 0. -1.
    10030    2    1    2    0    0  0.00000000000E+00  0.00000000000E+00 -0.16931972161E+03  0.23162152943E+04  0.23100182080E+04 0.  0.
        5    1    3    3  502    0  0.66983919541E+03  0.61102638805E+03  0.63279176899E+03  0.11056605752E+04  0.46999998093E+01 0.  1.
       -5    1    3    3    0  502 -0.66983919541E+03 -0.61102638805E+03 -0.80211149060E+03  0.12105547191E+04  0.46999998093E+01 0. -1.
</event>
<event>
 5   0  0.2042951E-05  0.2309839E+04  0.7818609E-02  0.8474052E-01
       -1   -1    0    0    0  501  0.00000000000E+00  0.00000000000E+00  0.74639694742E+03  0.74639694743E+03  0.50400001928E-02 0.  1.
        1   -1    0    0  501    0  0.00000000000E+00  0.00000000000E+00 -0.17870368542E+04  0.17870368542E+04  0.50400001928E-02 0. -1.
    10030    2    1    2    0    0  0.00000000000E+00  0.00000000000E+00 -0.10406399067E+04  0.25334338016E+04  0.23098388280E+04 0.  0.
        2    1    3    3  502    0 -0.89520731073E+03 -0.72965772824E+03 -0.51318456303E+03  0.12637859492E+04  0.25500000920E-02 0. -1.
       -2    1    3    3    0  502  0.89520731073E+03  0.72965772824E+03 -0.52745534371E+03  0.12696478524E+04  0.25500000920E-02 0.  1.
</event>
<event>
 5   0  0.4798609E-05  0.2314792E+04  0.7818609E-02  0.8472112E-01
       -2   -1    0    0    0  501  0.00000000000E+00  0.00000000000E+00  0.97474007099E+03  0.97474007099E+03  0.25500000920E-02 0. -1.
        2   -1    0    0  501    0  0.00000000000E+00  0.00000000000E+00 -0.13742795890E+04  0.13742795890E+04  0.25500000920E-02 0.  1.
    10030    2    1    2    0    0  0.00000000000E+00  0.00000000000E+00 -0.39953951803E+03  0.23490196600E+04  0.23147918992E+04 0.  0.
        2    1    3    3  502    0  0.66617166549E+02  0.74235664688E+03  0.69878011257E+03  0.10216774852E+04  0.25500000920E-02 0. -1.
       -2    1    3    3    0  502 -0.66617166549E+02 -0.74235664688E+03 -0.10983196306E+04  0.13273421748E+04  0.25500000920E-02 0.  1.
</event>
<event>
 5   0  0.2043885E-05  0.2310370E+04  0.7818609E-02  0.8473844E-01
        1   -1    0    0  501    0  0.00000000000E+00  0.00000000000E+00  0.25258349563E+04  0.25258349563E+04  0.50400001928E-02 0. -1.
       -1   -1    0    0    0  501  0.00000000000E+00  0.00000000000E+00 -0.52832112003E+03  0.52832112006E+03  0.50400001928E-02 0.  1.
    10030    2    1    2    0    0  0.00000000000E+00  0.00000000000E+00  0.19975138363E+04  0.30541560764E+04  0.23103696269E+04 0.  0.
        5    1    3    3  502    0 -0.60413018266E+03 -0.87206489561E+03  0.16030403964E+04  0.19222983801E+04  0.46999998093E+01 0. -1.
       -5    1    3    3    0  502  0.60413018266E+03  0.87206489561E+03  0.39447343985E+03  0.11318576962E+04  0.46999998093E+01 0.  1.
</event>
</LesHouchesEvents>
