<LesHouchesEvents version="3.0">
<header>
<!--
#*********************************************************************
#                                                                    *
#                        MadGraph5_aMC@NLO                           *
#                                                                    *
#                           Going Beyond                             *
#                                                                    *
#                   http://madgraph.hep.uiuc.edu                     *
#                   http://madgraph.phys.ucl.ac.be                   *
#                   http://amcatnlo.cern.ch                          *
#                                                                    *
#                     The MadGraph5_aMC@NLO team                     *
#                                                                    *
#....................................................................*
#                                                                    *
# This file contains all the information necessary to reproduce      *
# the events generated:                                              *
#                                                                    *
# 1. software version                                                *
# 2. proc_card          : code generation info including model       *
# 3. param_card         : model primary parameters in the LH format  *
# 4. run_card           : running parameters (collider and cuts)     *
# 5. pythia_card        : present only if pythia has been run        *
# 6. pgs_card           : present only if pgs has been run           *
# 7. delphes_cards      : present only if delphes has been run       *
#                                                                    *
#                                                                    *
#*********************************************************************
-->
<MGVersion>
#5.2.2.3
</MGVersion>
<MG5ProcCard>
#************************************************************
#*                     MadGraph5_aMC@NLO                    *
#*                                                          *
#*                *                       *                 *
#*                  *        * *        *                   *
#*                    * * * * 5 * * * *                     *
#*                  *        * *        *                   *
#*                *                       *                 *
#*                                                          *
#*                                                          *
#*         VERSION 2.2.3                 2015-02-10         *
#*                                                          *
#*    The MadGraph5_aMC@NLO Development Team - Find us at   *
#*    https://server06.fynu.ucl.ac.be/projects/madgraph     *
#*                                                          *
#************************************************************
#*                                                          *
#*               Command File for MadGraph5_aMC@NLO         *
#*                                                          *
#*     run as ./bin/mg5_aMC  filename                       *
#*                                                          *
#************************************************************
set group_subprocesses Auto
set ignore_six_quark_processes False
set loop_optimized_output True
set gauge unitary
set complex_mass_scheme False
import model sm
define p = g u c d s u~ c~ d~ s~
define j = g u c d s u~ c~ d~ s~
define l+ = e+ mu+
define l- = e- mu-
define vl = ve vm vt
define vl~ = ve~ vm~ vt~
import model Zprime_UFO
generate p p > zph, zph > j j
add process p p > zph, zph > b b~
output Dijet_signal
</MG5ProcCard>
<MGProcCard>
#*********************************************************************
#                        MadGraph/MadEvent                           *
#                   http://madgraph.hep.uiuc.edu                     *
#                                                                    *
#                          proc_card.dat                             *
#*********************************************************************
#                                                                    *
#            This Files is generated by MADGRAPH 5                   *
#                                                                    *
# WARNING: This Files is generated for MADEVENT (compatibility issue)*
#          This files is NOT a valid MG4 proc_card.dat               *
#          Running this in MG4 will NEVER reproduce the result of MG5*
#                                                                    *
#*********************************************************************
#*********************************************************************
# Process(es) requested : mg2 input                                  *
#*********************************************************************
# Begin PROCESS # This is TAG. Do not modify this line
p p > zph , zph > j j           #Process
# Be carefull the coupling are here in MG5 convention
          
end_coup           # End the couplings input

done               # this tells MG there are no more procs
# End PROCESS  # This is TAG. Do not modify this line
#*********************************************************************
# Model information                                                  *
#*********************************************************************
# Begin MODEL  # This is TAG. Do not modify this line
Zprime_UFO
# End   MODEL  # This is TAG. Do not modify this line
#*********************************************************************
# Start multiparticle definitions                                    *
#*********************************************************************
# Begin MULTIPARTICLES # This is TAG. Do not modify this line

# End  MULTIPARTICLES # This is TAG. Do not modify this line
</MGProcCard>
<MGRunCard>
#*********************************************************************
#                       MadGraph5_aMC@NLO                            *
#                                                                    *
#                     run_card.dat MadEvent                          *
#                                                                    *
#  This file is used to set the parameters of the run.               *
#                                                                    *
#  Some notation/conventions:                                        *
#                                                                    *
#   Lines starting with a '# ' are info or comments                  *
#                                                                    *
#   mind the format:   value    = variable     ! comment             *
#*********************************************************************
#
#*******************                                                 
# Running parameters
#*******************                                                 
#                                                                    
#*********************************************************************
# Tag name for the run (one word)                                    *
#*********************************************************************
  tag_1     = run_tag ! name of the run 
#*********************************************************************
# Run to generate the grid pack                                      *
#*********************************************************************
  .false.     = gridpack  !True = setting up the grid pack
#*********************************************************************
# Number of events and rnd seed                                      *
# Warning: Do not generate more than 1M events in a single run       *
# If you want to run Pythia, avoid more than 50k events in a run.    *
#*********************************************************************
  2000 = nevents ! Number of unweighted events requested 
 2433 = iseed   ! rnd seed (0=assigned automatically=default))
#*********************************************************************
# Collider type and energy                                           *
# lpp: 0=No PDF, 1=proton, -1=antiproton, 2=photon from proton,      *
#                                         3=photon from electron     *
#*********************************************************************
        1     = lpp1    ! beam 1 type 
        1     = lpp2    ! beam 2 type
     4000     = ebeam1  ! beam 1 total energy in GeV
     4000     = ebeam2  ! beam 2 total energy in GeV
#*********************************************************************
# Beam polarization from -100 (left-handed) to 100 (right-handed)    *
#*********************************************************************
        0     = polbeam1 ! beam polarization for beam 1
        0     = polbeam2 ! beam polarization for beam 2
#*********************************************************************
# PDF CHOICE: this automatically fixes also alpha_s and its evol.    *
#*********************************************************************
 'nn23lo1'    = pdlabel     ! PDF set                                     
 230000    = lhaid     ! if pdlabel=lhapdf, this is the lhapdf number
#*********************************************************************
# Renormalization and factorization scales                           *
#*********************************************************************
 F        = fixed_ren_scale  ! if .true. use fixed ren scale
 F        = fixed_fac_scale  ! if .true. use fixed fac scale
 91.1880  = scale            ! fixed ren scale
 91.1880  = dsqrt_q2fact1    ! fixed fact scale for pdf1
 91.1880  = dsqrt_q2fact2    ! fixed fact scale for pdf2
 1        = scalefact        ! scale factor for event-by-event scales
#*********************************************************************
# Matching - Warning! ickkw > 1 is still beta
#*********************************************************************
 0        = ickkw            ! 0 no matching, 1 MLM, 2 CKKW matching
 1        = highestmult      ! for ickkw=2, highest mult group
 1        = ktscheme         ! for ickkw=1, 1 Durham kT, 2 Pythia pTE
 1        = alpsfact         ! scale factor for QCD emission vx
 F        = chcluster        ! cluster only according to channel diag
 T        = pdfwgt           ! for ickkw=1, perform pdf reweighting
 5        = asrwgtflavor     ! highest quark flavor for a_s reweight
 T        = clusinfo         ! include clustering tag in output
 3.0      = lhe_version       ! Change the way clustering information pass to shower.        
#*********************************************************************
#**********************************************************
#
#**********************************************************
# Automatic ptj and mjj cuts if xqcut > 0
# (turn off for VBF and single top processes)
#**********************************************************
   T  = auto_ptj_mjj  ! Automatic setting of ptj and mjj
#**********************************************************
#                                                                    
#**********************************
# BW cutoff (M+/-bwcutoff*Gamma)
#**********************************
  15  = bwcutoff      ! (M+/-bwcutoff*Gamma)
#**********************************************************
# Apply pt/E/eta/dr/mij cuts on decay products or not
# (note that etmiss/ptll/ptheavy/ht/sorted cuts always apply)
#**********************************************************
   T  = cut_decays    ! Cut decay products 
#*************************************************************
# Number of helicities to sum per event (0 = all helicities)
# 0 gives more stable result, but longer run time (needed for
# long decay chains e.g.).
# Use >=2 if most helicities contribute, e.g. pure QCD.
#*************************************************************
   0  = nhel          ! Number of helicities used per event
#*******************                                                 
# Standard Cuts
#*******************                                                 
#                                                                    
#*********************************************************************
# Minimum and maximum pt's (for max, -1 means no cut)                *
#*********************************************************************
 20  = ptj       ! minimum pt for the jets 
  0  = ptb       ! minimum pt for the b 
 10  = pta       ! minimum pt for the photons 
 10  = ptl       ! minimum pt for the charged leptons 
  0  = misset    ! minimum missing Et (sum of neutrino's momenta)
  0  = ptheavy   ! minimum pt for one heavy final state
 1.0 = ptonium   ! minimum pt for the quarkonium states
 -1  = ptjmax    ! maximum pt for the jets
 -1  = ptbmax    ! maximum pt for the b
 -1  = ptamax    ! maximum pt for the photons
 -1  = ptlmax    ! maximum pt for the charged leptons
 -1  = missetmax ! maximum missing Et (sum of neutrino's momenta)
#*********************************************************************
# Minimum and maximum E's (in the center of mass frame)              *
#*********************************************************************
  0  = ej     ! minimum E for the jets 
  0  = eb     ! minimum E for the b 
  0  = ea     ! minimum E for the photons 
  0  = el     ! minimum E for the charged leptons 
 -1   = ejmax ! maximum E for the jets
 -1   = ebmax ! maximum E for the b
 -1   = eamax ! maximum E for the photons
 -1   = elmax ! maximum E for the charged leptons
#*********************************************************************
# Maximum and minimum absolute rapidity (for max, -1 means no cut)   *
#*********************************************************************
   5  = etaj    ! max rap for the jets 
  -1  = etab    ! max rap for the b
 2.5  = etaa    ! max rap for the photons 
 2.5  = etal    ! max rap for the charged leptons 
 0.6  = etaonium ! max rap for the quarkonium states
   0  = etajmin ! min rap for the jets
   0  = etabmin ! min rap for the b
   0  = etaamin ! min rap for the photons
   0  = etalmin ! main rap for the charged leptons
#*********************************************************************
# Minimum and maximum DeltaR distance                                *
#*********************************************************************
 0.4 = drjj    ! min distance between jets 
 0   = drbb    ! min distance between b's 
 0.4 = drll    ! min distance between leptons 
 0.4 = draa    ! min distance between gammas 
 0   = drbj    ! min distance between b and jet 
 0.4 = draj    ! min distance between gamma and jet 
 0.4 = drjl    ! min distance between jet and lepton 
 0   = drab    ! min distance between gamma and b 
 0   = drbl    ! min distance between b and lepton 
 0.4 = dral    ! min distance between gamma and lepton 
 -1  = drjjmax ! max distance between jets
 -1  = drbbmax ! max distance between b's
 -1  = drllmax ! max distance between leptons
 -1  = draamax ! max distance between gammas
 -1  = drbjmax ! max distance between b and jet
 -1  = drajmax ! max distance between gamma and jet
 -1  = drjlmax ! max distance between jet and lepton
 -1  = drabmax ! max distance between gamma and b
 -1  = drblmax ! max distance between b and lepton
 -1  = dralmax ! maxdistance between gamma and lepton
#*********************************************************************
# Minimum and maximum invariant mass for pairs                       *
# WARNING: for four lepton final state mmll cut require to have      *
#          different lepton masses for each flavor!                  *           
#*********************************************************************
 0   = mmjj    ! min invariant mass of a jet pair 
 0   = mmbb    ! min invariant mass of a b pair 
 0   = mmaa    ! min invariant mass of gamma gamma pair
 0   = mmll    ! min invariant mass of l+l- (same flavour) lepton pair
 -1  = mmjjmax ! max invariant mass of a jet pair
 -1  = mmbbmax ! max invariant mass of a b pair
 -1  = mmaamax ! max invariant mass of gamma gamma pair
 -1  = mmllmax ! max invariant mass of l+l- (same flavour) lepton pair
#*********************************************************************
# Minimum and maximum invariant mass for all letpons                 *
#*********************************************************************
 0   = mmnl    ! min invariant mass for all letpons (l+- and vl) 
 -1  = mmnlmax ! max invariant mass for all letpons (l+- and vl) 
#*********************************************************************
# Minimum and maximum pt for 4-momenta sum of leptons                *
#*********************************************************************
 0   = ptllmin  ! Minimum pt for 4-momenta sum of leptons(l and vl)
 -1  = ptllmax  ! Maximum pt for 4-momenta sum of leptons(l and vl)
#*********************************************************************
# Inclusive cuts                                                     *
#*********************************************************************
 0  = xptj ! minimum pt for at least one jet  
 0  = xptb ! minimum pt for at least one b 
 0  = xpta ! minimum pt for at least one photon 
 0  = xptl ! minimum pt for at least one charged lepton 
#*********************************************************************
# Control the pt's of the jets sorted by pt                          *
#*********************************************************************
 0   = ptj1min ! minimum pt for the leading jet in pt
 0   = ptj2min ! minimum pt for the second jet in pt
 0   = ptj3min ! minimum pt for the third jet in pt
 0   = ptj4min ! minimum pt for the fourth jet in pt
 -1  = ptj1max ! maximum pt for the leading jet in pt 
 -1  = ptj2max ! maximum pt for the second jet in pt
 -1  = ptj3max ! maximum pt for the third jet in pt
 -1  = ptj4max ! maximum pt for the fourth jet in pt
 0   = cutuse  ! reject event if fails any (0) / all (1) jet pt cuts
#*********************************************************************
# Control the pt's of leptons sorted by pt                           *
#*********************************************************************
 0   = ptl1min ! minimum pt for the leading lepton in pt
 0   = ptl2min ! minimum pt for the second lepton in pt
 0   = ptl3min ! minimum pt for the third lepton in pt
 0   = ptl4min ! minimum pt for the fourth lepton in pt
 -1  = ptl1max ! maximum pt for the leading lepton in pt 
 -1  = ptl2max ! maximum pt for the second lepton in pt
 -1  = ptl3max ! maximum pt for the third lepton in pt
 -1  = ptl4max ! maximum pt for the fourth lepton in pt
#*********************************************************************
# Control the Ht(k)=Sum of k leading jets                            *
#*********************************************************************
 0   = htjmin ! minimum jet HT=Sum(jet pt)
 -1  = htjmax ! maximum jet HT=Sum(jet pt)
 0   = ihtmin  !inclusive Ht for all partons (including b)
 -1  = ihtmax  !inclusive Ht for all partons (including b)
 0   = ht2min ! minimum Ht for the two leading jets
 0   = ht3min ! minimum Ht for the three leading jets
 0   = ht4min ! minimum Ht for the four leading jets
 -1  = ht2max ! maximum Ht for the two leading jets
 -1  = ht3max ! maximum Ht for the three leading jets
 -1  = ht4max ! maximum Ht for the four leading jets
#***********************************************************************
# Photon-isolation cuts, according to hep-ph/9801442                   *
# When ptgmin=0, all the other parameters are ignored                  *
# When ptgmin>0, pta and draj are not going to be used                 *
#***********************************************************************
   0 = ptgmin ! Min photon transverse momentum
 0.4 = R0gamma ! Radius of isolation code
 1.0 = xn ! n parameter of eq.(3.4) in hep-ph/9801442
 1.0 = epsgamma ! epsilon_gamma parameter of eq.(3.4) in hep-ph/9801442
 .true. = isoEM ! isolate photons from EM energy (photons and leptons)
#*********************************************************************
# WBF cuts                                                           *
#*********************************************************************
 0   = xetamin ! minimum rapidity for two jets in the WBF case  
 0   = deltaeta ! minimum rapidity for two jets in the WBF case 
#*********************************************************************
# KT DURHAM CUT                                                      *
#*********************************************************************
 -1    =  ktdurham        
 0.4  =  dparameter 
#*********************************************************************
# maximal pdg code for quark to be considered as a light jet         *
# (otherwise b cuts are applied)                                     *
#*********************************************************************
 4 = maxjetflavor    ! Maximum jet pdg code
#*********************************************************************
# Jet measure cuts                                                   *
#*********************************************************************
 0   = xqcut   ! minimum kt jet measure between partons
#*********************************************************************
#
#*********************************************************************
# Store info for systematics studies                                 *
# WARNING: If use_syst is T, matched Pythia output is                *
#          meaningful ONLY if plotted taking matchscale              *
#          reweighting into account!                                 *
#*********************************************************************
   F  = use_syst      ! Enable systematics studies
#
#**************************************
# Parameter of the systematics study
#  will be used by SysCalc (if installed)
#**************************************                                  
#
0.5 1 2 = sys_scalefact  # factorization/renormalization scale factor
0.5 1 2 = sys_alpsfact  # \alpha_s emission scale factors
30 50 = sys_matchscale # variation of merging scale
# PDF sets and number of members (0 or none for all members).
CT10nlo.LHgrid = sys_pdf # matching scales
# MSTW2008nlo68cl.LHgrid 1  = sys_pdf
</MGRunCard>
<slha>
######################################################################
## PARAM_CARD AUTOMATICALY GENERATED BY MG5 FOLLOWING UFO MODEL   ####
######################################################################
##                                                                  ##
##  Width set on Auto will be computed following the information    ##
##        present in the decay.py files of the model.               ##
##        See  arXiv:1402.1178 for more details.                    ##
##                                                                  ##
######################################################################

###################################
## INFORMATION FOR CKMBLOCK
###################################
Block ckmblock 
    1 2.277360e-01 # cabi 

###################################
## INFORMATION FOR FRBLOCK
###################################
Block frblock 
    1 1.200000e+00 # gz 

###################################
## INFORMATION FOR MASS
###################################
Block mass 
    1 5.040000e-03 # MD 
    2 2.550000e-03 # MU 
    3 1.010000e-01 # MS 
    4 1.270000e+00 # MC 
    5 4.700000e+00 # MB 
    6 1.720000e+02 # MT 
   11 5.110000e-04 # Me 
   13 1.056600e-01 # MM 
   15 1.777000e+00 # MTA 
   23 9.118760e+01 # MZ 
   25 1.200000e+02 # MH 
  10030 4.000000e+03 # MZph 
  10031 3.000000e+02 # MZpl 
## Dependent parameters, given by model restrictions.
## Those values should be edited following the 
## analytical expression. MG5 ignores those values 
## but they are important for interfacing the output of MG5
## to external program such as Pythia.
  12 0.000000 # ve : 0.0 
  14 0.000000 # vm : 0.0 
  16 0.000000 # vt : 0.0 
  21 0.000000 # g : 0.0 
  22 0.000000 # a : 0.0 
  24 79.824360 # w+ : cmath.sqrt(MZ__exp__2/2. + cmath.sqrt(MZ__exp__4/4. - (aEW*cmath.pi*MZ__exp__2)/(Gf*sqrt__2))) 

###################################
## INFORMATION FOR SMINPUTS
###################################
Block sminputs 
    1 1.279000e+02 # aEWM1 
    2 1.166370e-05 # Gf 
    3 1.184000e-01 # aS 

###################################
## INFORMATION FOR YUKAWA
###################################
Block yukawa 
    1 5.040000e-03 # ymdo 
    2 2.550000e-03 # ymup 
    3 1.010000e-01 # yms 
    4 1.270000e+00 # ymc 
    5 4.700000e+00 # ymb 
    6 1.720000e+02 # ymt 
   11 5.110000e-04 # yme 
   13 1.056600e-01 # ymm 
   15 1.777000e+00 # ymtau 

###################################
## INFORMATION FOR DECAY
###################################
DECAY   6 1.508336e+00 # WT 
DECAY  23 2.495200e+00 # WZ 
DECAY  24 2.085000e+00 # WW 
DECAY  25 5.753088e-03 # WH 
## Dependent parameters, given by model restrictions.
## Those values should be edited following the 
## analytical expression. MG5 ignores those values 
## but they are important for interfacing the output of MG5
## to external program such as Pythia.
DECAY  1 0.000000 # d : 0.0 
DECAY  2 0.000000 # u : 0.0 
DECAY  3 0.000000 # s : 0.0 
DECAY  4 0.000000 # c : 0.0 
DECAY  5 0.000000 # b : 0.0 
DECAY  11 0.000000 # e- : 0.0 
DECAY  12 0.000000 # ve : 0.0 
DECAY  13 0.000000 # mu- : 0.0 
DECAY  14 0.000000 # vm : 0.0 
DECAY  15 0.000000 # ta- : 0.0 
DECAY  16 0.000000 # vt : 0.0 
DECAY  21 0.000000 # g : 0.0 
DECAY  22 0.000000 # a : 0.0 
DECAY  10030 0.308725 # zph : (gz__exp__2*MZph*(5 + cmath.sqrt(1 - (4*MT__exp__2)/MZph__exp__2)))/(144.*cmath.pi) 
DECAY  10031 0.132629 # zpl : (5*gz__exp__2*MZpl)/(144.*cmath.pi) 
#===========================================================
# QUANTUM NUMBERS OF NEW STATE(S) (NON SM PDG CODE)
#===========================================================

Block QNUMBERS 10030  # zph 
        1 0  # 3 times electric charge
        2 3  # number of spin states (2S+1)
        3 1  # colour rep (1: singlet, 3: triplet, 8: octet)
        4 0  # Particle/Antiparticle distinction (0=own anti)
Block QNUMBERS 10031  # zpl 
        1 0  # 3 times electric charge
        2 3  # number of spin states (2S+1)
        3 1  # colour rep (1: singlet, 3: triplet, 8: octet)
        4 0  # Particle/Antiparticle distinction (0=own anti)
</slha>
## END BANNER##
<MGGenerationInfo>
#  Number of Events        :         3841
#  Integrated weight (pb)  :  0.68229E-04
#  Max wgt                 :  0.28393E-07
#  Average wgt             :  0.17763E-07
</MGGenerationInfo>
</header>
<init>
     2212     2212  0.40000000000E+04  0.40000000000E+04 0 0  247000  247000 2   1
  0.68368065636E-04  0.17046674180E-06  0.28392790000E-07   0
</init>
<event>
 5   0  0.2661693E-07  0.3960058E+04  0.7818609E-02  0.8012653E-01
       -2   -1    0    0    0  501  0.00000000000E+00  0.00000000000E+00  0.28239226121E+04  0.28239226121E+04  0.25500000920E-02 0. -1.
        2   -1    0    0  501    0  0.00000000000E+00  0.00000000000E+00 -0.13883221597E+04  0.13883221597E+04  0.25500000920E-02 0.  1.
    10030    2    1    2    0    0  0.00000000000E+00  0.00000000000E+00  0.14356004524E+04  0.42122447718E+04  0.39600577469E+04 0.  0.
        1    1    3    3  502    0  0.13680454058E+04  0.54761778512E+03  0.21245505562E+04  0.25855654192E+04  0.50400001928E-02 0. -1.
       -1    1    3    3    0  502 -0.13680454058E+04 -0.54761778512E+03 -0.68895010379E+03  0.16266793527E+04  0.50400001928E-02 0.  1.
</event>
<event>
 5   0  0.2661693E-07  0.4046333E+04  0.7818609E-02  0.7995264E-01
        2   -1    0    0  501    0  0.00000000000E+00  0.00000000000E+00  0.21276551759E+04  0.21276551759E+04  0.25500000920E-02 0. -1.
       -2   -1    0    0    0  501  0.00000000000E+00  0.00000000000E+00 -0.19238094350E+04  0.19238094350E+04  0.25500000920E-02 0.  1.
    10030    2    1    2    0    0  0.00000000000E+00  0.00000000000E+00  0.20384574086E+03  0.40514646109E+04  0.40463332052E+04 0.  0.
        1    1    3    3  502    0  0.10098639778E+03  0.67655280070E+03  0.20083545830E+04  0.21216526755E+04  0.50400001928E-02 0. -1.
       -1    1    3    3    0  502 -0.10098639778E+03 -0.67655280070E+03 -0.18045088421E+04  0.19298119354E+04  0.50400001928E-02 0.  1.
</event>
<event>
 5   0  0.2839279E-07  0.3968952E+04  0.7818609E-02  0.8010839E-01
        2   -1    0    0  501    0  0.00000000000E+00  0.00000000000E+00  0.14502316086E+04  0.14502316086E+04  0.25500000920E-02 0.  1.
       -2   -1    0    0    0  501  0.00000000000E+00  0.00000000000E+00 -0.27155285317E+04  0.27155285317E+04  0.25500000920E-02 0. -1.
    10030    2    1    2    0    0  0.00000000000E+00  0.00000000000E+00 -0.12652969230E+04  0.41657601403E+04  0.39689521593E+04 0.  0.
        3    1    3    3  502    0  0.44290552283E+02  0.13430533395E+04  0.90003282438E+03  0.16173475263E+04  0.10100000352E+00 0.  1.
       -3    1    3    3    0  502 -0.44290552283E+02 -0.13430533395E+04 -0.21653297474E+04  0.25484126140E+04  0.10100000352E+00 0. -1.
</event>
<event>
 5   0  0.2661693E-07  0.3272511E+04  0.7818609E-02  0.8169925E-01
       -2   -1    0    0    0  501  0.00000000000E+00  0.00000000000E+00  0.27909984571E+04  0.27909984571E+04  0.25500000920E-02 0. -1.
        2   -1    0    0  501    0  0.00000000000E+00  0.00000000000E+00 -0.95927405788E+03  0.95927405788E+03  0.25500000920E-02 0.  1.
    10030    2    1    2    0    0  0.00000000000E+00  0.00000000000E+00  0.18317243992E+04  0.37502725150E+04  0.32725112165E+04 0.  0.
        1    1    3    3  502    0  0.21732210500E+03  0.81529815083E+03  0.25224568786E+04  0.26598362123E+04  0.50400001928E-02 0. -1.
       -1    1    3    3    0  502 -0.21732210500E+03 -0.81529815083E+03 -0.69073247937E+03  0.10904363027E+04  0.50400001928E-02 0.  1.
</event>
<event>
 5   0  0.2839279E-07  0.4017001E+04  0.7818609E-02  0.8001126E-01
       -2   -1    0    0    0  501  0.00000000000E+00  0.00000000000E+00  0.23432862035E+04  0.23432862035E+04  0.25500000920E-02 0.  1.
        2   -1    0    0  501    0  0.00000000000E+00  0.00000000000E+00 -0.17215459895E+04  0.17215459895E+04  0.25500000920E-02 0. -1.
    10030    2    1    2    0    0  0.00000000000E+00  0.00000000000E+00  0.62174021406E+03  0.40648321930E+04  0.40170013522E+04 0.  0.
        3    1    3    3  502    0  0.48615666950E+03  0.10523604915E+04 -0.13488623891E+04  0.17785501585E+04  0.10100000352E+00 0. -1.
       -3    1    3    3    0  502 -0.48615666950E+03 -0.10523604915E+04  0.19706026032E+04  0.22862820345E+04  0.10100000352E+00 0.  1.
</event>
<event>
 5   0  0.8583262E-08  0.3472913E+04  0.7818609E-02  0.8120239E-01
       -1   -1    0    0    0  501  0.00000000000E+00  0.00000000000E+00  0.19436568499E+04  0.19436568499E+04  0.50400001928E-02 0. -1.
        1   -1    0    0  501    0  0.00000000000E+00  0.00000000000E+00 -0.15513447584E+04  0.15513447584E+04  0.50400001928E-02 0.  1.
    10030    2    1    2    0    0  0.00000000000E+00  0.00000000000E+00  0.39231209152E+03  0.34950016083E+04  0.34729133972E+04 0.  0.
        1    1    3    3  502    0 -0.24506420275E+03  0.13741321131E+04  0.12356760609E+04  0.18641863789E+04  0.50400001928E-02 0. -1.
       -1    1    3    3    0  502  0.24506420275E+03 -0.13741321131E+04 -0.84336396939E+03  0.16308152294E+04  0.50400001928E-02 0.  1.
</event>
<event>
 5   0  0.8528625E-08  0.4001692E+04  0.7818609E-02  0.8004205E-01
        1   -1    0    0  501    0  0.00000000000E+00  0.00000000000E+00  0.15052844069E+04  0.15052844069E+04  0.50400001928E-02 0.  1.
       -1   -1    0    0    0  501  0.00000000000E+00  0.00000000000E+00 -0.26595533255E+04  0.26595533255E+04  0.50400001928E-02 0. -1.
    10030    2    1    2    0    0  0.00000000000E+00  0.00000000000E+00 -0.11542689186E+04  0.41648377325E+04  0.40016917174E+04 0.  0.
        3    1    3    3  502    0 -0.11463426238E+04  0.61598025426E+03  0.10046468708E+04  0.16440341937E+04  0.10100000352E+00 0.  1.
       -3    1    3    3    0  502  0.11463426238E+04 -0.61598025426E+03 -0.21589157895E+04  0.25208035388E+04  0.10100000352E+00 0. -1.
</event>
<event>
 5   0  0.2661693E-07  0.3877765E+04  0.7818609E-02  0.8029670E-01
       -2   -1    0    0    0  501  0.00000000000E+00  0.00000000000E+00  0.33023213338E+04  0.33023213338E+04  0.25500000920E-02 0.  1.
        2   -1    0    0  501    0  0.00000000000E+00  0.00000000000E+00 -0.11383704146E+04  0.11383704146E+04  0.25500000920E-02 0. -1.
    10030    2    1    2    0    0  0.00000000000E+00  0.00000000000E+00  0.21639509192E+04  0.44406917484E+04  0.38777647716E+04 0.  0.
        1    1    3    3  502    0  0.12659224022E+04  0.84923888528E+03 -0.29007652860E+03  0.15517443749E+04  0.50400001928E-02 0. -1.
       -1    1    3    3    0  502 -0.12659224022E+04 -0.84923888528E+03  0.24540274478E+04  0.28889473735E+04  0.50400001928E-02 0.  1.
</event>
<event>
 5   0  0.8528625E-08  0.4009391E+04  0.7818609E-02  0.8002655E-01
        1   -1    0    0  501    0  0.00000000000E+00  0.00000000000E+00  0.12020699432E+04  0.12020699432E+04  0.50400001928E-02 0. -1.
       -1   -1    0    0    0  501  0.00000000000E+00  0.00000000000E+00 -0.33432363242E+04  0.33432363242E+04  0.50400001928E-02 0.  1.
    10030    2    1    2    0    0  0.00000000000E+00  0.00000000000E+00 -0.21411663811E+04  0.45453062674E+04  0.40093909254E+04 0.  0.
        2    1    3    3  502    0  0.11952075459E+04 -0.25765514323E+03 -0.28716114698E+04  0.31210670746E+04  0.25500000920E-02 0.  1.
       -2    1    3    3    0  502 -0.11952075459E+04  0.25765514323E+03  0.73044508879E+03  0.14242391928E+04  0.25500000920E-02 0. -1.
</event>
<event>
 5   0  0.2661693E-07  0.3979679E+04  0.7818609E-02  0.8008659E-01
       -2   -1    0    0    0  501  0.00000000000E+00  0.00000000000E+00  0.16109772432E+04  0.16109772432E+04  0.25500000920E-02 0. -1.
        2   -1    0    0  501    0  0.00000000000E+00  0.00000000000E+00 -0.24578009246E+04  0.24578009246E+04  0.25500000920E-02 0.  1.
    10030    2    1    2    0    0  0.00000000000E+00  0.00000000000E+00 -0.84682368142E+03  0.40687781678E+04  0.39796790614E+04 0.  0.
        1    1    3    3  502    0 -0.14113081019E+04 -0.13425384681E+04 -0.83903667890E+03  0.21208919457E+04  0.50400001928E-02 0.  1.
       -1    1    3    3    0  502  0.14113081019E+04  0.13425384681E+04 -0.77870025259E+01  0.19478862221E+04  0.50400001928E-02 0. -1.
</event>
<event>
 5   0  0.8528625E-08  0.4009298E+04  0.7818609E-02  0.8002673E-01
        1   -1    0    0  501    0  0.00000000000E+00  0.00000000000E+00  0.27404696465E+04  0.27404696465E+04  0.50400001928E-02 0. -1.
       -1   -1    0    0    0  501  0.00000000000E+00  0.00000000000E+00 -0.14663976321E+04  0.14663976321E+04  0.50400001928E-02 0.  1.
    10030    2    1    2    0    0  0.00000000000E+00  0.00000000000E+00  0.12740720144E+04  0.42068672786E+04  0.40092982930E+04 0.  0.
        2    1    3    3  502    0  0.69832163926E+03  0.12467845666E+04 -0.83812056523E+03  0.16566746661E+04  0.25500000920E-02 0.  1.
       -2    1    3    3    0  502 -0.69832163926E+03 -0.12467845666E+04  0.21121925796E+04  0.25501926125E+04  0.25500000920E-02 0. -1.
</event>
<event>
 5   0  0.2704088E-07  0.4036731E+04  0.7818609E-02  0.7997177E-01
       -2   -1    0    0    0  501  0.00000000000E+00  0.00000000000E+00  0.19354268717E+04  0.19354268717E+04  0.25500000920E-02 0.  1.
        2   -1    0    0  501    0  0.00000000000E+00  0.00000000000E+00 -0.21048587270E+04  0.21048587270E+04  0.25500000920E-02 0. -1.
    10030    2    1    2    0    0  0.00000000000E+00  0.00000000000E+00 -0.16943185537E+03  0.40402855987E+04  0.40367314210E+04 0.  0.
        5    1    3    3  502    0 -0.18968124742E+04 -0.59107209646E+03 -0.44071753633E+03  0.20350719452E+04  0.46999998093E+01 0.  1.
       -5    1    3    3    0  502  0.18968124742E+04  0.59107209646E+03  0.27128568096E+03  0.20052136535E+04  0.46999998093E+01 0. -1.
</event>
<event>
 5   0  0.8528625E-08  0.4189196E+04  0.7818609E-02  0.7967431E-01
        1   -1    0    0  501    0  0.00000000000E+00  0.00000000000E+00  0.17870340696E+04  0.17870340696E+04  0.50400001928E-02 0. -1.
       -1   -1    0    0    0  501  0.00000000000E+00  0.00000000000E+00 -0.24550960903E+04  0.24550960903E+04  0.50400001928E-02 0.  1.
    10030    2    1    2    0    0  0.00000000000E+00  0.00000000000E+00 -0.66806202076E+03  0.42421301599E+04  0.41891957975E+04 0.  0.
        5    1    3    3  502    0 -0.71842859911E+01  0.53324504764E+03 -0.23851915978E+04  0.24440873436E+04  0.46999998093E+01 0.  1.
       -5    1    3    3    0  502  0.71842859911E+01 -0.53324504764E+03  0.17171295771E+04  0.17980428163E+04  0.46999998093E+01 0. -1.
</event>
<event>
 5   0  0.8583262E-08  0.4018225E+04  0.7818609E-02  0.8000880E-01
       -1   -1    0    0    0  501  0.00000000000E+00  0.00000000000E+00  0.15478557135E+04  0.15478557135E+04  0.50400001928E-02 0. -1.
        1   -1    0    0  501    0  0.00000000000E+00  0.00000000000E+00 -0.26078228421E+04  0.26078228421E+04  0.50400001928E-02 0.  1.
    10030    2    1    2    0    0  0.00000000000E+00  0.00000000000E+00 -0.10599671286E+04  0.41556785557E+04  0.40182252232E+04 0.  0.
        1    1    3    3  502    0  0.19508864943E+04 -0.47663306540E+03 -0.59025482584E+03  0.20932123523E+04  0.50400001928E-02 0.  1.
       -1    1    3    3    0  502 -0.19508864943E+04  0.47663306540E+03 -0.46971230277E+03  0.20624662033E+04  0.50400001928E-02 0. -1.
</event>
<event>
 5   0  0.8528625E-08  0.4087986E+04  0.7818609E-02  0.7987029E-01
        1   -1    0    0  501    0  0.00000000000E+00  0.00000000000E+00  0.21879240735E+04  0.21879240735E+04  0.50400001928E-02 0.  1.
       -1   -1    0    0    0  501  0.00000000000E+00  0.00000000000E+00 -0.19095301101E+04  0.19095301101E+04  0.50400001928E-02 0. -1.
    10030    2    1    2    0    0  0.00000000000E+00  0.00000000000E+00  0.27839396336E+03  0.40974541835E+04  0.40879857617E+04 0.  0.
        3    1    3    3  502    0  0.11474856243E+04 -0.14486755709E+04  0.10144449785E+04  0.21081942018E+04  0.10100000352E+00 0.  1.
       -3    1    3    3    0  502 -0.11474856243E+04  0.14486755709E+04 -0.73605101519E+03  0.19892599817E+04  0.10100000352E+00 0. -1.
</event>
<event>
 5   0  0.8528625E-08  0.3850206E+04  0.7818609E-02  0.8035466E-01
       -1   -1    0    0    0  501  0.00000000000E+00  0.00000000000E+00  0.16770907159E+04  0.16770907159E+04  0.50400001928E-02 0. -1.
        1   -1    0    0  501    0  0.00000000000E+00  0.00000000000E+00 -0.22097921806E+04  0.22097921806E+04  0.50400001928E-02 0.  1.
    10030    2    1    2    0    0  0.00000000000E+00  0.00000000000E+00 -0.53270146466E+03  0.38868828965E+04  0.38502062024E+04 0.  0.
        3    1    3    3  502    0 -0.17080664968E+04  0.23069253614E+03 -0.11320224244E+04  0.20620826810E+04  0.10100000352E+00 0.  1.
       -3    1    3    3    0  502  0.17080664968E+04 -0.23069253614E+03  0.59932095978E+03  0.18248002155E+04  0.10100000352E+00 0. -1.
</event>
<event>
 5   0  0.2661693E-07  0.3843366E+04  0.7818609E-02  0.8036912E-01
       -2   -1    0    0    0  501  0.00000000000E+00  0.00000000000E+00  0.19954559879E+04  0.19954559879E+04  0.25500000920E-02 0.  1.
        2   -1    0    0  501    0  0.00000000000E+00  0.00000000000E+00 -0.18506373032E+04  0.18506373032E+04  0.25500000920E-02 0. -1.
    10030    2    1    2    0    0  0.00000000000E+00  0.00000000000E+00  0.14481868467E+03  0.38460932911E+04  0.38433658624E+04 0.  0.
        1    1    3    3  502    0  0.12094620201E+03  0.87634864179E+03 -0.16347468667E+04  0.18587663231E+04  0.50400001928E-02 0. -1.
       -1    1    3    3    0  502 -0.12094620201E+03 -0.87634864179E+03  0.17795655514E+04  0.19873269679E+04  0.50400001928E-02 0.  1.
</event>
<event>
 5   0  0.8528625E-08  0.3035086E+04  0.7818609E-02  0.8233782E-01
        1   -1    0    0  501    0  0.00000000000E+00  0.00000000000E+00  0.18296816765E+04  0.18296816765E+04  0.50400001928E-02 0.  1.
       -1   -1    0    0    0  501  0.00000000000E+00  0.00000000000E+00 -0.12586540093E+04  0.12586540094E+04  0.50400001928E-02 0. -1.
    10030    2    1    2    0    0  0.00000000000E+00  0.00000000000E+00  0.57102766716E+03  0.30883356859E+04  0.30350856185E+04 0.  0.
        4    1    3    3  502    0  0.48601585961E+03  0.34401735238E+03 -0.11348180970E+04  0.12815510449E+04  0.12699999809E+01 0. -1.
       -4    1    3    3    0  502 -0.48601585961E+03 -0.34401735238E+03  0.17058457642E+04  0.18067846409E+04  0.12699999809E+01 0.  1.
</event>
<event>
 5   0  0.8583262E-08  0.4123658E+04  0.7818609E-02  0.7980055E-01
        1   -1    0    0  501    0  0.00000000000E+00  0.00000000000E+00  0.23284032095E+04  0.23284032095E+04  0.50400001928E-02 0.  1.
       -1   -1    0    0    0  501  0.00000000000E+00  0.00000000000E+00 -0.18257743867E+04  0.18257743868E+04  0.50400001928E-02 0. -1.
    10030    2    1    2    0    0  0.00000000000E+00  0.00000000000E+00  0.50262882277E+03  0.41541775963E+04  0.41236580566E+04 0.  0.
        1    1    3    3  502    0 -0.13518183445E+04  0.29541748227E+03 -0.12885450602E+04  0.18907756867E+04  0.50400001928E-02 0. -1.
       -1    1    3    3    0  502  0.13518183445E+04 -0.29541748227E+03  0.17911738830E+04  0.22634019096E+04  0.50400001928E-02 0.  1.
</event>
<event>
 5   0  0.2730801E-07  0.3526592E+04  0.7818609E-02  0.8107517E-01
       -2   -1    0    0    0  501  0.00000000000E+00  0.00000000000E+00  0.15439771140E+04  0.15439771140E+04  0.25500000920E-02 0.  1.
        2   -1    0    0  501    0  0.00000000000E+00  0.00000000000E+00 -0.20137683871E+04  0.20137683871E+04  0.25500000920E-02 0. -1.
    10030    2    1    2    0    0  0.00000000000E+00  0.00000000000E+00 -0.46979127313E+03  0.35577455011E+04  0.35265917272E+04 0.  0.
        2    1    3    3  502    0 -0.16192064634E+04 -0.46522146691E+03 -0.76002420817E+03  0.18482146470E+04  0.25500000920E-02 0.  1.
       -2    1    3    3    0  502  0.16192064634E+04  0.46522146691E+03  0.29023293504E+03  0.17095308541E+04  0.25500000920E-02 0. -1.
</event>
<event>
 5   0  0.8528625E-08  0.3943060E+04  0.7818609E-02  0.8016133E-01
        1   -1    0    0  501    0  0.00000000000E+00  0.00000000000E+00  0.16175371607E+04  0.16175371608E+04  0.50400001928E-02 0.  1.
       -1   -1    0    0    0  501  0.00000000000E+00  0.00000000000E+00 -0.24029929264E+04  0.24029929264E+04  0.50400001928E-02 0. -1.
    10030    2    1    2    0    0  0.00000000000E+00  0.00000000000E+00 -0.78545576566E+03  0.40205300872E+04  0.39430599060E+04 0.  0.
        3    1    3    3  502    0  0.12172205548E+04  0.10503147708E+04 -0.15562625825E+04  0.22375746318E+04  0.10100000352E+00 0. -1.
       -3    1    3    3    0  502 -0.12172205548E+04 -0.10503147708E+04  0.77080681680E+03  0.17829554554E+04  0.10100000352E+00 0.  1.
</event>
<event>
 5   0  0.2839279E-07  0.4249337E+04  0.7818609E-02  0.7956053E-01
        2   -1    0    0  501    0  0.00000000000E+00  0.00000000000E+00  0.18875563831E+04  0.18875563831E+04  0.25500000920E-02 0.  1.
       -2   -1    0    0    0  501  0.00000000000E+00  0.00000000000E+00 -0.23915657992E+04  0.23915657992E+04  0.25500000920E-02 0. -1.
    10030    2    1    2    0    0  0.00000000000E+00  0.00000000000E+00 -0.50400941613E+03  0.42791221823E+04  0.42493365552E+04 0.  0.
        3    1    3    3  502    0 -0.12134082012E+04 -0.15531768172E+04  0.54696551557E+03  0.20454556885E+04  0.10100000352E+00 0. -1.
       -3    1    3    3    0  502  0.12134082012E+04  0.15531768172E+04 -0.10509749317E+04  0.22336664938E+04  0.10100000352E+00 0.  1.
</event>
<event>
 5   0  0.8583262E-08  0.3805142E+04  0.7818609E-02  0.8045052E-01
        1   -1    0    0  501    0  0.00000000000E+00  0.00000000000E+00  0.21579336443E+04  0.21579336443E+04  0.50400001928E-02 0. -1.
       -1   -1    0    0    0  501  0.00000000000E+00  0.00000000000E+00 -0.16774275250E+04  0.16774275250E+04  0.50400001928E-02 0.  1.
    10030    2    1    2    0    0  0.00000000000E+00  0.00000000000E+00  0.48050611929E+03  0.38353611692E+04  0.38051424635E+04 0.  0.
        1    1    3    3  502    0 -0.15197085395E+04 -0.10689540328E+04 -0.17238856065E+03  0.18659835436E+04  0.50400001928E-02 0.  1.
       -1    1    3    3    0  502  0.15197085395E+04  0.10689540328E+04  0.65289467994E+03  0.19693776256E+04  0.50400001928E-02 0. -1.
</event>
<event>
 5   0  0.2730801E-07  0.3333334E+04  0.7818609E-02  0.8154465E-01
        2   -1    0    0  501    0  0.00000000000E+00  0.00000000000E+00  0.13806247551E+04  0.13806247551E+04  0.25500000920E-02 0. -1.
       -2   -1    0    0    0  501  0.00000000000E+00  0.00000000000E+00 -0.20119729631E+04  0.20119729631E+04  0.25500000920E-02 0.  1.
    10030    2    1    2    0    0  0.00000000000E+00  0.00000000000E+00 -0.63134820800E+03  0.33925977183E+04  0.33333344744E+04 0.  0.
        2    1    3    3  502    0 -0.10177873052E+04 -0.49112974802E+03  0.93112808307E+03  0.14642742008E+04  0.25500000920E-02 0. -1.
       -2    1    3    3    0  502  0.10177873052E+04  0.49112974802E+03 -0.15624762911E+04  0.19283235175E+04  0.25500000920E-02 0.  1.
</event>
<event>
 5   0  0.8528625E-08  0.3892336E+04  0.7818609E-02  0.8026625E-01
        1   -1    0    0  501    0  0.00000000000E+00  0.00000000000E+00  0.19980540188E+04  0.19980540188E+04  0.50400001928E-02 0. -1.
       -1   -1    0    0    0  501  0.00000000000E+00  0.00000000000E+00 -0.18956289453E+04  0.18956289453E+04  0.50400001928E-02 0.  1.
    10030    2    1    2    0    0  0.00000000000E+00  0.00000000000E+00  0.10242507354E+03  0.38936829641E+04  0.38923355623E+04 0.  0.
        2    1    3    3  502    0  0.86504572377E+02 -0.15496573854E+04  0.12257774059E+04  0.19777389368E+04  0.25500000920E-02 0. -1.
       -2    1    3    3    0  502 -0.86504572377E+02  0.15496573854E+04 -0.11233523324E+04  0.19159440273E+04  0.25500000920E-02 0.  1.
</event>
<event>
 5   0  0.2839279E-07  0.3412306E+04  0.7818609E-02  0.8134893E-01
       -2   -1    0    0    0  501  0.00000000000E+00  0.00000000000E+00  0.13216772804E+04  0.13216772804E+04  0.25500000920E-02 0. -1.
        2   -1    0    0  501    0  0.00000000000E+00  0.00000000000E+00 -0.22024730828E+04  0.22024730828E+04  0.25500000920E-02 0.  1.
    10030    2    1    2    0    0  0.00000000000E+00  0.00000000000E+00 -0.88079580247E+03  0.35241503632E+04  0.34123063369E+04 0.  0.
        3    1    3    3  502    0 -0.15948403698E+04  0.55169994452E+03 -0.18102906192E+03  0.16972507668E+04  0.10100000352E+00 0. -1.
       -3    1    3    3    0  502  0.15948403698E+04 -0.55169994452E+03 -0.69976674056E+03  0.18268995964E+04  0.10100000352E+00 0.  1.
</event>
<event>
 5   0  0.2704088E-07  0.4162941E+04  0.7818609E-02  0.7972459E-01
       -2   -1    0    0    0  501  0.00000000000E+00  0.00000000000E+00  0.24200183507E+04  0.24200183507E+04  0.25500000920E-02 0.  1.
        2   -1    0    0  501    0  0.00000000000E+00  0.00000000000E+00 -0.17902837219E+04  0.17902837219E+04  0.25500000920E-02 0. -1.
    10030    2    1    2    0    0  0.00000000000E+00  0.00000000000E+00  0.62973462881E+03  0.42103020725E+04  0.41629410084E+04 0.  0.
        5    1    3    3  502    0  0.20504218614E+03 -0.16176064239E+04  0.16233421311E+04  0.23008595362E+04  0.46999998093E+01 0.  1.
       -5    1    3    3    0  502 -0.20504218614E+03  0.16176064239E+04 -0.99360750234E+03  0.19094425363E+04  0.46999998093E+01 0. -1.
</event>
<event>
 5   0  0.8528625E-08  0.4066543E+04  0.7818609E-02  0.7991256E-01
       -1   -1    0    0    0  501  0.00000000000E+00  0.00000000000E+00  0.21719396784E+04  0.21719396784E+04  0.50400001928E-02 0.  1.
        1   -1    0    0  501    0  0.00000000000E+00  0.00000000000E+00 -0.19034569567E+04  0.19034569567E+04  0.50400001928E-02 0. -1.
    10030    2    1    2    0    0  0.00000000000E+00  0.00000000000E+00  0.26848272170E+03  0.40753966351E+04  0.40665433431E+04 0.  0.
        2    1    3    3  502    0  0.75735036884E+03  0.55312389550E+03 -0.16737561503E+04  0.19185893973E+04  0.25500000920E-02 0. -1.
       -2    1    3    3    0  502 -0.75735036884E+03 -0.55312389550E+03  0.19422388720E+04  0.21568072377E+04  0.25500000920E-02 0.  1.
</event>
<event>
 5   0  0.2839279E-07  0.4007913E+04  0.7818609E-02  0.8002952E-01
        2   -1    0    0  501    0  0.00000000000E+00  0.00000000000E+00  0.25354183486E+04  0.25354183486E+04  0.25500000920E-02 0.  1.
       -2   -1    0    0    0  501  0.00000000000E+00  0.00000000000E+00 -0.15838968475E+04  0.15838968475E+04  0.25500000920E-02 0. -1.
    10030    2    1    2    0    0  0.00000000000E+00  0.00000000000E+00  0.95152150119E+03  0.41193151961E+04  0.40079127383E+04 0.  0.
        3    1    3    3  502    0 -0.13509478070E+04 -0.50843120296E+03  0.19044627983E+04  0.23896737907E+04  0.10100000352E+00 0.  1.
       -3    1    3    3    0  502  0.13509478070E+04  0.50843120296E+03 -0.95294129710E+03  0.17296414054E+04  0.10100000352E+00 0. -1.
</event>
<event>
 5   0  0.2661693E-07  0.3637002E+04  0.7818609E-02  0.8082068E-01
        2   -1    0    0  501    0  0.00000000000E+00  0.00000000000E+00  0.23808933013E+04  0.23808933013E+04  0.25500000920E-02 0.  1.
       -2   -1    0    0    0  501  0.00000000000E+00  0.00000000000E+00 -0.13889514535E+04  0.13889514535E+04  0.25500000920E-02 0. -1.
    10030    2    1    2    0    0  0.00000000000E+00  0.00000000000E+00  0.99194184784E+03  0.37698447548E+04  0.36370016285E+04 0.  0.
        1    1    3    3  502    0  0.16594021459E+04 -0.62347650513E+03  0.75434297340E+02  0.17742685162E+04  0.50400001928E-02 0.  1.
       -1    1    3    3    0  502 -0.16594021459E+04  0.62347650513E+03  0.91650755050E+03  0.19955762387E+04  0.50400001928E-02 0. -1.
</event>
<event>
 5   0  0.8528625E-08  0.3746939E+04  0.7818609E-02  0.8057638E-01
       -1   -1    0    0    0  501  0.00000000000E+00  0.00000000000E+00  0.18224932232E+04  0.18224932232E+04  0.50400001928E-02 0. -1.
        1   -1    0    0  501    0  0.00000000000E+00  0.00000000000E+00 -0.19258715873E+04  0.19258715873E+04  0.50400001928E-02 0.  1.
    10030    2    1    2    0    0  0.00000000000E+00  0.00000000000E+00 -0.10337836406E+03  0.37483648105E+04  0.37469389729E+04 0.  0.
        5    1    3    3  502    0  0.14071879638E+04 -0.10158495454E+04  0.65408446903E+03  0.18547174574E+04  0.46999998093E+01 0. -1.
       -5    1    3    3    0  502 -0.14071879638E+04  0.10158495454E+04 -0.75746283309E+03  0.18936473531E+04  0.46999998093E+01 0.  1.
</event>
<event>
 5   0  0.2839279E-07  0.4003744E+04  0.7818609E-02  0.8003792E-01
        2   -1    0    0  501    0  0.00000000000E+00  0.00000000000E+00  0.23641467732E+04  0.23641467732E+04  0.25500000920E-02 0. -1.
       -2   -1    0    0    0  501  0.00000000000E+00  0.00000000000E+00 -0.16951114100E+04  0.16951114100E+04  0.25500000920E-02 0.  1.
    10030    2    1    2    0    0  0.00000000000E+00  0.00000000000E+00  0.66903536323E+03  0.40592581832E+04  0.40037443326E+04 0.  0.
        3    1    3    3  502    0  0.15529020854E+04  0.57511585836E+03 -0.80590254314E+03  0.18416682808E+04  0.10100000352E+00 0.  1.
       -3    1    3    3    0  502 -0.15529020854E+04 -0.57511585836E+03  0.14749379064E+04  0.22175899024E+04  0.10100000352E+00 0. -1.
</event>
<event>
 5   0  0.8528625E-08  0.3996188E+04  0.7818609E-02  0.8005316E-01
       -1   -1    0    0    0  501  0.00000000000E+00  0.00000000000E+00  0.21834039345E+04  0.21834039345E+04  0.50400001928E-02 0. -1.
        1   -1    0    0  501    0  0.00000000000E+00  0.00000000000E+00 -0.18285115393E+04  0.18285115393E+04  0.50400001928E-02 0.  1.
    10030    2    1    2    0    0  0.00000000000E+00  0.00000000000E+00  0.35489239515E+03  0.40119154738E+04  0.39961878281E+04 0.  0.
        4    1    3    3  502    0  0.12564703871E+04  0.14917282519E+04  0.61321287064E+03  0.20445054779E+04  0.12699999809E+01 0. -1.
       -4    1    3    3    0  502 -0.12564703871E+04 -0.14917282519E+04 -0.25832047549E+03  0.19674099960E+04  0.12699999809E+01 0.  1.
</event>
<event>
 5   0  0.8583262E-08  0.3666623E+04  0.7818609E-02  0.8075399E-01
        1   -1    0    0  501    0  0.00000000000E+00  0.00000000000E+00  0.23681418397E+04  0.23681418397E+04  0.50400001928E-02 0. -1.
       -1   -1    0    0    0  501  0.00000000000E+00  0.00000000000E+00 -0.14192690016E+04  0.14192690016E+04  0.50400001928E-02 0.  1.
    10030    2    1    2    0    0  0.00000000000E+00  0.00000000000E+00  0.94887283810E+03  0.37874108413E+04  0.36666225901E+04 0.  0.
        1    1    3    3  502    0 -0.46915658453E+03  0.45304518331E+03  0.22442601248E+04  0.23371053350E+04  0.50400001928E-02 0. -1.
       -1    1    3    3    0  502  0.46915658453E+03 -0.45304518331E+03 -0.12953872867E+04  0.14503055063E+04  0.50400001928E-02 0.  1.
</event>
<event>
 5   0  0.8528625E-08  0.3967780E+04  0.7818609E-02  0.8011078E-01
       -1   -1    0    0    0  501  0.00000000000E+00  0.00000000000E+00  0.29322949377E+04  0.29322949377E+04  0.50400001928E-02 0.  1.
        1   -1    0    0  501    0  0.00000000000E+00  0.00000000000E+00 -0.13422319966E+04  0.13422319966E+04  0.50400001928E-02 0. -1.
    10030    2    1    2    0    0  0.00000000000E+00  0.00000000000E+00  0.15900629411E+04  0.42745269344E+04  0.39677802807E+04 0.  0.
        5    1    3    3  502    0  0.12128202340E+04  0.89154716025E+03 -0.59716271391E+03  0.16193871236E+04  0.46999998093E+01 0. -1.
       -5    1    3    3    0  502 -0.12128202340E+04 -0.89154716025E+03  0.21872256550E+04  0.26551398108E+04  0.46999998093E+01 0.  1.
</event>
<event>
 5   0  0.2666978E-07  0.4109160E+04  0.7818609E-02  0.7982880E-01
       -2   -1    0    0    0  501  0.00000000000E+00  0.00000000000E+00  0.15140169838E+04  0.15140169838E+04  0.25500000920E-02 0.  1.
        2   -1    0    0  501    0  0.00000000000E+00  0.00000000000E+00 -0.27881449712E+04  0.27881449712E+04  0.25500000920E-02 0. -1.
    10030    2    1    2    0    0  0.00000000000E+00  0.00000000000E+00 -0.12741279874E+04  0.43021619550E+04  0.41091599334E+04 0.  0.
        4    1    3    3  502    0  0.86655366281E+03  0.17755072556E+04 -0.12274243641E+04  0.23259220640E+04  0.12699999809E+01 0. -1.
       -4    1    3    3    0  502 -0.86655366281E+03 -0.17755072556E+04 -0.46703623324E+02  0.19762398910E+04  0.12699999809E+01 0.  1.
</event>
<event>
 5   0  0.2666978E-07  0.3995848E+04  0.7818609E-02  0.8005385E-01
       -2   -1    0    0    0  501  0.00000000000E+00  0.00000000000E+00  0.15453397722E+04  0.15453397722E+04  0.25500000920E-02 0. -1.
        2   -1    0    0  501    0  0.00000000000E+00  0.00000000000E+00 -0.25830569893E+04  0.25830569893E+04  0.25500000920E-02 0.  1.
    10030    2    1    2    0    0  0.00000000000E+00  0.00000000000E+00 -0.10377172171E+04  0.41283967614E+04  0.39958481949E+04 0.  0.
        4    1    3    3  502    0  0.16227613642E+04 -0.11051477337E+04 -0.90126209156E+03  0.21603196358E+04  0.12699999809E+01 0.  1.
       -4    1    3    3    0  502 -0.16227613642E+04  0.11051477337E+04 -0.13645512554E+03  0.19680771256E+04  0.12699999809E+01 0. -1.
</event>
<event>
 5   0  0.8528625E-08  0.3951439E+04  0.7818609E-02  0.8014415E-01
        1   -1    0    0  501    0  0.00000000000E+00  0.00000000000E+00  0.12927592626E+04  0.12927592626E+04  0.50400001928E-02 0.  1.
       -1   -1    0    0    0  501  0.00000000000E+00  0.00000000000E+00 -0.30194848179E+04  0.30194848179E+04  0.50400001928E-02 0. -1.
    10030    2    1    2    0    0  0.00000000000E+00  0.00000000000E+00 -0.17267255553E+04  0.43122440806E+04  0.39514387085E+04 0.  0.
        2    1    3    3  502    0 -0.17677031795E+04  0.86255195495E+03 -0.66008434690E+03  0.20747245000E+04  0.25500000920E-02 0. -1.
       -2    1    3    3    0  502  0.17677031795E+04 -0.86255195495E+03 -0.10666412084E+04  0.22375195806E+04  0.25500000920E-02 0.  1.
</event>
<event>
 5   0  0.8528625E-08  0.4033988E+04  0.7818609E-02  0.7997725E-01
       -1   -1    0    0    0  501  0.00000000000E+00  0.00000000000E+00  0.17458537849E+04  0.17458537849E+04  0.50400001928E-02 0. -1.
        1   -1    0    0  501    0  0.00000000000E+00  0.00000000000E+00 -0.23302434554E+04  0.23302434554E+04  0.50400001928E-02 0.  1.
    10030    2    1    2    0    0  0.00000000000E+00  0.00000000000E+00 -0.58438967050E+03  0.40760972403E+04  0.40339877820E+04 0.  0.
        5    1    3    3  502    0  0.12118726476E+04 -0.52818751778E+03  0.12470667513E+04  0.18173648341E+04  0.46999998093E+01 0. -1.
       -5    1    3    3    0  502 -0.12118726476E+04  0.52818751778E+03 -0.18314564218E+04  0.22587324062E+04  0.46999998093E+01 0.  1.
</event>
<event>
 5   0  0.8528625E-08  0.4055361E+04  0.7818609E-02  0.7993471E-01
        1   -1    0    0  501    0  0.00000000000E+00  0.00000000000E+00  0.25621330900E+04  0.25621330900E+04  0.50400001928E-02 0.  1.
       -1   -1    0    0    0  501  0.00000000000E+00  0.00000000000E+00 -0.16047131597E+04  0.16047131597E+04  0.50400001928E-02 0. -1.
    10030    2    1    2    0    0  0.00000000000E+00  0.00000000000E+00  0.95741993026E+03  0.41668462497E+04  0.40553612349E+04 0.  0.
        5    1    3    3  502    0 -0.11699554202E+04  0.37570134633E+03 -0.11785531544E+04  0.17026323192E+04  0.46999998093E+01 0. -1.
       -5    1    3    3    0  502  0.11699554202E+04 -0.37570134633E+03  0.21359730846E+04  0.24642139305E+04  0.46999998093E+01 0.  1.
</event>
<event>
 5   0  0.2730801E-07  0.3950631E+04  0.7818609E-02  0.8014581E-01
        2   -1    0    0  501    0  0.00000000000E+00  0.00000000000E+00  0.27098127825E+04  0.27098127825E+04  0.25500000920E-02 0.  1.
       -2   -1    0    0    0  501  0.00000000000E+00  0.00000000000E+00 -0.14399040997E+04  0.14399040997E+04  0.25500000920E-02 0. -1.
    10030    2    1    2    0    0  0.00000000000E+00  0.00000000000E+00  0.12699086828E+04  0.41497168822E+04  0.39506306003E+04 0.  0.
        2    1    3    3  502    0 -0.17489391989E+02  0.19057124193E+04  0.89330924390E+02  0.19078851428E+04  0.25500000920E-02 0.  1.
       -2    1    3    3    0  502  0.17489391989E+02 -0.19057124193E+04  0.11805777585E+04  0.22418317394E+04  0.25500000920E-02 0. -1.
</event>
<event>
 5   0  0.2839279E-07  0.3883566E+04  0.7818609E-02  0.8028456E-01
       -2   -1    0    0    0  501  0.00000000000E+00  0.00000000000E+00  0.25329761545E+04  0.25329761545E+04  0.25500000920E-02 0.  1.
        2   -1    0    0  501    0  0.00000000000E+00  0.00000000000E+00 -0.14885738297E+04  0.14885738297E+04  0.25500000920E-02 0. -1.
    10030    2    1    2    0    0  0.00000000000E+00  0.00000000000E+00  0.10444023248E+04  0.40215499842E+04  0.38835664098E+04 0.  0.
        3    1    3    3  502    0 -0.68314642745E+02  0.75738413110E+03  0.23723618159E+04  0.24912643794E+04  0.10100000352E+00 0.  1.
       -3    1    3    3    0  502  0.68314642745E+02 -0.75738413110E+03 -0.13279594910E+04  0.15302856049E+04  0.10100000352E+00 0. -1.
</event>
<event>
 5   0  0.2661693E-07  0.4022171E+04  0.7818609E-02  0.8000089E-01
        2   -1    0    0  501    0  0.00000000000E+00  0.00000000000E+00  0.15653192854E+04  0.15653192854E+04  0.25500000920E-02 0.  1.
       -2   -1    0    0    0  501  0.00000000000E+00  0.00000000000E+00 -0.25837957143E+04  0.25837957143E+04  0.25500000920E-02 0. -1.
    10030    2    1    2    0    0  0.00000000000E+00  0.00000000000E+00 -0.10184764289E+04  0.41491149998E+04  0.40221711854E+04 0.  0.
        1    1    3    3  502    0  0.11578417220E+04 -0.62045254613E+03  0.10616183661E+04  0.16889619209E+04  0.50400001928E-02 0.  1.
       -1    1    3    3    0  502 -0.11578417220E+04  0.62045254613E+03 -0.20800947950E+04  0.24601530788E+04  0.50400001928E-02 0. -1.
</event>
<event>
 5   0  0.2730801E-07  0.4013270E+04  0.7818609E-02  0.8001875E-01
       -2   -1    0    0    0  501  0.00000000000E+00  0.00000000000E+00  0.21727199356E+04  0.21727199356E+04  0.25500000920E-02 0.  1.
        2   -1    0    0  501    0  0.00000000000E+00  0.00000000000E+00 -0.18532457166E+04  0.18532457166E+04  0.25500000920E-02 0. -1.
    10030    2    1    2    0    0  0.00000000000E+00  0.00000000000E+00  0.31947421905E+03  0.40259656522E+04  0.40132699456E+04 0.  0.
        2    1    3    3  502    0  0.44669594488E+03 -0.15839577101E+04  0.13114651181E+04  0.21043764042E+04  0.25500000920E-02 0.  1.
       -2    1    3    3    0  502 -0.44669594488E+03  0.15839577101E+04 -0.99199089903E+03  0.19215892480E+04  0.25500000920E-02 0. -1.
</event>
<event>
 5   0  0.2839279E-07  0.3995182E+04  0.7818609E-02  0.8005519E-01
        2   -1    0    0  501    0  0.00000000000E+00  0.00000000000E+00  0.12557413688E+04  0.12557413688E+04  0.25500000920E-02 0. -1.
       -2   -1    0    0    0  501  0.00000000000E+00  0.00000000000E+00 -0.31777002975E+04  0.31777002975E+04  0.25500000920E-02 0.  1.
    10030    2    1    2    0    0  0.00000000000E+00  0.00000000000E+00 -0.19219589288E+04  0.44334416663E+04  0.39951819589E+04 0.  0.
        3    1    3    3  502    0 -0.39562013518E+03  0.29277978809E+03  0.11874050497E+04  0.12853661182E+04  0.10100000352E+00 0. -1.
       -3    1    3    3    0  502  0.39562013518E+03 -0.29277978809E+03 -0.31093639785E+04  0.31480755481E+04  0.10100000352E+00 0.  1.
</event>
<event>
 5   0  0.8528625E-08  0.3119380E+04  0.7818609E-02  0.8210439E-01
       -1   -1    0    0    0  501  0.00000000000E+00  0.00000000000E+00  0.16483645326E+04  0.16483645326E+04  0.50400001928E-02 0.  1.
        1   -1    0    0  501    0  0.00000000000E+00  0.00000000000E+00 -0.14757862233E+04  0.14757862233E+04  0.50400001928E-02 0. -1.
    10030    2    1    2    0    0  0.00000000000E+00  0.00000000000E+00  0.17257830930E+03  0.31241507558E+04  0.31193804950E+04 0.  0.
        5    1    3    3  502    0 -0.12209443993E+04  0.41486110136E+01 -0.88570471373E+03  0.15083823677E+04  0.46999998093E+01 0. -1.
       -5    1    3    3    0  502  0.12209443993E+04 -0.41486110136E+01  0.10582830230E+04  0.16157683881E+04  0.46999998093E+01 0.  1.
</event>
<event>
 5   0  0.2704088E-07  0.3782150E+04  0.7818609E-02  0.8049996E-01
       -2   -1    0    0    0  501  0.00000000000E+00  0.00000000000E+00  0.14676703435E+04  0.14676703435E+04  0.25500000920E-02 0.  1.
        2   -1    0    0  501    0  0.00000000000E+00  0.00000000000E+00 -0.24366271743E+04  0.24366271743E+04  0.25500000920E-02 0. -1.
    10030    2    1    2    0    0  0.00000000000E+00  0.00000000000E+00 -0.96895683082E+03  0.39042975179E+04  0.37821504158E+04 0.  0.
        5    1    3    3  502    0  0.15668247458E+04  0.10171768444E+04 -0.18077493057E+03  0.18767765403E+04  0.46999998093E+01 0. -1.
       -5    1    3    3    0  502 -0.15668247458E+04 -0.10171768444E+04 -0.78818190025E+03  0.20275209776E+04  0.46999998093E+01 0.  1.
</event>
<event>
 5   0  0.8528625E-08  0.3059428E+04  0.7818609E-02  0.8226961E-01
        1   -1    0    0  501    0  0.00000000000E+00  0.00000000000E+00  0.23094259281E+04  0.23094259281E+04  0.50400001928E-02 0.  1.
       -1   -1    0    0    0  501  0.00000000000E+00  0.00000000000E+00 -0.10132497974E+04  0.10132497974E+04  0.50400001928E-02 0. -1.
    10030    2    1    2    0    0  0.00000000000E+00  0.00000000000E+00  0.12961761307E+04  0.33226757255E+04  0.30594282824E+04 0.  0.
        5    1    3    3  502    0 -0.93562319064E+03 -0.53575505768E+02 -0.66496739550E+03  0.11491147970E+04  0.46999998093E+01 0. -1.
       -5    1    3    3    0  502  0.93562319064E+03  0.53575505768E+02  0.19611435262E+04  0.21735609285E+04  0.46999998093E+01 0.  1.
</event>
<event>
 5   0  0.8528625E-08  0.3880010E+04  0.7818609E-02  0.8029200E-01
        1   -1    0    0  501    0  0.00000000000E+00  0.00000000000E+00  0.23660363554E+04  0.23660363554E+04  0.50400001928E-02 0.  1.
       -1   -1    0    0    0  501  0.00000000000E+00  0.00000000000E+00 -0.15906849953E+04  0.15906849954E+04  0.50400001928E-02 0. -1.
    10030    2    1    2    0    0  0.00000000000E+00  0.00000000000E+00  0.77535136010E+03  0.39567213508E+04  0.38800095510E+04 0.  0.
        3    1    3    3  502    0 -0.11754483707E+04 -0.85770010445E+03 -0.92077050511E+03  0.17219601257E+04  0.10100000352E+00 0. -1.
       -3    1    3    3    0  502  0.11754483707E+04  0.85770010445E+03  0.16961218652E+04  0.22347612251E+04  0.10100000352E+00 0.  1.
</event>
<event>
 5   0  0.2839279E-07  0.3373657E+04  0.7818609E-02  0.8144402E-01
        2   -1    0    0  501    0  0.00000000000E+00  0.00000000000E+00  0.25510363942E+04  0.25510363942E+04  0.25500000920E-02 0. -1.
       -2   -1    0    0    0  501  0.00000000000E+00  0.00000000000E+00 -0.11153862760E+04  0.11153862760E+04  0.25500000920E-02 0.  1.
    10030    2    1    2    0    0  0.00000000000E+00  0.00000000000E+00  0.14356501182E+04  0.36664226702E+04  0.33736573528E+04 0.  0.
        3    1    3    3  502    0 -0.97762323772E+03  0.77381408384E+02  0.22093906055E+04  0.24172591784E+04  0.10100000352E+00 0. -1.
       -3    1    3    3    0  502  0.97762323772E+03 -0.77381408384E+02 -0.77374048733E+03  0.12491634918E+04  0.10100000352E+00 0.  1.
</event>
<event>
 5   0  0.8583262E-08  0.3996228E+04  0.7818609E-02  0.8005308E-01
       -1   -1    0    0    0  501  0.00000000000E+00  0.00000000000E+00  0.28455208031E+04  0.28455208031E+04  0.50400001928E-02 0. -1.
        1   -1    0    0  501    0  0.00000000000E+00  0.00000000000E+00 -0.14030678328E+04  0.14030678328E+04  0.50400001928E-02 0.  1.
    10030    2    1    2    0    0  0.00000000000E+00  0.00000000000E+00  0.14424529703E+04  0.42485886359E+04  0.39962275743E+04 0.  0.
        1    1    3    3  502    0 -0.57484024959E+03 -0.18360470916E+04  0.14776730350E+03  0.19295972148E+04  0.50400001928E-02 0. -1.
       -1    1    3    3    0  502  0.57484024959E+03  0.18360470916E+04  0.12946856668E+04  0.23189914211E+04  0.50400001928E-02 0.  1.
</event>
<event>
 5   0  0.8528625E-08  0.4067933E+04  0.7818609E-02  0.7990981E-01
        1   -1    0    0  501    0  0.00000000000E+00  0.00000000000E+00  0.19043085454E+04  0.19043085454E+04  0.50400001928E-02 0. -1.
       -1   -1    0    0    0  501  0.00000000000E+00  0.00000000000E+00 -0.21724528969E+04  0.21724528969E+04  0.50400001928E-02 0.  1.
    10030    2    1    2    0    0  0.00000000000E+00  0.00000000000E+00 -0.26814435147E+03  0.40767614423E+04  0.40679334390E+04 0.  0.
        5    1    3    3  502    0 -0.19748221258E+04  0.33536416170E+03  0.21969101270E+03  0.20151123494E+04  0.46999998093E+01 0.  1.
       -5    1    3    3    0  502  0.19748221258E+04 -0.33536416170E+03 -0.48783536417E+03  0.20616490929E+04  0.46999998093E+01 0. -1.
</event>
<event>
 5   0  0.8528625E-08  0.3615642E+04  0.7818609E-02  0.8086918E-01
        1   -1    0    0  501    0  0.00000000000E+00  0.00000000000E+00  0.15603373204E+04  0.15603373204E+04  0.50400001928E-02 0.  1.
       -1   -1    0    0    0  501  0.00000000000E+00  0.00000000000E+00 -0.20945573448E+04  0.20945573448E+04  0.50400001928E-02 0. -1.
    10030    2    1    2    0    0  0.00000000000E+00  0.00000000000E+00 -0.53422002439E+03  0.36548946651E+04  0.36156415722E+04 0.  0.
        4    1    3    3  502    0  0.39200812661E+03  0.22115768685E+03  0.15027935176E+04  0.15687482472E+04  0.12699999809E+01 0.  1.
       -4    1    3    3    0  502 -0.39200812661E+03 -0.22115768685E+03 -0.20370135420E+04  0.20861464179E+04  0.12699999809E+01 0. -1.
</event>
<event>
 5   0  0.8528625E-08  0.3984960E+04  0.7818609E-02  0.8007587E-01
       -1   -1    0    0    0  501  0.00000000000E+00  0.00000000000E+00  0.31438950947E+04  0.31438950947E+04  0.50400001928E-02 0.  1.
        1   -1    0    0  501    0  0.00000000000E+00  0.00000000000E+00 -0.12627573610E+04  0.12627573610E+04  0.50400001928E-02 0. -1.
    10030    2    1    2    0    0  0.00000000000E+00  0.00000000000E+00  0.18811377337E+04  0.44066524556E+04  0.39849600615E+04 0.  0.
        5    1    3    3  502    0  0.18570838666E+04 -0.14696705302E+03  0.17221854643E+04  0.25369873208E+04  0.46999998093E+01 0.  1.
       -5    1    3    3    0  502 -0.18570838666E+04  0.14696705302E+03  0.15895226937E+03  0.18696651348E+04  0.46999998093E+01 0. -1.
</event>
<event>
 5   0  0.2666978E-07  0.3955720E+04  0.7818609E-02  0.8013539E-01
        2   -1    0    0  501    0  0.00000000000E+00  0.00000000000E+00  0.18386157633E+04  0.18386157633E+04  0.25500000920E-02 0.  1.
       -2   -1    0    0    0  501  0.00000000000E+00  0.00000000000E+00 -0.21276493460E+04  0.21276493460E+04  0.25500000920E-02 0. -1.
    10030    2    1    2    0    0  0.00000000000E+00  0.00000000000E+00 -0.28903358269E+03  0.39662651093E+04  0.39557197203E+04 0.  0.
        4    1    3    3  502    0 -0.50963897572E+03 -0.15191356253E+04 -0.13071004304E+04  0.20678534962E+04  0.12699999809E+01 0. -1.
       -4    1    3    3    0  502  0.50963897572E+03  0.15191356253E+04  0.10180668477E+04  0.18984116131E+04  0.12699999809E+01 0.  1.
</event>
<event>
 5   0  0.2661693E-07  0.3912119E+04  0.7818609E-02  0.8022513E-01
        2   -1    0    0  501    0  0.00000000000E+00  0.00000000000E+00  0.29819002161E+04  0.29819002161E+04  0.25500000920E-02 0.  1.
       -2   -1    0    0    0  501  0.00000000000E+00  0.00000000000E+00 -0.12831309627E+04  0.12831309627E+04  0.25500000920E-02 0. -1.
    10030    2    1    2    0    0  0.00000000000E+00  0.00000000000E+00  0.16987692534E+04  0.42650311788E+04  0.39121188607E+04 0.  0.
        1    1    3    3  502    0  0.32619248703E+03 -0.18800048762E+04  0.38002595145E+03  0.19455692219E+04  0.50400001928E-02 0. -1.
       -1    1    3    3    0  502 -0.32619248703E+03  0.18800048762E+04  0.13187433020E+04  0.23194619570E+04  0.50400001928E-02 0.  1.
</event>
<event>
 5   0  0.8528625E-08  0.4017731E+04  0.7818609E-02  0.8000979E-01
       -1   -1    0    0    0  501  0.00000000000E+00  0.00000000000E+00  0.17372681526E+04  0.17372681526E+04  0.50400001928E-02 0.  1.
        1   -1    0    0  501    0  0.00000000000E+00  0.00000000000E+00 -0.23229228116E+04  0.23229228116E+04  0.50400001928E-02 0. -1.
    10030    2    1    2    0    0  0.00000000000E+00  0.00000000000E+00 -0.58565465898E+03  0.40601909642E+04  0.40177306139E+04 0.  0.
        4    1    3    3  502    0  0.17023136048E+04 -0.48177731087E+03  0.66883719524E+03  0.18913819796E+04  0.12699999809E+01 0.  1.
       -4    1    3    3    0  502 -0.17023136048E+04  0.48177731087E+03 -0.12544918542E+04  0.21688089846E+04  0.12699999809E+01 0. -1.
</event>
<event>
 5   0  0.2730801E-07  0.3678585E+04  0.7818609E-02  0.8072724E-01
        2   -1    0    0  501    0  0.00000000000E+00  0.00000000000E+00  0.22236113768E+04  0.22236113768E+04  0.25500000920E-02 0. -1.
       -2   -1    0    0    0  501  0.00000000000E+00  0.00000000000E+00 -0.15213974231E+04  0.15213974231E+04  0.25500000920E-02 0.  1.
    10030    2    1    2    0    0  0.00000000000E+00  0.00000000000E+00  0.70221395374E+03  0.37450087999E+04  0.36785848467E+04 0.  0.
        2    1    3    3  502    0  0.60309713844E+03 -0.97826167325E+02  0.21172818639E+04  0.22036738889E+04  0.25500000920E-02 0. -1.
       -2    1    3    3    0  502 -0.60309713844E+03  0.97826167325E+02 -0.14150679102E+04  0.15413349110E+04  0.25500000920E-02 0.  1.
</event>
<event>
 5   0  0.8528625E-08  0.4010236E+04  0.7818609E-02  0.8002485E-01
        1   -1    0    0  501    0  0.00000000000E+00  0.00000000000E+00  0.24315766069E+04  0.24315766069E+04  0.50400001928E-02 0. -1.
       -1   -1    0    0    0  501  0.00000000000E+00  0.00000000000E+00 -0.16534529663E+04  0.16534529663E+04  0.50400001928E-02 0.  1.
    10030    2    1    2    0    0  0.00000000000E+00  0.00000000000E+00  0.77812364065E+03  0.40850295732E+04  0.40102356806E+04 0.  0.
        5    1    3    3  502    0  0.19056647308E+04 -0.22537339516E+03  0.98139144631E+03  0.21553427788E+04  0.46999998093E+01 0. -1.
       -5    1    3    3    0  502 -0.19056647308E+04  0.22537339516E+03 -0.20326780566E+03  0.19296867943E+04  0.46999998093E+01 0.  1.
</event>
<event>
 5   0  0.2730801E-07  0.3976611E+04  0.7818609E-02  0.8009282E-01
       -2   -1    0    0    0  501  0.00000000000E+00  0.00000000000E+00  0.32558434295E+04  0.32558434295E+04  0.25500000920E-02 0.  1.
        2   -1    0    0  501    0  0.00000000000E+00  0.00000000000E+00 -0.12142347117E+04  0.12142347117E+04  0.25500000920E-02 0. -1.
    10030    2    1    2    0    0  0.00000000000E+00  0.00000000000E+00  0.20416087178E+04  0.44700781412E+04  0.39766106714E+04 0.  0.
        2    1    3    3  502    0  0.16698544453E+04  0.10766340415E+04  0.11064376349E+04  0.22741501638E+04  0.25500000920E-02 0.  1.
       -2    1    3    3    0  502 -0.16698544453E+04 -0.10766340415E+04  0.93517108296E+03  0.21959279774E+04  0.25500000920E-02 0. -1.
</event>
<event>
 5   0  0.8528625E-08  0.4034775E+04  0.7818609E-02  0.7997568E-01
       -1   -1    0    0    0  501  0.00000000000E+00  0.00000000000E+00  0.14600347773E+04  0.14600347773E+04  0.50400001928E-02 0.  1.
        1   -1    0    0  501    0  0.00000000000E+00  0.00000000000E+00 -0.27875034659E+04  0.27875034659E+04  0.50400001928E-02 0. -1.
    10030    2    1    2    0    0  0.00000000000E+00  0.00000000000E+00 -0.13274686886E+04  0.42475382432E+04  0.40347748398E+04 0.  0.
        4    1    3    3  502    0  0.48370560534E+03 -0.52890724835E+03 -0.26489477490E+04  0.27442011187E+04  0.12699999809E+01 0. -1.
       -4    1    3    3    0  502 -0.48370560534E+03  0.52890724835E+03  0.13214790604E+04  0.15033371245E+04  0.12699999809E+01 0.  1.
</event>
<event>
 5   0  0.8528625E-08  0.3980199E+04  0.7818609E-02  0.8008553E-01
       -1   -1    0    0    0  501  0.00000000000E+00  0.00000000000E+00  0.18871037167E+04  0.18871037167E+04  0.50400001928E-02 0. -1.
        1   -1    0    0  501    0  0.00000000000E+00  0.00000000000E+00 -0.20987162788E+04  0.20987162788E+04  0.50400001928E-02 0.  1.
    10030    2    1    2    0    0  0.00000000000E+00  0.00000000000E+00 -0.21161256209E+03  0.39858199954E+04  0.39801986332E+04 0.  0.
        4    1    3    3  502    0  0.97953882957E+03 -0.24171060776E+03 -0.18236220428E+04  0.20841111546E+04  0.12699999809E+01 0.  1.
       -4    1    3    3    0  502 -0.97953882957E+03  0.24171060776E+03  0.16120094807E+04  0.19017088409E+04  0.12699999809E+01 0. -1.
</event>
<event>
 5   0  0.8528625E-08  0.4264490E+04  0.7818609E-02  0.7953217E-01
        1   -1    0    0  501    0  0.00000000000E+00  0.00000000000E+00  0.15213492375E+04  0.15213492375E+04  0.50400001928E-02 0. -1.
       -1   -1    0    0    0  501  0.00000000000E+00  0.00000000000E+00 -0.29884451439E+04  0.29884451439E+04  0.50400001928E-02 0.  1.
    10030    2    1    2    0    0  0.00000000000E+00  0.00000000000E+00 -0.14670959065E+04  0.45097943814E+04  0.42644900005E+04 0.  0.
        4    1    3    3  502    0 -0.62161965578E+03 -0.12297430773E+03  0.14194738204E+04  0.15544906614E+04  0.12699999809E+01 0. -1.
       -4    1    3    3    0  502  0.62161965578E+03  0.12297430773E+03 -0.28865697268E+04  0.29553037200E+04  0.12699999809E+01 0.  1.
</event>
<event>
 5   0  0.2730801E-07  0.3971245E+04  0.7818609E-02  0.8010373E-01
       -2   -1    0    0    0  501  0.00000000000E+00  0.00000000000E+00  0.21303490167E+04  0.21303490167E+04  0.25500000920E-02 0.  1.
        2   -1    0    0  501    0  0.00000000000E+00  0.00000000000E+00 -0.18507284224E+04  0.18507284224E+04  0.25500000920E-02 0. -1.
    10030    2    1    2    0    0  0.00000000000E+00  0.00000000000E+00  0.27962059425E+03  0.39810774391E+04  0.39712453839E+04 0.  0.
        2    1    3    3  502    0  0.97840506502E+03  0.14583633634E+04  0.10687096550E+04  0.20557822106E+04  0.25500000920E-02 0.  1.
       -2    1    3    3    0  502 -0.97840506502E+03 -0.14583633634E+04 -0.78908906076E+03  0.19252952284E+04  0.25500000920E-02 0. -1.
</event>
<event>
 5   0  0.2704088E-07  0.3806657E+04  0.7818609E-02  0.8044728E-01
        2   -1    0    0  501    0  0.00000000000E+00  0.00000000000E+00  0.19700882376E+04  0.19700882376E+04  0.25500000920E-02 0.  1.
       -2   -1    0    0    0  501  0.00000000000E+00  0.00000000000E+00 -0.18388312279E+04  0.18388312279E+04  0.25500000920E-02 0. -1.
    10030    2    1    2    0    0  0.00000000000E+00  0.00000000000E+00  0.13125700967E+03  0.38089194656E+04  0.38066572071E+04 0.  0.
        5    1    3    3  502    0 -0.18960671817E+04 -0.10830079072E+03 -0.60294863492E+02  0.19001203591E+04  0.46999998093E+01 0.  1.
       -5    1    3    3    0  502  0.18960671817E+04  0.10830079072E+03  0.19155187316E+03  0.19087991064E+04  0.46999998093E+01 0. -1.
</event>
<event>
 5   0  0.2704088E-07  0.4074677E+04  0.7818609E-02  0.7989649E-01
        2   -1    0    0  501    0  0.00000000000E+00  0.00000000000E+00  0.17668271628E+04  0.17668271628E+04  0.25500000920E-02 0.  1.
       -2   -1    0    0    0  501  0.00000000000E+00  0.00000000000E+00 -0.23492669285E+04  0.23492669285E+04  0.25500000920E-02 0. -1.
    10030    2    1    2    0    0  0.00000000000E+00  0.00000000000E+00 -0.58243976569E+03  0.41160940913E+04  0.40746772250E+04 0.  0.
        5    1    3    3  502    0  0.13892424106E+04  0.14529845656E+04  0.43155092923E+02  0.20107319751E+04  0.46999998093E+01 0.  1.
       -5    1    3    3    0  502 -0.13892424106E+04 -0.14529845656E+04 -0.62559485861E+03  0.21053621163E+04  0.46999998093E+01 0. -1.
</event>
<event>
 5   0  0.2666978E-07  0.4005652E+04  0.7818609E-02  0.8003407E-01
       -2   -1    0    0    0  501  0.00000000000E+00  0.00000000000E+00  0.34500857602E+04  0.34500857602E+04  0.25500000920E-02 0.  1.
        2   -1    0    0  501    0  0.00000000000E+00  0.00000000000E+00 -0.11626705135E+04  0.11626705135E+04  0.25500000920E-02 0. -1.
    10030    2    1    2    0    0  0.00000000000E+00  0.00000000000E+00  0.22874152467E+04  0.46127562737E+04  0.40056524974E+04 0.  0.
        4    1    3    3  502    0  0.17234550774E+04 -0.43865176631E+01 -0.31221048897E+02  0.17237438941E+04  0.12699999809E+01 0. -1.
       -4    1    3    3    0  502 -0.17234550774E+04  0.43865176631E+01  0.23186362956E+04  0.28890123796E+04  0.12699999809E+01 0.  1.
</event>
<event>
 5   0  0.8528625E-08  0.2879160E+04  0.7818609E-02  0.8279105E-01
       -1   -1    0    0    0  501  0.00000000000E+00  0.00000000000E+00  0.10802833557E+04  0.10802833557E+04  0.50400001928E-02 0. -1.
        1   -1    0    0  501    0  0.00000000000E+00  0.00000000000E+00 -0.19183769014E+04  0.19183769014E+04  0.50400001928E-02 0.  1.
    10030    2    1    2    0    0  0.00000000000E+00  0.00000000000E+00 -0.83809354568E+03  0.29986602571E+04  0.28791600418E+04 0.  0.
        4    1    3    3  502    0 -0.28148364372E+03 -0.44139596444E+03 -0.18157226070E+04  0.18896861215E+04  0.12699999809E+01 0.  1.
       -4    1    3    3    0  502  0.28148364372E+03  0.44139596444E+03  0.97762906135E+03  0.11089741357E+04  0.12699999809E+01 0. -1.
</event>
<event>
 5   0  0.8528625E-08  0.3597804E+04  0.7818609E-02  0.8090995E-01
        1   -1    0    0  501    0  0.00000000000E+00  0.00000000000E+00  0.21656658147E+04  0.21656658147E+04  0.50400001928E-02 0. -1.
       -1   -1    0    0    0  501  0.00000000000E+00  0.00000000000E+00 -0.14942513747E+04  0.14942513748E+04  0.50400001928E-02 0.  1.
    10030    2    1    2    0    0  0.00000000000E+00  0.00000000000E+00  0.67141444000E+03  0.36599171895E+04  0.35978043977E+04 0.  0.
        2    1    3    3  502    0 -0.12489816848E+03  0.96951290615E+03  0.18719087935E+04  0.21117758780E+04  0.25500000920E-02 0. -1.
       -2    1    3    3    0  502  0.12489816848E+03 -0.96951290615E+03 -0.12004943535E+04  0.15481413115E+04  0.25500000920E-02 0.  1.
</event>
<event>
 5   0  0.2730801E-07  0.2933589E+04  0.7818609E-02  0.8262953E-01
        2   -1    0    0  501    0  0.00000000000E+00  0.00000000000E+00  0.15562527953E+04  0.15562527953E+04  0.25500000920E-02 0. -1.
       -2   -1    0    0    0  501  0.00000000000E+00  0.00000000000E+00 -0.13824787284E+04  0.13824787284E+04  0.25500000920E-02 0.  1.
    10030    2    1    2    0    0  0.00000000000E+00  0.00000000000E+00  0.17377406687E+03  0.29387315237E+04  0.29335891911E+04 0.  0.
        2    1    3    3  502    0 -0.12481914284E+03  0.11689725660E+04 -0.79181057717E+03  0.14174063174E+04  0.25500000920E-02 0.  1.
       -2    1    3    3    0  502  0.12481914284E+03 -0.11689725660E+04  0.96558464403E+03  0.15213252063E+04  0.25500000920E-02 0. -1.
</event>
<event>
 5   0  0.8528625E-08  0.3847988E+04  0.7818609E-02  0.8035934E-01
       -1   -1    0    0    0  501  0.00000000000E+00  0.00000000000E+00  0.15551633152E+04  0.15551633153E+04  0.50400001928E-02 0. -1.
        1   -1    0    0  501    0  0.00000000000E+00  0.00000000000E+00 -0.23802989567E+04  0.23802989567E+04  0.50400001928E-02 0.  1.
    10030    2    1    2    0    0  0.00000000000E+00  0.00000000000E+00 -0.82513564145E+03  0.39354622720E+04  0.38479883663E+04 0.  0.
        2    1    3    3  502    0  0.12781196318E+04  0.14299357507E+04 -0.25596090153E+03  0.19348958699E+04  0.25500000920E-02 0.  1.
       -2    1    3    3    0  502 -0.12781196318E+04 -0.14299357507E+04 -0.56917473992E+03  0.20005664020E+04  0.25500000920E-02 0. -1.
</event>
<event>
 5   0  0.2839279E-07  0.3936380E+04  0.7818609E-02  0.8017505E-01
       -2   -1    0    0    0  501  0.00000000000E+00  0.00000000000E+00  0.21663684560E+04  0.21663684560E+04  0.25500000920E-02 0.  1.
        2   -1    0    0  501    0  0.00000000000E+00  0.00000000000E+00 -0.17881409391E+04  0.17881409391E+04  0.25500000920E-02 0. -1.
    10030    2    1    2    0    0  0.00000000000E+00  0.00000000000E+00  0.37822751696E+03  0.39545093951E+04  0.39363801266E+04 0.  0.
        3    1    3    3  502    0  0.77164968828E+03 -0.32076843918E+03  0.19792962123E+04  0.21484760038E+04  0.10100000352E+00 0.  1.
       -3    1    3    3    0  502 -0.77164968828E+03  0.32076843918E+03 -0.16010686953E+04  0.18060333912E+04  0.10100000352E+00 0. -1.
</event>
<event>
 5   0  0.2704088E-07  0.3904092E+04  0.7818609E-02  0.8024179E-01
       -2   -1    0    0    0  501  0.00000000000E+00  0.00000000000E+00  0.15637013629E+04  0.15637013629E+04  0.25500000920E-02 0.  1.
        2   -1    0    0  501    0  0.00000000000E+00  0.00000000000E+00 -0.24368361485E+04  0.24368361485E+04  0.25500000920E-02 0. -1.
    10030    2    1    2    0    0  0.00000000000E+00  0.00000000000E+00 -0.87313478558E+03  0.40005375114E+04  0.39040922154E+04 0.  0.
        5    1    3    3  502    0  0.15044058613E+04 -0.11432418307E+04 -0.93880081110E+03  0.21098833929E+04  0.46999998093E+01 0. -1.
       -5    1    3    3    0  502 -0.15044058613E+04  0.11432418307E+04  0.65666025515E+02  0.18906541185E+04  0.46999998093E+01 0.  1.
</event>
<event>
 5   0  0.8528625E-08  0.4006855E+04  0.7818609E-02  0.8003165E-01
       -1   -1    0    0    0  501  0.00000000000E+00  0.00000000000E+00  0.27430945931E+04  0.27430945931E+04  0.50400001928E-02 0. -1.
        1   -1    0    0  501    0  0.00000000000E+00  0.00000000000E+00 -0.14632092139E+04  0.14632092139E+04  0.50400001928E-02 0.  1.
    10030    2    1    2    0    0  0.00000000000E+00  0.00000000000E+00  0.12798853792E+04  0.42063038070E+04  0.40068547682E+04 0.  0.
        5    1    3    3  502    0 -0.52573742081E+03  0.18409691658E+04  0.12593394629E+04  0.22916206662E+04  0.46999998093E+01 0. -1.
       -5    1    3    3    0  502  0.52573742081E+03 -0.18409691658E+04  0.20545916367E+02  0.19146831408E+04  0.46999998093E+01 0.  1.
</event>
<event>
 5   0  0.8528625E-08  0.3954141E+04  0.7818609E-02  0.8013862E-01
       -1   -1    0    0    0  501  0.00000000000E+00  0.00000000000E+00  0.24078152681E+04  0.24078152681E+04  0.50400001928E-02 0. -1.
        1   -1    0    0  501    0  0.00000000000E+00  0.00000000000E+00 -0.16233836865E+04  0.16233836865E+04  0.50400001928E-02 0.  1.
    10030    2    1    2    0    0  0.00000000000E+00  0.00000000000E+00  0.78443158161E+03  0.40311989546E+04  0.39541411337E+04 0.  0.
        3    1    3    3  502    0  0.21514604983E+03  0.15197773945E+04  0.16626125848E+04  0.22628061713E+04  0.10100000352E+00 0.  1.
       -3    1    3    3    0  502 -0.21514604983E+03 -0.15197773945E+04 -0.87818100315E+03  0.17683927833E+04  0.10100000352E+00 0. -1.
</event>
<event>
 5   0  0.2839279E-07  0.4034728E+04  0.7818609E-02  0.7997577E-01
       -2   -1    0    0    0  501  0.00000000000E+00  0.00000000000E+00  0.30659396980E+04  0.30659396980E+04  0.25500000920E-02 0.  1.
        2   -1    0    0  501    0  0.00000000000E+00  0.00000000000E+00 -0.13274093623E+04  0.13274093623E+04  0.25500000920E-02 0. -1.
    10030    2    1    2    0    0  0.00000000000E+00  0.00000000000E+00  0.17385303357E+04  0.43933490603E+04  0.40347277774E+04 0.  0.
        3    1    3    3  502    0  0.29342822635E+03  0.73483526421E+03 -0.11513913290E+04  0.13970629879E+04  0.10100000352E+00 0. -1.
       -3    1    3    3    0  502 -0.29342822635E+03 -0.73483526421E+03  0.28899216646E+04  0.29962860724E+04  0.10100000352E+00 0.  1.
</event>
<event>
 5   0  0.2661693E-07  0.3993219E+04  0.7818609E-02  0.8005916E-01
       -2   -1    0    0    0  501  0.00000000000E+00  0.00000000000E+00  0.24976948586E+04  0.24976948586E+04  0.25500000920E-02 0.  1.
        2   -1    0    0  501    0  0.00000000000E+00  0.00000000000E+00 -0.15960516958E+04  0.15960516958E+04  0.25500000920E-02 0. -1.
    10030    2    1    2    0    0  0.00000000000E+00  0.00000000000E+00  0.90164316273E+03  0.40937465544E+04  0.39932193101E+04 0.  0.
        1    1    3    3  502    0  0.10538191474E+04  0.67578287232E+03 -0.11437228412E+04  0.16956766271E+04  0.50400001928E-02 0. -1.
       -1    1    3    3    0  502 -0.10538191474E+04 -0.67578287232E+03  0.20453660040E+04  0.23980699273E+04  0.50400001928E-02 0.  1.
</event>
<event>
 5   0  0.2661693E-07  0.4020268E+04  0.7818609E-02  0.8000470E-01
       -2   -1    0    0    0  501  0.00000000000E+00  0.00000000000E+00  0.22412829591E+04  0.22412829591E+04  0.25500000920E-02 0.  1.
        2   -1    0    0  501    0  0.00000000000E+00  0.00000000000E+00 -0.18028243228E+04  0.18028243228E+04  0.25500000920E-02 0. -1.
    10030    2    1    2    0    0  0.00000000000E+00  0.00000000000E+00  0.43845863627E+03  0.40441072819E+04  0.40202683656E+04 0.  0.
        1    1    3    3  502    0 -0.16854738379E+04 -0.85363362045E+02 -0.87927651108E+03  0.19029545829E+04  0.50400001928E-02 0. -1.
       -1    1    3    3    0  502  0.16854738379E+04  0.85363362045E+02  0.13177351473E+04  0.21411526990E+04  0.50400001928E-02 0.  1.
</event>
<event>
 5   0  0.2730801E-07  0.3985842E+04  0.7818609E-02  0.8007409E-01
        2   -1    0    0  501    0  0.00000000000E+00  0.00000000000E+00  0.17562014747E+04  0.17562014747E+04  0.25500000920E-02 0. -1.
       -2   -1    0    0    0  501  0.00000000000E+00  0.00000000000E+00 -0.22615483967E+04  0.22615483967E+04  0.25500000920E-02 0.  1.
    10030    2    1    2    0    0  0.00000000000E+00  0.00000000000E+00 -0.50534692202E+03  0.40177498714E+04  0.39858422594E+04 0.  0.
        2    1    3    3  502    0 -0.13245898138E+04 -0.12684294389E+04  0.53349515741E+03  0.19099917537E+04  0.25500000920E-02 0. -1.
       -2    1    3    3    0  502  0.13245898138E+04  0.12684294389E+04 -0.10388420794E+04  0.21077581176E+04  0.25500000920E-02 0.  1.
</event>
<event>
 5   0  0.8583262E-08  0.3810033E+04  0.7818609E-02  0.8044005E-01
        1   -1    0    0  501    0  0.00000000000E+00  0.00000000000E+00  0.11143644194E+04  0.11143644195E+04  0.50400001928E-02 0. -1.
       -1   -1    0    0    0  501  0.00000000000E+00  0.00000000000E+00 -0.32566429676E+04  0.32566429677E+04  0.50400001928E-02 0.  1.
    10030    2    1    2    0    0  0.00000000000E+00  0.00000000000E+00 -0.21422785482E+04  0.43710073871E+04  0.38100325720E+04 0.  0.
        1    1    3    3  502    0 -0.15157806085E+04  0.11535045166E+04 -0.11060033074E+04  0.22025909378E+04  0.50400001928E-02 0. -1.
       -1    1    3    3    0  502  0.15157806085E+04 -0.11535045166E+04 -0.10362752408E+04  0.21684164493E+04  0.50400001928E-02 0.  1.
</event>
<event>
 5   0  0.2661693E-07  0.3439871E+04  0.7818609E-02  0.8128189E-01
       -2   -1    0    0    0  501  0.00000000000E+00  0.00000000000E+00  0.16062351937E+04  0.16062351937E+04  0.25500000920E-02 0. -1.
        2   -1    0    0  501    0  0.00000000000E+00  0.00000000000E+00 -0.18416842581E+04  0.18416842581E+04  0.25500000920E-02 0.  1.
    10030    2    1    2    0    0  0.00000000000E+00  0.00000000000E+00 -0.23544906436E+03  0.34479194518E+04  0.34398709691E+04 0.  0.
        1    1    3    3  502    0 -0.39875859940E+03  0.30764374399E+03 -0.17661163782E+04  0.18365239326E+04  0.50400001928E-02 0.  1.
       -1    1    3    3    0  502  0.39875859940E+03 -0.30764374399E+03  0.15306673138E+04  0.16113955192E+04  0.50400001928E-02 0. -1.
</event>
<event>
 5   0  0.2666978E-07  0.4044770E+04  0.7818609E-02  0.7995575E-01
       -2   -1    0    0    0  501  0.00000000000E+00  0.00000000000E+00  0.18435290162E+04  0.18435290162E+04  0.25500000920E-02 0. -1.
        2   -1    0    0  501    0  0.00000000000E+00  0.00000000000E+00 -0.22185934240E+04  0.22185934240E+04  0.25500000920E-02 0.  1.
    10030    2    1    2    0    0  0.00000000000E+00  0.00000000000E+00 -0.37506440780E+03  0.40621224402E+04  0.40447701306E+04 0.  0.
        4    1    3    3  502    0 -0.39952409980E+03  0.14120660388E+04 -0.15850803043E+04  0.21600998097E+04  0.12699999809E+01 0.  1.
       -4    1    3    3    0  502  0.39952409980E+03 -0.14120660388E+04  0.12100158965E+04  0.19020226305E+04  0.12699999809E+01 0. -1.
</event>
<event>
 5   0  0.2839279E-07  0.4040424E+04  0.7818609E-02  0.7996441E-01
       -2   -1    0    0    0  501  0.00000000000E+00  0.00000000000E+00  0.14044258108E+04  0.14044258108E+04  0.25500000920E-02 0. -1.
        2   -1    0    0  501    0  0.00000000000E+00  0.00000000000E+00 -0.29059968681E+04  0.29059968681E+04  0.25500000920E-02 0.  1.
    10030    2    1    2    0    0  0.00000000000E+00  0.00000000000E+00 -0.15015710573E+04  0.43104226790E+04  0.40404242390E+04 0.  0.
        3    1    3    3  502    0  0.16163865010E+04 -0.93911928767E+03 -0.15678689124E+04  0.24398490309E+04  0.10100000352E+00 0.  1.
       -3    1    3    3    0  502 -0.16163865010E+04  0.93911928767E+03  0.66297855104E+02  0.18705736480E+04  0.10100000352E+00 0. -1.
</event>
<event>
 5   0  0.8528625E-08  0.3522225E+04  0.7818609E-02  0.8108543E-01
        1   -1    0    0  501    0  0.00000000000E+00  0.00000000000E+00  0.22330180250E+04  0.22330180250E+04  0.50400001928E-02 0.  1.
       -1   -1    0    0    0  501  0.00000000000E+00  0.00000000000E+00 -0.13889350479E+04  0.13889350479E+04  0.50400001928E-02 0. -1.
    10030    2    1    2    0    0  0.00000000000E+00  0.00000000000E+00  0.84408297703E+03  0.36219530729E+04  0.35222248637E+04 0.  0.
        5    1    3    3  502    0 -0.10067142005E+04 -0.10593334128E+04  0.14326361937E+04  0.20464919532E+04  0.46999998093E+01 0.  1.
       -5    1    3    3    0  502  0.10067142005E+04  0.10593334128E+04 -0.58855321663E+03  0.15754611197E+04  0.46999998093E+01 0. -1.
</event>
<event>
 5   0  0.8528625E-08  0.4229514E+04  0.7818609E-02  0.7959782E-01
        1   -1    0    0  501    0  0.00000000000E+00  0.00000000000E+00  0.22471929180E+04  0.22471929180E+04  0.50400001928E-02 0. -1.
       -1   -1    0    0    0  501  0.00000000000E+00  0.00000000000E+00 -0.19901256370E+04  0.19901256370E+04  0.50400001928E-02 0.  1.
    10030    2    1    2    0    0  0.00000000000E+00  0.00000000000E+00  0.25706728097E+03  0.42373185550E+04  0.42295135594E+04 0.  0.
        2    1    3    3  502    0  0.14933455935E+04 -0.12596121205E+04  0.93965259555E+03  0.21678677903E+04  0.25500000920E-02 0. -1.
       -2    1    3    3    0  502 -0.14933455935E+04  0.12596121205E+04 -0.68258531458E+03  0.20694507647E+04  0.25500000920E-02 0.  1.
</event>
<event>
 5   0  0.2661693E-07  0.4034849E+04  0.7818609E-02  0.7997553E-01
        2   -1    0    0  501    0  0.00000000000E+00  0.00000000000E+00  0.23952336589E+04  0.23952336589E+04  0.25500000920E-02 0. -1.
       -2   -1    0    0    0  501  0.00000000000E+00  0.00000000000E+00 -0.16992084123E+04  0.16992084123E+04  0.25500000920E-02 0.  1.
    10030    2    1    2    0    0  0.00000000000E+00  0.00000000000E+00  0.69602524662E+03  0.40944420712E+04  0.40348487866E+04 0.  0.
        1    1    3    3  502    0 -0.95812513984E+03  0.67028755999E+03 -0.13202612618E+04  0.17636266601E+04  0.50400001928E-02 0.  1.
       -1    1    3    3    0  502  0.95812513984E+03 -0.67028755999E+03  0.20162865084E+04  0.23308154111E+04  0.50400001928E-02 0. -1.
</event>
<event>
 5   0  0.2666978E-07  0.3135934E+04  0.7818609E-02  0.8205945E-01
       -2   -1    0    0    0  501  0.00000000000E+00  0.00000000000E+00  0.12472220778E+04  0.12472220779E+04  0.25500000920E-02 0. -1.
        2   -1    0    0  501    0  0.00000000000E+00  0.00000000000E+00 -0.19711973136E+04  0.19711973136E+04  0.25500000920E-02 0.  1.
    10030    2    1    2    0    0  0.00000000000E+00  0.00000000000E+00 -0.72397523579E+03  0.32184193915E+04  0.31359341890E+04 0.  0.
        4    1    3    3  502    0  0.45792336127E+03 -0.17394792081E+02 -0.19009370347E+04  0.19553924430E+04  0.12699999809E+01 0.  1.
       -4    1    3    3    0  502 -0.45792336127E+03  0.17394792081E+02  0.11769617989E+04  0.12630269485E+04  0.12699999809E+01 0. -1.
</event>
<event>
 5   0  0.2839279E-07  0.3981353E+04  0.7818609E-02  0.8008319E-01
        2   -1    0    0  501    0  0.00000000000E+00  0.00000000000E+00  0.17469398625E+04  0.17469398625E+04  0.25500000920E-02 0.  1.
       -2   -1    0    0    0  501  0.00000000000E+00  0.00000000000E+00 -0.22684199537E+04  0.22684199537E+04  0.25500000920E-02 0. -1.
    10030    2    1    2    0    0  0.00000000000E+00  0.00000000000E+00 -0.52148009115E+03  0.40153598162E+04  0.39813531579E+04 0.  0.
        3    1    3    3  502    0 -0.95305608297E+03 -0.14698428059E+04 -0.12143529291E+04  0.21315268748E+04  0.10100000352E+00 0. -1.
       -3    1    3    3    0  502  0.95305608297E+03  0.14698428059E+04  0.69287283790E+03  0.18838329414E+04  0.10100000352E+00 0.  1.
</event>
<event>
 5   0  0.8528625E-08  0.3965763E+04  0.7818609E-02  0.8011489E-01
       -1   -1    0    0    0  501  0.00000000000E+00  0.00000000000E+00  0.23792595142E+04  0.23792595142E+04  0.50400001928E-02 0. -1.
        1   -1    0    0  501    0  0.00000000000E+00  0.00000000000E+00 -0.16525387734E+04  0.16525387734E+04  0.50400001928E-02 0.  1.
    10030    2    1    2    0    0  0.00000000000E+00  0.00000000000E+00  0.72672074083E+03  0.40317982876E+04  0.39657627761E+04 0.  0.
        3    1    3    3  502    0  0.14809051650E+04 -0.49143120350E+03  0.16073503530E+04  0.22401249749E+04  0.10100000352E+00 0. -1.
       -3    1    3    3    0  502 -0.14809051650E+04  0.49143120350E+03 -0.88062961216E+03  0.17916733127E+04  0.10100000352E+00 0.  1.
</event>
<event>
 5   0  0.2730801E-07  0.2857607E+04  0.7818609E-02  0.8285604E-01
        2   -1    0    0  501    0  0.00000000000E+00  0.00000000000E+00  0.85267933264E+03  0.85267933264E+03  0.25500000920E-02 0. -1.
       -2   -1    0    0    0  501  0.00000000000E+00  0.00000000000E+00 -0.23941929780E+04  0.23941929780E+04  0.25500000920E-02 0.  1.
    10030    2    1    2    0    0  0.00000000000E+00  0.00000000000E+00 -0.15415136453E+04  0.32468723106E+04  0.28576066004E+04 0.  0.
        2    1    3    3  502    0  0.67888672468E+03  0.10870849041E+03  0.65236795923E+03  0.94778092145E+03  0.25500000920E-02 0. -1.
       -2    1    3    3    0  502 -0.67888672468E+03 -0.10870849041E+03 -0.21938816046E+04  0.22990913891E+04  0.25500000920E-02 0.  1.
</event>
<event>
 5   0  0.8583262E-08  0.4149281E+04  0.7818609E-02  0.7975091E-01
       -1   -1    0    0    0  501  0.00000000000E+00  0.00000000000E+00  0.13545783335E+04  0.13545783335E+04  0.50400001928E-02 0. -1.
        1   -1    0    0  501    0  0.00000000000E+00  0.00000000000E+00 -0.31774705921E+04  0.31774705921E+04  0.50400001928E-02 0.  1.
    10030    2    1    2    0    0  0.00000000000E+00  0.00000000000E+00 -0.18228922586E+04  0.45320489256E+04  0.41492808145E+04 0.  0.
        1    1    3    3  502    0 -0.13446931300E+04 -0.14306012243E+04 -0.17930227824E+03  0.19715396988E+04  0.50400001928E-02 0. -1.
       -1    1    3    3    0  502  0.13446931300E+04  0.14306012243E+04 -0.16435899804E+04  0.25605092268E+04  0.50400001928E-02 0.  1.
</event>
<event>
 5   0  0.8528625E-08  0.3966672E+04  0.7818609E-02  0.8011304E-01
       -1   -1    0    0    0  501  0.00000000000E+00  0.00000000000E+00  0.22311154979E+04  0.22311154979E+04  0.50400001928E-02 0.  1.
        1   -1    0    0  501    0  0.00000000000E+00  0.00000000000E+00 -0.17630740356E+04  0.17630740356E+04  0.50400001928E-02 0. -1.
    10030    2    1    2    0    0  0.00000000000E+00  0.00000000000E+00  0.46804146233E+03  0.39941895335E+04  0.39666720585E+04 0.  0.
        2    1    3    3  502    0 -0.72631951159E+03 -0.16747570217E+04  0.10148163888E+04  0.20885888580E+04  0.25500000920E-02 0.  1.
       -2    1    3    3    0  502  0.72631951159E+03  0.16747570217E+04 -0.54677492648E+03  0.19056006756E+04  0.25500000920E-02 0. -1.
</event>
<event>
 5   0  0.2704088E-07  0.3543537E+04  0.7818609E-02  0.8103549E-01
        2   -1    0    0  501    0  0.00000000000E+00  0.00000000000E+00  0.21085469416E+04  0.21085469416E+04  0.25500000920E-02 0. -1.
       -2   -1    0    0    0  501  0.00000000000E+00  0.00000000000E+00 -0.14887809207E+04  0.14887809207E+04  0.25500000920E-02 0.  1.
    10030    2    1    2    0    0  0.00000000000E+00  0.00000000000E+00  0.61976602096E+03  0.35973278623E+04  0.35435374738E+04 0.  0.
        5    1    3    3  502    0 -0.10934738679E+04 -0.10057767116E+04 -0.67010501079E+03  0.16298265886E+04  0.46999998093E+01 0.  1.
       -5    1    3    3    0  502  0.10934738679E+04  0.10057767116E+04  0.12898710317E+04  0.19675012737E+04  0.46999998093E+01 0. -1.
</event>
<event>
 5   0  0.8583262E-08  0.3970328E+04  0.7818609E-02  0.8010559E-01
       -1   -1    0    0    0  501  0.00000000000E+00  0.00000000000E+00  0.14868269499E+04  0.14868269499E+04  0.50400001928E-02 0. -1.
        1   -1    0    0  501    0  0.00000000000E+00  0.00000000000E+00 -0.26505278248E+04  0.26505278248E+04  0.50400001928E-02 0.  1.
    10030    2    1    2    0    0  0.00000000000E+00  0.00000000000E+00 -0.11637008749E+04  0.41373547747E+04  0.39703280476E+04 0.  0.
        1    1    3    3  502    0 -0.51055705942E+03  0.18931808582E+04 -0.90484792635E+03  0.21595258838E+04  0.50400001928E-02 0. -1.
       -1    1    3    3    0  502  0.51055705942E+03 -0.18931808582E+04 -0.25885294854E+03  0.19778288909E+04  0.50400001928E-02 0.  1.
</event>
<event>
 5   0  0.2666978E-07  0.3546791E+04  0.7818609E-02  0.8102790E-01
       -2   -1    0    0    0  501  0.00000000000E+00  0.00000000000E+00  0.13801045883E+04  0.13801045883E+04  0.25500000920E-02 0. -1.
        2   -1    0    0  501    0  0.00000000000E+00  0.00000000000E+00 -0.22787630909E+04  0.22787630909E+04  0.25500000920E-02 0.  1.
    10030    2    1    2    0    0  0.00000000000E+00  0.00000000000E+00 -0.89865850261E+03  0.36588676792E+04  0.35467908860E+04 0.  0.
        4    1    3    3  502    0  0.30620936103E+03 -0.11573629672E+04 -0.17989817821E+04  0.21609234776E+04  0.12699999809E+01 0.  1.
       -4    1    3    3    0  502 -0.30620936103E+03  0.11573629672E+04  0.90032327950E+03  0.14979442016E+04  0.12699999809E+01 0. -1.
</event>
<event>
 5   0  0.2839279E-07  0.4019159E+04  0.7818609E-02  0.8000693E-01
       -2   -1    0    0    0  501  0.00000000000E+00  0.00000000000E+00  0.17977722192E+04  0.17977722192E+04  0.25500000920E-02 0.  1.
        2   -1    0    0  501    0  0.00000000000E+00  0.00000000000E+00 -0.22463406324E+04  0.22463406324E+04  0.25500000920E-02 0. -1.
    10030    2    1    2    0    0  0.00000000000E+00  0.00000000000E+00 -0.44856841325E+03  0.40441128516E+04  0.40191585108E+04 0.  0.
        3    1    3    3  502    0  0.17638664474E+04  0.52049193820E+03  0.59085182895E+03  0.19316424607E+04  0.10100000352E+00 0.  1.
       -3    1    3    3    0  502 -0.17638664474E+04 -0.52049193820E+03 -0.10394202422E+04  0.21124703909E+04  0.10100000352E+00 0. -1.
</event>
<event>
 5   0  0.2839279E-07  0.3885736E+04  0.7818609E-02  0.8028002E-01
       -2   -1    0    0    0  501  0.00000000000E+00  0.00000000000E+00  0.16824025371E+04  0.16824025371E+04  0.25500000920E-02 0. -1.
        2   -1    0    0  501    0  0.00000000000E+00  0.00000000000E+00 -0.22436579290E+04  0.22436579290E+04  0.25500000920E-02 0.  1.
    10030    2    1    2    0    0  0.00000000000E+00  0.00000000000E+00 -0.56125539195E+03  0.39260604661E+04  0.38857358593E+04 0.  0.
        3    1    3    3  502    0  0.13843032992E+04 -0.78227064865E+03  0.84742293847E+03  0.18017681979E+04  0.10100000352E+00 0. -1.
       -3    1    3    3    0  502 -0.13843032992E+04  0.78227064865E+03 -0.14086783304E+04  0.21242922682E+04  0.10100000352E+00 0.  1.
</event>
<event>
 5   0  0.8528625E-08  0.3634485E+04  0.7818609E-02  0.8082638E-01
       -1   -1    0    0    0  501  0.00000000000E+00  0.00000000000E+00  0.14958868267E+04  0.14958868267E+04  0.50400001928E-02 0.  1.
        1   -1    0    0  501    0  0.00000000000E+00  0.00000000000E+00 -0.22076342855E+04  0.22076342855E+04  0.50400001928E-02 0. -1.
    10030    2    1    2    0    0  0.00000000000E+00  0.00000000000E+00 -0.71174745878E+03  0.37035211122E+04  0.36344854083E+04 0.  0.
        3    1    3    3  502    0  0.23938081994E+03 -0.16355329302E+04  0.41351775432E+03  0.17038979095E+04  0.10100000352E+00 0.  1.
       -3    1    3    3    0  502 -0.23938081994E+03  0.16355329302E+04 -0.11252652131E+04  0.19996232027E+04  0.10100000352E+00 0. -1.
</event>
<event>
 5   0  0.2730801E-07  0.3996440E+04  0.7818609E-02  0.8005265E-01
        2   -1    0    0  501    0  0.00000000000E+00  0.00000000000E+00  0.28983880936E+04  0.28983880936E+04  0.25500000920E-02 0. -1.
       -2   -1    0    0    0  501  0.00000000000E+00  0.00000000000E+00 -0.13776219065E+04  0.13776219065E+04  0.25500000920E-02 0.  1.
    10030    2    1    2    0    0  0.00000000000E+00  0.00000000000E+00  0.15207661871E+04  0.42760100002E+04  0.39964398814E+04 0.  0.
        2    1    3    3  502    0 -0.54695192746E+03  0.18563586818E+04  0.22791639069E+03  0.19486328149E+04  0.25500000920E-02 0.  1.
       -2    1    3    3    0  502  0.54695192746E+03 -0.18563586818E+04  0.12928497964E+04  0.23273771852E+04  0.25500000920E-02 0. -1.
</event>
<event>
 5   0  0.2666978E-07  0.3509616E+04  0.7818609E-02  0.8111515E-01
        2   -1    0    0  501    0  0.00000000000E+00  0.00000000000E+00  0.14494675749E+04  0.14494675749E+04  0.25500000920E-02 0.  1.
       -2   -1    0    0    0  501  0.00000000000E+00  0.00000000000E+00 -0.21244709954E+04  0.21244709954E+04  0.25500000920E-02 0. -1.
    10030    2    1    2    0    0  0.00000000000E+00  0.00000000000E+00 -0.67500342048E+03  0.35739385703E+04  0.35096164016E+04 0.  0.
        4    1    3    3  502    0  0.63000593408E+03 -0.27761456842E+03  0.13061976147E+04  0.14765267174E+04  0.12699999809E+01 0.  1.
       -4    1    3    3    0  502 -0.63000593408E+03  0.27761456842E+03 -0.19812010352E+04  0.20974118528E+04  0.12699999809E+01 0. -1.
</event>
<event>
 5   0  0.2666978E-07  0.4166147E+04  0.7818609E-02  0.7971843E-01
        2   -1    0    0  501    0  0.00000000000E+00  0.00000000000E+00  0.29784786095E+04  0.29784786095E+04  0.25500000920E-02 0. -1.
       -2   -1    0    0    0  501  0.00000000000E+00  0.00000000000E+00 -0.14568498938E+04  0.14568498938E+04  0.25500000920E-02 0.  1.
    10030    2    1    2    0    0  0.00000000000E+00  0.00000000000E+00  0.15216287156E+04  0.44353285033E+04  0.41661474991E+04 0.  0.
        4    1    3    3  502    0  0.55160970515E+03 -0.82380664293E+03  0.27111942274E+04  0.28867813224E+04  0.12699999809E+01 0. -1.
       -4    1    3    3    0  502 -0.55160970515E+03  0.82380664293E+03 -0.11895655118E+04  0.15485471809E+04  0.12699999809E+01 0.  1.
</event>
<event>
 5   0  0.8528625E-08  0.3961388E+04  0.7818609E-02  0.8012381E-01
        1   -1    0    0  501    0  0.00000000000E+00  0.00000000000E+00  0.24856076394E+04  0.24856076394E+04  0.50400001928E-02 0. -1.
       -1   -1    0    0    0  501  0.00000000000E+00  0.00000000000E+00 -0.15783457678E+04  0.15783457678E+04  0.50400001928E-02 0.  1.
    10030    2    1    2    0    0  0.00000000000E+00  0.00000000000E+00  0.90726187162E+03  0.40639534072E+04  0.39613877862E+04 0.  0.
        4    1    3    3  502    0  0.18026401362E+04  0.53427698570E+03  0.10928059664E+04  0.21746700557E+04  0.12699999809E+01 0. -1.
       -4    1    3    3    0  502 -0.18026401362E+04 -0.53427698570E+03 -0.18554409480E+03  0.18892833515E+04  0.12699999809E+01 0.  1.
</event>
<event>
 5   0  0.8528625E-08  0.3784502E+04  0.7818609E-02  0.8049489E-01
       -1   -1    0    0    0  501  0.00000000000E+00  0.00000000000E+00  0.13981893422E+04  0.13981893422E+04  0.50400001928E-02 0.  1.
        1   -1    0    0  501    0  0.00000000000E+00  0.00000000000E+00 -0.25608927447E+04  0.25608927447E+04  0.50400001928E-02 0. -1.
    10030    2    1    2    0    0  0.00000000000E+00  0.00000000000E+00 -0.11627034025E+04  0.39590820868E+04  0.37845015218E+04 0.  0.
        5    1    3    3  502    0 -0.15775695653E+04  0.10419512082E+04 -0.49896072251E+03  0.19553444571E+04  0.46999998093E+01 0.  1.
       -5    1    3    3    0  502  0.15775695653E+04 -0.10419512082E+04 -0.66374268001E+03  0.20037376297E+04  0.46999998093E+01 0. -1.
</event>
<event>
 5   0  0.8583262E-08  0.4023730E+04  0.7818609E-02  0.7999776E-01
       -1   -1    0    0    0  501  0.00000000000E+00  0.00000000000E+00  0.16831884218E+04  0.16831884219E+04  0.50400001928E-02 0.  1.
        1   -1    0    0  501    0  0.00000000000E+00  0.00000000000E+00 -0.24047226475E+04  0.24047226475E+04  0.50400001928E-02 0. -1.
    10030    2    1    2    0    0  0.00000000000E+00  0.00000000000E+00 -0.72153422566E+03  0.40879110694E+04  0.40237302683E+04 0.  0.
        1    1    3    3  502    0  0.71051439897E+03  0.95496303129E+03  0.12870834869E+04  0.17531026794E+04  0.50400001928E-02 0.  1.
       -1    1    3    3    0  502 -0.71051439897E+03 -0.95496303129E+03 -0.20086177126E+04  0.23348083899E+04  0.50400001928E-02 0. -1.
</event>
<event>
 5   0  0.8528625E-08  0.3952334E+04  0.7818609E-02  0.8014232E-01
        1   -1    0    0  501    0  0.00000000000E+00  0.00000000000E+00  0.20433912942E+04  0.20433912942E+04  0.50400001928E-02 0. -1.
       -1   -1    0    0    0  501  0.00000000000E+00  0.00000000000E+00 -0.19111539557E+04  0.19111539557E+04  0.50400001928E-02 0.  1.
    10030    2    1    2    0    0  0.00000000000E+00  0.00000000000E+00  0.13223733852E+03  0.39545452499E+04  0.39523336676E+04 0.  0.
        4    1    3    3  502    0 -0.37651490120E+03  0.14963106187E+04 -0.11692887203E+04  0.19359614312E+04  0.12699999809E+01 0.  1.
       -4    1    3    3    0  502  0.37651490120E+03 -0.14963106187E+04  0.13015260588E+04  0.20185838188E+04  0.12699999809E+01 0. -1.
</event>
<event>
 5   0  0.8583262E-08  0.3952324E+04  0.7818609E-02  0.8014234E-01
       -1   -1    0    0    0  501  0.00000000000E+00  0.00000000000E+00  0.19597840064E+04  0.19597840064E+04  0.50400001928E-02 0. -1.
        1   -1    0    0  501    0  0.00000000000E+00  0.00000000000E+00 -0.19926773172E+04  0.19926773172E+04  0.50400001928E-02 0.  1.
    10030    2    1    2    0    0  0.00000000000E+00  0.00000000000E+00 -0.32893310803E+02  0.39524613237E+04  0.39523244484E+04 0.  0.
        1    1    3    3  502    0  0.91170497803E+03 -0.34692033649E+03 -0.17351269726E+04  0.19905339228E+04  0.50400001928E-02 0.  1.
       -1    1    3    3    0  502 -0.91170497803E+03  0.34692033649E+03  0.17022336618E+04  0.19619274009E+04  0.50400001928E-02 0. -1.
</event>
<event>
 5   0  0.2730801E-07  0.3959256E+04  0.7818609E-02  0.8012817E-01
        2   -1    0    0  501    0  0.00000000000E+00  0.00000000000E+00  0.13990448753E+04  0.13990448753E+04  0.25500000920E-02 0. -1.
       -2   -1    0    0    0  501  0.00000000000E+00  0.00000000000E+00 -0.28011449403E+04  0.28011449403E+04  0.25500000920E-02 0.  1.
    10030    2    1    2    0    0  0.00000000000E+00  0.00000000000E+00 -0.14021000650E+04  0.42001898157E+04  0.39592562301E+04 0.  0.
        2    1    3    3  502    0 -0.70357362938E+03  0.19401155327E+03 -0.26532134648E+04  0.27517627123E+04  0.25500000920E-02 0.  1.
       -2    1    3    3    0  502  0.70357362938E+03 -0.19401155327E+03  0.12511133998E+04  0.14484271034E+04  0.25500000920E-02 0. -1.
</event>
<event>
 5   0  0.8528625E-08  0.3994912E+04  0.7818609E-02  0.8005574E-01
       -1   -1    0    0    0  501  0.00000000000E+00  0.00000000000E+00  0.19408555357E+04  0.19408555357E+04  0.50400001928E-02 0.  1.
        1   -1    0    0  501    0  0.00000000000E+00  0.00000000000E+00 -0.20557071378E+04  0.20557071378E+04  0.50400001928E-02 0. -1.
    10030    2    1    2    0    0  0.00000000000E+00  0.00000000000E+00 -0.11485160218E+03  0.39965626735E+04  0.39949120532E+04 0.  0.
        4    1    3    3  502    0 -0.19236135690E+04  0.16486811198E+03  0.45499507624E+03  0.19835555928E+04  0.12699999809E+01 0. -1.
       -4    1    3    3    0  502  0.19236135690E+04 -0.16486811198E+03 -0.56984667842E+03  0.20130070807E+04  0.12699999809E+01 0.  1.
</event>
<event>
 5   0  0.2730801E-07  0.3979858E+04  0.7818609E-02  0.8008622E-01
       -2   -1    0    0    0  501  0.00000000000E+00  0.00000000000E+00  0.23702867318E+04  0.23702867318E+04  0.25500000920E-02 0. -1.
        2   -1    0    0  501    0  0.00000000000E+00  0.00000000000E+00 -0.16706070024E+04  0.16706070024E+04  0.25500000920E-02 0.  1.
    10030    2    1    2    0    0  0.00000000000E+00  0.00000000000E+00  0.69967972943E+03  0.40408937343E+04  0.39798580939E+04 0.  0.
        2    1    3    3  502    0 -0.82345639325E+03 -0.17293135275E+04  0.89775639686E+03  0.21153184763E+04  0.25500000920E-02 0. -1.
       -2    1    3    3    0  502  0.82345639325E+03  0.17293135275E+04 -0.19807666744E+03  0.19255752580E+04  0.25500000920E-02 0.  1.
</event>
<event>
 5   0  0.8583262E-08  0.4036066E+04  0.7818609E-02  0.7997310E-01
       -1   -1    0    0    0  501  0.00000000000E+00  0.00000000000E+00  0.27379851890E+04  0.27379851890E+04  0.50400001928E-02 0.  1.
        1   -1    0    0  501    0  0.00000000000E+00  0.00000000000E+00 -0.14873919337E+04  0.14873919337E+04  0.50400001928E-02 0. -1.
    10030    2    1    2    0    0  0.00000000000E+00  0.00000000000E+00  0.12505932553E+04  0.42253771227E+04  0.40360659483E+04 0.  0.
        1    1    3    3  502    0  0.13270571205E+04 -0.79455490943E+03  0.19822642544E+04  0.25143129637E+04  0.50400001928E-02 0.  1.
       -1    1    3    3    0  502 -0.13270571205E+04  0.79455490943E+03 -0.73167099917E+03  0.17110641590E+04  0.50400001928E-02 0. -1.
</event>
<event>
 5   0  0.8528625E-08  0.3951600E+04  0.7818609E-02  0.8014382E-01
       -1   -1    0    0    0  501  0.00000000000E+00  0.00000000000E+00  0.20050313380E+04  0.20050313380E+04  0.50400001928E-02 0. -1.
        1   -1    0    0  501    0  0.00000000000E+00  0.00000000000E+00 -0.19469950411E+04  0.19469950411E+04  0.50400001928E-02 0.  1.
    10030    2    1    2    0    0  0.00000000000E+00  0.00000000000E+00  0.58036296828E+02  0.39520263791E+04  0.39516002188E+04 0.  0.
        5    1    3    3  502    0  0.40632106307E+02  0.18737342527E+04  0.65457178659E+03  0.19851995697E+04  0.46999998093E+01 0.  1.
       -5    1    3    3    0  502 -0.40632106307E+02 -0.18737342527E+04 -0.59653548977E+03  0.19668268094E+04  0.46999998093E+01 0. -1.
</event>
<event>
 5   0  0.2730801E-07  0.4008869E+04  0.7818609E-02  0.8002760E-01
       -2   -1    0    0    0  501  0.00000000000E+00  0.00000000000E+00  0.18975669847E+04  0.18975669847E+04  0.25500000920E-02 0.  1.
        2   -1    0    0  501    0  0.00000000000E+00  0.00000000000E+00 -0.21173207017E+04  0.21173207017E+04  0.25500000920E-02 0. -1.
    10030    2    1    2    0    0  0.00000000000E+00  0.00000000000E+00 -0.21975371699E+03  0.40148876865E+04  0.40088690973E+04 0.  0.
        2    1    3    3  502    0  0.54362207637E+03  0.18460114597E+04 -0.67149910709E+03  0.20381840747E+04  0.25500000920E-02 0. -1.
       -2    1    3    3    0  502 -0.54362207637E+03 -0.18460114597E+04  0.45174539010E+03  0.19767036118E+04  0.25500000920E-02 0.  1.
</event>
<event>
 5   0  0.2661693E-07  0.3717215E+04  0.7818609E-02  0.8064157E-01
       -2   -1    0    0    0  501  0.00000000000E+00  0.00000000000E+00  0.16685785062E+04  0.16685785062E+04  0.25500000920E-02 0. -1.
        2   -1    0    0  501    0  0.00000000000E+00  0.00000000000E+00 -0.20702786898E+04  0.20702786898E+04  0.25500000920E-02 0.  1.
    10030    2    1    2    0    0  0.00000000000E+00  0.00000000000E+00 -0.40170018362E+03  0.37388571960E+04  0.37172153683E+04 0.  0.
        1    1    3    3  502    0  0.12771012168E+04 -0.74220503364E+03  0.93379863459E+03  0.17475227380E+04  0.50400001928E-02 0. -1.
       -1    1    3    3    0  502 -0.12771012168E+04  0.74220503364E+03 -0.13354988182E+04  0.19913344579E+04  0.50400001928E-02 0.  1.
</event>
<event>
 5   0  0.2704088E-07  0.3999183E+04  0.7818609E-02  0.8004711E-01
        2   -1    0    0  501    0  0.00000000000E+00  0.00000000000E+00  0.19318621478E+04  0.19318621478E+04  0.25500000920E-02 0. -1.
       -2   -1    0    0    0  501  0.00000000000E+00  0.00000000000E+00 -0.20696952727E+04  0.20696952727E+04  0.25500000920E-02 0.  1.
    10030    2    1    2    0    0  0.00000000000E+00  0.00000000000E+00 -0.13783312483E+03  0.40015574205E+04  0.39991828940E+04 0.  0.
        5    1    3    3  502    0  0.19319354401E+04 -0.50170491257E+03 -0.18840899544E+03  0.20048946116E+04  0.46999998093E+01 0. -1.
       -5    1    3    3    0  502 -0.19319354401E+04  0.50170491257E+03  0.50575870611E+02  0.19966628089E+04  0.46999998093E+01 0.  1.
</event>
<event>
 5   0  0.8528625E-08  0.3940005E+04  0.7818609E-02  0.8016760E-01
       -1   -1    0    0    0  501  0.00000000000E+00  0.00000000000E+00  0.17997976897E+04  0.17997976898E+04  0.50400001928E-02 0.  1.
        1   -1    0    0  501    0  0.00000000000E+00  0.00000000000E+00 -0.21563033712E+04  0.21563033712E+04  0.50400001928E-02 0. -1.
    10030    2    1    2    0    0  0.00000000000E+00  0.00000000000E+00 -0.35650568142E+03  0.39561010609E+04  0.39400049877E+04 0.  0.
        4    1    3    3  502    0 -0.43424545612E+03 -0.63757198223E+03  0.16418414283E+04  0.18140319835E+04  0.12699999809E+01 0.  1.
       -4    1    3    3    0  502  0.43424545612E+03  0.63757198223E+03 -0.19983471097E+04  0.21420690774E+04  0.12699999809E+01 0. -1.
</event>
<event>
 5   0  0.8583262E-08  0.3221231E+04  0.7818609E-02  0.8183233E-01
       -1   -1    0    0    0  501  0.00000000000E+00  0.00000000000E+00  0.14905070341E+04  0.14905070341E+04  0.50400001928E-02 0.  1.
        1   -1    0    0  501    0  0.00000000000E+00  0.00000000000E+00 -0.17404025063E+04  0.17404025063E+04  0.50400001928E-02 0. -1.
    10030    2    1    2    0    0  0.00000000000E+00  0.00000000000E+00 -0.24989547226E+03  0.32309095404E+04  0.32212309311E+04 0.  0.
        1    1    3    3  502    0 -0.93329873704E+03 -0.10687608940E+04 -0.88933058103E+03  0.16745761444E+04  0.50400001928E-02 0. -1.
       -1    1    3    3    0  502  0.93329873704E+03  0.10687608940E+04  0.63943510877E+03  0.15563333960E+04  0.50400001928E-02 0.  1.
</event>
<event>
 5   0  0.8528625E-08  0.4028904E+04  0.7818609E-02  0.7998741E-01
        1   -1    0    0  501    0  0.00000000000E+00  0.00000000000E+00  0.17017911129E+04  0.17017911129E+04  0.50400001928E-02 0.  1.
       -1   -1    0    0    0  501  0.00000000000E+00  0.00000000000E+00 -0.23845567966E+04  0.23845567966E+04  0.50400001928E-02 0. -1.
    10030    2    1    2    0    0  0.00000000000E+00  0.00000000000E+00 -0.68276568369E+03  0.40863479095E+04  0.40289043496E+04 0.  0.
        5    1    3    3  502    0 -0.18960317663E+04 -0.43773259714E+03 -0.86981915889E+03  0.21314675096E+04  0.46999998093E+01 0. -1.
       -5    1    3    3    0  502  0.18960317663E+04  0.43773259714E+03  0.18705347520E+03  0.19548803999E+04  0.46999998093E+01 0.  1.
</event>
<event>
 5   0  0.2839279E-07  0.4010145E+04  0.7818609E-02  0.8002503E-01
       -2   -1    0    0    0  501  0.00000000000E+00  0.00000000000E+00  0.17258681148E+04  0.17258681148E+04  0.25500000920E-02 0.  1.
        2   -1    0    0  501    0  0.00000000000E+00  0.00000000000E+00 -0.23294460162E+04  0.23294460162E+04  0.25500000920E-02 0. -1.
    10030    2    1    2    0    0  0.00000000000E+00  0.00000000000E+00 -0.60357790136E+03  0.40553141309E+04  0.40101454360E+04 0.  0.
        3    1    3    3  502    0  0.89654883607E+03  0.13740639989E+04 -0.14673617948E+04  0.22011366008E+04  0.10100000352E+00 0. -1.
       -3    1    3    3    0  502 -0.89654883607E+03 -0.13740639989E+04  0.86378389345E+03  0.18541775301E+04  0.10100000352E+00 0.  1.
</event>
<event>
 5   0  0.2730801E-07  0.3853486E+04  0.7818609E-02  0.8034773E-01
        2   -1    0    0  501    0  0.00000000000E+00  0.00000000000E+00  0.28464485610E+04  0.28464485610E+04  0.25500000920E-02 0. -1.
       -2   -1    0    0    0  501  0.00000000000E+00  0.00000000000E+00 -0.13042004089E+04  0.13042004089E+04  0.25500000920E-02 0.  1.
    10030    2    1    2    0    0  0.00000000000E+00  0.00000000000E+00  0.15422481521E+04  0.41506489699E+04  0.38534864096E+04 0.  0.
        2    1    3    3  502    0 -0.99862723694E+03  0.13079048573E+04 -0.30839471359E+03  0.16742098953E+04  0.25500000920E-02 0.  1.
       -2    1    3    3    0  502  0.99862723694E+03 -0.13079048573E+04  0.18506428656E+04  0.24764390746E+04  0.25500000920E-02 0. -1.
</event>
<event>
 5   0  0.8528625E-08  0.3870923E+04  0.7818609E-02  0.8031104E-01
       -1   -1    0    0    0  501  0.00000000000E+00  0.00000000000E+00  0.21497307647E+04  0.21497307647E+04  0.50400001928E-02 0.  1.
        1   -1    0    0  501    0  0.00000000000E+00  0.00000000000E+00 -0.17425487579E+04  0.17425487579E+04  0.50400001928E-02 0. -1.
    10030    2    1    2    0    0  0.00000000000E+00  0.00000000000E+00  0.40718200677E+03  0.38922795226E+04  0.38709227189E+04 0.  0.
        2    1    3    3  502    0 -0.38750714961E+02  0.75623595814E+03 -0.15874201541E+04  0.17587771855E+04  0.25500000920E-02 0. -1.
       -2    1    3    3    0  502  0.38750714961E+02 -0.75623595814E+03  0.19946021609E+04  0.21335023371E+04  0.25500000920E-02 0.  1.
</event>
<event>
 5   0  0.8528625E-08  0.3084075E+04  0.7818609E-02  0.8220122E-01
       -1   -1    0    0    0  501  0.00000000000E+00  0.00000000000E+00  0.97426616892E+03  0.97426616893E+03  0.50400001928E-02 0.  1.
        1   -1    0    0  501    0  0.00000000000E+00  0.00000000000E+00 -0.24406882955E+04  0.24406882956E+04  0.50400001928E-02 0. -1.
    10030    2    1    2    0    0  0.00000000000E+00  0.00000000000E+00 -0.14664221266E+04  0.34149544645E+04  0.30840752489E+04 0.  0.
        2    1    3    3  502    0 -0.74741031374E+03 -0.30658419772E+03  0.72120187647E+03  0.10829349907E+04  0.25500000920E-02 0.  1.
       -2    1    3    3    0  502  0.74741031374E+03  0.30658419772E+03 -0.21876240031E+04  0.23320194738E+04  0.25500000920E-02 0. -1.
</event>
<event>
 5   0  0.2666978E-07  0.3116972E+04  0.7818609E-02  0.8211095E-01
        2   -1    0    0  501    0  0.00000000000E+00  0.00000000000E+00  0.13950707467E+04  0.13950707467E+04  0.25500000920E-02 0.  1.
       -2   -1    0    0    0  501  0.00000000000E+00  0.00000000000E+00 -0.17410435741E+04  0.17410435741E+04  0.25500000920E-02 0. -1.
    10030    2    1    2    0    0  0.00000000000E+00  0.00000000000E+00 -0.34597282732E+03  0.31361143208E+04  0.31169722225E+04 0.  0.
        4    1    3    3  502    0  0.59816071931E+03 -0.58293875661E+03 -0.14968417820E+04  0.17141034897E+04  0.12699999809E+01 0. -1.
       -4    1    3    3    0  502 -0.59816071931E+03  0.58293875661E+03  0.11508689547E+04  0.14220108311E+04  0.12699999809E+01 0.  1.
</event>
<event>
 5   0  0.8528625E-08  0.3988307E+04  0.7818609E-02  0.8006910E-01
       -1   -1    0    0    0  501  0.00000000000E+00  0.00000000000E+00  0.22464586902E+04  0.22464586902E+04  0.50400001928E-02 0.  1.
        1   -1    0    0  501    0  0.00000000000E+00  0.00000000000E+00 -0.17701852112E+04  0.17701852112E+04  0.50400001928E-02 0. -1.
    10030    2    1    2    0    0  0.00000000000E+00  0.00000000000E+00  0.47627347897E+03  0.40166439014E+04  0.39883068844E+04 0.  0.
        3    1    3    3  502    0  0.17754477477E+04  0.88606825810E+03  0.43782887477E+03  0.20320004421E+04  0.10100000352E+00 0. -1.
       -3    1    3    3    0  502 -0.17754477477E+04 -0.88606825810E+03  0.38444604199E+02  0.19846434593E+04  0.10100000352E+00 0.  1.
</event>
<event>
 5   0  0.2661693E-07  0.4287504E+04  0.7818609E-02  0.7948933E-01
       -2   -1    0    0    0  501  0.00000000000E+00  0.00000000000E+00  0.19509537666E+04  0.19509537666E+04  0.25500000920E-02 0. -1.
        2   -1    0    0  501    0  0.00000000000E+00  0.00000000000E+00 -0.23556034574E+04  0.23556034574E+04  0.25500000920E-02 0.  1.
    10030    2    1    2    0    0  0.00000000000E+00  0.00000000000E+00 -0.40464969087E+03  0.43065572240E+04  0.42875043733E+04 0.  0.
        1    1    3    3  502    0  0.22502313776E+03 -0.96045053831E+03  0.17094388347E+04  0.19736468222E+04  0.50400001928E-02 0. -1.
       -1    1    3    3    0  502 -0.22502313776E+03  0.96045053831E+03 -0.21140885256E+04  0.23329104018E+04  0.50400001928E-02 0.  1.
</event>
<event>
 5   0  0.8528625E-08  0.3979217E+04  0.7818609E-02  0.8008752E-01
       -1   -1    0    0    0  501  0.00000000000E+00  0.00000000000E+00  0.20217847547E+04  0.20217847547E+04  0.50400001928E-02 0.  1.
        1   -1    0    0  501    0  0.00000000000E+00  0.00000000000E+00 -0.19579443130E+04  0.19579443130E+04  0.50400001928E-02 0. -1.
    10030    2    1    2    0    0  0.00000000000E+00  0.00000000000E+00  0.63840441710E+02  0.39797290677E+04  0.39792169896E+04 0.  0.
        2    1    3    3  502    0 -0.18977231788E+04  0.40911043316E+03  0.46765662083E+03  0.19968543575E+04  0.25500000920E-02 0.  1.
       -2    1    3    3    0  502  0.18977231788E+04 -0.40911043316E+03 -0.40381617912E+03  0.19828747102E+04  0.25500000920E-02 0. -1.
</event>
<event>
 5   0  0.8528625E-08  0.4002653E+04  0.7818609E-02  0.8004012E-01
        1   -1    0    0  501    0  0.00000000000E+00  0.00000000000E+00  0.17024904692E+04  0.17024904692E+04  0.50400001928E-02 0.  1.
       -1   -1    0    0    0  501  0.00000000000E+00  0.00000000000E+00 -0.23526168437E+04  0.23526168437E+04  0.50400001928E-02 0. -1.
    10030    2    1    2    0    0  0.00000000000E+00  0.00000000000E+00 -0.65012637446E+03  0.40551073129E+04  0.40026529973E+04 0.  0.
        4    1    3    3  502    0  0.69635670740E+03  0.81184574871E+03 -0.20387683478E+04  0.23022997574E+04  0.12699999809E+01 0. -1.
       -4    1    3    3    0  502 -0.69635670740E+03 -0.81184574871E+03  0.13886419734E+04  0.17528075556E+04  0.12699999809E+01 0.  1.
</event>
<event>
 5   0  0.2666978E-07  0.3932617E+04  0.7818609E-02  0.8018279E-01
        2   -1    0    0  501    0  0.00000000000E+00  0.00000000000E+00  0.18123408859E+04  0.18123408859E+04  0.25500000920E-02 0.  1.
       -2   -1    0    0    0  501  0.00000000000E+00  0.00000000000E+00 -0.21333566495E+04  0.21333566495E+04  0.25500000920E-02 0. -1.
    10030    2    1    2    0    0  0.00000000000E+00  0.00000000000E+00 -0.32101576362E+03  0.39456975354E+04  0.39326171846E+04 0.  0.
        4    1    3    3  502    0  0.16522102023E+04 -0.90669340904E+03  0.40213927862E+03  0.19270726771E+04  0.12699999809E+01 0. -1.
       -4    1    3    3    0  502 -0.16522102023E+04  0.90669340904E+03 -0.72315504224E+03  0.20186248583E+04  0.12699999809E+01 0.  1.
</event>
<event>
 5   0  0.2730801E-07  0.4013905E+04  0.7818609E-02  0.8001747E-01
       -2   -1    0    0    0  501  0.00000000000E+00  0.00000000000E+00  0.19582824399E+04  0.19582824399E+04  0.25500000920E-02 0. -1.
        2   -1    0    0  501    0  0.00000000000E+00  0.00000000000E+00 -0.20568319575E+04  0.20568319575E+04  0.25500000920E-02 0.  1.
    10030    2    1    2    0    0  0.00000000000E+00  0.00000000000E+00 -0.98549517575E+02  0.40151143974E+04  0.40139047842E+04 0.  0.
        2    1    3    3  502    0 -0.20061351491E+04 -0.13414026315E+02  0.64172519858E+01  0.20061902586E+04  0.25500000920E-02 0. -1.
       -2    1    3    3    0  502  0.20061351491E+04  0.13414026315E+02 -0.10496676956E+03  0.20089241388E+04  0.25500000920E-02 0.  1.
</event>
<event>
 5   0  0.8528625E-08  0.4023500E+04  0.7818609E-02  0.7999823E-01
       -1   -1    0    0    0  501  0.00000000000E+00  0.00000000000E+00  0.17217707474E+04  0.17217707474E+04  0.50400001928E-02 0. -1.
        1   -1    0    0  501    0  0.00000000000E+00  0.00000000000E+00 -0.23505671181E+04  0.23505671181E+04  0.50400001928E-02 0.  1.
    10030    2    1    2    0    0  0.00000000000E+00  0.00000000000E+00 -0.62879637072E+03  0.40723378655E+04  0.40234998217E+04 0.  0.
        5    1    3    3  502    0  0.18331117766E+04 -0.61801676583E+03  0.24445619719E+03  0.19498780554E+04  0.46999998093E+01 0.  1.
       -5    1    3    3    0  502 -0.18331117766E+04  0.61801676583E+03 -0.87325256790E+03  0.21224598102E+04  0.46999998093E+01 0. -1.
</event>
<event>
 5   0  0.2704088E-07  0.4119066E+04  0.7818609E-02  0.7980949E-01
        2   -1    0    0  501    0  0.00000000000E+00  0.00000000000E+00  0.19286617580E+04  0.19286617580E+04  0.25500000920E-02 0. -1.
       -2   -1    0    0    0  501  0.00000000000E+00  0.00000000000E+00 -0.21992842463E+04  0.21992842463E+04  0.25500000920E-02 0.  1.
    10030    2    1    2    0    0  0.00000000000E+00  0.00000000000E+00 -0.27062248830E+03  0.41279460044E+04  0.41190656324E+04 0.  0.
        5    1    3    3  502    0  0.10681550150E+04 -0.14890587091E+04 -0.10772324456E+04  0.21257240665E+04  0.46999998093E+01 0.  1.
       -5    1    3    3    0  502 -0.10681550150E+04  0.14890587091E+04  0.80660995727E+03  0.20022219378E+04  0.46999998093E+01 0. -1.
</event>
<event>
 5   0  0.2730801E-07  0.3838893E+04  0.7818609E-02  0.8037860E-01
        2   -1    0    0  501    0  0.00000000000E+00  0.00000000000E+00  0.21394842565E+04  0.21394842565E+04  0.25500000920E-02 0.  1.
       -2   -1    0    0    0  501  0.00000000000E+00  0.00000000000E+00 -0.17220390859E+04  0.17220390859E+04  0.25500000920E-02 0. -1.
    10030    2    1    2    0    0  0.00000000000E+00  0.00000000000E+00  0.41744517064E+03  0.38615233425E+04  0.38388933371E+04 0.  0.
        2    1    3    3  502    0 -0.12597275710E+04  0.10600950143E+04  0.12012307684E+04  0.20380555320E+04  0.25500000920E-02 0.  1.
       -2    1    3    3    0  502  0.12597275710E+04 -0.10600950143E+04 -0.78378559774E+03  0.18234678105E+04  0.25500000920E-02 0. -1.
</event>
<event>
 5   0  0.8528625E-08  0.3959919E+04  0.7818609E-02  0.8012681E-01
        4   -1    0    0  501    0  0.00000000000E+00  0.00000000000E+00  0.25449280942E+04  0.25449284111E+04  0.12699999809E+01 0. -1.
       -4   -1    0    0    0  501  0.00000000000E+00  0.00000000000E+00 -0.15404118858E+04  0.15404124093E+04  0.12699999809E+01 0.  1.
    10030    2    1    2    0    0  0.00000000000E+00  0.00000000000E+00  0.10045162084E+04  0.40853408204E+04  0.39599187878E+04 0.  0.
        1    1    3    3  502    0 -0.12143911977E+04 -0.87562210664E+03  0.18389730292E+04  0.23713460011E+04  0.50400001928E-02 0. -1.
       -1    1    3    3    0  502  0.12143911977E+04  0.87562210664E+03 -0.83445682086E+03  0.17139948193E+04  0.50400001928E-02 0.  1.
</event>
<event>
 5   0  0.8528625E-08  0.3944979E+04  0.7818609E-02  0.8015739E-01
        1   -1    0    0  501    0  0.00000000000E+00  0.00000000000E+00  0.22324355774E+04  0.22324355774E+04  0.50400001928E-02 0. -1.
       -1   -1    0    0    0  501  0.00000000000E+00  0.00000000000E+00 -0.17428119328E+04  0.17428119328E+04  0.50400001928E-02 0.  1.
    10030    2    1    2    0    0  0.00000000000E+00  0.00000000000E+00  0.48962364452E+03  0.39752475102E+04  0.39449792717E+04 0.  0.
        3    1    3    3  502    0  0.18407316060E+04 -0.20538546280E+02 -0.46914442758E+03  0.18996871272E+04  0.10100000352E+00 0.  1.
       -3    1    3    3    0  502 -0.18407316060E+04  0.20538546280E+02  0.95876807210E+03  0.20755603830E+04  0.10100000352E+00 0. -1.
</event>
<event>
 5   0  0.2661693E-07  0.4044974E+04  0.7818609E-02  0.7995535E-01
        2   -1    0    0  501    0  0.00000000000E+00  0.00000000000E+00  0.23770920123E+04  0.23770920123E+04  0.25500000920E-02 0.  1.
       -2   -1    0    0    0  501  0.00000000000E+00  0.00000000000E+00 -0.17207804341E+04  0.17207804341E+04  0.25500000920E-02 0. -1.
    10030    2    1    2    0    0  0.00000000000E+00  0.00000000000E+00  0.65631157822E+03  0.40978724463E+04  0.40449738811E+04 0.  0.
        1    1    3    3  502    0  0.14128533320E+04 -0.83670891771E+03  0.15243671227E+04  0.22405203582E+04  0.50400001928E-02 0.  1.
       -1    1    3    3    0  502 -0.14128533320E+04  0.83670891771E+03 -0.86805554452E+03  0.18573520881E+04  0.50400001928E-02 0. -1.
</event>
<event>
 5   0  0.8528625E-08  0.3662760E+04  0.7818609E-02  0.8076265E-01
       -1   -1    0    0    0  501  0.00000000000E+00  0.00000000000E+00  0.13589976953E+04  0.13589976953E+04  0.50400001928E-02 0. -1.
        1   -1    0    0  501    0  0.00000000000E+00  0.00000000000E+00 -0.24679611796E+04  0.24679611796E+04  0.50400001928E-02 0.  1.
    10030    2    1    2    0    0  0.00000000000E+00  0.00000000000E+00 -0.11089634843E+04  0.38269588749E+04  0.36627604646E+04 0.  0.
        3    1    3    3  502    0 -0.94917289442E+03  0.42223350382E+03 -0.21303193760E+04  0.23701204546E+04  0.10100000352E+00 0.  1.
       -3    1    3    3    0  502  0.94917289442E+03 -0.42223350382E+03  0.10213558917E+04  0.14568384204E+04  0.10100000352E+00 0. -1.
</event>
<event>
 5   0  0.2730801E-07  0.4000943E+04  0.7818609E-02  0.8004356E-01
        2   -1    0    0  501    0  0.00000000000E+00  0.00000000000E+00  0.24722346884E+04  0.24722346884E+04  0.25500000920E-02 0. -1.
       -2   -1    0    0    0  501  0.00000000000E+00  0.00000000000E+00 -0.16187320575E+04  0.16187320575E+04  0.25500000920E-02 0.  1.
    10030    2    1    2    0    0  0.00000000000E+00  0.00000000000E+00  0.85350263087E+03  0.40909667459E+04  0.40009426608E+04 0.  0.
        2    1    3    3  502    0 -0.13471583918E+04 -0.77768086633E+03 -0.85943196453E+03  0.17771456226E+04  0.25500000920E-02 0.  1.
       -2    1    3    3    0  502  0.13471583918E+04  0.77768086633E+03  0.17129345954E+04  0.23138211233E+04  0.25500000920E-02 0. -1.
</event>
<event>
 5   0  0.2839279E-07  0.3990485E+04  0.7818609E-02  0.8006469E-01
        2   -1    0    0  501    0  0.00000000000E+00  0.00000000000E+00  0.25766153376E+04  0.25766153376E+04  0.25500000920E-02 0. -1.
       -2   -1    0    0    0  501  0.00000000000E+00  0.00000000000E+00 -0.15450472108E+04  0.15450472108E+04  0.25500000920E-02 0.  1.
    10030    2    1    2    0    0  0.00000000000E+00  0.00000000000E+00  0.10315681268E+04  0.41216625485E+04  0.39904848531E+04 0.  0.
        3    1    3    3  502    0  0.51737347114E+03  0.18812002725E+04  0.94712749477E+03  0.21687877433E+04  0.10100000352E+00 0. -1.
       -3    1    3    3    0  502 -0.51737347114E+03 -0.18812002725E+04  0.84440632026E+02  0.19528748051E+04  0.10100000352E+00 0.  1.
</event>
<event>
 5   0  0.2661693E-07  0.3992312E+04  0.7818609E-02  0.8006099E-01
        2   -1    0    0  501    0  0.00000000000E+00  0.00000000000E+00  0.11526584213E+04  0.11526584213E+04  0.25500000920E-02 0.  1.
       -2   -1    0    0    0  501  0.00000000000E+00  0.00000000000E+00 -0.34569111803E+04  0.34569111803E+04  0.25500000920E-02 0. -1.
    10030    2    1    2    0    0  0.00000000000E+00  0.00000000000E+00 -0.23042527590E+04  0.46095696016E+04  0.39923115026E+04 0.  0.
        1    1    3    3  502    0  0.49469908037E+02 -0.17835046602E+04 -0.21856822840E+04  0.28214434588E+04  0.50400001928E-02 0. -1.
       -1    1    3    3    0  502 -0.49469908037E+02  0.17835046602E+04 -0.11857047505E+03  0.17881261427E+04  0.50400001928E-02 0.  1.
</event>
<event>
 5   0  0.2704088E-07  0.3433392E+04  0.7818609E-02  0.8129759E-01
       -2   -1    0    0    0  501  0.00000000000E+00  0.00000000000E+00  0.20671256432E+04  0.20671256432E+04  0.25500000920E-02 0.  1.
        2   -1    0    0  501    0  0.00000000000E+00  0.00000000000E+00 -0.14256731369E+04  0.14256731369E+04  0.25500000920E-02 0. -1.
    10030    2    1    2    0    0  0.00000000000E+00  0.00000000000E+00  0.64145250627E+03  0.34927987801E+04  0.34333922002E+04 0.  0.
        5    1    3    3  502    0  0.10555701909E+04  0.10424729377E+04 -0.55795772597E+03  0.15850290747E+04  0.46999998093E+01 0. -1.
       -5    1    3    3    0  502 -0.10555701909E+04 -0.10424729377E+04  0.11994102322E+04  0.19077697054E+04  0.46999998093E+01 0.  1.
</event>
<event>
 5   0  0.8528625E-08  0.4095153E+04  0.7818609E-02  0.7985622E-01
       -1   -1    0    0    0  501  0.00000000000E+00  0.00000000000E+00  0.15082053602E+04  0.15082053602E+04  0.50400001928E-02 0.  1.
        1   -1    0    0  501    0  0.00000000000E+00  0.00000000000E+00 -0.27798400939E+04  0.27798400939E+04  0.50400001928E-02 0. -1.
    10030    2    1    2    0    0  0.00000000000E+00  0.00000000000E+00 -0.12716347337E+04  0.42880454541E+04  0.40951531010E+04 0.  0.
        4    1    3    3  502    0 -0.13887868448E+04 -0.14641756454E+04 -0.99858801731E+03  0.22516036201E+04  0.12699999809E+01 0. -1.
       -4    1    3    3    0  502  0.13887868448E+04  0.14641756454E+04 -0.27304671638E+03  0.20364418340E+04  0.12699999809E+01 0.  1.
</event>
<event>
 5   0  0.8528625E-08  0.3615391E+04  0.7818609E-02  0.8086975E-01
        1   -1    0    0  501    0  0.00000000000E+00  0.00000000000E+00  0.18877296794E+04  0.18877296794E+04  0.50400001928E-02 0. -1.
       -1   -1    0    0    0  501  0.00000000000E+00  0.00000000000E+00 -0.17310546656E+04  0.17310546656E+04  0.50400001928E-02 0.  1.
    10030    2    1    2    0    0  0.00000000000E+00  0.00000000000E+00  0.15667501376E+03  0.36187843450E+04  0.36153911373E+04 0.  0.
        5    1    3    3  502    0  0.52847370429E+03 -0.24145957492E+03  0.17917133387E+04  0.18835726587E+04  0.46999998093E+01 0. -1.
       -5    1    3    3    0  502 -0.52847370429E+03  0.24145957492E+03 -0.16350383249E+04  0.17352116863E+04  0.46999998093E+01 0.  1.
</event>
<event>
 5   0  0.2666978E-07  0.3907566E+04  0.7818609E-02  0.8023458E-01
        2   -1    0    0  501    0  0.00000000000E+00  0.00000000000E+00  0.18234113107E+04  0.18234113107E+04  0.25500000920E-02 0. -1.
       -2   -1    0    0    0  501  0.00000000000E+00  0.00000000000E+00 -0.20934758355E+04  0.20934758355E+04  0.25500000920E-02 0.  1.
    10030    2    1    2    0    0  0.00000000000E+00  0.00000000000E+00 -0.27006452476E+03  0.39168871463E+04  0.39075657472E+04 0.  0.
        4    1    3    3  502    0 -0.11501454086E+04  0.15658049949E+04  0.72066887364E+02  0.19441643429E+04  0.12699999809E+01 0. -1.
       -4    1    3    3    0  502  0.11501454086E+04 -0.15658049949E+04 -0.34213141212E+03  0.19727228034E+04  0.12699999809E+01 0.  1.
</event>
<event>
 5   0  0.8528625E-08  0.4123513E+04  0.7818609E-02  0.7980083E-01
        1   -1    0    0  501    0  0.00000000000E+00  0.00000000000E+00  0.15373155986E+04  0.15373155986E+04  0.50400001928E-02 0. -1.
       -1   -1    0    0    0  501  0.00000000000E+00  0.00000000000E+00 -0.27651061371E+04  0.27651061371E+04  0.50400001928E-02 0.  1.
    10030    2    1    2    0    0  0.00000000000E+00  0.00000000000E+00 -0.12277905385E+04  0.43024217357E+04  0.41235134516E+04 0.  0.
        4    1    3    3  502    0 -0.12983181639E+04  0.14610634935E+03  0.10502542454E+04  0.16763092533E+04  0.12699999809E+01 0. -1.
       -4    1    3    3    0  502  0.12983181639E+04 -0.14610634935E+03 -0.22780447838E+04  0.26261124824E+04  0.12699999809E+01 0.  1.
</event>
<event>
 5   0  0.8528625E-08  0.4024241E+04  0.7818609E-02  0.7999674E-01
        1   -1    0    0  501    0  0.00000000000E+00  0.00000000000E+00  0.26619796268E+04  0.26619796268E+04  0.50400001928E-02 0.  1.
       -1   -1    0    0    0  501  0.00000000000E+00  0.00000000000E+00 -0.15209089009E+04  0.15209089009E+04  0.50400001928E-02 0. -1.
    10030    2    1    2    0    0  0.00000000000E+00  0.00000000000E+00  0.11410707259E+04  0.41828885277E+04  0.40242408021E+04 0.  0.
        3    1    3    3  502    0 -0.94444532857E+03 -0.87558793218E+03  0.21774434460E+04  0.25298006199E+04  0.10100000352E+00 0.  1.
       -3    1    3    3    0  502  0.94444532857E+03  0.87558793218E+03 -0.10363727201E+04  0.16530879078E+04  0.10100000352E+00 0. -1.
</event>
<event>
 5   0  0.2661693E-07  0.3799622E+04  0.7818609E-02  0.8046236E-01
       -2   -1    0    0    0  501  0.00000000000E+00  0.00000000000E+00  0.15287200065E+04  0.15287200065E+04  0.25500000920E-02 0.  1.
        2   -1    0    0  501    0  0.00000000000E+00  0.00000000000E+00 -0.23609828407E+04  0.23609828407E+04  0.25500000920E-02 0. -1.
    10030    2    1    2    0    0  0.00000000000E+00  0.00000000000E+00 -0.83226283416E+03  0.38897028472E+04  0.37996219305E+04 0.  0.
        1    1    3    3  502    0 -0.78931635264E+02  0.18166961803E+04 -0.97932566255E+03  0.20653556516E+04  0.50400001928E-02 0. -1.
       -1    1    3    3    0  502  0.78931635264E+02 -0.18166961803E+04  0.14706282839E+03  0.18243471956E+04  0.50400001928E-02 0.  1.
</event>
<event>
 5   0  0.8528625E-08  0.3980569E+04  0.7818609E-02  0.8008478E-01
       -1   -1    0    0    0  501  0.00000000000E+00  0.00000000000E+00  0.32624633245E+04  0.32624633245E+04  0.50400001928E-02 0. -1.
        1   -1    0    0  501    0  0.00000000000E+00  0.00000000000E+00 -0.12141847373E+04  0.12141847373E+04  0.50400001928E-02 0.  1.
    10030    2    1    2    0    0  0.00000000000E+00  0.00000000000E+00  0.20482785872E+04  0.44766480618E+04  0.39805693937E+04 0.  0.
        5    1    3    3  502    0 -0.64747758319E+03 -0.17738336154E+04  0.31687783544E+03  0.19147184045E+04  0.46999998093E+01 0.  1.
       -5    1    3    3    0  502  0.64747758319E+03  0.17738336154E+04  0.17314007517E+04  0.25619296573E+04  0.46999998093E+01 0. -1.
</event>
<event>
 5   0  0.2666978E-07  0.4046632E+04  0.7818609E-02  0.7995205E-01
       -2   -1    0    0    0  501  0.00000000000E+00  0.00000000000E+00  0.14205455729E+04  0.14205455729E+04  0.25500000920E-02 0.  1.
        2   -1    0    0  501    0  0.00000000000E+00  0.00000000000E+00 -0.28818565563E+04  0.28818565563E+04  0.25500000920E-02 0. -1.
    10030    2    1    2    0    0  0.00000000000E+00  0.00000000000E+00 -0.14613109834E+04  0.43024021292E+04  0.40466324630E+04 0.  0.
        4    1    3    3  502    0  0.17317789110E+04 -0.96088731287E+03 -0.29042632927E+03  0.20016772193E+04  0.12699999809E+01 0.  1.
       -4    1    3    3    0  502 -0.17317789110E+04  0.96088731287E+03 -0.11708846542E+04  0.23007249099E+04  0.12699999809E+01 0. -1.
</event>
<event>
 5   0  0.2661693E-07  0.3988688E+04  0.7818609E-02  0.8006832E-01
        2   -1    0    0  501    0  0.00000000000E+00  0.00000000000E+00  0.27061378091E+04  0.27061378091E+04  0.25500000920E-02 0.  1.
       -2   -1    0    0    0  501  0.00000000000E+00  0.00000000000E+00 -0.14697726501E+04  0.14697726501E+04  0.25500000920E-02 0. -1.
    10030    2    1    2    0    0  0.00000000000E+00  0.00000000000E+00  0.12363651591E+04  0.41759104592E+04  0.39886876735E+04 0.  0.
        1    1    3    3  502    0 -0.19076616883E+03  0.18338083411E+04 -0.17787803067E+03  0.18522649262E+04  0.50400001928E-02 0. -1.
       -1    1    3    3    0  502  0.19076616883E+03 -0.18338083411E+04  0.14142431897E+04  0.23236455330E+04  0.50400001928E-02 0.  1.
</event>
<event>
 5   0  0.2839279E-07  0.3996020E+04  0.7818609E-02  0.8005350E-01
       -2   -1    0    0    0  501  0.00000000000E+00  0.00000000000E+00  0.11618320696E+04  0.11618320696E+04  0.25500000920E-02 0.  1.
        2   -1    0    0  501    0  0.00000000000E+00  0.00000000000E+00 -0.34359907341E+04  0.34359907341E+04  0.25500000920E-02 0. -1.
    10030    2    1    2    0    0  0.00000000000E+00  0.00000000000E+00 -0.22741586645E+04  0.45978228036E+04  0.39960201328E+04 0.  0.
        3    1    3    3  502    0 -0.13780138914E+04  0.18730218902E+03 -0.27877158503E+04  0.31153433305E+04  0.10100000352E+00 0. -1.
       -3    1    3    3    0  502  0.13780138914E+04 -0.18730218902E+03  0.51355718578E+03  0.14824794731E+04  0.10100000352E+00 0.  1.
</event>
<event>
 5   0  0.2730801E-07  0.3642552E+04  0.7818609E-02  0.8080814E-01
       -2   -1    0    0    0  501  0.00000000000E+00  0.00000000000E+00  0.21498693917E+04  0.21498693917E+04  0.25500000920E-02 0. -1.
        2   -1    0    0  501    0  0.00000000000E+00  0.00000000000E+00 -0.15429055801E+04  0.15429055801E+04  0.25500000920E-02 0.  1.
    10030    2    1    2    0    0  0.00000000000E+00  0.00000000000E+00  0.60696381167E+03  0.36927749718E+04  0.36425515677E+04 0.  0.
        2    1    3    3  502    0 -0.54755200529E+03  0.73015708721E+03  0.19013168937E+04  0.21090160029E+04  0.25500000920E-02 0. -1.
       -2    1    3    3    0  502  0.54755200529E+03 -0.73015708721E+03 -0.12943530820E+04  0.15837589688E+04  0.25500000920E-02 0.  1.
</event>
<event>
 5   0  0.2661693E-07  0.3357135E+04  0.7818609E-02  0.8148508E-01
        2   -1    0    0  501    0  0.00000000000E+00  0.00000000000E+00  0.25940633169E+04  0.25940633169E+04  0.25500000920E-02 0. -1.
       -2   -1    0    0    0  501  0.00000000000E+00  0.00000000000E+00 -0.10861680525E+04  0.10861680525E+04  0.25500000920E-02 0.  1.
    10030    2    1    2    0    0  0.00000000000E+00  0.00000000000E+00  0.15078952644E+04  0.36802313694E+04  0.33571349100E+04 0.  0.
        1    1    3    3  502    0 -0.28358323598E+03  0.27014198472E+03  0.25432722374E+04  0.25732527698E+04  0.50400001928E-02 0. -1.
       -1    1    3    3    0  502  0.28358323598E+03 -0.27014198472E+03 -0.10353769730E+04  0.11069785996E+04  0.50400001928E-02 0.  1.
</event>
<event>
 5   0  0.2704088E-07  0.4067792E+04  0.7818609E-02  0.7991009E-01
       -2   -1    0    0    0  501  0.00000000000E+00  0.00000000000E+00  0.22581852786E+04  0.22581852787E+04  0.25500000920E-02 0.  1.
        2   -1    0    0  501    0  0.00000000000E+00  0.00000000000E+00 -0.18318841164E+04  0.18318841164E+04  0.25500000920E-02 0. -1.
    10030    2    1    2    0    0  0.00000000000E+00  0.00000000000E+00  0.42630116222E+03  0.40900693951E+04  0.40677923958E+04 0.  0.
        5    1    3    3  502    0 -0.51828043789E+03  0.68407167628E+03  0.20671965028E+04  0.22382788347E+04  0.46999998093E+01 0.  1.
       -5    1    3    3    0  502  0.51828043789E+03 -0.68407167628E+03 -0.16408953406E+04  0.18517905604E+04  0.46999998093E+01 0. -1.
</event>
<event>
 5   0  0.2730801E-07  0.3989529E+04  0.7818609E-02  0.8006662E-01
        2   -1    0    0  501    0  0.00000000000E+00  0.00000000000E+00  0.18891969593E+04  0.18891969593E+04  0.25500000920E-02 0. -1.
       -2   -1    0    0    0  501  0.00000000000E+00  0.00000000000E+00 -0.21062305956E+04  0.21062305956E+04  0.25500000920E-02 0.  1.
    10030    2    1    2    0    0  0.00000000000E+00  0.00000000000E+00 -0.21703363634E+03  0.39954275549E+04  0.39895285119E+04 0.  0.
        2    1    3    3  502    0 -0.18055679468E+03  0.63142842006E+03  0.17778239020E+04  0.18952467998E+04  0.25500000920E-02 0. -1.
       -2    1    3    3    0  502  0.18055679468E+03 -0.63142842006E+03 -0.19948575383E+04  0.21001807551E+04  0.25500000920E-02 0.  1.
</event>
<event>
 5   0  0.8528625E-08  0.3997866E+04  0.7818609E-02  0.8004977E-01
       -1   -1    0    0    0  501  0.00000000000E+00  0.00000000000E+00  0.24809099836E+04  0.24809099836E+04  0.50400001928E-02 0. -1.
        1   -1    0    0  501    0  0.00000000000E+00  0.00000000000E+00 -0.16105916402E+04  0.16105916402E+04  0.50400001928E-02 0.  1.
    10030    2    1    2    0    0  0.00000000000E+00  0.00000000000E+00  0.87031834338E+03  0.40915016238E+04  0.39978658705E+04 0.  0.
        3    1    3    3  502    0 -0.17283787022E+04 -0.13679864386E+03  0.14533097490E+04  0.22623253621E+04  0.10100000352E+00 0. -1.
       -3    1    3    3    0  502  0.17283787022E+04  0.13679864386E+03 -0.58299140560E+03  0.18291762617E+04  0.10100000352E+00 0.  1.
</event>
<event>
 5   0  0.8583262E-08  0.3023811E+04  0.7818609E-02  0.8236964E-01
       -1   -1    0    0    0  501  0.00000000000E+00  0.00000000000E+00  0.97789377128E+03  0.97789377129E+03  0.50400001928E-02 0. -1.
        1   -1    0    0  501    0  0.00000000000E+00  0.00000000000E+00 -0.23375320876E+04  0.23375320876E+04  0.50400001928E-02 0.  1.
    10030    2    1    2    0    0  0.00000000000E+00  0.00000000000E+00 -0.13596383163E+04  0.33154258588E+04  0.30238108860E+04 0.  0.
        1    1    3    3  502    0  0.12312643530E+04  0.77991538009E+03 -0.23908569566E+03  0.14769705065E+04  0.50400001928E-02 0. -1.
       -1    1    3    3    0  502 -0.12312643530E+04 -0.77991538009E+03 -0.11205526206E+04  0.18384553524E+04  0.50400001928E-02 0.  1.
</event>
<event>
 5   0  0.2730801E-07  0.4025531E+04  0.7818609E-02  0.7999416E-01
       -2   -1    0    0    0  501  0.00000000000E+00  0.00000000000E+00  0.16651379882E+04  0.16651379882E+04  0.25500000920E-02 0.  1.
        2   -1    0    0  501    0  0.00000000000E+00  0.00000000000E+00 -0.24329670021E+04  0.24329670021E+04  0.25500000920E-02 0. -1.
    10030    2    1    2    0    0  0.00000000000E+00  0.00000000000E+00 -0.76782901389E+03  0.40981049903E+04  0.40255314081E+04 0.  0.
        2    1    3    3  502    0  0.29024156844E+03 -0.13151459293E+04 -0.19066673741E+04  0.23343584683E+04  0.25500000920E-02 0. -1.
       -2    1    3    3    0  502 -0.29024156844E+03  0.13151459293E+04  0.11388383602E+04  0.17637465220E+04  0.25500000920E-02 0.  1.
</event>
<event>
 5   0  0.2704088E-07  0.3997097E+04  0.7818609E-02  0.8005132E-01
        2   -1    0    0  501    0  0.00000000000E+00  0.00000000000E+00  0.25156119432E+04  0.25156119432E+04  0.25500000920E-02 0.  1.
       -2   -1    0    0    0  501  0.00000000000E+00  0.00000000000E+00 -0.15877630497E+04  0.15877630497E+04  0.25500000920E-02 0. -1.
    10030    2    1    2    0    0  0.00000000000E+00  0.00000000000E+00  0.92784889352E+03  0.41033749929E+04  0.39970967918E+04 0.  0.
        5    1    3    3  502    0  0.18957872426E+04  0.65417006888E+02  0.11098478741E+04  0.21977427165E+04  0.46999998093E+01 0.  1.
       -5    1    3    3    0  502 -0.18957872426E+04 -0.65417006888E+02 -0.18199898061E+03  0.19056322764E+04  0.46999998093E+01 0. -1.
</event>
<event>
 5   0  0.2704088E-07  0.4211993E+04  0.7818609E-02  0.7963095E-01
        2   -1    0    0  501    0  0.00000000000E+00  0.00000000000E+00  0.15790785859E+04  0.15790785859E+04  0.25500000920E-02 0. -1.
       -2   -1    0    0    0  501  0.00000000000E+00  0.00000000000E+00 -0.28087396518E+04  0.28087396518E+04  0.25500000920E-02 0.  1.
    10030    2    1    2    0    0  0.00000000000E+00  0.00000000000E+00 -0.12296610659E+04  0.43878182377E+04  0.42119927053E+04 0.  0.
        5    1    3    3  502    0  0.15406896283E+04  0.99312568679E+03 -0.16950218341E+04  0.24966265777E+04  0.46999998093E+01 0.  1.
       -5    1    3    3    0  502 -0.15406896283E+04 -0.99312568679E+03  0.46536076814E+03  0.18911916600E+04  0.46999998093E+01 0. -1.
</event>
<event>
 5   0  0.8528625E-08  0.3534570E+04  0.7818609E-02  0.8105646E-01
        1   -1    0    0  501    0  0.00000000000E+00  0.00000000000E+00  0.17410250337E+04  0.17410250337E+04  0.50400001928E-02 0.  1.
       -1   -1    0    0    0  501  0.00000000000E+00  0.00000000000E+00 -0.17939411016E+04  0.17939411016E+04  0.50400001928E-02 0. -1.
    10030    2    1    2    0    0  0.00000000000E+00  0.00000000000E+00 -0.52916067904E+02  0.35349661354E+04  0.35345700542E+04 0.  0.
        4    1    3    3  502    0  0.24499239466E+03  0.16104784506E+04  0.65891624344E+03  0.17572234753E+04  0.12699999809E+01 0.  1.
       -4    1    3    3    0  502 -0.24499239466E+03 -0.16104784506E+04 -0.71183231135E+03  0.17777426601E+04  0.12699999809E+01 0. -1.
</event>
<event>
 5   0  0.8528625E-08  0.3975013E+04  0.7818609E-02  0.8009606E-01
        3   -1    0    0  501    0  0.00000000000E+00  0.00000000000E+00  0.19732494221E+04  0.19732494247E+04  0.10100000352E+00 0. -1.
       -3   -1    0    0    0  501  0.00000000000E+00  0.00000000000E+00 -0.20018663139E+04  0.20018663164E+04  0.10100000352E+00 0.  1.
    10030    2    1    2    0    0  0.00000000000E+00  0.00000000000E+00 -0.28616891778E+02  0.39751157411E+04  0.39750127331E+04 0.  0.
        1    1    3    3  502    0 -0.45379939518E+03 -0.42947736290E+03  0.18724828408E+04  0.19739748441E+04  0.50400001928E-02 0. -1.
       -1    1    3    3    0  502  0.45379939518E+03  0.42947736290E+03 -0.19010997325E+04  0.20011408969E+04  0.50400001928E-02 0.  1.
</event>
<event>
 5   0  0.2661693E-07  0.4027777E+04  0.7818609E-02  0.7998966E-01
       -2   -1    0    0    0  501  0.00000000000E+00  0.00000000000E+00  0.17670569283E+04  0.17670569283E+04  0.25500000920E-02 0.  1.
        2   -1    0    0  501    0  0.00000000000E+00  0.00000000000E+00 -0.22951986954E+04  0.22951986954E+04  0.25500000920E-02 0. -1.
    10030    2    1    2    0    0  0.00000000000E+00  0.00000000000E+00 -0.52814176710E+03  0.40622556236E+04  0.40277769335E+04 0.  0.
        1    1    3    3  502    0  0.26826608458E+03 -0.11800527491E+04  0.13594465734E+04  0.18200511445E+04  0.50400001928E-02 0.  1.
       -1    1    3    3    0  502 -0.26826608458E+03  0.11800527491E+04 -0.18875883405E+04  0.22422044791E+04  0.50400001928E-02 0. -1.
</event>
<event>
 5   0  0.2666978E-07  0.3968586E+04  0.7818609E-02  0.8010914E-01
       -2   -1    0    0    0  501  0.00000000000E+00  0.00000000000E+00  0.12999811416E+04  0.12999811416E+04  0.25500000920E-02 0.  1.
        2   -1    0    0  501    0  0.00000000000E+00  0.00000000000E+00 -0.30288271840E+04  0.30288271840E+04  0.25500000920E-02 0. -1.
    10030    2    1    2    0    0  0.00000000000E+00  0.00000000000E+00 -0.17288460424E+04  0.43288083256E+04  0.39685857534E+04 0.  0.
        4    1    3    3  502    0 -0.72876306324E+02  0.14167400869E+04  0.64893844753E+03  0.15599955614E+04  0.12699999809E+01 0.  1.
       -4    1    3    3    0  502  0.72876306324E+02 -0.14167400869E+04 -0.23777844900E+04  0.27688127643E+04  0.12699999809E+01 0. -1.
</event>
<event>
 5   0  0.2730801E-07  0.3966992E+04  0.7818609E-02  0.8011239E-01
        2   -1    0    0  501    0  0.00000000000E+00  0.00000000000E+00  0.19189775386E+04  0.19189775386E+04  0.25500000920E-02 0. -1.
       -2   -1    0    0    0  501  0.00000000000E+00  0.00000000000E+00 -0.20501835418E+04  0.20501835418E+04  0.25500000920E-02 0.  1.
    10030    2    1    2    0    0  0.00000000000E+00  0.00000000000E+00 -0.13120600324E+03  0.39691610804E+04  0.39669918914E+04 0.  0.
        2    1    3    3  502    0  0.85138016346E+03  0.53217837316E+03 -0.17771505995E+04  0.20411580676E+04  0.25500000920E-02 0.  1.
       -2    1    3    3    0  502 -0.85138016346E+03 -0.53217837316E+03  0.16459445962E+04  0.19280030128E+04  0.25500000920E-02 0. -1.
</event>
<event>
 5   0  0.2730801E-07  0.3163558E+04  0.7818609E-02  0.8198508E-01
        2   -1    0    0  501    0  0.00000000000E+00  0.00000000000E+00  0.15137933582E+04  0.15137933582E+04  0.25500000920E-02 0. -1.
       -2   -1    0    0    0  501  0.00000000000E+00  0.00000000000E+00 -0.16528182009E+04  0.16528182009E+04  0.25500000920E-02 0.  1.
    10030    2    1    2    0    0  0.00000000000E+00  0.00000000000E+00 -0.13902484271E+03  0.31666115591E+04  0.31635582592E+04 0.  0.
        2    1    3    3  502    0 -0.14384478728E+02 -0.15786002955E+04  0.29777108690E+02  0.15789466369E+04  0.25500000920E-02 0. -1.
       -2    1    3    3    0  502  0.14384478728E+02  0.15786002955E+04 -0.16880195140E+03  0.15876649221E+04  0.25500000920E-02 0.  1.
</event>
<event>
 5   0  0.8528625E-08  0.4419073E+04  0.7818609E-02  0.7924960E-01
        1   -1    0    0  501    0  0.00000000000E+00  0.00000000000E+00  0.23802784180E+04  0.23802784180E+04  0.50400001928E-02 0.  1.
       -1   -1    0    0    0  501  0.00000000000E+00  0.00000000000E+00 -0.20510417663E+04  0.20510417663E+04  0.50400001928E-02 0. -1.
    10030    2    1    2    0    0  0.00000000000E+00  0.00000000000E+00  0.32923665171E+03  0.44313201842E+04  0.44190725048E+04 0.  0.
        2    1    3    3  502    0  0.25587702757E+03 -0.85028636723E+03 -0.18642515851E+04  0.20649198367E+04  0.25500000920E-02 0. -1.
       -2    1    3    3    0  502 -0.25587702757E+03  0.85028636723E+03  0.21934882368E+04  0.23664003475E+04  0.25500000920E-02 0.  1.
</event>
<event>
 5   0  0.8528625E-08  0.4000763E+04  0.7818609E-02  0.8004393E-01
       -1   -1    0    0    0  501  0.00000000000E+00  0.00000000000E+00  0.18638441836E+04  0.18638441836E+04  0.50400001928E-02 0. -1.
        1   -1    0    0  501    0  0.00000000000E+00  0.00000000000E+00 -0.21469206460E+04  0.21469206460E+04  0.50400001928E-02 0.  1.
    10030    2    1    2    0    0  0.00000000000E+00  0.00000000000E+00 -0.28307646232E+03  0.40107648296E+04  0.40007627067E+04 0.  0.
        3    1    3    3  502    0 -0.55088377501E+03 -0.67584166418E+03 -0.19463977056E+04  0.21327679028E+04  0.10100000352E+00 0.  1.
       -3    1    3    3    0  502  0.55088377501E+03  0.67584166418E+03  0.16633212433E+04  0.18779969268E+04  0.10100000352E+00 0. -1.
</event>
<event>
 5   0  0.2704088E-07  0.3983958E+04  0.7818609E-02  0.8007791E-01
        2   -1    0    0  501    0  0.00000000000E+00  0.00000000000E+00  0.12668226520E+04  0.12668226520E+04  0.25500000920E-02 0.  1.
       -2   -1    0    0    0  501  0.00000000000E+00  0.00000000000E+00 -0.31322297126E+04  0.31322297126E+04  0.25500000920E-02 0. -1.
    10030    2    1    2    0    0  0.00000000000E+00  0.00000000000E+00 -0.18654070606E+04  0.43990523646E+04  0.39839576058E+04 0.  0.
        5    1    3    3  502    0  0.10323327164E+03  0.47469439030E+03  0.12004064056E+04  0.12949862938E+04  0.46999998093E+01 0.  1.
       -5    1    3    3    0  502 -0.10323327164E+03 -0.47469439030E+03 -0.30658134662E+04  0.31040660708E+04  0.46999998093E+01 0. -1.
</event>
<event>
 5   0  0.2661693E-07  0.3710178E+04  0.7818609E-02  0.8065710E-01
       -2   -1    0    0    0  501  0.00000000000E+00  0.00000000000E+00  0.16719236358E+04  0.16719236358E+04  0.25500000920E-02 0. -1.
        2   -1    0    0  501    0  0.00000000000E+00  0.00000000000E+00 -0.20583205615E+04  0.20583205615E+04  0.25500000920E-02 0.  1.
    10030    2    1    2    0    0  0.00000000000E+00  0.00000000000E+00 -0.38639692571E+03  0.37302441974E+04  0.37101777839E+04 0.  0.
        1    1    3    3  502    0  0.99507837637E+03  0.49872314040E+03 -0.16852900382E+04  0.20196802367E+04  0.50400001928E-02 0.  1.
       -1    1    3    3    0  502 -0.99507837637E+03 -0.49872314040E+03  0.12988931124E+04  0.17105639606E+04  0.50400001928E-02 0. -1.
</event>
<event>
 5   0  0.8528625E-08  0.4048245E+04  0.7818609E-02  0.7994884E-01
       -1   -1    0    0    0  501  0.00000000000E+00  0.00000000000E+00  0.33384558095E+04  0.33384558095E+04  0.50400001928E-02 0.  1.
        1   -1    0    0  501    0  0.00000000000E+00  0.00000000000E+00 -0.12272356647E+04  0.12272356647E+04  0.50400001928E-02 0. -1.
    10030    2    1    2    0    0  0.00000000000E+00  0.00000000000E+00  0.21112201447E+04  0.45656914742E+04  0.40482450689E+04 0.  0.
        4    1    3    3  502    0 -0.10333359788E+04  0.87975834027E+03 -0.63811580496E+03  0.14996504178E+04  0.12699999809E+01 0. -1.
       -4    1    3    3    0  502  0.10333359788E+04 -0.87975834027E+03  0.27493359497E+04  0.30660410564E+04  0.12699999809E+01 0.  1.
</event>
<event>
 5   0  0.8528625E-08  0.3949329E+04  0.7818609E-02  0.8014847E-01
        1   -1    0    0  501    0  0.00000000000E+00  0.00000000000E+00  0.23239530855E+04  0.23239530855E+04  0.50400001928E-02 0. -1.
       -1   -1    0    0    0  501  0.00000000000E+00  0.00000000000E+00 -0.16778738399E+04  0.16778738399E+04  0.50400001928E-02 0.  1.
    10030    2    1    2    0    0  0.00000000000E+00  0.00000000000E+00  0.64607924568E+03  0.40018269254E+04  0.39493291011E+04 0.  0.
        3    1    3    3  502    0 -0.18535908838E+04  0.41641029074E+03  0.86881177576E+03  0.20890262341E+04  0.10100000352E+00 0. -1.
       -3    1    3    3    0  502  0.18535908838E+04 -0.41641029074E+03 -0.22273253008E+03  0.19128006913E+04  0.10100000352E+00 0.  1.
</event>
<event>
 5   0  0.2704088E-07  0.3982980E+04  0.7818609E-02  0.8007989E-01
        2   -1    0    0  501    0  0.00000000000E+00  0.00000000000E+00  0.13497482876E+04  0.13497482876E+04  0.25500000920E-02 0.  1.
       -2   -1    0    0    0  501  0.00000000000E+00  0.00000000000E+00 -0.29383496413E+04  0.29383496413E+04  0.25500000920E-02 0. -1.
    10030    2    1    2    0    0  0.00000000000E+00  0.00000000000E+00 -0.15886013537E+04  0.42880979288E+04  0.39829799882E+04 0.  0.
        5    1    3    3  502    0 -0.10880093270E+04  0.14527209107E+04  0.88153319186E+02  0.18171283493E+04  0.46999998093E+01 0.  1.
       -5    1    3    3    0  502  0.10880093270E+04 -0.14527209107E+04 -0.16767546729E+04  0.24709695796E+04  0.46999998093E+01 0. -1.
</event>
<event>
 5   0  0.2704088E-07  0.3996150E+04  0.7818609E-02  0.8005324E-01
        2   -1    0    0  501    0  0.00000000000E+00  0.00000000000E+00  0.21950370812E+04  0.21950370812E+04  0.25500000920E-02 0. -1.
       -2   -1    0    0    0  501  0.00000000000E+00  0.00000000000E+00 -0.18187867584E+04  0.18187867584E+04  0.25500000920E-02 0.  1.
    10030    2    1    2    0    0  0.00000000000E+00  0.00000000000E+00  0.37625032280E+03  0.40138238397E+04  0.39961503363E+04 0.  0.
        5    1    3    3  502    0 -0.15958278024E+04 -0.37280640425E+02  0.13951996731E+04  0.21200614234E+04  0.46999998093E+01 0. -1.
       -5    1    3    3    0  502  0.15958278024E+04  0.37280640425E+02 -0.10189493503E+04  0.18937624163E+04  0.46999998093E+01 0.  1.
</event>
<event>
 5   0  0.2730801E-07  0.3216592E+04  0.7818609E-02  0.8184449E-01
       -2   -1    0    0    0  501  0.00000000000E+00  0.00000000000E+00  0.17724635835E+04  0.17724635835E+04  0.25500000920E-02 0.  1.
        2   -1    0    0  501    0  0.00000000000E+00  0.00000000000E+00 -0.14593337876E+04  0.14593337876E+04  0.25500000920E-02 0. -1.
    10030    2    1    2    0    0  0.00000000000E+00  0.00000000000E+00  0.31312979588E+03  0.32317973710E+04  0.32165919820E+04 0.  0.
        2    1    3    3  502    0  0.39920165751E+01  0.11037081244E+04  0.13318931974E+04  0.17297765894E+04  0.25500000920E-02 0.  1.
       -2    1    3    3    0  502 -0.39920165751E+01 -0.11037081244E+04 -0.10187634015E+04  0.15020207816E+04  0.25500000920E-02 0. -1.
</event>
<event>
 5   0  0.2666978E-07  0.3993179E+04  0.7818609E-02  0.8005924E-01
        2   -1    0    0  501    0  0.00000000000E+00  0.00000000000E+00  0.16412433619E+04  0.16412433619E+04  0.25500000920E-02 0.  1.
       -2   -1    0    0    0  501  0.00000000000E+00  0.00000000000E+00 -0.24288720182E+04  0.24288720182E+04  0.25500000920E-02 0. -1.
    10030    2    1    2    0    0  0.00000000000E+00  0.00000000000E+00 -0.78762865632E+03  0.40701153801E+04  0.39931792230E+04 0.  0.
        4    1    3    3  502    0  0.88841108433E+03  0.13205477629E+04 -0.16225479934E+04  0.22728361694E+04  0.12699999809E+01 0. -1.
       -4    1    3    3    0  502 -0.88841108433E+03 -0.13205477629E+04  0.83491933713E+03  0.17972792107E+04  0.12699999809E+01 0.  1.
</event>
<event>
 5   0  0.8583262E-08  0.3970636E+04  0.7818609E-02  0.8010496E-01
        1   -1    0    0  501    0  0.00000000000E+00  0.00000000000E+00  0.15889752216E+04  0.15889752216E+04  0.50400001928E-02 0. -1.
       -1   -1    0    0    0  501  0.00000000000E+00  0.00000000000E+00 -0.24805220919E+04  0.24805220919E+04  0.50400001928E-02 0.  1.
    10030    2    1    2    0    0  0.00000000000E+00  0.00000000000E+00 -0.89154687030E+03  0.40694973136E+04  0.39706362920E+04 0.  0.
        1    1    3    3  502    0  0.87732625823E+03 -0.32766878966E+03 -0.22399071123E+04  0.24278080795E+04  0.50400001928E-02 0.  1.
       -1    1    3    3    0  502 -0.87732625823E+03  0.32766878966E+03  0.13483602420E+04  0.16416892341E+04  0.50400001928E-02 0. -1.
</event>
<event>
 5   0  0.8583262E-08  0.4051047E+04  0.7818609E-02  0.7994327E-01
        1   -1    0    0  501    0  0.00000000000E+00  0.00000000000E+00  0.20131015200E+04  0.20131015200E+04  0.50400001928E-02 0.  1.
       -1   -1    0    0    0  501  0.00000000000E+00  0.00000000000E+00 -0.20380217075E+04  0.20380217075E+04  0.50400001928E-02 0. -1.
    10030    2    1    2    0    0  0.00000000000E+00  0.00000000000E+00 -0.24920187519E+02  0.40511232276E+04  0.40510465795E+04 0.  0.
        1    1    3    3  502    0 -0.12215937536E+04 -0.12965024661E+04  0.95168192306E+03  0.20196307648E+04  0.50400001928E-02 0.  1.
       -1    1    3    3    0  502  0.12215937536E+04  0.12965024661E+04 -0.97660211058E+03  0.20314924627E+04  0.50400001928E-02 0. -1.
</event>
<event>
 5   0  0.8528625E-08  0.3974259E+04  0.7818609E-02  0.8009759E-01
        1   -1    0    0  501    0  0.00000000000E+00  0.00000000000E+00  0.21119195319E+04  0.21119195319E+04  0.50400001928E-02 0. -1.
       -1   -1    0    0    0  501  0.00000000000E+00  0.00000000000E+00 -0.18697135244E+04  0.18697135244E+04  0.50400001928E-02 0.  1.
    10030    2    1    2    0    0  0.00000000000E+00  0.00000000000E+00  0.24220600757E+03  0.39816330563E+04  0.39742594335E+04 0.  0.
        5    1    3    3  502    0 -0.15807830094E+04 -0.19189046095E+03 -0.10697846864E+04  0.19183738523E+04  0.46999998093E+01 0.  1.
       -5    1    3    3    0  502  0.15807830094E+04  0.19189046095E+03  0.13119906940E+04  0.20632592040E+04  0.46999998093E+01 0. -1.
</event>
<event>
 5   0  0.2661693E-07  0.4064581E+04  0.7818609E-02  0.7991644E-01
        2   -1    0    0  501    0  0.00000000000E+00  0.00000000000E+00  0.25601017049E+04  0.25601017049E+04  0.25500000920E-02 0.  1.
       -2   -1    0    0    0  501  0.00000000000E+00  0.00000000000E+00 -0.16132967167E+04  0.16132967167E+04  0.25500000920E-02 0. -1.
    10030    2    1    2    0    0  0.00000000000E+00  0.00000000000E+00  0.94680498820E+03  0.41733984216E+04  0.40645805072E+04 0.  0.
        1    1    3    3  502    0  0.65852685149E+03 -0.43447383759E+03 -0.14496458451E+04  0.16504236444E+04  0.50400001928E-02 0. -1.
       -1    1    3    3    0  502 -0.65852685149E+03  0.43447383759E+03  0.23964508333E+04  0.25229747772E+04  0.50400001928E-02 0.  1.
</event>
<event>
 5   0  0.2666978E-07  0.3945329E+04  0.7818609E-02  0.8015667E-01
       -2   -1    0    0    0  501  0.00000000000E+00  0.00000000000E+00  0.13296297949E+04  0.13296297949E+04  0.25500000920E-02 0. -1.
        2   -1    0    0  501    0  0.00000000000E+00  0.00000000000E+00 -0.29266826202E+04  0.29266826202E+04  0.25500000920E-02 0.  1.
    10030    2    1    2    0    0  0.00000000000E+00  0.00000000000E+00 -0.15970528253E+04  0.42563124151E+04  0.39453285856E+04 0.  0.
        4    1    3    3  502    0 -0.75087485485E+03  0.40658610751E+03  0.11199228017E+04  0.14083160175E+04  0.12699999809E+01 0. -1.
       -4    1    3    3    0  502  0.75087485485E+03 -0.40658610751E+03 -0.27169756270E+04  0.28479963976E+04  0.12699999809E+01 0.  1.
</event>
<event>
 5   0  0.8528625E-08  0.3647305E+04  0.7818609E-02  0.8079741E-01
       -1   -1    0    0    0  501  0.00000000000E+00  0.00000000000E+00  0.24358848688E+04  0.24358848688E+04  0.50400001928E-02 0. -1.
        1   -1    0    0  501    0  0.00000000000E+00  0.00000000000E+00 -0.13652980655E+04  0.13652980655E+04  0.50400001928E-02 0.  1.
    10030    2    1    2    0    0  0.00000000000E+00  0.00000000000E+00  0.10705868033E+04  0.38011829343E+04  0.36473052513E+04 0.  0.
        4    1    3    3  502    0 -0.63037684865E+02  0.17000607328E+04 -0.14932830792E+03  0.17077707110E+04  0.12699999809E+01 0.  1.
       -4    1    3    3    0  502  0.63037684865E+02 -0.17000607328E+04  0.12199151112E+04  0.20934122233E+04  0.12699999809E+01 0. -1.
</event>
<event>
 5   0  0.8528625E-08  0.3946542E+04  0.7818609E-02  0.8015418E-01
        3   -1    0    0  501    0  0.00000000000E+00  0.00000000000E+00  0.15540663864E+04  0.15540663897E+04  0.10100000352E+00 0. -1.
       -3   -1    0    0    0  501  0.00000000000E+00  0.00000000000E+00 -0.25055542898E+04  0.25055542918E+04  0.10100000352E+00 0.  1.
    10030    2    1    2    0    0  0.00000000000E+00  0.00000000000E+00 -0.95148790334E+03  0.40596206815E+04  0.39465416313E+04 0.  0.
        4    1    3    3  502    0  0.17211275556E+03 -0.18696112023E+04 -0.11003718612E+04  0.21762097082E+04  0.12699999809E+01 0.  1.
       -4    1    3    3    0  502 -0.17211275556E+03  0.18696112023E+04  0.14888395786E+03  0.18834109733E+04  0.12699999809E+01 0. -1.
</event>
<event>
 5   0  0.2661693E-07  0.3974086E+04  0.7818609E-02  0.8009795E-01
       -2   -1    0    0    0  501  0.00000000000E+00  0.00000000000E+00  0.12999661373E+04  0.12999661373E+04  0.25500000920E-02 0. -1.
        2   -1    0    0  501    0  0.00000000000E+00  0.00000000000E+00 -0.30372643580E+04  0.30372643580E+04  0.25500000920E-02 0.  1.
    10030    2    1    2    0    0  0.00000000000E+00  0.00000000000E+00 -0.17372982206E+04  0.43372304953E+04  0.39740864688E+04 0.  0.
        1    1    3    3  502    0 -0.14654019383E+04  0.72182088544E+03 -0.21033601887E+04  0.26631846190E+04  0.50400001928E-02 0.  1.
       -1    1    3    3    0  502  0.14654019383E+04 -0.72182088544E+03  0.36606196806E+03  0.16740458763E+04  0.50400001928E-02 0. -1.
</event>
<event>
 5   0  0.8528625E-08  0.4002209E+04  0.7818609E-02  0.8004101E-01
       -1   -1    0    0    0  501  0.00000000000E+00  0.00000000000E+00  0.24046967710E+04  0.24046967710E+04  0.50400001928E-02 0.  1.
        1   -1    0    0  501    0  0.00000000000E+00  0.00000000000E+00 -0.16652494757E+04  0.16652494757E+04  0.50400001928E-02 0. -1.
    10030    2    1    2    0    0  0.00000000000E+00  0.00000000000E+00  0.73944729529E+03  0.40699462467E+04  0.40022094084E+04 0.  0.
        3    1    3    3  502    0  0.10098976065E+03  0.17533132542E+04 -0.60573669968E+03  0.18577468231E+04  0.10100000352E+00 0. -1.
       -3    1    3    3    0  502 -0.10098976065E+03 -0.17533132542E+04  0.13451839950E+04  0.22121994236E+04  0.10100000352E+00 0.  1.
</event>
<event>
 5   0  0.2730801E-07  0.3663891E+04  0.7818609E-02  0.8076011E-01
        2   -1    0    0  501    0  0.00000000000E+00  0.00000000000E+00  0.14812222731E+04  0.14812222731E+04  0.25500000920E-02 0. -1.
       -2   -1    0    0    0  501  0.00000000000E+00  0.00000000000E+00 -0.22657129929E+04  0.22657129929E+04  0.25500000920E-02 0.  1.
    10030    2    1    2    0    0  0.00000000000E+00  0.00000000000E+00 -0.78449071980E+03  0.37469352660E+04  0.36638911280E+04 0.  0.
        2    1    3    3  502    0  0.13586042445E+04 -0.59737513240E+03  0.70604317636E+03  0.16435204620E+04  0.25500000920E-02 0. -1.
       -2    1    3    3    0  502 -0.13586042445E+04  0.59737513240E+03 -0.14905338962E+04  0.21034148040E+04  0.25500000920E-02 0.  1.
</event>
<event>
 5   0  0.2730801E-07  0.4005970E+04  0.7818609E-02  0.8003343E-01
       -2   -1    0    0    0  501  0.00000000000E+00  0.00000000000E+00  0.18224738630E+04  0.18224738630E+04  0.25500000920E-02 0. -1.
        2   -1    0    0  501    0  0.00000000000E+00  0.00000000000E+00 -0.22013757351E+04  0.22013757351E+04  0.25500000920E-02 0.  1.
    10030    2    1    2    0    0  0.00000000000E+00  0.00000000000E+00 -0.37890187205E+03  0.40238495981E+04  0.40059704142E+04 0.  0.
        2    1    3    3  502    0 -0.33227426482E+03 -0.17647379356E+04  0.70177653237E+03  0.19280032339E+04  0.25500000920E-02 0. -1.
       -2    1    3    3    0  502  0.33227426482E+03  0.17647379356E+04 -0.10806784044E+04  0.20958463642E+04  0.25500000920E-02 0.  1.
</event>
<event>
 5   0  0.2666978E-07  0.4000707E+04  0.7818609E-02  0.8004404E-01
       -2   -1    0    0    0  501  0.00000000000E+00  0.00000000000E+00  0.20947680587E+04  0.20947680587E+04  0.25500000920E-02 0. -1.
        2   -1    0    0  501    0  0.00000000000E+00  0.00000000000E+00 -0.19101940368E+04  0.19101940368E+04  0.25500000920E-02 0.  1.
    10030    2    1    2    0    0  0.00000000000E+00  0.00000000000E+00  0.18457402196E+03  0.40049620955E+04  0.40007066647E+04 0.  0.
        4    1    3    3  502    0 -0.60596051739E+03  0.81009018485E+03  0.18198043405E+04  0.20820959889E+04  0.12699999809E+01 0. -1.
       -4    1    3    3    0  502  0.60596051739E+03 -0.81009018485E+03 -0.16352303186E+04  0.19228661066E+04  0.12699999809E+01 0.  1.
</event>
<event>
 5   0  0.2839279E-07  0.3899209E+04  0.7818609E-02  0.8025194E-01
       -2   -1    0    0    0  501  0.00000000000E+00  0.00000000000E+00  0.21385164366E+04  0.21385164366E+04  0.25500000920E-02 0.  1.
        2   -1    0    0  501    0  0.00000000000E+00  0.00000000000E+00 -0.17773804773E+04  0.17773804773E+04  0.25500000920E-02 0. -1.
    10030    2    1    2    0    0  0.00000000000E+00  0.00000000000E+00  0.36113595930E+03  0.39158969139E+04  0.38992088247E+04 0.  0.
        3    1    3    3  502    0  0.19310399528E+04 -0.45686245710E+02 -0.85053739847E+02  0.19334520116E+04  0.10100000352E+00 0. -1.
       -3    1    3    3    0  502 -0.19310399528E+04  0.45686245710E+02  0.44618969915E+03  0.19824449022E+04  0.10100000352E+00 0.  1.
</event>
<event>
 5   0  0.2661693E-07  0.4106390E+04  0.7818609E-02  0.7983422E-01
        2   -1    0    0  501    0  0.00000000000E+00  0.00000000000E+00  0.24808717479E+04  0.24808717479E+04  0.25500000920E-02 0. -1.
       -2   -1    0    0    0  501  0.00000000000E+00  0.00000000000E+00 -0.16992456960E+04  0.16992456960E+04  0.25500000920E-02 0.  1.
    10030    2    1    2    0    0  0.00000000000E+00  0.00000000000E+00  0.78162605189E+03  0.41801174440E+04  0.41063904540E+04 0.  0.
        1    1    3    3  502    0  0.16341268593E+04  0.10432417822E+04 -0.29725672795E+03  0.19613988811E+04  0.50400001928E-02 0.  1.
       -1    1    3    3    0  502 -0.16341268593E+04 -0.10432417822E+04  0.10788827798E+04  0.22187185629E+04  0.50400001928E-02 0. -1.
</event>
<event>
 5   0  0.2704088E-07  0.3980057E+04  0.7818609E-02  0.8008582E-01
        2   -1    0    0  501    0  0.00000000000E+00  0.00000000000E+00  0.21572563703E+04  0.21572563703E+04  0.25500000920E-02 0.  1.
       -2   -1    0    0    0  501  0.00000000000E+00  0.00000000000E+00 -0.18357639105E+04  0.18357639105E+04  0.25500000920E-02 0. -1.
    10030    2    1    2    0    0  0.00000000000E+00  0.00000000000E+00  0.32149245981E+03  0.39930202808E+04  0.39800569796E+04 0.  0.
        5    1    3    3  502    0  0.11281876674E+04  0.56417254181E+03  0.17049453558E+04  0.21208391797E+04  0.46999998093E+01 0.  1.
       -5    1    3    3    0  502 -0.11281876674E+04 -0.56417254181E+03 -0.13834528960E+04  0.18721811011E+04  0.46999998093E+01 0. -1.
</event>
<event>
 5   0  0.8528625E-08  0.3488581E+04  0.7818609E-02  0.8116502E-01
       -1   -1    0    0    0  501  0.00000000000E+00  0.00000000000E+00  0.16720071498E+04  0.16720071498E+04  0.50400001928E-02 0. -1.
        1   -1    0    0  501    0  0.00000000000E+00  0.00000000000E+00 -0.18196982738E+04  0.18196982738E+04  0.50400001928E-02 0.  1.
    10030    2    1    2    0    0  0.00000000000E+00  0.00000000000E+00 -0.14769112401E+03  0.34917054236E+04  0.34885805276E+04 0.  0.
        4    1    3    3  502    0 -0.28560659954E+03 -0.16622536805E+04  0.37139949345E+03  0.17270198681E+04  0.12699999809E+01 0. -1.
       -4    1    3    3    0  502  0.28560659954E+03  0.16622536805E+04 -0.51909061746E+03  0.17646855556E+04  0.12699999809E+01 0.  1.
</event>
<event>
 5   0  0.8528625E-08  0.3954441E+04  0.7818609E-02  0.8013801E-01
        1   -1    0    0  501    0  0.00000000000E+00  0.00000000000E+00  0.22371685829E+04  0.22371685829E+04  0.50400001928E-02 0. -1.
       -1   -1    0    0    0  501  0.00000000000E+00  0.00000000000E+00 -0.17474774713E+04  0.17474774713E+04  0.50400001928E-02 0.  1.
    10030    2    1    2    0    0  0.00000000000E+00  0.00000000000E+00  0.48969111162E+03  0.39846460542E+04  0.39544414008E+04 0.  0.
        5    1    3    3  502    0 -0.12359723775E+04 -0.11333164988E+04  0.13003895035E+04  0.21220435800E+04  0.46999998093E+01 0. -1.
       -5    1    3    3    0  502  0.12359723775E+04  0.11333164988E+04 -0.81069839186E+03  0.18626024742E+04  0.46999998093E+01 0.  1.
</event>
<event>
 5   0  0.2666978E-07  0.4015396E+04  0.7818609E-02  0.8001448E-01
        2   -1    0    0  501    0  0.00000000000E+00  0.00000000000E+00  0.19329674649E+04  0.19329674650E+04  0.25500000920E-02 0. -1.
       -2   -1    0    0    0  501  0.00000000000E+00  0.00000000000E+00 -0.20853178547E+04  0.20853178547E+04  0.25500000920E-02 0.  1.
    10030    2    1    2    0    0  0.00000000000E+00  0.00000000000E+00 -0.15235038980E+03  0.40182853197E+04  0.40153961535E+04 0.  0.
        4    1    3    3  502    0 -0.24196795760E+03  0.19791401113E+04  0.15916604208E+03  0.20002198666E+04  0.12699999809E+01 0. -1.
       -4    1    3    3    0  502  0.24196795760E+03 -0.19791401113E+04 -0.31151643188E+03  0.20180654531E+04  0.12699999809E+01 0.  1.
</event>
<event>
 5   0  0.2730801E-07  0.3860359E+04  0.7818609E-02  0.8033325E-01
        2   -1    0    0  501    0  0.00000000000E+00  0.00000000000E+00  0.22059158255E+04  0.22059158255E+04  0.25500000920E-02 0.  1.
       -2   -1    0    0    0  501  0.00000000000E+00  0.00000000000E+00 -0.16889095273E+04  0.16889095273E+04  0.25500000920E-02 0. -1.
    10030    2    1    2    0    0  0.00000000000E+00  0.00000000000E+00  0.51700629817E+03  0.38948253527E+04  0.38603586642E+04 0.  0.
        2    1    3    3  502    0  0.17678061727E+04  0.77428690624E+03  0.22767916256E+03  0.19433210436E+04  0.25500000920E-02 0. -1.
       -2    1    3    3    0  502 -0.17678061727E+04 -0.77428690624E+03  0.28932713561E+03  0.19515043092E+04  0.25500000920E-02 0.  1.
</event>
<event>
 5   0  0.8528625E-08  0.4006402E+04  0.7818609E-02  0.8003256E-01
       -1   -1    0    0    0  501  0.00000000000E+00  0.00000000000E+00  0.15080006707E+04  0.15080006707E+04  0.50400001928E-02 0. -1.
        1   -1    0    0  501    0  0.00000000000E+00  0.00000000000E+00 -0.26610166102E+04  0.26610166102E+04  0.50400001928E-02 0.  1.
    10030    2    1    2    0    0  0.00000000000E+00  0.00000000000E+00 -0.11530159395E+04  0.41690172810E+04  0.40064022929E+04 0.  0.
        5    1    3    3  502    0  0.40288412096E+03 -0.10064549437E+04  0.11763593002E+04  0.15997219951E+04  0.46999998093E+01 0. -1.
       -5    1    3    3    0  502 -0.40288412096E+03  0.10064549437E+04 -0.23293752397E+04  0.25692952858E+04  0.46999998093E+01 0.  1.
</event>
<event>
 5   0  0.8528625E-08  0.4045853E+04  0.7818609E-02  0.7995360E-01
        1   -1    0    0  501    0  0.00000000000E+00  0.00000000000E+00  0.15732478559E+04  0.15732478559E+04  0.50400001928E-02 0. -1.
       -1   -1    0    0    0  501  0.00000000000E+00  0.00000000000E+00 -0.26011363869E+04  0.26011363869E+04  0.50400001928E-02 0.  1.
    10030    2    1    2    0    0  0.00000000000E+00  0.00000000000E+00 -0.10278885311E+04  0.41743842428E+04  0.40458533061E+04 0.  0.
        4    1    3    3  502    0  0.83761235799E+03  0.17037024509E+04  0.20684346693E+03  0.19097073954E+04  0.12699999809E+01 0. -1.
       -4    1    3    3    0  502 -0.83761235799E+03 -0.17037024509E+04 -0.12347319980E+04  0.22646768474E+04  0.12699999809E+01 0.  1.
</event>
<event>
 5   0  0.2704088E-07  0.3959457E+04  0.7818609E-02  0.8012776E-01
        2   -1    0    0  501    0  0.00000000000E+00  0.00000000000E+00  0.18214798084E+04  0.18214798084E+04  0.25500000920E-02 0. -1.
       -2   -1    0    0    0  501  0.00000000000E+00  0.00000000000E+00 -0.21517253771E+04  0.21517253771E+04  0.25500000920E-02 0.  1.
    10030    2    1    2    0    0  0.00000000000E+00  0.00000000000E+00 -0.33024556878E+03  0.39732051855E+04  0.39594566938E+04 0.  0.
        5    1    3    3  502    0  0.15331108930E+04  0.11536019928E+04  0.32450144798E+03  0.19459059195E+04  0.46999998093E+01 0. -1.
       -5    1    3    3    0  502 -0.15331108930E+04 -0.11536019928E+04 -0.65474701677E+03  0.20272992660E+04  0.46999998093E+01 0.  1.
</event>
<event>
 5   0  0.8528625E-08  0.3014896E+04  0.7818609E-02  0.8239490E-01
       -1   -1    0    0    0  501  0.00000000000E+00  0.00000000000E+00  0.91428883119E+03  0.91428883121E+03  0.50400001928E-02 0.  1.
        1   -1    0    0  501    0  0.00000000000E+00  0.00000000000E+00 -0.24854278997E+04  0.24854278997E+04  0.50400001928E-02 0. -1.
    10030    2    1    2    0    0  0.00000000000E+00  0.00000000000E+00 -0.15711390685E+04  0.33997167309E+04  0.30148956661E+04 0.  0.
        2    1    3    3  502    0 -0.93849420271E+03 -0.93262086809E+03 -0.16001642529E+04  0.20763137259E+04  0.25500000920E-02 0. -1.
       -2    1    3    3    0  502  0.93849420271E+03  0.93262086809E+03  0.29025184487E+02  0.13234030049E+04  0.25500000920E-02 0.  1.
</event>
<event>
 5   0  0.8528625E-08  0.3977892E+04  0.7818609E-02  0.8009021E-01
        1   -1    0    0  501    0  0.00000000000E+00  0.00000000000E+00  0.24160441482E+04  0.24160441482E+04  0.50400001928E-02 0. -1.
       -1   -1    0    0    0  501  0.00000000000E+00  0.00000000000E+00 -0.16373484596E+04  0.16373484596E+04  0.50400001928E-02 0.  1.
    10030    2    1    2    0    0  0.00000000000E+00  0.00000000000E+00  0.77869568857E+03  0.40533926078E+04  0.39778919866E+04 0.  0.
        3    1    3    3  502    0  0.14095236227E+04  0.14449637447E+03 -0.10329490722E+04  0.17534593925E+04  0.10100000352E+00 0.  1.
       -3    1    3    3    0  502 -0.14095236227E+04 -0.14449637447E+03  0.18116447608E+04  0.22999332153E+04  0.10100000352E+00 0. -1.
</event>
<event>
 5   0  0.8583262E-08  0.4035893E+04  0.7818609E-02  0.7997345E-01
       -1   -1    0    0    0  501  0.00000000000E+00  0.00000000000E+00  0.25920112210E+04  0.25920112210E+04  0.50400001928E-02 0.  1.
        1   -1    0    0  501    0  0.00000000000E+00  0.00000000000E+00 -0.15710223871E+04  0.15710223871E+04  0.50400001928E-02 0. -1.
    10030    2    1    2    0    0  0.00000000000E+00  0.00000000000E+00  0.10209888339E+04  0.41630336081E+04  0.40358927913E+04 0.  0.
        1    1    3    3  502    0 -0.11920479525E+04 -0.14145748065E+04 -0.32119824124E+03  0.18775432124E+04  0.50400001928E-02 0.  1.
       -1    1    3    3    0  502  0.11920479525E+04  0.14145748065E+04  0.13421870752E+04  0.22854903957E+04  0.50400001928E-02 0. -1.
</event>
<event>
 5   0  0.2661693E-07  0.3965600E+04  0.7818609E-02  0.8011522E-01
        2   -1    0    0  501    0  0.00000000000E+00  0.00000000000E+00  0.15714798266E+04  0.15714798266E+04  0.25500000920E-02 0.  1.
       -2   -1    0    0    0  501  0.00000000000E+00  0.00000000000E+00 -0.25017788600E+04  0.25017788600E+04  0.25500000920E-02 0. -1.
    10030    2    1    2    0    0  0.00000000000E+00  0.00000000000E+00 -0.93029903338E+03  0.40732586865E+04  0.39655995809E+04 0.  0.
        1    1    3    3  502    0  0.18738293648E+03 -0.19573397867E+04 -0.20286724807E+03  0.19767262142E+04  0.50400001928E-02 0.  1.
       -1    1    3    3    0  502 -0.18738293648E+03  0.19573397867E+04 -0.72743178530E+03  0.20965324724E+04  0.50400001928E-02 0. -1.
</event>
<event>
 5   0  0.2839279E-07  0.4013224E+04  0.7818609E-02  0.8001884E-01
       -2   -1    0    0    0  501  0.00000000000E+00  0.00000000000E+00  0.17075500877E+04  0.17075500877E+04  0.25500000920E-02 0. -1.
        2   -1    0    0  501    0  0.00000000000E+00  0.00000000000E+00 -0.23580520464E+04  0.23580520464E+04  0.25500000920E-02 0.  1.
    10030    2    1    2    0    0  0.00000000000E+00  0.00000000000E+00 -0.65050195874E+03  0.40656021341E+04  0.40132241296E+04 0.  0.
        3    1    3    3  502    0 -0.16362140393E+04  0.27094044168E+03  0.81904281784E+03  0.18497124785E+04  0.10100000352E+00 0. -1.
       -3    1    3    3    0  502  0.16362140393E+04 -0.27094044168E+03 -0.14695447766E+04  0.22158896556E+04  0.10100000352E+00 0.  1.
</event>
<event>
 5   0  0.2704088E-07  0.4013327E+04  0.7818609E-02  0.8001863E-01
       -2   -1    0    0    0  501  0.00000000000E+00  0.00000000000E+00  0.16519429655E+04  0.16519429655E+04  0.25500000920E-02 0.  1.
        2   -1    0    0  501    0  0.00000000000E+00  0.00000000000E+00 -0.24375534570E+04  0.24375534570E+04  0.25500000920E-02 0. -1.
    10030    2    1    2    0    0  0.00000000000E+00  0.00000000000E+00 -0.78561049150E+03  0.40894964224E+04  0.40133274405E+04 0.  0.
        5    1    3    3  502    0 -0.49414322682E+03  0.16847687200E+04  0.59725965129E+03  0.18545523313E+04  0.46999998093E+01 0.  1.
       -5    1    3    3    0  502  0.49414322682E+03 -0.16847687200E+04 -0.13828701428E+04  0.22349440911E+04  0.46999998093E+01 0. -1.
</event>
<event>
 5   0  0.2666978E-07  0.2901904E+04  0.7818609E-02  0.8272311E-01
       -2   -1    0    0    0  501  0.00000000000E+00  0.00000000000E+00  0.13317075989E+04  0.13317075989E+04  0.25500000920E-02 0. -1.
        2   -1    0    0  501    0  0.00000000000E+00  0.00000000000E+00 -0.15808740962E+04  0.15808740962E+04  0.25500000920E-02 0.  1.
    10030    2    1    2    0    0  0.00000000000E+00  0.00000000000E+00 -0.24916649733E+03  0.29125816950E+04  0.29019042346E+04 0.  0.
        4    1    3    3  502    0  0.39739151476E+03  0.13006208970E+04  0.38297071955E+03  0.14128704536E+04  0.12699999809E+01 0. -1.
       -4    1    3    3    0  502 -0.39739151476E+03 -0.13006208970E+04 -0.63213721688E+03  0.14997112414E+04  0.12699999809E+01 0.  1.
</event>
<event>
 5   0  0.2661693E-07  0.3165120E+04  0.7818609E-02  0.8198090E-01
        2   -1    0    0  501    0  0.00000000000E+00  0.00000000000E+00  0.18611714497E+04  0.18611714497E+04  0.25500000920E-02 0. -1.
       -2   -1    0    0    0  501  0.00000000000E+00  0.00000000000E+00 -0.13456558062E+04  0.13456558062E+04  0.25500000920E-02 0.  1.
    10030    2    1    2    0    0  0.00000000000E+00  0.00000000000E+00  0.51551564351E+03  0.32068272558E+04  0.31651200088E+04 0.  0.
        1    1    3    3  502    0  0.14910942377E+04 -0.26156464704E+03 -0.20953335849E+03  0.15282939241E+04  0.50400001928E-02 0.  1.
       -1    1    3    3    0  502 -0.14910942377E+04  0.26156464704E+03  0.72504900200E+03  0.16785333317E+04  0.50400001928E-02 0. -1.
</event>
<event>
 5   0  0.8528625E-08  0.3894762E+04  0.7818609E-02  0.8026120E-01
       -1   -1    0    0    0  501  0.00000000000E+00  0.00000000000E+00  0.28541628670E+04  0.28541628670E+04  0.50400001928E-02 0. -1.
        1   -1    0    0  501    0  0.00000000000E+00  0.00000000000E+00 -0.13286881442E+04  0.13286881442E+04  0.50400001928E-02 0.  1.
    10030    2    1    2    0    0  0.00000000000E+00  0.00000000000E+00  0.15254747228E+04  0.41828510113E+04  0.38947617966E+04 0.  0.
        2    1    3    3  502    0 -0.11535126559E+04 -0.42568689981E+03  0.23845688598E+04  0.26829031721E+04  0.25500000920E-02 0. -1.
       -2    1    3    3    0  502  0.11535126559E+04  0.42568689981E+03 -0.85909413698E+03  0.14999478392E+04  0.25500000920E-02 0.  1.
</event>
<event>
 5   0  0.8528625E-08  0.4042373E+04  0.7818609E-02  0.7996053E-01
        1   -1    0    0  501    0  0.00000000000E+00  0.00000000000E+00  0.19492750458E+04  0.19492750458E+04  0.50400001928E-02 0.  1.
       -1   -1    0    0    0  501  0.00000000000E+00  0.00000000000E+00 -0.20957512630E+04  0.20957512630E+04  0.50400001928E-02 0. -1.
    10030    2    1    2    0    0  0.00000000000E+00  0.00000000000E+00 -0.14647621723E+03  0.40450263088E+04  0.40423733817E+04 0.  0.
        3    1    3    3  502    0  0.12431858927E+04  0.14008152334E+04 -0.83360595969E+03  0.20500471673E+04  0.10100000352E+00 0. -1.
       -3    1    3    3    0  502 -0.12431858927E+04 -0.14008152334E+04  0.68712974246E+03  0.19949791415E+04  0.10100000352E+00 0.  1.
</event>
<event>
 5   0  0.2839279E-07  0.3980834E+04  0.7818609E-02  0.8008424E-01
       -2   -1    0    0    0  501  0.00000000000E+00  0.00000000000E+00  0.15838988473E+04  0.15838988473E+04  0.25500000920E-02 0.  1.
        2   -1    0    0  501    0  0.00000000000E+00  0.00000000000E+00 -0.25012709587E+04  0.25012709587E+04  0.25500000920E-02 0. -1.
    10030    2    1    2    0    0  0.00000000000E+00  0.00000000000E+00 -0.91737211145E+03  0.40851698060E+04  0.39808341780E+04 0.  0.
        3    1    3    3  502    0  0.10871203896E+04 -0.62025236015E+03  0.11295257079E+04  0.16859335891E+04  0.10100000352E+00 0.  1.
       -3    1    3    3    0  502 -0.10871203896E+04  0.62025236015E+03 -0.20468978194E+04  0.23992362170E+04  0.10100000352E+00 0. -1.
</event>
<event>
 5   0  0.2839279E-07  0.2944948E+04  0.7818609E-02  0.8259628E-01
        2   -1    0    0  501    0  0.00000000000E+00  0.00000000000E+00  0.23851321749E+04  0.23851321749E+04  0.25500000920E-02 0.  1.
       -2   -1    0    0    0  501  0.00000000000E+00  0.00000000000E+00 -0.90903961555E+03  0.90903961555E+03  0.25500000920E-02 0. -1.
    10030    2    1    2    0    0  0.00000000000E+00  0.00000000000E+00  0.14760925593E+04  0.32941717904E+04  0.29449479692E+04 0.  0.
        3    1    3    3  502    0  0.51492866223E+03  0.27078677864E+03 -0.77502320450E+03  0.96909131891E+03  0.10100000352E+00 0. -1.
       -3    1    3    3    0  502 -0.51492866223E+03 -0.27078677864E+03  0.22511157638E+04  0.23250804715E+04  0.10100000352E+00 0.  1.
</event>
<event>
 5   0  0.8528625E-08  0.3183559E+04  0.7818609E-02  0.8193173E-01
       -1   -1    0    0    0  501  0.00000000000E+00  0.00000000000E+00  0.14869482683E+04  0.14869482683E+04  0.50400001928E-02 0. -1.
        1   -1    0    0  501    0  0.00000000000E+00  0.00000000000E+00 -0.17040012608E+04  0.17040012608E+04  0.50400001928E-02 0.  1.
    10030    2    1    2    0    0  0.00000000000E+00  0.00000000000E+00 -0.21705299246E+03  0.31909495291E+04  0.31835588412E+04 0.  0.
        4    1    3    3  502    0  0.25345238111E+02  0.15498197175E+04  0.25449738379E+03  0.15707813563E+04  0.12699999809E+01 0. -1.
       -4    1    3    3    0  502 -0.25345238111E+02 -0.15498197175E+04 -0.47155037624E+03  0.16201681728E+04  0.12699999809E+01 0.  1.
</event>
<event>
 5   0  0.8583262E-08  0.3921655E+04  0.7818609E-02  0.8020540E-01
        1   -1    0    0  501    0  0.00000000000E+00  0.00000000000E+00  0.18633441351E+04  0.18633441351E+04  0.50400001928E-02 0. -1.
       -1   -1    0    0    0  501  0.00000000000E+00  0.00000000000E+00 -0.20634104020E+04  0.20634104020E+04  0.50400001928E-02 0.  1.
    10030    2    1    2    0    0  0.00000000000E+00  0.00000000000E+00 -0.20006626685E+03  0.39267545371E+04  0.39216545849E+04 0.  0.
        1    1    3    3  502    0  0.18052833356E+03  0.75691611710E+03  0.17021216597E+04  0.18715583432E+04  0.50400001928E-02 0. -1.
       -1    1    3    3    0  502 -0.18052833356E+03 -0.75691611710E+03 -0.19021879265E+04  0.20551961939E+04  0.50400001928E-02 0.  1.
</event>
<event>
 5   0  0.2704088E-07  0.3787996E+04  0.7818609E-02  0.8048736E-01
       -2   -1    0    0    0  501  0.00000000000E+00  0.00000000000E+00  0.19123742518E+04  0.19123742518E+04  0.25500000920E-02 0.  1.
        2   -1    0    0  501    0  0.00000000000E+00  0.00000000000E+00 -0.18757981670E+04  0.18757981670E+04  0.25500000920E-02 0. -1.
    10030    2    1    2    0    0  0.00000000000E+00  0.00000000000E+00  0.36576084867E+02  0.37881724188E+04  0.37879958374E+04 0.  0.
        5    1    3    3  502    0 -0.11700717599E+04 -0.81255721548E+03  0.12665004134E+04  0.19061381217E+04  0.46999998093E+01 0.  1.
       -5    1    3    3    0  502  0.11700717599E+04  0.81255721548E+03 -0.12299243285E+04  0.18820342971E+04  0.46999998093E+01 0. -1.
</event>
<event>
 5   0  0.8583262E-08  0.4016200E+04  0.7818609E-02  0.8001287E-01
        1   -1    0    0  501    0  0.00000000000E+00  0.00000000000E+00  0.12329627290E+04  0.12329627290E+04  0.50400001928E-02 0. -1.
       -1   -1    0    0    0  501  0.00000000000E+00  0.00000000000E+00 -0.32705487343E+04  0.32705487343E+04  0.50400001928E-02 0.  1.
    10030    2    1    2    0    0  0.00000000000E+00  0.00000000000E+00 -0.20375860053E+04  0.45035114633E+04  0.40161995432E+04 0.  0.
        1    1    3    3  502    0 -0.16159878371E+04  0.57431202902E+03  0.15256835882E+03  0.17217805030E+04  0.50400001928E-02 0. -1.
       -1    1    3    3    0  502  0.16159878371E+04 -0.57431202902E+03 -0.21901543642E+04  0.27817309603E+04  0.50400001928E-02 0.  1.
</event>
<event>
 5   0  0.8583262E-08  0.3997458E+04  0.7818609E-02  0.8005059E-01
        1   -1    0    0  501    0  0.00000000000E+00  0.00000000000E+00  0.29109949446E+04  0.29109949446E+04  0.50400001928E-02 0.  1.
       -1   -1    0    0    0  501  0.00000000000E+00  0.00000000000E+00 -0.13723549088E+04  0.13723549088E+04  0.50400001928E-02 0. -1.
    10030    2    1    2    0    0  0.00000000000E+00  0.00000000000E+00  0.15386400359E+04  0.42833498534E+04  0.39974582933E+04 0.  0.
        1    1    3    3  502    0  0.12995645886E+04 -0.11370507485E+04  0.18478689199E+04  0.25291049938E+04  0.50400001928E-02 0.  1.
       -1    1    3    3    0  502 -0.12995645886E+04  0.11370507485E+04 -0.30922888407E+03  0.17542448596E+04  0.50400001928E-02 0. -1.
</event>
<event>
 5   0  0.2666978E-07  0.3901000E+04  0.7818609E-02  0.8024821E-01
        2   -1    0    0  501    0  0.00000000000E+00  0.00000000000E+00  0.24514727036E+04  0.24514727036E+04  0.25500000920E-02 0. -1.
       -2   -1    0    0    0  501  0.00000000000E+00  0.00000000000E+00 -0.15519040889E+04  0.15519040889E+04  0.25500000920E-02 0.  1.
    10030    2    1    2    0    0  0.00000000000E+00  0.00000000000E+00  0.89956861472E+03  0.40033767925E+04  0.39010001346E+04 0.  0.
        4    1    3    3  502    0 -0.14566728650E+04  0.11445948052E+04 -0.17652356460E+03  0.18609554765E+04  0.12699999809E+01 0.  1.
       -4    1    3    3    0  502  0.14566728650E+04 -0.11445948052E+04  0.10760921793E+04  0.21424213160E+04  0.12699999809E+01 0. -1.
</event>
<event>
 5   0  0.8528625E-08  0.4045432E+04  0.7818609E-02  0.7995444E-01
        1   -1    0    0  501    0  0.00000000000E+00  0.00000000000E+00  0.18525699509E+04  0.18525699509E+04  0.50400001928E-02 0. -1.
       -1   -1    0    0    0  501  0.00000000000E+00  0.00000000000E+00 -0.22084892822E+04  0.22084892822E+04  0.50400001928E-02 0.  1.
    10030    2    1    2    0    0  0.00000000000E+00  0.00000000000E+00 -0.35591933132E+03  0.40610592330E+04  0.40454324273E+04 0.  0.
        3    1    3    3  502    0 -0.22001299286E+03 -0.19891633993E+04 -0.47269920154E+03  0.20563611773E+04  0.10100000352E+00 0. -1.
       -3    1    3    3    0  502  0.22001299286E+03  0.19891633993E+04  0.11677987023E+03  0.20046980557E+04  0.10100000352E+00 0.  1.
</event>
<event>
 5   0  0.8528625E-08  0.3500611E+04  0.7818609E-02  0.8113645E-01
       -1   -1    0    0    0  501  0.00000000000E+00  0.00000000000E+00  0.13631483147E+04  0.13631483147E+04  0.50400001928E-02 0.  1.
        1   -1    0    0  501    0  0.00000000000E+00  0.00000000000E+00 -0.22474219773E+04  0.22474219773E+04  0.50400001928E-02 0. -1.
    10030    2    1    2    0    0  0.00000000000E+00  0.00000000000E+00 -0.88427366258E+03  0.36105702920E+04  0.35006110785E+04 0.  0.
        3    1    3    3  502    0  0.35283457895E+03 -0.16885282348E+04 -0.74801533162E+03  0.18801986029E+04  0.10100000352E+00 0.  1.
       -3    1    3    3    0  502 -0.35283457895E+03  0.16885282348E+04 -0.13625833096E+03  0.17303716891E+04  0.10100000352E+00 0. -1.
</event>
<event>
 5   0  0.8583262E-08  0.4001353E+04  0.7818609E-02  0.8004274E-01
        1   -1    0    0  501    0  0.00000000000E+00  0.00000000000E+00  0.17908531014E+04  0.17908531015E+04  0.50400001928E-02 0. -1.
       -1   -1    0    0    0  501  0.00000000000E+00  0.00000000000E+00 -0.22350837000E+04  0.22350837000E+04  0.50400001928E-02 0.  1.
    10030    2    1    2    0    0  0.00000000000E+00  0.00000000000E+00 -0.44423059852E+03  0.40259368014E+04  0.40013530592E+04 0.  0.
        1    1    3    3  502    0  0.88321757258E+03 -0.11141968521E+04  0.11940830832E+04  0.18567019996E+04  0.50400001928E-02 0. -1.
       -1    1    3    3    0  502 -0.88321757258E+03  0.11141968521E+04 -0.16383136817E+04  0.21692348018E+04  0.50400001928E-02 0.  1.
</event>
<event>
 5   0  0.8528625E-08  0.4003010E+04  0.7818609E-02  0.8003940E-01
        1   -1    0    0  501    0  0.00000000000E+00  0.00000000000E+00  0.20845698543E+04  0.20845698543E+04  0.50400001928E-02 0. -1.
       -1   -1    0    0    0  501  0.00000000000E+00  0.00000000000E+00 -0.19217496195E+04  0.19217496195E+04  0.50400001928E-02 0.  1.
    10030    2    1    2    0    0  0.00000000000E+00  0.00000000000E+00  0.16282023478E+03  0.40063194738E+04  0.40030095300E+04 0.  0.
        5    1    3    3  502    0  0.83314707461E+02 -0.18684846353E+04 -0.63179617099E+03  0.19741744261E+04  0.46999998093E+01 0. -1.
       -5    1    3    3    0  502 -0.83314707461E+02  0.18684846353E+04  0.79461640577E+03  0.20321450478E+04  0.46999998093E+01 0.  1.
</event>
<event>
 5   0  0.8528625E-08  0.3857405E+04  0.7818609E-02  0.8033947E-01
       -1   -1    0    0    0  501  0.00000000000E+00  0.00000000000E+00  0.17805994640E+04  0.17805994640E+04  0.50400001928E-02 0.  1.
        1   -1    0    0  501    0  0.00000000000E+00  0.00000000000E+00 -0.20891238037E+04  0.20891238037E+04  0.50400001928E-02 0. -1.
    10030    2    1    2    0    0  0.00000000000E+00  0.00000000000E+00 -0.30852433968E+03  0.38697232677E+04  0.38574046846E+04 0.  0.
        5    1    3    3  502    0  0.13392847429E+04 -0.52148612698E+03 -0.14445418664E+04  0.20377327344E+04  0.46999998093E+01 0. -1.
       -5    1    3    3    0  502 -0.13392847429E+04  0.52148612698E+03  0.11360175267E+04  0.18319905333E+04  0.46999998093E+01 0.  1.
</event>
<event>
 5   0  0.8528625E-08  0.4019781E+04  0.7818609E-02  0.8000568E-01
        1   -1    0    0  501    0  0.00000000000E+00  0.00000000000E+00  0.24783037102E+04  0.24783037102E+04  0.50400001928E-02 0.  1.
       -1   -1    0    0    0  501  0.00000000000E+00  0.00000000000E+00 -0.16300101339E+04  0.16300101339E+04  0.50400001928E-02 0. -1.
    10030    2    1    2    0    0  0.00000000000E+00  0.00000000000E+00  0.84829357634E+03  0.41083138441E+04  0.40197811694E+04 0.  0.
        2    1    3    3  502    0  0.15469538521E+04  0.12732900863E+04  0.58679416319E+03  0.20877407057E+04  0.25500000920E-02 0. -1.
       -2    1    3    3    0  502 -0.15469538521E+04 -0.12732900863E+04  0.26149941315E+03  0.20205731384E+04  0.25500000920E-02 0.  1.
</event>
<event>
 5   0  0.8528625E-08  0.4002994E+04  0.7818609E-02  0.8003943E-01
       -1   -1    0    0    0  501  0.00000000000E+00  0.00000000000E+00  0.15495048508E+04  0.15495048508E+04  0.50400001928E-02 0.  1.
        1   -1    0    0  501    0  0.00000000000E+00  0.00000000000E+00 -0.25853361299E+04  0.25853361299E+04  0.50400001928E-02 0. -1.
    10030    2    1    2    0    0  0.00000000000E+00  0.00000000000E+00 -0.10358312791E+04  0.41348409806E+04  0.40029943163E+04 0.  0.
        2    1    3    3  502    0  0.13057024216E+04 -0.96885800595E+03  0.68776843182E+03  0.17653809972E+04  0.25500000920E-02 0.  1.
       -2    1    3    3    0  502 -0.13057024216E+04  0.96885800595E+03 -0.17235997109E+04  0.23694599834E+04  0.25500000920E-02 0. -1.
</event>
<event>
 5   0  0.8528625E-08  0.4080435E+04  0.7818609E-02  0.7988514E-01
       -1   -1    0    0    0  501  0.00000000000E+00  0.00000000000E+00  0.22417626600E+04  0.22417626600E+04  0.50400001928E-02 0. -1.
        1   -1    0    0  501    0  0.00000000000E+00  0.00000000000E+00 -0.18567923397E+04  0.18567923397E+04  0.50400001928E-02 0.  1.
    10030    2    1    2    0    0  0.00000000000E+00  0.00000000000E+00  0.38497032032E+03  0.40985549997E+04  0.40804351408E+04 0.  0.
        2    1    3    3  502    0  0.11684249427E+04 -0.22498327704E+03 -0.14721774270E+04  0.18929185662E+04  0.25500000920E-02 0.  1.
       -2    1    3    3    0  502 -0.11684249427E+04  0.22498327704E+03  0.18571477473E+04  0.22056364336E+04  0.25500000920E-02 0. -1.
</event>
<event>
 5   0  0.2704088E-07  0.4007294E+04  0.7818609E-02  0.8003077E-01
       -2   -1    0    0    0  501  0.00000000000E+00  0.00000000000E+00  0.33085296957E+04  0.33085296957E+04  0.25500000920E-02 0. -1.
        2   -1    0    0  501    0  0.00000000000E+00  0.00000000000E+00 -0.12134092150E+04  0.12134092150E+04  0.25500000920E-02 0.  1.
    10030    2    1    2    0    0  0.00000000000E+00  0.00000000000E+00  0.20951204807E+04  0.45219389107E+04  0.40072935609E+04 0.  0.
        5    1    3    3  502    0  0.15866664919E+04 -0.11283827691E+04  0.15814149470E+04  0.25083168768E+04  0.46999998093E+01 0. -1.
       -5    1    3    3    0  502 -0.15866664919E+04  0.11283827691E+04  0.51370553369E+03  0.20136220339E+04  0.46999998093E+01 0.  1.
</event>
<event>
 5   0  0.8583262E-08  0.3772007E+04  0.7818609E-02  0.8052189E-01
       -1   -1    0    0    0  501  0.00000000000E+00  0.00000000000E+00  0.19789750533E+04  0.19789750533E+04  0.50400001928E-02 0.  1.
        1   -1    0    0  501    0  0.00000000000E+00  0.00000000000E+00 -0.17974001895E+04  0.17974001895E+04  0.50400001928E-02 0. -1.
    10030    2    1    2    0    0  0.00000000000E+00  0.00000000000E+00  0.18157486387E+03  0.37763752428E+04  0.37720074951E+04 0.  0.
        1    1    3    3  502    0  0.11851926346E+04 -0.13772242978E+04  0.59692380317E+03  0.19125235618E+04  0.50400001928E-02 0. -1.
       -1    1    3    3    0  502 -0.11851926346E+04  0.13772242978E+04 -0.41534893930E+03  0.18638516810E+04  0.50400001928E-02 0.  1.
</event>
<event>
 5   0  0.2839279E-07  0.4021355E+04  0.7818609E-02  0.8000252E-01
       -2   -1    0    0    0  501  0.00000000000E+00  0.00000000000E+00  0.12681867261E+04  0.12681867261E+04  0.25500000920E-02 0.  1.
        2   -1    0    0  501    0  0.00000000000E+00  0.00000000000E+00 -0.31878774251E+04  0.31878774251E+04  0.25500000920E-02 0. -1.
    10030    2    1    2    0    0  0.00000000000E+00  0.00000000000E+00 -0.19196906991E+04  0.44560641512E+04  0.40213549134E+04 0.  0.
        3    1    3    3  502    0 -0.25599945541E+03  0.19841506942E+04 -0.11826647803E+04  0.23240235996E+04  0.10100000352E+00 0. -1.
       -3    1    3    3    0  502  0.25599945541E+03 -0.19841506942E+04 -0.73702591878E+03  0.21320405516E+04  0.10100000352E+00 0.  1.
</event>
<event>
 5   0  0.8528625E-08  0.2858133E+04  0.7818609E-02  0.8285444E-01
       -1   -1    0    0    0  501  0.00000000000E+00  0.00000000000E+00  0.10523918594E+04  0.10523918594E+04  0.50400001928E-02 0. -1.
        1   -1    0    0  501    0  0.00000000000E+00  0.00000000000E+00 -0.19405611454E+04  0.19405611454E+04  0.50400001928E-02 0.  1.
    10030    2    1    2    0    0  0.00000000000E+00  0.00000000000E+00 -0.88816928604E+03  0.29929530048E+04  0.28581327835E+04 0.  0.
        4    1    3    3  502    0  0.12379858894E+03 -0.14235943557E+04 -0.42649469693E+03  0.14912566243E+04  0.12699999809E+01 0.  1.
       -4    1    3    3    0  502 -0.12379858894E+03  0.14235943557E+04 -0.46167458912E+03  0.15016963805E+04  0.12699999809E+01 0. -1.
</event>
<event>
 5   0  0.2666978E-07  0.4018127E+04  0.7818609E-02  0.8000900E-01
        2   -1    0    0  501    0  0.00000000000E+00  0.00000000000E+00  0.18113737057E+04  0.18113737057E+04  0.25500000920E-02 0. -1.
       -2   -1    0    0    0  501  0.00000000000E+00  0.00000000000E+00 -0.22283286374E+04  0.22283286374E+04  0.25500000920E-02 0.  1.
    10030    2    1    2    0    0  0.00000000000E+00  0.00000000000E+00 -0.41695493175E+03  0.40397023431E+04  0.40181268778E+04 0.  0.
        4    1    3    3  502    0  0.85347742872E+03  0.13543339163E+04  0.10119973419E+04  0.18938807542E+04  0.12699999809E+01 0. -1.
       -4    1    3    3    0  502 -0.85347742872E+03 -0.13543339163E+04 -0.14289522737E+04  0.21458215889E+04  0.12699999809E+01 0.  1.
</event>
<event>
 5   0  0.2661693E-07  0.3973075E+04  0.7818609E-02  0.8010000E-01
       -2   -1    0    0    0  501  0.00000000000E+00  0.00000000000E+00  0.27766197021E+04  0.27766197021E+04  0.25500000920E-02 0.  1.
        2   -1    0    0  501    0  0.00000000000E+00  0.00000000000E+00 -0.14212716397E+04  0.14212716397E+04  0.25500000920E-02 0. -1.
    10030    2    1    2    0    0  0.00000000000E+00  0.00000000000E+00  0.13553480624E+04  0.41978913419E+04  0.39730747977E+04 0.  0.
        1    1    3    3  502    0  0.12176478283E+04  0.20468737727E+03 -0.96658672460E+03  0.15680730380E+04  0.50400001928E-02 0. -1.
       -1    1    3    3    0  502 -0.12176478283E+04 -0.20468737727E+03  0.23219347870E+04  0.26298183039E+04  0.50400001928E-02 0.  1.
</event>
<event>
 5   0  0.8528625E-08  0.3319963E+04  0.7818609E-02  0.8157834E-01
        1   -1    0    0  501    0  0.00000000000E+00  0.00000000000E+00  0.24795939077E+04  0.24795939077E+04  0.50400001928E-02 0.  1.
       -1   -1    0    0    0  501  0.00000000000E+00  0.00000000000E+00 -0.11112859215E+04  0.11112859215E+04  0.50400001928E-02 0. -1.
    10030    2    1    2    0    0  0.00000000000E+00  0.00000000000E+00  0.13683079862E+04  0.35908798292E+04  0.33199625303E+04 0.  0.
        3    1    3    3  502    0  0.13187052036E+03 -0.93784539603E+03 -0.79039752669E+03  0.12335607328E+04  0.10100000352E+00 0. -1.
       -3    1    3    3    0  502 -0.13187052036E+03  0.93784539603E+03  0.21587055129E+04  0.23573190964E+04  0.10100000352E+00 0.  1.
</event>
<event>
 5   0  0.2839279E-07  0.4124521E+04  0.7818609E-02  0.7979887E-01
        2   -1    0    0  501    0  0.00000000000E+00  0.00000000000E+00  0.12950426882E+04  0.12950426882E+04  0.25500000920E-02 0. -1.
       -2   -1    0    0    0  501  0.00000000000E+00  0.00000000000E+00 -0.32839983295E+04  0.32839983295E+04  0.25500000920E-02 0.  1.
    10030    2    1    2    0    0  0.00000000000E+00  0.00000000000E+00 -0.19889556413E+04  0.45790410177E+04  0.41245208326E+04 0.  0.
        3    1    3    3  502    0 -0.14594284661E+03 -0.14819661162E+04 -0.25783692102E+04  0.29775007436E+04  0.10100000352E+00 0.  1.
       -3    1    3    3    0  502  0.14594284661E+03  0.14819661162E+04  0.58941356885E+03  0.16015402741E+04  0.10100000352E+00 0. -1.
</event>
<event>
 5   0  0.8528625E-08  0.3431919E+04  0.7818609E-02  0.8130116E-01
        1   -1    0    0  501    0  0.00000000000E+00  0.00000000000E+00  0.21074550977E+04  0.21074550977E+04  0.50400001928E-02 0. -1.
       -1   -1    0    0    0  501  0.00000000000E+00  0.00000000000E+00 -0.13971911684E+04  0.13971911684E+04  0.50400001928E-02 0.  1.
    10030    2    1    2    0    0  0.00000000000E+00  0.00000000000E+00  0.71026392926E+03  0.35046462661E+04  0.34319193757E+04 0.  0.
        4    1    3    3  502    0  0.44521000606E+03 -0.10559394147E+04  0.16594199818E+04  0.20166547265E+04  0.12699999809E+01 0. -1.
       -4    1    3    3    0  502 -0.44521000606E+03  0.10559394147E+04 -0.94915605253E+03  0.14879915396E+04  0.12699999809E+01 0.  1.
</event>
<event>
 5   0  0.2730801E-07  0.3934738E+04  0.7818609E-02  0.8017843E-01
        2   -1    0    0  501    0  0.00000000000E+00  0.00000000000E+00  0.28548730985E+04  0.28548730986E+04  0.25500000920E-02 0.  1.
       -2   -1    0    0    0  501  0.00000000000E+00  0.00000000000E+00 -0.13557663795E+04  0.13557663795E+04  0.25500000920E-02 0. -1.
    10030    2    1    2    0    0  0.00000000000E+00  0.00000000000E+00  0.14991067190E+04  0.42106394781E+04  0.39347380929E+04 0.  0.
        2    1    3    3  502    0  0.18176492335E+04  0.47540746284E+03  0.12494825320E+03  0.18829426592E+04  0.25500000920E-02 0.  1.
       -2    1    3    3    0  502 -0.18176492335E+04 -0.47540746284E+03  0.13741584658E+04  0.23276968189E+04  0.25500000920E-02 0. -1.
</event>
<event>
 5   0  0.8528625E-08  0.4014401E+04  0.7818609E-02  0.8001648E-01
       -1   -1    0    0    0  501  0.00000000000E+00  0.00000000000E+00  0.27287619038E+04  0.27287619038E+04  0.50400001928E-02 0.  1.
        1   -1    0    0  501    0  0.00000000000E+00  0.00000000000E+00 -0.14764404055E+04  0.14764404055E+04  0.50400001928E-02 0. -1.
    10030    2    1    2    0    0  0.00000000000E+00  0.00000000000E+00  0.12523214983E+04  0.42052023093E+04  0.40144012414E+04 0.  0.
        4    1    3    3  502    0 -0.15877154176E+04 -0.34842608685E+03 -0.60735174108E+03  0.17352575416E+04  0.12699999809E+01 0. -1.
       -4    1    3    3    0  502  0.15877154176E+04  0.34842608685E+03  0.18596732394E+04  0.24699447677E+04  0.12699999809E+01 0.  1.
</event>
<event>
 5   0  0.8528625E-08  0.2906344E+04  0.7818609E-02  0.8270993E-01
       -1   -1    0    0    0  501  0.00000000000E+00  0.00000000000E+00  0.10564318267E+04  0.10564318267E+04  0.50400001928E-02 0. -1.
        1   -1    0    0  501    0  0.00000000000E+00  0.00000000000E+00 -0.19989062588E+04  0.19989062588E+04  0.50400001928E-02 0.  1.
    10030    2    1    2    0    0  0.00000000000E+00  0.00000000000E+00 -0.94247443210E+03  0.30553380856E+04  0.29063435382E+04 0.  0.
        4    1    3    3  502    0  0.24363346302E+03 -0.11975621521E+04  0.35532355712E+03  0.12727013850E+04  0.12699999809E+01 0. -1.
       -4    1    3    3    0  502 -0.24363346302E+03  0.11975621521E+04 -0.12977979892E+04  0.17826367005E+04  0.12699999809E+01 0.  1.
</event>
<event>
 5   0  0.8528625E-08  0.3367540E+04  0.7818609E-02  0.8145919E-01
        1   -1    0    0  501    0  0.00000000000E+00  0.00000000000E+00  0.17172584669E+04  0.17172584669E+04  0.50400001928E-02 0.  1.
       -1   -1    0    0    0  501  0.00000000000E+00  0.00000000000E+00 -0.16509350138E+04  0.16509350138E+04  0.50400001928E-02 0. -1.
    10030    2    1    2    0    0  0.00000000000E+00  0.00000000000E+00  0.66323453082E+02  0.33681934807E+04  0.33675404264E+04 0.  0.
        2    1    3    3  502    0  0.90485977021E+03  0.32415979438E+02  0.14530356050E+04  0.17120556267E+04  0.25500000920E-02 0.  1.
       -2    1    3    3    0  502 -0.90485977021E+03 -0.32415979438E+02 -0.13867121519E+04  0.16561378541E+04  0.25500000920E-02 0. -1.
</event>
<event>
 5   0  0.2730801E-07  0.3946787E+04  0.7818609E-02  0.8015368E-01
        2   -1    0    0  501    0  0.00000000000E+00  0.00000000000E+00  0.26107284491E+04  0.26107284491E+04  0.25500000920E-02 0.  1.
       -2   -1    0    0    0  501  0.00000000000E+00  0.00000000000E+00 -0.14916460706E+04  0.14916460706E+04  0.25500000920E-02 0. -1.
    10030    2    1    2    0    0  0.00000000000E+00  0.00000000000E+00  0.11190823784E+04  0.41023745197E+04  0.39467874696E+04 0.  0.
        2    1    3    3  502    0 -0.16723730110E+04  0.26991920057E+03  0.16116670004E+04  0.23381955399E+04  0.25500000920E-02 0.  1.
       -2    1    3    3    0  502  0.16723730110E+04 -0.26991920057E+03 -0.49258462193E+03  0.17641789798E+04  0.25500000920E-02 0. -1.
</event>
<event>
 5   0  0.2661693E-07  0.4034129E+04  0.7818609E-02  0.7997697E-01
       -2   -1    0    0    0  501  0.00000000000E+00  0.00000000000E+00  0.22864746141E+04  0.22864746141E+04  0.25500000920E-02 0. -1.
        2   -1    0    0  501    0  0.00000000000E+00  0.00000000000E+00 -0.17793986232E+04  0.17793986232E+04  0.25500000920E-02 0.  1.
    10030    2    1    2    0    0  0.00000000000E+00  0.00000000000E+00  0.50707599089E+03  0.40658732374E+04  0.40341292892E+04 0.  0.
        1    1    3    3  502    0 -0.63572893318E+03 -0.13392874453E+04  0.16320386668E+04  0.22048565368E+04  0.50400001928E-02 0. -1.
       -1    1    3    3    0  502  0.63572893318E+03  0.13392874453E+04 -0.11249626759E+04  0.18610167006E+04  0.50400001928E-02 0.  1.
</event>
<event>
 5   0  0.2704088E-07  0.3993795E+04  0.7818609E-02  0.8005799E-01
       -2   -1    0    0    0  501  0.00000000000E+00  0.00000000000E+00  0.18509168484E+04  0.18509168484E+04  0.25500000920E-02 0. -1.
        2   -1    0    0  501    0  0.00000000000E+00  0.00000000000E+00 -0.21543913825E+04  0.21543913825E+04  0.25500000920E-02 0.  1.
    10030    2    1    2    0    0  0.00000000000E+00  0.00000000000E+00 -0.30347453414E+03  0.40053082309E+04  0.39937948410E+04 0.  0.
        5    1    3    3  502    0 -0.95374774901E+03 -0.13990869658E+04 -0.12133246686E+04  0.20830885598E+04  0.46999998093E+01 0.  1.
       -5    1    3    3    0  502  0.95374774901E+03  0.13990869658E+04  0.90985013450E+03  0.19222196711E+04  0.46999998093E+01 0. -1.
</event>
<event>
 5   0  0.2661693E-07  0.3974938E+04  0.7818609E-02  0.8009622E-01
        2   -1    0    0  501    0  0.00000000000E+00  0.00000000000E+00  0.22385099089E+04  0.22385099089E+04  0.25500000920E-02 0.  1.
       -2   -1    0    0    0  501  0.00000000000E+00  0.00000000000E+00 -0.17645810751E+04  0.17645810751E+04  0.25500000920E-02 0. -1.
    10030    2    1    2    0    0  0.00000000000E+00  0.00000000000E+00  0.47392883379E+03  0.40030909840E+04  0.39749375953E+04 0.  0.
        1    1    3    3  502    0  0.67799400357E+03  0.15533163833E+04 -0.80844593716E+03  0.18777786049E+04  0.50400001928E-02 0. -1.
       -1    1    3    3    0  502 -0.67799400357E+03 -0.15533163833E+04  0.12823747709E+04  0.21253123791E+04  0.50400001928E-02 0.  1.
</event>
<event>
 5   0  0.8583262E-08  0.4063210E+04  0.7818609E-02  0.7991915E-01
        1   -1    0    0  501    0  0.00000000000E+00  0.00000000000E+00  0.12854079133E+04  0.12854079133E+04  0.50400001928E-02 0.  1.
       -1   -1    0    0    0  501  0.00000000000E+00  0.00000000000E+00 -0.32109803901E+04  0.32109803901E+04  0.50400001928E-02 0. -1.
    10030    2    1    2    0    0  0.00000000000E+00  0.00000000000E+00 -0.19255724768E+04  0.44963883034E+04  0.40632103577E+04 0.  0.
        1    1    3    3  502    0  0.88248402109E+03  0.15567041776E+04 -0.20272698730E+04  0.27040578918E+04  0.50400001928E-02 0. -1.
       -1    1    3    3    0  502 -0.88248402109E+03 -0.15567041776E+04  0.10169739623E+03  0.17923304116E+04  0.50400001928E-02 0.  1.
</event>
<event>
 5   0  0.2704088E-07  0.3945652E+04  0.7818609E-02  0.8015601E-01
        2   -1    0    0  501    0  0.00000000000E+00  0.00000000000E+00  0.14272219922E+04  0.14272219922E+04  0.25500000920E-02 0. -1.
       -2   -1    0    0    0  501  0.00000000000E+00  0.00000000000E+00 -0.27270063100E+04  0.27270063100E+04  0.25500000920E-02 0.  1.
    10030    2    1    2    0    0  0.00000000000E+00  0.00000000000E+00 -0.12997843178E+04  0.41542283022E+04  0.39456524827E+04 0.  0.
        5    1    3    3  502    0 -0.13350391987E+03  0.62398251473E+03  0.13155632157E+04  0.14621580420E+04  0.46999998093E+01 0. -1.
       -5    1    3    3    0  502  0.13350391987E+03 -0.62398251473E+03 -0.26153475335E+04  0.26920702603E+04  0.46999998093E+01 0.  1.
</event>
<event>
 5   0  0.2666978E-07  0.3954889E+04  0.7818609E-02  0.8013709E-01
        2   -1    0    0  501    0  0.00000000000E+00  0.00000000000E+00  0.24410017236E+04  0.24410017236E+04  0.25500000920E-02 0. -1.
       -2   -1    0    0    0  501  0.00000000000E+00  0.00000000000E+00 -0.16019191064E+04  0.16019191064E+04  0.25500000920E-02 0.  1.
    10030    2    1    2    0    0  0.00000000000E+00  0.00000000000E+00  0.83908261724E+03  0.40429208300E+04  0.39548892778E+04 0.  0.
        4    1    3    3  502    0  0.61748126746E+03  0.13502182891E+04  0.17547199154E+04  0.22985682801E+04  0.12699999809E+01 0. -1.
       -4    1    3    3    0  502 -0.61748126746E+03 -0.13502182891E+04 -0.91563729815E+03  0.17443525499E+04  0.12699999809E+01 0.  1.
</event>
<event>
 5   0  0.2666978E-07  0.3984557E+04  0.7818609E-02  0.8007669E-01
       -2   -1    0    0    0  501  0.00000000000E+00  0.00000000000E+00  0.24766757327E+04  0.24766757327E+04  0.25500000920E-02 0. -1.
        2   -1    0    0  501    0  0.00000000000E+00  0.00000000000E+00 -0.16026210776E+04  0.16026210776E+04  0.25500000920E-02 0.  1.
    10030    2    1    2    0    0  0.00000000000E+00  0.00000000000E+00  0.87405465516E+03  0.40792968103E+04  0.39845565533E+04 0.  0.
        4    1    3    3  502    0 -0.11402312854E+04 -0.19517527805E+03 -0.12235596828E+04  0.16838410505E+04  0.12699999809E+01 0.  1.
       -4    1    3    3    0  502  0.11402312854E+04  0.19517527805E+03  0.20976143379E+04  0.23954557598E+04  0.12699999809E+01 0. -1.
</event>
<event>
 5   0  0.8528625E-08  0.4048767E+04  0.7818609E-02  0.7994780E-01
        1   -1    0    0  501    0  0.00000000000E+00  0.00000000000E+00  0.18332670679E+04  0.18332670679E+04  0.50400001928E-02 0. -1.
       -1   -1    0    0    0  501  0.00000000000E+00  0.00000000000E+00 -0.22354232147E+04  0.22354232147E+04  0.50400001928E-02 0.  1.
    10030    2    1    2    0    0  0.00000000000E+00  0.00000000000E+00 -0.40215614672E+03  0.40686902826E+04  0.40487666084E+04 0.  0.
        2    1    3    3  502    0 -0.41935043946E+03 -0.82753231339E+03  0.16070713291E+04  0.18556246328E+04  0.25500000920E-02 0. -1.
       -2    1    3    3    0  502  0.41935043946E+03  0.82753231339E+03 -0.20092274759E+04  0.22130656498E+04  0.25500000920E-02 0.  1.
</event>
<event>
 5   0  0.8528625E-08  0.3070914E+04  0.7818609E-02  0.8223766E-01
       -1   -1    0    0    0  501  0.00000000000E+00  0.00000000000E+00  0.19038362508E+04  0.19038362508E+04  0.50400001928E-02 0.  1.
        1   -1    0    0  501    0  0.00000000000E+00  0.00000000000E+00 -0.12383567222E+04  0.12383567222E+04  0.50400001928E-02 0. -1.
    10030    2    1    2    0    0  0.00000000000E+00  0.00000000000E+00  0.66547952858E+03  0.31421929730E+04  0.30709141435E+04 0.  0.
        3    1    3    3  502    0 -0.31697033473E+03  0.14841276289E+04  0.93817494825E+02  0.15204955589E+04  0.10100000352E+00 0. -1.
       -3    1    3    3    0  502  0.31697033473E+03 -0.14841276289E+04  0.57166203375E+03  0.16216974141E+04  0.10100000352E+00 0.  1.
</event>
<event>
 5   0  0.8528625E-08  0.3930398E+04  0.7818609E-02  0.8018737E-01
        1   -1    0    0  501    0  0.00000000000E+00  0.00000000000E+00  0.31053289453E+04  0.31053289453E+04  0.50400001928E-02 0. -1.
       -1   -1    0    0    0  501  0.00000000000E+00  0.00000000000E+00 -0.12436707496E+04  0.12436707496E+04  0.50400001928E-02 0.  1.
    10030    2    1    2    0    0  0.00000000000E+00  0.00000000000E+00  0.18616581957E+04  0.43489996949E+04  0.39303978308E+04 0.  0.
        5    1    3    3  502    0  0.39688213326E+03  0.45107770910E+03 -0.11395449112E+04  0.12882434638E+04  0.46999998093E+01 0.  1.
       -5    1    3    3    0  502 -0.39688213326E+03 -0.45107770910E+03  0.30012031069E+04  0.30607562311E+04  0.46999998093E+01 0. -1.
</event>
<event>
 5   0  0.2666978E-07  0.4136048E+04  0.7818609E-02  0.7977650E-01
        2   -1    0    0  501    0  0.00000000000E+00  0.00000000000E+00  0.27204154386E+04  0.27204154386E+04  0.25500000920E-02 0. -1.
       -2   -1    0    0    0  501  0.00000000000E+00  0.00000000000E+00 -0.15720849839E+04  0.15720849839E+04  0.25500000920E-02 0.  1.
    10030    2    1    2    0    0  0.00000000000E+00  0.00000000000E+00  0.11483304547E+04  0.42925004225E+04  0.41360484819E+04 0.  0.
        4    1    3    3  502    0  0.17493607531E+04  0.38142209751E+03 -0.49986067325E+03  0.18589266168E+04  0.12699999809E+01 0.  1.
       -4    1    3    3    0  502 -0.17493607531E+04 -0.38142209751E+03  0.16481911279E+04  0.24335738058E+04  0.12699999809E+01 0. -1.
</event>
<event>
 5   0  0.2704088E-07  0.3793570E+04  0.7818609E-02  0.8047536E-01
       -2   -1    0    0    0  501  0.00000000000E+00  0.00000000000E+00  0.14076291163E+04  0.14076291163E+04  0.25500000920E-02 0.  1.
        2   -1    0    0  501    0  0.00000000000E+00  0.00000000000E+00 -0.25559236604E+04  0.25559236604E+04  0.25500000920E-02 0. -1.
    10030    2    1    2    0    0  0.00000000000E+00  0.00000000000E+00 -0.11482945441E+04  0.39635527767E+04  0.37935695926E+04 0.  0.
        5    1    3    3  502    0 -0.18174389464E+04  0.31294180279E+03 -0.10375919605E+04  0.21160425473E+04  0.46999998093E+01 0. -1.
       -5    1    3    3    0  502  0.18174389464E+04 -0.31294180279E+03 -0.11070258360E+03  0.18475102294E+04  0.46999998093E+01 0.  1.
</event>
<event>
 5   0  0.2661693E-07  0.4052490E+04  0.7818609E-02  0.7994041E-01
       -2   -1    0    0    0  501  0.00000000000E+00  0.00000000000E+00  0.13923203401E+04  0.13923203401E+04  0.25500000920E-02 0.  1.
        2   -1    0    0  501    0  0.00000000000E+00  0.00000000000E+00 -0.29487964353E+04  0.29487964353E+04  0.25500000920E-02 0. -1.
    10030    2    1    2    0    0  0.00000000000E+00  0.00000000000E+00 -0.15564760951E+04  0.43411167754E+04  0.40524902249E+04 0.  0.
        1    1    3    3  502    0  0.16991712428E+04 -0.37858745984E+03  0.33251014025E+03  0.17723076399E+04  0.50400001928E-02 0. -1.
       -1    1    3    3    0  502 -0.16991712428E+04  0.37858745984E+03 -0.18889862354E+04  0.25688091355E+04  0.50400001928E-02 0.  1.
</event>
<event>
 5   0  0.2661693E-07  0.4049005E+04  0.7818609E-02  0.7994733E-01
        2   -1    0    0  501    0  0.00000000000E+00  0.00000000000E+00  0.14839816547E+04  0.14839816547E+04  0.25500000920E-02 0.  1.
       -2   -1    0    0    0  501  0.00000000000E+00  0.00000000000E+00 -0.27619005934E+04  0.27619005934E+04  0.25500000920E-02 0. -1.
    10030    2    1    2    0    0  0.00000000000E+00  0.00000000000E+00 -0.12779189387E+04  0.42458822481E+04  0.40490047234E+04 0.  0.
        1    1    3    3  502    0 -0.12558256319E+04 -0.79622050254E+03 -0.20796419849E+04  0.25565554741E+04  0.50400001928E-02 0. -1.
       -1    1    3    3    0  502  0.12558256319E+04  0.79622050254E+03  0.80172304620E+03  0.16893267740E+04  0.50400001928E-02 0.  1.
</event>
<event>
 5   0  0.2666978E-07  0.3834517E+04  0.7818609E-02  0.8038788E-01
        2   -1    0    0  501    0  0.00000000000E+00  0.00000000000E+00  0.24495183236E+04  0.24495183236E+04  0.25500000920E-02 0.  1.
       -2   -1    0    0    0  501  0.00000000000E+00  0.00000000000E+00 -0.15006544018E+04  0.15006544018E+04  0.25500000920E-02 0. -1.
    10030    2    1    2    0    0  0.00000000000E+00  0.00000000000E+00  0.94886392179E+03  0.39501727253E+04  0.38345171558E+04 0.  0.
        4    1    3    3  502    0  0.19235714859E+03 -0.28414595830E+03 -0.14687650514E+04  0.15083144856E+04  0.12699999809E+01 0. -1.
       -4    1    3    3    0  502 -0.19235714859E+03  0.28414595830E+03  0.24176289732E+04  0.24418582398E+04  0.12699999809E+01 0.  1.
</event>
<event>
 5   0  0.8528625E-08  0.4068210E+04  0.7818609E-02  0.7990926E-01
       -1   -1    0    0    0  501  0.00000000000E+00  0.00000000000E+00  0.28434779795E+04  0.28434779795E+04  0.50400001928E-02 0.  1.
        1   -1    0    0  501    0  0.00000000000E+00  0.00000000000E+00 -0.14551132581E+04  0.14551132581E+04  0.50400001928E-02 0. -1.
    10030    2    1    2    0    0  0.00000000000E+00  0.00000000000E+00  0.13883647214E+04  0.42985912375E+04  0.40682096834E+04 0.  0.
        4    1    3    3  502    0  0.18769049326E+04  0.69711636007E+03  0.31491624271E+03  0.20267997430E+04  0.12699999809E+01 0. -1.
       -4    1    3    3    0  502 -0.18769049326E+04 -0.69711636007E+03  0.10734484787E+04  0.22717914945E+04  0.12699999809E+01 0.  1.
</event>
<event>
 5   0  0.2666978E-07  0.4000905E+04  0.7818609E-02  0.8004364E-01
        2   -1    0    0  501    0  0.00000000000E+00  0.00000000000E+00  0.26954681177E+04  0.26954681177E+04  0.25500000920E-02 0.  1.
       -2   -1    0    0    0  501  0.00000000000E+00  0.00000000000E+00 -0.14846439872E+04  0.14846439872E+04  0.25500000920E-02 0. -1.
    10030    2    1    2    0    0  0.00000000000E+00  0.00000000000E+00  0.12108241305E+04  0.41801121049E+04  0.40009051644E+04 0.  0.
        4    1    3    3  502    0 -0.10060595316E+04 -0.78581057048E+03  0.22145793447E+04  0.25561723965E+04  0.12699999809E+01 0.  1.
       -4    1    3    3    0  502  0.10060595316E+04  0.78581057048E+03 -0.10037552141E+04  0.16239397084E+04  0.12699999809E+01 0. -1.
</event>
<event>
 5   0  0.8528625E-08  0.4023310E+04  0.7818609E-02  0.7999861E-01
        1   -1    0    0  501    0  0.00000000000E+00  0.00000000000E+00  0.19303226737E+04  0.19303226737E+04  0.50400001928E-02 0. -1.
       -1   -1    0    0    0  501  0.00000000000E+00  0.00000000000E+00 -0.20964138744E+04  0.20964138744E+04  0.50400001928E-02 0.  1.
    10030    2    1    2    0    0  0.00000000000E+00  0.00000000000E+00 -0.16609120067E+03  0.40267365481E+04  0.40233096999E+04 0.  0.
        3    1    3    3  502    0  0.10257826573E+04 -0.17214851615E+04 -0.25930353255E+03  0.20206384024E+04  0.10100000352E+00 0.  1.
       -3    1    3    3    0  502 -0.10257826573E+04  0.17214851615E+04  0.93212331883E+02  0.20060981457E+04  0.10100000352E+00 0. -1.
</event>
<event>
 5   0  0.8528625E-08  0.3922808E+04  0.7818609E-02  0.8020302E-01
       -1   -1    0    0    0  501  0.00000000000E+00  0.00000000000E+00  0.23501659216E+04  0.23501659216E+04  0.50400001928E-02 0. -1.
        1   -1    0    0  501    0  0.00000000000E+00  0.00000000000E+00 -0.16369505008E+04  0.16369505008E+04  0.50400001928E-02 0.  1.
    10030    2    1    2    0    0  0.00000000000E+00  0.00000000000E+00  0.71321542079E+03  0.39871164225E+04  0.39228078120E+04 0.  0.
        4    1    3    3  502    0  0.53274018515E+03  0.78246836489E+02  0.22735724954E+04  0.23364648889E+04  0.12699999809E+01 0. -1.
       -4    1    3    3    0  502 -0.53274018515E+03 -0.78246836489E+02 -0.15603570746E+04  0.16506515336E+04  0.12699999809E+01 0.  1.
</event>
<event>
 5   0  0.8528625E-08  0.3949060E+04  0.7818609E-02  0.8014902E-01
       -1   -1    0    0    0  501  0.00000000000E+00  0.00000000000E+00  0.22041879473E+04  0.22041879473E+04  0.50400001928E-02 0. -1.
        1   -1    0    0  501    0  0.00000000000E+00  0.00000000000E+00 -0.17688003458E+04  0.17688003458E+04  0.50400001928E-02 0.  1.
    10030    2    1    2    0    0  0.00000000000E+00  0.00000000000E+00  0.43538760154E+03  0.39729882931E+04  0.39490598392E+04 0.  0.
        2    1    3    3  502    0  0.66832995652E+03 -0.11675203193E+04  0.16717887555E+04  0.21458439528E+04  0.25500000920E-02 0. -1.
       -2    1    3    3    0  502 -0.66832995652E+03  0.11675203193E+04 -0.12364011540E+04  0.18271443403E+04  0.25500000920E-02 0.  1.
</event>
<event>
 5   0  0.2661693E-07  0.3959931E+04  0.7818609E-02  0.8012679E-01
        2   -1    0    0  501    0  0.00000000000E+00  0.00000000000E+00  0.18270293593E+04  0.18270293593E+04  0.25500000920E-02 0.  1.
       -2   -1    0    0    0  501  0.00000000000E+00  0.00000000000E+00 -0.21457039095E+04  0.21457039095E+04  0.25500000920E-02 0. -1.
    10030    2    1    2    0    0  0.00000000000E+00  0.00000000000E+00 -0.31867455016E+03  0.39727332688E+04  0.39599313323E+04 0.  0.
        1    1    3    3  502    0 -0.24204247204E+03  0.14832458897E+04 -0.14525589658E+04  0.20901029823E+04  0.50400001928E-02 0. -1.
       -1    1    3    3    0  502  0.24204247204E+03 -0.14832458897E+04  0.11338844156E+04  0.18826302865E+04  0.50400001928E-02 0.  1.
</event>
<event>
 5   0  0.8528625E-08  0.3973520E+04  0.7818609E-02  0.8009910E-01
        1   -1    0    0  501    0  0.00000000000E+00  0.00000000000E+00  0.17162699650E+04  0.17162699650E+04  0.50400001928E-02 0.  1.
       -1   -1    0    0    0  501  0.00000000000E+00  0.00000000000E+00 -0.22998796190E+04  0.22998796190E+04  0.50400001928E-02 0. -1.
    10030    2    1    2    0    0  0.00000000000E+00  0.00000000000E+00 -0.58360965401E+03  0.40161495840E+04  0.39735195045E+04 0.  0.
        3    1    3    3  502    0 -0.34720838286E+03 -0.77959937023E+03  0.15215687893E+04  0.17445631058E+04  0.10100000352E+00 0.  1.
       -3    1    3    3    0  502  0.34720838286E+03  0.77959937023E+03 -0.21051784434E+04  0.22715864782E+04  0.10100000352E+00 0. -1.
</event>
<event>
 5   0  0.2661693E-07  0.3979060E+04  0.7818609E-02  0.8008784E-01
        2   -1    0    0  501    0  0.00000000000E+00  0.00000000000E+00  0.25268760128E+04  0.25268760128E+04  0.25500000920E-02 0. -1.
       -2   -1    0    0    0  501  0.00000000000E+00  0.00000000000E+00 -0.15664517077E+04  0.15664517077E+04  0.25500000920E-02 0.  1.
    10030    2    1    2    0    0  0.00000000000E+00  0.00000000000E+00  0.96042430511E+03  0.40933277205E+04  0.39790598113E+04 0.  0.
        1    1    3    3  502    0  0.11351436904E+04  0.20340893332E+03  0.21479729174E+04  0.24379733480E+04  0.50400001928E-02 0. -1.
       -1    1    3    3    0  502 -0.11351436904E+04 -0.20340893332E+03 -0.11875486123E+04  0.16553543725E+04  0.50400001928E-02 0.  1.
</event>
<event>
 5   0  0.2730801E-07  0.4041057E+04  0.7818609E-02  0.7996315E-01
        2   -1    0    0  501    0  0.00000000000E+00  0.00000000000E+00  0.26900080571E+04  0.26900080571E+04  0.25500000920E-02 0. -1.
       -2   -1    0    0    0  501  0.00000000000E+00  0.00000000000E+00 -0.15176665775E+04  0.15176665775E+04  0.25500000920E-02 0.  1.
    10030    2    1    2    0    0  0.00000000000E+00  0.00000000000E+00  0.11723414796E+04  0.42076746347E+04  0.40410569517E+04 0.  0.
        2    1    3    3  502    0  0.42417017316E+03 -0.57686506882E+02  0.26422497228E+04  0.26767016394E+04  0.25500000920E-02 0. -1.
       -2    1    3    3    0  502 -0.42417017316E+03  0.57686506882E+02 -0.14699082432E+04  0.15309729953E+04  0.25500000920E-02 0.  1.
</event>
<event>
 5   0  0.2666978E-07  0.3800855E+04  0.7818609E-02  0.8045971E-01
       -2   -1    0    0    0  501  0.00000000000E+00  0.00000000000E+00  0.10592101617E+04  0.10592101617E+04  0.25500000920E-02 0.  1.
        2   -1    0    0  501    0  0.00000000000E+00  0.00000000000E+00 -0.34097333766E+04  0.34097333766E+04  0.25500000920E-02 0. -1.
    10030    2    1    2    0    0  0.00000000000E+00  0.00000000000E+00 -0.23505232149E+04  0.44689435383E+04  0.38008547677E+04 0.  0.
        4    1    3    3  502    0  0.60727304585E+03  0.24443331958E+03 -0.32729856394E+04  0.33378083840E+04  0.12699999809E+01 0. -1.
       -4    1    3    3    0  502 -0.60727304585E+03 -0.24443331958E+03  0.92246242446E+03  0.11311351543E+04  0.12699999809E+01 0.  1.
</event>
<event>
 5   0  0.8528625E-08  0.4063746E+04  0.7818609E-02  0.7991809E-01
       -1   -1    0    0    0  501  0.00000000000E+00  0.00000000000E+00  0.16503866988E+04  0.16503866989E+04  0.50400001928E-02 0.  1.
        1   -1    0    0  501    0  0.00000000000E+00  0.00000000000E+00 -0.25015399871E+04  0.25015399871E+04  0.50400001928E-02 0. -1.
    10030    2    1    2    0    0  0.00000000000E+00  0.00000000000E+00 -0.85115328825E+03  0.41519266859E+04  0.40637462132E+04 0.  0.
        4    1    3    3  502    0 -0.27245042711E+03  0.19603131667E+04 -0.89539144913E+03  0.21722763192E+04  0.12699999809E+01 0. -1.
       -4    1    3    3    0  502  0.27245042711E+03 -0.19603131667E+04  0.44238160883E+02  0.19796503668E+04  0.12699999809E+01 0.  1.
</event>
<event>
 5   0  0.8583262E-08  0.4009162E+04  0.7818609E-02  0.8002701E-01
       -1   -1    0    0    0  501  0.00000000000E+00  0.00000000000E+00  0.18085384416E+04  0.18085384416E+04  0.50400001928E-02 0. -1.
        1   -1    0    0  501    0  0.00000000000E+00  0.00000000000E+00 -0.22218738534E+04  0.22218738534E+04  0.50400001928E-02 0.  1.
    10030    2    1    2    0    0  0.00000000000E+00  0.00000000000E+00 -0.41333541183E+03  0.40304122950E+04  0.40091616462E+04 0.  0.
        1    1    3    3  502    0 -0.13656492940E+03 -0.11984120803E+04 -0.18162485861E+04  0.21802753085E+04  0.50400001928E-02 0.  1.
       -1    1    3    3    0  502  0.13656492940E+03  0.11984120803E+04  0.14029131743E+04  0.18501369865E+04  0.50400001928E-02 0. -1.
</event>
<event>
 5   0  0.2666978E-07  0.3987148E+04  0.7818609E-02  0.8007144E-01
       -2   -1    0    0    0  501  0.00000000000E+00  0.00000000000E+00  0.31002416792E+04  0.31002416792E+04  0.25500000920E-02 0. -1.
        2   -1    0    0  501    0  0.00000000000E+00  0.00000000000E+00 -0.12819441598E+04  0.12819441598E+04  0.25500000920E-02 0.  1.
    10030    2    1    2    0    0  0.00000000000E+00  0.00000000000E+00  0.18182975194E+04  0.43821858391E+04  0.39871477097E+04 0.  0.
        4    1    3    3  502    0 -0.78838888202E+03  0.31611458869E+03 -0.10731105239E+04  0.13685953645E+04  0.12699999809E+01 0.  1.
       -4    1    3    3    0  502  0.78838888202E+03 -0.31611458869E+03  0.28914080433E+04  0.30135904745E+04  0.12699999809E+01 0. -1.
</event>
<event>
 5   0  0.2704088E-07  0.3884478E+04  0.7818609E-02  0.8028265E-01
        2   -1    0    0  501    0  0.00000000000E+00  0.00000000000E+00  0.25741991294E+04  0.25741991294E+04  0.25500000920E-02 0.  1.
       -2   -1    0    0    0  501  0.00000000000E+00  0.00000000000E+00 -0.14654236067E+04  0.14654236067E+04  0.25500000920E-02 0. -1.
    10030    2    1    2    0    0  0.00000000000E+00  0.00000000000E+00  0.11087755226E+04  0.40396227361E+04  0.38844779174E+04 0.  0.
        5    1    3    3  502    0 -0.36073658909E+03 -0.80946298622E+03  0.23516818141E+04  0.25131236853E+04  0.46999998093E+01 0.  1.
       -5    1    3    3    0  502  0.36073658909E+03  0.80946298622E+03 -0.12429062915E+04  0.15264990508E+04  0.46999998093E+01 0. -1.
</event>
<event>
 5   0  0.8528625E-08  0.3464871E+04  0.7818609E-02  0.8122166E-01
        1   -1    0    0  501    0  0.00000000000E+00  0.00000000000E+00  0.15525839406E+04  0.15525839406E+04  0.50400001928E-02 0.  1.
       -1   -1    0    0    0  501  0.00000000000E+00  0.00000000000E+00 -0.19331215288E+04  0.19331215288E+04  0.50400001928E-02 0. -1.
    10030    2    1    2    0    0  0.00000000000E+00  0.00000000000E+00 -0.38053758815E+03  0.34857054694E+04  0.34648713920E+04 0.  0.
        2    1    3    3  502    0 -0.11366497648E+04  0.12429493350E+04  0.21767870038E+03  0.16983167413E+04  0.25500000920E-02 0. -1.
       -2    1    3    3    0  502  0.11366497648E+04 -0.12429493350E+04 -0.59821628853E+03  0.17873887281E+04  0.25500000920E-02 0.  1.
</event>
<event>
 5   0  0.8528625E-08  0.4015023E+04  0.7818609E-02  0.8001523E-01
        1   -1    0    0  501    0  0.00000000000E+00  0.00000000000E+00  0.19987031350E+04  0.19987031350E+04  0.50400001928E-02 0. -1.
       -1   -1    0    0    0  501  0.00000000000E+00  0.00000000000E+00 -0.20163588944E+04  0.20163588944E+04  0.50400001928E-02 0.  1.
    10030    2    1    2    0    0  0.00000000000E+00  0.00000000000E+00 -0.17655759390E+02  0.40150620294E+04  0.40150232097E+04 0.  0.
        3    1    3    3  502    0  0.10702697702E+03  0.15970020294E+04  0.12028903092E+04  0.20022026276E+04  0.10100000352E+00 0. -1.
       -3    1    3    3    0  502 -0.10702697702E+03 -0.15970020294E+04 -0.12205460686E+04  0.20128594018E+04  0.10100000352E+00 0.  1.
</event>
<event>
 5   0  0.2730801E-07  0.4010485E+04  0.7818609E-02  0.8002435E-01
       -2   -1    0    0    0  501  0.00000000000E+00  0.00000000000E+00  0.12667499903E+04  0.12667499903E+04  0.25500000920E-02 0.  1.
        2   -1    0    0  501    0  0.00000000000E+00  0.00000000000E+00 -0.31742626654E+04  0.31742626654E+04  0.25500000920E-02 0. -1.
    10030    2    1    2    0    0  0.00000000000E+00  0.00000000000E+00 -0.19075126751E+04  0.44410126556E+04  0.40104848587E+04 0.  0.
        2    1    3    3  502    0  0.54228236983E+03 -0.19075914651E+04 -0.62522232603E+03  0.20793937394E+04  0.25500000920E-02 0. -1.
       -2    1    3    3    0  502 -0.54228236983E+03  0.19075914651E+04 -0.12822903491E+04  0.23616189163E+04  0.25500000920E-02 0.  1.
</event>
<event>
 5   0  0.2666978E-07  0.3942835E+04  0.7818609E-02  0.8016179E-01
        2   -1    0    0  501    0  0.00000000000E+00  0.00000000000E+00  0.20979280395E+04  0.20979280395E+04  0.25500000920E-02 0. -1.
       -2   -1    0    0    0  501  0.00000000000E+00  0.00000000000E+00 -0.18525362500E+04  0.18525362500E+04  0.25500000920E-02 0.  1.
    10030    2    1    2    0    0  0.00000000000E+00  0.00000000000E+00  0.24539178942E+03  0.39504642895E+04  0.39428353976E+04 0.  0.
        4    1    3    3  502    0  0.95181156903E+03 -0.50712816225E+03 -0.15307583131E+04  0.18725241952E+04  0.12699999809E+01 0.  1.
       -4    1    3    3    0  502 -0.95181156903E+03  0.50712816225E+03  0.17761501025E+04  0.20779400942E+04  0.12699999809E+01 0. -1.
</event>
<event>
 5   0  0.8583262E-08  0.4042446E+04  0.7818609E-02  0.7996038E-01
       -1   -1    0    0    0  501  0.00000000000E+00  0.00000000000E+00  0.22970555439E+04  0.22970555439E+04  0.50400001928E-02 0. -1.
        1   -1    0    0  501    0  0.00000000000E+00  0.00000000000E+00 -0.17785128525E+04  0.17785128525E+04  0.50400001928E-02 0.  1.
    10030    2    1    2    0    0  0.00000000000E+00  0.00000000000E+00  0.51854269138E+03  0.40755683965E+04  0.40424461940E+04 0.  0.
        1    1    3    3  502    0  0.82205087598E+03  0.18456525311E+04  0.31578327011E+03  0.20449743230E+04  0.50400001928E-02 0. -1.
       -1    1    3    3    0  502 -0.82205087598E+03 -0.18456525311E+04  0.20275942127E+03  0.20305940734E+04  0.50400001928E-02 0.  1.
</event>
<event>
 5   0  0.8583262E-08  0.3968934E+04  0.7818609E-02  0.8010843E-01
        1   -1    0    0  501    0  0.00000000000E+00  0.00000000000E+00  0.21291615789E+04  0.21291615789E+04  0.50400001928E-02 0. -1.
       -1   -1    0    0    0  501  0.00000000000E+00  0.00000000000E+00 -0.18496054819E+04  0.18496054820E+04  0.50400001928E-02 0.  1.
    10030    2    1    2    0    0  0.00000000000E+00  0.00000000000E+00  0.27955609696E+03  0.39787670609E+04  0.39689338258E+04 0.  0.
        1    1    3    3  502    0  0.72801029946E+02  0.18366604754E+04  0.88962002306E+03  0.20420689208E+04  0.50400001928E-02 0. -1.
       -1    1    3    3    0  502 -0.72801029946E+02 -0.18366604754E+04 -0.61006392610E+03  0.19366981401E+04  0.50400001928E-02 0.  1.
</event>
<event>
 5   0  0.2839279E-07  0.4025076E+04  0.7818609E-02  0.7999507E-01
       -2   -1    0    0    0  501  0.00000000000E+00  0.00000000000E+00  0.19318546443E+04  0.19318546443E+04  0.25500000920E-02 0. -1.
        2   -1    0    0  501    0  0.00000000000E+00  0.00000000000E+00 -0.20965914857E+04  0.20965914857E+04  0.25500000920E-02 0.  1.
    10030    2    1    2    0    0  0.00000000000E+00  0.00000000000E+00 -0.16473684134E+03  0.40284461300E+04  0.40250763962E+04 0.  0.
        3    1    3    3  502    0 -0.58877168987E+03 -0.10900708921E+04  0.15049616695E+04  0.19493117476E+04  0.10100000352E+00 0. -1.
       -3    1    3    3    0  502  0.58877168987E+03  0.10900708921E+04 -0.16696985108E+04  0.20791343824E+04  0.10100000352E+00 0.  1.
</event>
<event>
 5   0  0.8528625E-08  0.3815513E+04  0.7818609E-02  0.8042834E-01
        1   -1    0    0  501    0  0.00000000000E+00  0.00000000000E+00  0.20587524036E+04  0.20587524036E+04  0.50400001928E-02 0.  1.
       -1   -1    0    0    0  501  0.00000000000E+00  0.00000000000E+00 -0.17678347669E+04  0.17678347669E+04  0.50400001928E-02 0. -1.
    10030    2    1    2    0    0  0.00000000000E+00  0.00000000000E+00  0.29091763669E+03  0.38265871706E+04  0.38155125871E+04 0.  0.
        4    1    3    3  502    0 -0.14308406788E+03 -0.14648718113E+04  0.13627403916E+04  0.20058378454E+04  0.12699999809E+01 0.  1.
       -4    1    3    3    0  502  0.14308406788E+03  0.14648718113E+04 -0.10718227550E+04  0.18207493252E+04  0.12699999809E+01 0. -1.
</event>
<event>
 5   0  0.8528625E-08  0.3907086E+04  0.7818609E-02  0.8023557E-01
        1   -1    0    0  501    0  0.00000000000E+00  0.00000000000E+00  0.20262757762E+04  0.20262757762E+04  0.50400001928E-02 0. -1.
       -1   -1    0    0    0  501  0.00000000000E+00  0.00000000000E+00 -0.18834204945E+04  0.18834204945E+04  0.50400001928E-02 0.  1.
    10030    2    1    2    0    0  0.00000000000E+00  0.00000000000E+00  0.14285528172E+03  0.39096962707E+04  0.39070855247E+04 0.  0.
        3    1    3    3  502    0  0.18606336295E+04  0.57551107179E+03 -0.80854260401E+02  0.19492839502E+04  0.10100000352E+00 0. -1.
       -3    1    3    3    0  502 -0.18606336295E+04 -0.57551107179E+03  0.22370954213E+03  0.19604123205E+04  0.10100000352E+00 0.  1.
</event>
<event>
 5   0  0.8583262E-08  0.3985304E+04  0.7818609E-02  0.8007518E-01
       -1   -1    0    0    0  501  0.00000000000E+00  0.00000000000E+00  0.35380504507E+04  0.35380504507E+04  0.50400001928E-02 0.  1.
        1   -1    0    0  501    0  0.00000000000E+00  0.00000000000E+00 -0.11222737232E+04  0.11222737233E+04  0.50400001928E-02 0. -1.
    10030    2    1    2    0    0  0.00000000000E+00  0.00000000000E+00  0.24157767275E+04  0.46603241740E+04  0.39853035279E+04 0.  0.
        1    1    3    3  502    0 -0.16276229924E+04 -0.11494795503E+04  0.12244758276E+04  0.23387605466E+04  0.50400001928E-02 0.  1.
       -1    1    3    3    0  502  0.16276229924E+04  0.11494795503E+04  0.11913008999E+04  0.23215636274E+04  0.50400001928E-02 0. -1.
</event>
<event>
 5   0  0.8528625E-08  0.3982316E+04  0.7818609E-02  0.8008123E-01
       -1   -1    0    0    0  501  0.00000000000E+00  0.00000000000E+00  0.18850113660E+04  0.18850113660E+04  0.50400001928E-02 0.  1.
        1   -1    0    0  501    0  0.00000000000E+00  0.00000000000E+00 -0.21032820230E+04  0.21032820230E+04  0.50400001928E-02 0. -1.
    10030    2    1    2    0    0  0.00000000000E+00  0.00000000000E+00 -0.21827065702E+03  0.39882933891E+04  0.39823161700E+04 0.  0.
        3    1    3    3  502    0 -0.11196920944E+04 -0.27278746641E+03  0.15170589345E+04  0.19051486055E+04  0.10100000352E+00 0.  1.
       -3    1    3    3    0  502  0.11196920944E+04  0.27278746641E+03 -0.17353295915E+04  0.20831447836E+04  0.10100000352E+00 0. -1.
</event>
<event>
 5   0  0.2704088E-07  0.4031183E+04  0.7818609E-02  0.7998285E-01
       -2   -1    0    0    0  501  0.00000000000E+00  0.00000000000E+00  0.32561009847E+04  0.32561009847E+04  0.25500000920E-02 0. -1.
        2   -1    0    0  501    0  0.00000000000E+00  0.00000000000E+00 -0.12476915467E+04  0.12476915467E+04  0.25500000920E-02 0.  1.
    10030    2    1    2    0    0  0.00000000000E+00  0.00000000000E+00  0.20084094380E+04  0.45037925313E+04  0.40311832871E+04 0.  0.
        5    1    3    3  502    0  0.73414078081E+03 -0.55854443495E+02  0.31004800584E+04  0.31867037967E+04  0.46999998093E+01 0. -1.
       -5    1    3    3    0  502 -0.73414078081E+03  0.55854443495E+02 -0.10920706204E+04  0.13170887347E+04  0.46999998093E+01 0.  1.
</event>
<event>
 5   0  0.8528625E-08  0.4065277E+04  0.7818609E-02  0.7991506E-01
        1   -1    0    0  501    0  0.00000000000E+00  0.00000000000E+00  0.23174239741E+04  0.23174239741E+04  0.50400001928E-02 0.  1.
       -1   -1    0    0    0  501  0.00000000000E+00  0.00000000000E+00 -0.17828501985E+04  0.17828501985E+04  0.50400001928E-02 0. -1.
    10030    2    1    2    0    0  0.00000000000E+00  0.00000000000E+00  0.53457377563E+03  0.41002741726E+04  0.40652772561E+04 0.  0.
        4    1    3    3  502    0 -0.30951732768E+03 -0.26468560830E+03  0.22758518011E+04  0.23120039967E+04  0.12699999809E+01 0.  1.
       -4    1    3    3    0  502  0.30951732768E+03  0.26468560830E+03 -0.17412780254E+04  0.17882701759E+04  0.12699999809E+01 0. -1.
</event>
<event>
 5   0  0.8583262E-08  0.2949741E+04  0.7818609E-02  0.8258230E-01
       -1   -1    0    0    0  501  0.00000000000E+00  0.00000000000E+00  0.14780256607E+04  0.14780256607E+04  0.50400001928E-02 0.  1.
        1   -1    0    0  501    0  0.00000000000E+00  0.00000000000E+00 -0.14717223038E+04  0.14717223038E+04  0.50400001928E-02 0. -1.
    10030    2    1    2    0    0  0.00000000000E+00  0.00000000000E+00  0.63033569806E+01  0.29497479645E+04  0.29497412296E+04 0.  0.
        1    1    3    3  502    0  0.48699729547E+03  0.13844511129E+04  0.14934394300E+03  0.14751863825E+04  0.50400001928E-02 0.  1.
       -1    1    3    3    0  502 -0.48699729547E+03 -0.13844511129E+04 -0.14304058602E+03  0.14745615820E+04  0.50400001928E-02 0. -1.
</event>
<event>
 5   0  0.8528625E-08  0.4002767E+04  0.7818609E-02  0.8003989E-01
        1   -1    0    0  501    0  0.00000000000E+00  0.00000000000E+00  0.23284135130E+04  0.23284135130E+04  0.50400001928E-02 0. -1.
       -1   -1    0    0    0  501  0.00000000000E+00  0.00000000000E+00 -0.17202851568E+04  0.17202851568E+04  0.50400001928E-02 0.  1.
    10030    2    1    2    0    0  0.00000000000E+00  0.00000000000E+00  0.60812835626E+03  0.40486986698E+04  0.40027666459E+04 0.  0.
        3    1    3    3  502    0 -0.18049416984E+04  0.85970121926E+03  0.39805233347E+03  0.20384666766E+04  0.10100000352E+00 0.  1.
       -3    1    3    3    0  502  0.18049416984E+04 -0.85970121926E+03  0.21007602279E+03  0.20102319933E+04  0.10100000352E+00 0. -1.
</event>
<event>
 5   0  0.2704088E-07  0.3821097E+04  0.7818609E-02  0.8041643E-01
        2   -1    0    0  501    0  0.00000000000E+00  0.00000000000E+00  0.17464383210E+04  0.17464383210E+04  0.25500000920E-02 0.  1.
       -2   -1    0    0    0  501  0.00000000000E+00  0.00000000000E+00 -0.20900802202E+04  0.20900802202E+04  0.25500000920E-02 0. -1.
    10030    2    1    2    0    0  0.00000000000E+00  0.00000000000E+00 -0.34364189912E+03  0.38365185412E+04  0.38210973244E+04 0.  0.
        5    1    3    3  502    0 -0.13996635373E+04 -0.25096019172E+03 -0.14529545360E+04  0.20330120534E+04  0.46999998093E+01 0. -1.
       -5    1    3    3    0  502  0.13996635373E+04  0.25096019172E+03  0.11093126369E+04  0.18035064879E+04  0.46999998093E+01 0.  1.
</event>
<event>
 5   0  0.2666978E-07  0.3977786E+04  0.7818609E-02  0.8009043E-01
       -2   -1    0    0    0  501  0.00000000000E+00  0.00000000000E+00  0.15860388351E+04  0.15860388351E+04  0.25500000920E-02 0.  1.
        2   -1    0    0  501    0  0.00000000000E+00  0.00000000000E+00 -0.24940717880E+04  0.24940717880E+04  0.25500000920E-02 0. -1.
    10030    2    1    2    0    0  0.00000000000E+00  0.00000000000E+00 -0.90803295291E+03  0.40801106231E+04  0.39777856721E+04 0.  0.
        4    1    3    3  502    0  0.25954923825E+02  0.17970949603E+04 -0.13276716086E+04  0.22344881892E+04  0.12699999809E+01 0. -1.
       -4    1    3    3    0  502 -0.25954923825E+02 -0.17970949603E+04  0.41963865565E+03  0.18456224339E+04  0.12699999809E+01 0.  1.
</event>
<event>
 5   0  0.8528625E-08  0.3994188E+04  0.7818609E-02  0.8005720E-01
       -3   -1    0    0    0  501  0.00000000000E+00  0.00000000000E+00  0.29438093516E+04  0.29438093533E+04  0.10100000352E+00 0. -1.
        3   -1    0    0  501    0  0.00000000000E+00  0.00000000000E+00 -0.13548377415E+04  0.13548377453E+04  0.10100000352E+00 0.  1.
    10030    2    1    2    0    0  0.00000000000E+00  0.00000000000E+00  0.15889716101E+04  0.42986470986E+04  0.39941877898E+04 0.  0.
        2    1    3    3  502    0 -0.33817571263E+01  0.75703381500E+03 -0.11944281125E+04  0.14141322955E+04  0.25500000920E-02 0.  1.
       -2    1    3    3    0  502  0.33817571263E+01 -0.75703381500E+03  0.27833997226E+04  0.28845148030E+04  0.25500000920E-02 0. -1.
</event>
<event>
 5   0  0.2666978E-07  0.3923574E+04  0.7818609E-02  0.8020144E-01
       -2   -1    0    0    0  501  0.00000000000E+00  0.00000000000E+00  0.23232823110E+04  0.23232823110E+04  0.25500000920E-02 0. -1.
        2   -1    0    0  501    0  0.00000000000E+00  0.00000000000E+00 -0.16565393544E+04  0.16565393544E+04  0.25500000920E-02 0.  1.
    10030    2    1    2    0    0  0.00000000000E+00  0.00000000000E+00  0.66674295663E+03  0.39798216654E+04  0.39235741764E+04 0.  0.
        4    1    3    3  502    0  0.95197367402E+03 -0.14597465337E+04 -0.58037175322E+03  0.18368306409E+04  0.12699999809E+01 0.  1.
       -4    1    3    3    0  502 -0.95197367402E+03  0.14597465337E+04  0.12471147098E+04  0.21429910245E+04  0.12699999809E+01 0. -1.
</event>
<event>
 5   0  0.8528625E-08  0.4037489E+04  0.7818609E-02  0.7997026E-01
        1   -1    0    0  501    0  0.00000000000E+00  0.00000000000E+00  0.20968993345E+04  0.20968993345E+04  0.50400001928E-02 0. -1.
       -1   -1    0    0    0  501  0.00000000000E+00  0.00000000000E+00 -0.19435021989E+04  0.19435021989E+04  0.50400001928E-02 0.  1.
    10030    2    1    2    0    0  0.00000000000E+00  0.00000000000E+00  0.15339713563E+03  0.40404015334E+04  0.40374885598E+04 0.  0.
        5    1    3    3  502    0 -0.65072549768E+03  0.79593530795E+02 -0.18340054474E+04  0.19476593323E+04  0.46999998093E+01 0.  1.
       -5    1    3    3    0  502  0.65072549768E+03 -0.79593530795E+02  0.19874025830E+04  0.20927422012E+04  0.46999998093E+01 0. -1.
</event>
<event>
 5   0  0.2730801E-07  0.4032750E+04  0.7818609E-02  0.7997972E-01
       -2   -1    0    0    0  501  0.00000000000E+00  0.00000000000E+00  0.30183660555E+04  0.30183660555E+04  0.25500000920E-02 0.  1.
        2   -1    0    0  501    0  0.00000000000E+00  0.00000000000E+00 -0.13470098523E+04  0.13470098523E+04  0.25500000920E-02 0. -1.
    10030    2    1    2    0    0  0.00000000000E+00  0.00000000000E+00  0.16713562032E+04  0.43653759079E+04  0.40327503343E+04 0.  0.
        2    1    3    3  502    0  0.60871864712E+03 -0.11604025252E+04 -0.82327364013E+03  0.15475309038E+04  0.25500000920E-02 0. -1.
       -2    1    3    3    0  502 -0.60871864712E+03  0.11604025252E+04  0.24946298433E+04  0.28178450041E+04  0.25500000920E-02 0.  1.
</event>
<event>
 5   0  0.2661693E-07  0.3607683E+04  0.7818609E-02  0.8088734E-01
       -2   -1    0    0    0  501  0.00000000000E+00  0.00000000000E+00  0.16050093527E+04  0.16050093527E+04  0.25500000920E-02 0. -1.
        2   -1    0    0  501    0  0.00000000000E+00  0.00000000000E+00 -0.20273056282E+04  0.20273056282E+04  0.25500000920E-02 0.  1.
    10030    2    1    2    0    0  0.00000000000E+00  0.00000000000E+00 -0.42229627547E+03  0.36323149810E+04  0.36076831868E+04 0.  0.
        1    1    3    3  502    0  0.17789597099E+04  0.28988559804E+03 -0.28314289216E+03  0.18245276667E+04  0.50400001928E-02 0. -1.
       -1    1    3    3    0  502 -0.17789597099E+04 -0.28988559804E+03 -0.13915338331E+03  0.18077873142E+04  0.50400001928E-02 0.  1.
</event>
<event>
 5   0  0.8528625E-08  0.3970641E+04  0.7818609E-02  0.8010495E-01
       -1   -1    0    0    0  501  0.00000000000E+00  0.00000000000E+00  0.11556743882E+04  0.11556743882E+04  0.50400001928E-02 0.  1.
        1   -1    0    0  501    0  0.00000000000E+00  0.00000000000E+00 -0.34105610315E+04  0.34105610315E+04  0.50400001928E-02 0. -1.
    10030    2    1    2    0    0  0.00000000000E+00  0.00000000000E+00 -0.22548866433E+04  0.45662354198E+04  0.39706412750E+04 0.  0.
        4    1    3    3  502    0  0.16010827318E+04  0.46103437964E+02  0.22149429911E+03  0.16169887997E+04  0.12699999809E+01 0.  1.
       -4    1    3    3    0  502 -0.16010827318E+04 -0.46103437964E+02 -0.24763809424E+04  0.29492466201E+04  0.12699999809E+01 0. -1.
</event>
<event>
 5   0  0.2661693E-07  0.4002055E+04  0.7818609E-02  0.8004132E-01
       -2   -1    0    0    0  501  0.00000000000E+00  0.00000000000E+00  0.21067174265E+04  0.21067174265E+04  0.25500000920E-02 0.  1.
        2   -1    0    0  501    0  0.00000000000E+00  0.00000000000E+00 -0.19006396031E+04  0.19006396031E+04  0.25500000920E-02 0. -1.
    10030    2    1    2    0    0  0.00000000000E+00  0.00000000000E+00  0.20607782344E+03  0.40073570296E+04  0.40020547590E+04 0.  0.
        1    1    3    3  502    0 -0.12870168078E+04  0.95048672104E+03 -0.11003325339E+04  0.19417952919E+04  0.50400001928E-02 0. -1.
       -1    1    3    3    0  502  0.12870168078E+04 -0.95048672104E+03  0.13064103574E+04  0.20655617377E+04  0.50400001928E-02 0.  1.
</event>
<event>
 5   0  0.8528625E-08  0.4025002E+04  0.7818609E-02  0.7999522E-01
        1   -1    0    0  501    0  0.00000000000E+00  0.00000000000E+00  0.12592077994E+04  0.12592077994E+04  0.50400001928E-02 0. -1.
       -1   -1    0    0    0  501  0.00000000000E+00  0.00000000000E+00 -0.32164350358E+04  0.32164350358E+04  0.50400001928E-02 0.  1.
    10030    2    1    2    0    0  0.00000000000E+00  0.00000000000E+00 -0.19572272363E+04  0.44756428352E+04  0.40250019048E+04 0.  0.
        2    1    3    3  502    0  0.10549233537E+04  0.75310174245E+03 -0.26905035338E+04  0.29864418263E+04  0.25500000920E-02 0.  1.
       -2    1    3    3    0  502 -0.10549233537E+04 -0.75310174245E+03  0.73327629741E+03  0.14892010089E+04  0.25500000920E-02 0. -1.
</event>
<event>
 5   0  0.2666978E-07  0.3974784E+04  0.7818609E-02  0.8009653E-01
       -2   -1    0    0    0  501  0.00000000000E+00  0.00000000000E+00  0.15209641310E+04  0.15209641310E+04  0.25500000920E-02 0.  1.
        2   -1    0    0  501    0  0.00000000000E+00  0.00000000000E+00 -0.25968577825E+04  0.25968577825E+04  0.25500000920E-02 0. -1.
    10030    2    1    2    0    0  0.00000000000E+00  0.00000000000E+00 -0.10758936515E+04  0.41178219136E+04  0.39747842913E+04 0.  0.
        4    1    3    3  502    0 -0.13407087878E+04 -0.92116173862E+03  0.64493307023E+03  0.17498512166E+04  0.12699999809E+01 0.  1.
       -4    1    3    3    0  502  0.13407087878E+04  0.92116173862E+03 -0.17208267217E+04  0.23679706969E+04  0.12699999809E+01 0. -1.
</event>
<event>
 5   0  0.2839279E-07  0.4000542E+04  0.7818609E-02  0.8004437E-01
       -2   -1    0    0    0  501  0.00000000000E+00  0.00000000000E+00  0.20974549515E+04  0.20974549515E+04  0.25500000920E-02 0. -1.
        2   -1    0    0  501    0  0.00000000000E+00  0.00000000000E+00 -0.19075900536E+04  0.19075900536E+04  0.25500000920E-02 0.  1.
    10030    2    1    2    0    0  0.00000000000E+00  0.00000000000E+00  0.18986489784E+03  0.40050450051E+04  0.40005420649E+04 0.  0.
        3    1    3    3  502    0  0.15897441184E+04 -0.70795111415E+03  0.10822488993E+04  0.20493276537E+04  0.10100000352E+00 0. -1.
       -3    1    3    3    0  502 -0.15897441184E+04  0.70795111415E+03 -0.89238400148E+03  0.19557173513E+04  0.10100000352E+00 0.  1.
</event>
<event>
 5   0  0.8528625E-08  0.3593617E+04  0.7818609E-02  0.8091955E-01
       -1   -1    0    0    0  501  0.00000000000E+00  0.00000000000E+00  0.11266205640E+04  0.11266205640E+04  0.50400001928E-02 0. -1.
        1   -1    0    0  501    0  0.00000000000E+00  0.00000000000E+00 -0.28656687183E+04  0.28656687183E+04  0.50400001928E-02 0.  1.
    10030    2    1    2    0    0  0.00000000000E+00  0.00000000000E+00 -0.17390481543E+04  0.39922892824E+04  0.35936172906E+04 0.  0.
        2    1    3    3  502    0  0.95232552932E+03  0.14274701263E+04 -0.27756308213E+03  0.17382854023E+04  0.25500000920E-02 0.  1.
       -2    1    3    3    0  502 -0.95232552932E+03 -0.14274701263E+04 -0.14614850722E+04  0.22540038801E+04  0.25500000920E-02 0. -1.
</event>
<event>
 5   0  0.8528625E-08  0.4091637E+04  0.7818609E-02  0.7986311E-01
       -1   -1    0    0    0  501  0.00000000000E+00  0.00000000000E+00  0.33521922608E+04  0.33521922608E+04  0.50400001928E-02 0.  1.
        1   -1    0    0  501    0  0.00000000000E+00  0.00000000000E+00 -0.12485482691E+04  0.12485482691E+04  0.50400001928E-02 0. -1.
    10030    2    1    2    0    0  0.00000000000E+00  0.00000000000E+00  0.21036439916E+04  0.46007405299E+04  0.40916372493E+04 0.  0.
        4    1    3    3  502    0 -0.36472075901E+03 -0.13604609815E+04 -0.61653757880E+03  0.15375290284E+04  0.12699999809E+01 0. -1.
       -4    1    3    3    0  502  0.36472075901E+03  0.13604609815E+04  0.27201815704E+04  0.30632115015E+04  0.12699999809E+01 0.  1.
</event>
<event>
 5   0  0.8528625E-08  0.3820625E+04  0.7818609E-02  0.8041743E-01
        1   -1    0    0  501    0  0.00000000000E+00  0.00000000000E+00  0.28768990368E+04  0.28768990368E+04  0.50400001928E-02 0.  1.
       -1   -1    0    0    0  501  0.00000000000E+00  0.00000000000E+00 -0.12684817744E+04  0.12684817744E+04  0.50400001928E-02 0. -1.
    10030    2    1    2    0    0  0.00000000000E+00  0.00000000000E+00  0.16084172624E+04  0.41453808112E+04  0.38206250771E+04 0.  0.
        5    1    3    3  502    0  0.82625715878E+03  0.17203338419E+04  0.71328528378E+03  0.20374119383E+04  0.46999998093E+01 0.  1.
       -5    1    3    3    0  502 -0.82625715878E+03 -0.17203338419E+04  0.89513197866E+03  0.21079688730E+04  0.46999998093E+01 0. -1.
</event>
<event>
 5   0  0.8528625E-08  0.3402995E+04  0.7818609E-02  0.8137172E-01
       -1   -1    0    0    0  501  0.00000000000E+00  0.00000000000E+00  0.11664316767E+04  0.11664316767E+04  0.50400001928E-02 0. -1.
        1   -1    0    0  501    0  0.00000000000E+00  0.00000000000E+00 -0.24820095023E+04  0.24820095023E+04  0.50400001928E-02 0.  1.
    10030    2    1    2    0    0  0.00000000000E+00  0.00000000000E+00 -0.13155778256E+04  0.36484411790E+04  0.34029954484E+04 0.  0.
        3    1    3    3  502    0  0.41769451112E+03  0.92217985374E+03  0.80840421842E+03  0.12955314654E+04  0.10100000352E+00 0. -1.
       -3    1    3    3    0  502 -0.41769451112E+03 -0.92217985374E+03 -0.21239820440E+04  0.23529097136E+04  0.10100000352E+00 0.  1.
</event>
<event>
 5   0  0.2661693E-07  0.3758317E+04  0.7818609E-02  0.8055160E-01
       -2   -1    0    0    0  501  0.00000000000E+00  0.00000000000E+00  0.13307567646E+04  0.13307567646E+04  0.25500000920E-02 0. -1.
        2   -1    0    0  501    0  0.00000000000E+00  0.00000000000E+00 -0.26535546003E+04  0.26535546003E+04  0.25500000920E-02 0.  1.
    10030    2    1    2    0    0  0.00000000000E+00  0.00000000000E+00 -0.13227978356E+04  0.39843113649E+04  0.37583165033E+04 0.  0.
        1    1    3    3  502    0  0.58975006335E+03 -0.11564089944E+04  0.77903478558E+03  0.15139293566E+04  0.50400001928E-02 0. -1.
       -1    1    3    3    0  502 -0.58975006335E+03  0.11564089944E+04 -0.21018326212E+04  0.24703820083E+04  0.50400001928E-02 0.  1.
</event>
<event>
 5   0  0.2704088E-07  0.4039528E+04  0.7818609E-02  0.7996620E-01
        2   -1    0    0  501    0  0.00000000000E+00  0.00000000000E+00  0.21588026078E+04  0.21588026078E+04  0.25500000920E-02 0.  1.
       -2   -1    0    0    0  501  0.00000000000E+00  0.00000000000E+00 -0.18896802646E+04  0.18896802646E+04  0.25500000920E-02 0. -1.
    10030    2    1    2    0    0  0.00000000000E+00  0.00000000000E+00  0.26912234321E+03  0.40484828724E+04  0.40395280334E+04 0.  0.
        5    1    3    3  502    0  0.84501052387E+02  0.76346445924E+03  0.20066973810E+04  0.21486914337E+04  0.46999998093E+01 0.  1.
       -5    1    3    3    0  502 -0.84501052387E+02 -0.76346445924E+03 -0.17375750378E+04  0.18997914387E+04  0.46999998093E+01 0. -1.
</event>
<event>
 5   0  0.2730801E-07  0.3991834E+04  0.7818609E-02  0.8006196E-01
       -2   -1    0    0    0  501  0.00000000000E+00  0.00000000000E+00  0.17606810290E+04  0.17606810290E+04  0.25500000920E-02 0.  1.
        2   -1    0    0  501    0  0.00000000000E+00  0.00000000000E+00 -0.22625818929E+04  0.22625818929E+04  0.25500000920E-02 0. -1.
    10030    2    1    2    0    0  0.00000000000E+00  0.00000000000E+00 -0.50190086390E+03  0.40232629219E+04  0.39918341726E+04 0.  0.
        2    1    3    3  502    0 -0.60217871946E+03 -0.11393160156E+04  0.12851968201E+04  0.18199975439E+04  0.25500000920E-02 0.  1.
       -2    1    3    3    0  502  0.60217871946E+03  0.11393160156E+04 -0.17870976840E+04  0.22032653780E+04  0.25500000920E-02 0. -1.
</event>
<event>
 5   0  0.8528625E-08  0.3390359E+04  0.7818609E-02  0.8140277E-01
       -1   -1    0    0    0  501  0.00000000000E+00  0.00000000000E+00  0.20096269280E+04  0.20096269280E+04  0.50400001928E-02 0. -1.
        1   -1    0    0  501    0  0.00000000000E+00  0.00000000000E+00 -0.14299337972E+04  0.14299337972E+04  0.50400001928E-02 0.  1.
    10030    2    1    2    0    0  0.00000000000E+00  0.00000000000E+00  0.57969313076E+03  0.34395607252E+04  0.33903589568E+04 0.  0.
        3    1    3    3  502    0  0.45977783416E+03  0.73922860214E+03  0.17655274012E+04  0.19684871342E+04  0.10100000352E+00 0. -1.
       -3    1    3    3    0  502 -0.45977783416E+03 -0.73922860214E+03 -0.11858342704E+04  0.14710735910E+04  0.10100000352E+00 0.  1.
</event>
<event>
 5   0  0.2730801E-07  0.4176574E+04  0.7818609E-02  0.7969843E-01
        2   -1    0    0  501    0  0.00000000000E+00  0.00000000000E+00  0.16317707177E+04  0.16317707177E+04  0.25500000920E-02 0.  1.
       -2   -1    0    0    0  501  0.00000000000E+00  0.00000000000E+00 -0.26725214536E+04  0.26725214536E+04  0.25500000920E-02 0. -1.
    10030    2    1    2    0    0  0.00000000000E+00  0.00000000000E+00 -0.10407507359E+04  0.43042921713E+04  0.41765738353E+04 0.  0.
        2    1    3    3  502    0 -0.81082408196E+03  0.32321670106E+03  0.14347507032E+04  0.16794089163E+04  0.25500000920E-02 0.  1.
       -2    1    3    3    0  502  0.81082408196E+03 -0.32321670106E+03 -0.24755014390E+04  0.26248832550E+04  0.25500000920E-02 0. -1.
</event>
<event>
 5   0  0.8583262E-08  0.3808020E+04  0.7818609E-02  0.8044436E-01
        1   -1    0    0  501    0  0.00000000000E+00  0.00000000000E+00  0.24395543575E+04  0.24395543575E+04  0.50400001928E-02 0. -1.
       -1   -1    0    0    0  501  0.00000000000E+00  0.00000000000E+00 -0.14860311903E+04  0.14860311903E+04  0.50400001928E-02 0.  1.
    10030    2    1    2    0    0  0.00000000000E+00  0.00000000000E+00  0.95352316717E+03  0.39255855478E+04  0.38080198873E+04 0.  0.
        1    1    3    3  502    0  0.79588078443E+03 -0.45770976874E+03  0.21962906107E+04  0.23804656902E+04  0.50400001928E-02 0. -1.
       -1    1    3    3    0  502 -0.79588078443E+03  0.45770976874E+03 -0.12427674436E+04  0.15451198576E+04  0.50400001928E-02 0.  1.
</event>
<event>
 5   0  0.8528625E-08  0.3944868E+04  0.7818609E-02  0.8015762E-01
        3   -1    0    0  501    0  0.00000000000E+00  0.00000000000E+00  0.28519897385E+04  0.28519897403E+04  0.10100000352E+00 0. -1.
       -3   -1    0    0    0  501  0.00000000000E+00  0.00000000000E+00 -0.13641336745E+04  0.13641336783E+04  0.10100000352E+00 0.  1.
    10030    2    1    2    0    0  0.00000000000E+00  0.00000000000E+00  0.14878560639E+04  0.42161234185E+04  0.39448676801E+04 0.  0.
        4    1    3    3  502    0  0.81793766240E+03 -0.17948011371E+04  0.73038807167E+03  0.21032835019E+04  0.12699999809E+01 0.  1.
       -4    1    3    3    0  502 -0.81793766240E+03  0.17948011371E+04  0.75746799225E+03  0.21128399166E+04  0.12699999809E+01 0. -1.
</event>
<event>
 5   0  0.2666978E-07  0.3862711E+04  0.7818609E-02  0.8032830E-01
       -2   -1    0    0    0  501  0.00000000000E+00  0.00000000000E+00  0.16021113080E+04  0.16021113080E+04  0.25500000920E-02 0.  1.
        2   -1    0    0  501    0  0.00000000000E+00  0.00000000000E+00 -0.23282620097E+04  0.23282620097E+04  0.25500000920E-02 0. -1.
    10030    2    1    2    0    0  0.00000000000E+00  0.00000000000E+00 -0.72615070165E+03  0.39303733177E+04  0.38627114279E+04 0.  0.
        4    1    3    3  502    0  0.18514024185E+04 -0.38461440464E+03 -0.76304370621E+03  0.20390822607E+04  0.12699999809E+01 0. -1.
       -4    1    3    3    0  502 -0.18514024185E+04  0.38461440464E+03  0.36893004556E+02  0.18912910570E+04  0.12699999809E+01 0.  1.
</event>
<event>
 5   0  0.8528625E-08  0.4018805E+04  0.7818609E-02  0.8000764E-01
        1   -1    0    0  501    0  0.00000000000E+00  0.00000000000E+00  0.17437998241E+04  0.17437998241E+04  0.50400001928E-02 0.  1.
       -1   -1    0    0    0  501  0.00000000000E+00  0.00000000000E+00 -0.23154597784E+04  0.23154597785E+04  0.50400001928E-02 0. -1.
    10030    2    1    2    0    0  0.00000000000E+00  0.00000000000E+00 -0.57165995435E+03  0.40592596026E+04  0.40188049738E+04 0.  0.
        3    1    3    3  502    0 -0.12629916296E+04 -0.30850364701E+03 -0.18333676297E+04  0.22475674033E+04  0.10100000352E+00 0. -1.
       -3    1    3    3    0  502  0.12629916296E+04  0.30850364701E+03  0.12617076753E+04  0.18116921993E+04  0.10100000352E+00 0.  1.
</event>
<event>
 5   0  0.8583262E-08  0.3971111E+04  0.7818609E-02  0.8010400E-01
        1   -1    0    0  501    0  0.00000000000E+00  0.00000000000E+00  0.27587119948E+04  0.27587119948E+04  0.50400001928E-02 0. -1.
       -1   -1    0    0    0  501  0.00000000000E+00  0.00000000000E+00 -0.14290840162E+04  0.14290840162E+04  0.50400001928E-02 0.  1.
    10030    2    1    2    0    0  0.00000000000E+00  0.00000000000E+00  0.13296279787E+04  0.41877960110E+04  0.39711112888E+04 0.  0.
        1    1    3    3  502    0  0.12025213446E+04  0.14620762588E+04  0.12964155180E+04  0.22944319049E+04  0.50400001928E-02 0.  1.
       -1    1    3    3    0  502 -0.12025213446E+04 -0.14620762588E+04  0.33212460666E+02  0.18933641061E+04  0.50400001928E-02 0. -1.
</event>
<event>
 5   0  0.8528625E-08  0.4204028E+04  0.7818609E-02  0.7964606E-01
       -1   -1    0    0    0  501  0.00000000000E+00  0.00000000000E+00  0.18756838478E+04  0.18756838479E+04  0.50400001928E-02 0.  1.
        1   -1    0    0  501    0  0.00000000000E+00  0.00000000000E+00 -0.23556546745E+04  0.23556546745E+04  0.50400001928E-02 0. -1.
    10030    2    1    2    0    0  0.00000000000E+00  0.00000000000E+00 -0.47997082668E+03  0.42313385224E+04  0.42040282702E+04 0.  0.
        2    1    3    3  502    0  0.18349850697E+04 -0.81881130284E+03  0.38114693200E+03  0.20452127369E+04  0.25500000920E-02 0.  1.
       -2    1    3    3    0  502 -0.18349850697E+04  0.81881130284E+03 -0.86111775869E+03  0.21861257855E+04  0.25500000920E-02 0. -1.
</event>
<event>
 5   0  0.8528625E-08  0.4112247E+04  0.7818609E-02  0.7982278E-01
        1   -1    0    0  501    0  0.00000000000E+00  0.00000000000E+00  0.18515467319E+04  0.18515467319E+04  0.50400001928E-02 0.  1.
       -1   -1    0    0    0  501  0.00000000000E+00  0.00000000000E+00 -0.22833037174E+04  0.22833037174E+04  0.50400001928E-02 0. -1.
    10030    2    1    2    0    0  0.00000000000E+00  0.00000000000E+00 -0.43175698542E+03  0.41348504493E+04  0.41122468486E+04 0.  0.
        4    1    3    3  502    0  0.58743869224E+03  0.14865111405E+04 -0.15163718415E+04  0.22032214511E+04  0.12699999809E+01 0. -1.
       -4    1    3    3    0  502 -0.58743869224E+03 -0.14865111405E+04  0.10846148561E+04  0.19316289982E+04  0.12699999809E+01 0.  1.
</event>
<event>
 5   0  0.8528625E-08  0.4047871E+04  0.7818609E-02  0.7994958E-01
        3   -1    0    0  501    0  0.00000000000E+00  0.00000000000E+00  0.31621961994E+04  0.31621962010E+04  0.10100000352E+00 0.  1.
       -3   -1    0    0    0  501  0.00000000000E+00  0.00000000000E+00 -0.12954020571E+04  0.12954020611E+04  0.10100000352E+00 0. -1.
    10030    2    1    2    0    0  0.00000000000E+00  0.00000000000E+00  0.18667941423E+04  0.44575982621E+04  0.40478712796E+04 0.  0.
        5    1    3    3  502    0 -0.10618037855E+04 -0.14567682001E+04  0.19466948538E+04  0.26531573289E+04  0.46999998093E+01 0. -1.
       -5    1    3    3    0  502  0.10618037855E+04  0.14567682001E+04 -0.79900711568E+02  0.18044409332E+04  0.46999998093E+01 0.  1.
</event>
<event>
 5   0  0.2661693E-07  0.3909139E+04  0.7818609E-02  0.8023131E-01
       -2   -1    0    0    0  501  0.00000000000E+00  0.00000000000E+00  0.18005784424E+04  0.18005784424E+04  0.25500000920E-02 0.  1.
        2   -1    0    0  501    0  0.00000000000E+00  0.00000000000E+00 -0.21217302741E+04  0.21217302741E+04  0.25500000920E-02 0. -1.
    10030    2    1    2    0    0  0.00000000000E+00  0.00000000000E+00 -0.32115183168E+03  0.39223087165E+04  0.39091389293E+04 0.  0.
        1    1    3    3  502    0 -0.79493314304E+02  0.80999493185E+02  0.17972696808E+04  0.18008493581E+04  0.50400001928E-02 0.  1.
       -1    1    3    3    0  502  0.79493314304E+02 -0.80999493185E+02 -0.21184215125E+04  0.21214593584E+04  0.50400001928E-02 0. -1.
</event>
<event>
 5   0  0.8528625E-08  0.4000122E+04  0.7818609E-02  0.8004522E-01
        1   -1    0    0  501    0  0.00000000000E+00  0.00000000000E+00  0.24646154708E+04  0.24646154708E+04  0.50400001928E-02 0.  1.
       -1   -1    0    0    0  501  0.00000000000E+00  0.00000000000E+00 -0.16230705955E+04  0.16230705955E+04  0.50400001928E-02 0. -1.
    10030    2    1    2    0    0  0.00000000000E+00  0.00000000000E+00  0.84154487529E+03  0.40876860663E+04  0.40001224480E+04 0.  0.
        2    1    3    3  502    0  0.14053549998E+04 -0.42353508099E+03  0.18091299225E+04  0.23296685852E+04  0.25500000920E-02 0.  1.
       -2    1    3    3    0  502 -0.14053549998E+04  0.42353508099E+03 -0.96758504724E+03  0.17580174811E+04  0.25500000920E-02 0. -1.
</event>
<event>
 5   0  0.2839279E-07  0.3904997E+04  0.7818609E-02  0.8023991E-01
       -2   -1    0    0    0  501  0.00000000000E+00  0.00000000000E+00  0.14257723727E+04  0.14257723727E+04  0.25500000920E-02 0. -1.
        2   -1    0    0  501    0  0.00000000000E+00  0.00000000000E+00 -0.26738144525E+04  0.26738144525E+04  0.25500000920E-02 0.  1.
    10030    2    1    2    0    0  0.00000000000E+00  0.00000000000E+00 -0.12480420799E+04  0.40995868252E+04  0.39049971964E+04 0.  0.
        3    1    3    3  502    0  0.10053071031E+04  0.99103078562E+03  0.79207066712E+03  0.16186909345E+04  0.10100000352E+00 0. -1.
       -3    1    3    3    0  502 -0.10053071031E+04 -0.99103078562E+03 -0.20401127470E+04  0.24808958906E+04  0.10100000352E+00 0.  1.
</event>
<event>
 5   0  0.8528625E-08  0.4182545E+04  0.7818609E-02  0.7968701E-01
       -1   -1    0    0    0  501  0.00000000000E+00  0.00000000000E+00  0.13379256354E+04  0.13379256354E+04  0.50400001928E-02 0.  1.
        1   -1    0    0  501    0  0.00000000000E+00  0.00000000000E+00 -0.32688074682E+04  0.32688074682E+04  0.50400001928E-02 0. -1.
    10030    2    1    2    0    0  0.00000000000E+00  0.00000000000E+00 -0.19308818328E+04  0.46067331037E+04  0.41825453059E+04 0.  0.
        4    1    3    3  502    0  0.65136822477E+03 -0.81420434566E+03  0.10312005279E+04  0.14664874436E+04  0.12699999809E+01 0.  1.
       -4    1    3    3    0  502 -0.65136822477E+03  0.81420434566E+03 -0.29620823607E+04  0.31402456600E+04  0.12699999809E+01 0. -1.
</event>
<event>
 5   0  0.2661693E-07  0.3972587E+04  0.7818609E-02  0.8010100E-01
        2   -1    0    0  501    0  0.00000000000E+00  0.00000000000E+00  0.14896319074E+04  0.14896319074E+04  0.25500000920E-02 0.  1.
       -2   -1    0    0    0  501  0.00000000000E+00  0.00000000000E+00 -0.26485482630E+04  0.26485482630E+04  0.25500000920E-02 0. -1.
    10030    2    1    2    0    0  0.00000000000E+00  0.00000000000E+00 -0.11589163556E+04  0.41381801704E+04  0.39725870668E+04 0.  0.
        1    1    3    3  502    0 -0.14319962538E+04 -0.19301316696E+03  0.84025219813E+03  0.16714936764E+04  0.50400001928E-02 0.  1.
       -1    1    3    3    0  502  0.14319962538E+04  0.19301316696E+03 -0.19991685537E+04  0.24666864941E+04  0.50400001928E-02 0. -1.
</event>
<event>
 5   0  0.8528625E-08  0.3970068E+04  0.7818609E-02  0.8010612E-01
       -1   -1    0    0    0  501  0.00000000000E+00  0.00000000000E+00  0.28124197212E+04  0.28124197212E+04  0.50400001928E-02 0. -1.
        1   -1    0    0  501    0  0.00000000000E+00  0.00000000000E+00 -0.14010571896E+04  0.14010571896E+04  0.50400001928E-02 0.  1.
    10030    2    1    2    0    0  0.00000000000E+00  0.00000000000E+00  0.14113625316E+04  0.42134769108E+04  0.39700684480E+04 0.  0.
        3    1    3    3  502    0  0.14036681616E+04  0.12590883583E+04  0.47349287294E+02  0.18862210282E+04  0.10100000352E+00 0.  1.
       -3    1    3    3    0  502 -0.14036681616E+04 -0.12590883583E+04  0.13640132443E+04  0.23272558826E+04  0.10100000352E+00 0. -1.
</event>
<event>
 5   0  0.2666978E-07  0.3001969E+04  0.7818609E-02  0.8243169E-01
       -2   -1    0    0    0  501  0.00000000000E+00  0.00000000000E+00  0.94637664397E+03  0.94637664397E+03  0.25500000920E-02 0. -1.
        2   -1    0    0  501    0  0.00000000000E+00  0.00000000000E+00 -0.23806104026E+04  0.23806104026E+04  0.25500000920E-02 0.  1.
    10030    2    1    2    0    0  0.00000000000E+00  0.00000000000E+00 -0.14342337586E+04  0.33269870466E+04  0.30019687430E+04 0.  0.
        4    1    3    3  502    0  0.46640607362E+03 -0.34449345982E+03  0.81724141414E+03  0.10020456633E+04  0.12699999809E+01 0. -1.
       -4    1    3    3    0  502 -0.46640607362E+03  0.34449345982E+03 -0.22514751728E+04  0.23249413833E+04  0.12699999809E+01 0.  1.
</event>
<event>
 5   0  0.2666978E-07  0.3991982E+04  0.7818609E-02  0.8006166E-01
        2   -1    0    0  501    0  0.00000000000E+00  0.00000000000E+00  0.16454657033E+04  0.16454657033E+04  0.25500000920E-02 0. -1.
       -2   -1    0    0    0  501  0.00000000000E+00  0.00000000000E+00 -0.24211874368E+04  0.24211874368E+04  0.25500000920E-02 0.  1.
    10030    2    1    2    0    0  0.00000000000E+00  0.00000000000E+00 -0.77572173356E+03  0.40666531401E+04  0.39919824091E+04 0.  0.
        4    1    3    3  502    0 -0.17242397292E+04 -0.56464374521E+03 -0.12353807621E+04  0.21949925838E+04  0.12699999809E+01 0.  1.
       -4    1    3    3    0  502  0.17242397292E+04  0.56464374521E+03  0.45965902854E+03  0.18716605563E+04  0.12699999809E+01 0. -1.
</event>
<event>
 5   0  0.2704088E-07  0.4079671E+04  0.7818609E-02  0.7988664E-01
        2   -1    0    0  501    0  0.00000000000E+00  0.00000000000E+00  0.21318201095E+04  0.21318201095E+04  0.25500000920E-02 0.  1.
       -2   -1    0    0    0  501  0.00000000000E+00  0.00000000000E+00 -0.19518199288E+04  0.19518199289E+04  0.25500000920E-02 0. -1.
    10030    2    1    2    0    0  0.00000000000E+00  0.00000000000E+00  0.18000018061E+03  0.40836400383E+04  0.40796710526E+04 0.  0.
        5    1    3    3  502    0  0.83979884176E+03 -0.93396775694E+03 -0.15188435890E+04  0.19709048185E+04  0.46999998093E+01 0. -1.
       -5    1    3    3    0  502 -0.83979884176E+03  0.93396775694E+03  0.16988437696E+04  0.21127352198E+04  0.46999998093E+01 0.  1.
</event>
<event>
 5   0  0.2730801E-07  0.3939518E+04  0.7818609E-02  0.8016860E-01
       -2   -1    0    0    0  501  0.00000000000E+00  0.00000000000E+00  0.25795538959E+04  0.25795538960E+04  0.25500000920E-02 0.  1.
        2   -1    0    0  501    0  0.00000000000E+00  0.00000000000E+00 -0.15041166839E+04  0.15041166839E+04  0.25500000920E-02 0. -1.
    10030    2    1    2    0    0  0.00000000000E+00  0.00000000000E+00  0.10754372120E+04  0.40836705799E+04  0.39395177634E+04 0.  0.
        2    1    3    3  502    0 -0.21768535891E+03 -0.17364384353E+04  0.14748710948E+04  0.22886349865E+04  0.25500000920E-02 0.  1.
       -2    1    3    3    0  502  0.21768535891E+03  0.17364384353E+04 -0.39943388279E+03  0.17950355934E+04  0.25500000920E-02 0. -1.
</event>
<event>
 5   0  0.2839279E-07  0.4314689E+04  0.7818609E-02  0.7943908E-01
        2   -1    0    0  501    0  0.00000000000E+00  0.00000000000E+00  0.27811565655E+04  0.27811565655E+04  0.25500000920E-02 0.  1.
       -2   -1    0    0    0  501  0.00000000000E+00  0.00000000000E+00 -0.16734531067E+04  0.16734531067E+04  0.25500000920E-02 0. -1.
    10030    2    1    2    0    0  0.00000000000E+00  0.00000000000E+00  0.11077034587E+04  0.44546096722E+04  0.43146889088E+04 0.  0.
        3    1    3    3  502    0  0.88072139630E+03 -0.60655946328E+03  0.24882584007E+04  0.27083231785E+04  0.10100000352E+00 0.  1.
       -3    1    3    3    0  502 -0.88072139630E+03  0.60655946328E+03 -0.13805549419E+04  0.17462864938E+04  0.10100000352E+00 0. -1.
</event>
<event>
 5   0  0.2839279E-07  0.3961494E+04  0.7818609E-02  0.8012360E-01
       -2   -1    0    0    0  501  0.00000000000E+00  0.00000000000E+00  0.12877785205E+04  0.12877785205E+04  0.25500000920E-02 0. -1.
        2   -1    0    0  501    0  0.00000000000E+00  0.00000000000E+00 -0.30466105795E+04  0.30466105795E+04  0.25500000920E-02 0.  1.
    10030    2    1    2    0    0  0.00000000000E+00  0.00000000000E+00 -0.17588320590E+04  0.43343891000E+04  0.39614944981E+04 0.  0.
        3    1    3    3  502    0 -0.52826050725E+03 -0.18709698242E+04 -0.12942808522E+04  0.23355406614E+04  0.10100000352E+00 0. -1.
       -3    1    3    3    0  502  0.52826050725E+03  0.18709698242E+04 -0.46455120687E+03  0.19988484386E+04  0.10100000352E+00 0.  1.
</event>
<event>
 5   0  0.2730801E-07  0.4008022E+04  0.7818609E-02  0.8002930E-01
       -2   -1    0    0    0  501  0.00000000000E+00  0.00000000000E+00  0.21253065603E+04  0.21253065603E+04  0.25500000920E-02 0.  1.
        2   -1    0    0  501    0  0.00000000000E+00  0.00000000000E+00 -0.18896379595E+04  0.18896379595E+04  0.25500000920E-02 0. -1.
    10030    2    1    2    0    0  0.00000000000E+00  0.00000000000E+00  0.23566860081E+03  0.40149445198E+04  0.40080219320E+04 0.  0.
        2    1    3    3  502    0  0.10700633777E+04 -0.40001661064E+02  0.18146975208E+04  0.21070744783E+04  0.25500000920E-02 0.  1.
       -2    1    3    3    0  502 -0.10700633777E+04  0.40001661064E+02 -0.15790289200E+04  0.19078700415E+04  0.25500000920E-02 0. -1.
</event>
<event>
 5   0  0.2704088E-07  0.3905053E+04  0.7818609E-02  0.8023979E-01
       -2   -1    0    0    0  501  0.00000000000E+00  0.00000000000E+00  0.24156133608E+04  0.24156133608E+04  0.25500000920E-02 0. -1.
        2   -1    0    0  501    0  0.00000000000E+00  0.00000000000E+00 -0.15782158133E+04  0.15782158133E+04  0.25500000920E-02 0.  1.
    10030    2    1    2    0    0  0.00000000000E+00  0.00000000000E+00  0.83739754748E+03  0.39938291741E+04  0.39050527294E+04 0.  0.
        5    1    3    3  502    0 -0.11121505703E+04 -0.59393454238E+03 -0.11060665467E+04  0.16772126959E+04  0.46999998093E+01 0.  1.
       -5    1    3    3    0  502  0.11121505703E+04  0.59393454238E+03  0.19434640942E+04  0.23166164782E+04  0.46999998093E+01 0. -1.
</event>
<event>
 5   0  0.2839279E-07  0.3919775E+04  0.7818609E-02  0.8020929E-01
       -2   -1    0    0    0  501  0.00000000000E+00  0.00000000000E+00  0.22516911074E+04  0.22516911074E+04  0.25500000920E-02 0.  1.
        2   -1    0    0  501    0  0.00000000000E+00  0.00000000000E+00 -0.17058996351E+04  0.17058996351E+04  0.25500000920E-02 0. -1.
    10030    2    1    2    0    0  0.00000000000E+00  0.00000000000E+00  0.54579147231E+03  0.39575907425E+04  0.39197750132E+04 0.  0.
        3    1    3    3  502    0  0.98085328365E+03  0.12381507656E+04 -0.89849916509E+03  0.18172482610E+04  0.10100000352E+00 0. -1.
       -3    1    3    3    0  502 -0.98085328365E+03 -0.12381507656E+04  0.14442906374E+04  0.21403424814E+04  0.10100000352E+00 0.  1.
</event>
<event>
 5   0  0.8583262E-08  0.3914270E+04  0.7818609E-02  0.8022068E-01
        1   -1    0    0  501    0  0.00000000000E+00  0.00000000000E+00  0.23149363956E+04  0.23149363956E+04  0.50400001928E-02 0.  1.
       -1   -1    0    0    0  501  0.00000000000E+00  0.00000000000E+00 -0.16546359024E+04  0.16546359024E+04  0.50400001928E-02 0. -1.
    10030    2    1    2    0    0  0.00000000000E+00  0.00000000000E+00  0.66030049319E+03  0.39695722980E+04  0.39142697260E+04 0.  0.
        1    1    3    3  502    0  0.93772202140E+02  0.57950262056E+03 -0.15632469538E+04  0.16698375824E+04  0.50400001928E-02 0. -1.
       -1    1    3    3    0  502 -0.93772202140E+02 -0.57950262056E+03  0.22235474469E+04  0.22997347156E+04  0.50400001928E-02 0.  1.
</event>
<event>
 5   0  0.2661693E-07  0.4046899E+04  0.7818609E-02  0.7995152E-01
        2   -1    0    0  501    0  0.00000000000E+00  0.00000000000E+00  0.22386926065E+04  0.22386926065E+04  0.25500000920E-02 0. -1.
       -2   -1    0    0    0  501  0.00000000000E+00  0.00000000000E+00 -0.18289012099E+04  0.18289012099E+04  0.25500000920E-02 0.  1.
    10030    2    1    2    0    0  0.00000000000E+00  0.00000000000E+00  0.40979139660E+03  0.40675938164E+04  0.40468988703E+04 0.  0.
        1    1    3    3  502    0 -0.59070186632E+03  0.17149189042E+04 -0.69661464323E+03  0.19429738815E+04  0.50400001928E-02 0.  1.
       -1    1    3    3    0  502  0.59070186632E+03 -0.17149189042E+04  0.11064060398E+04  0.21246199349E+04  0.50400001928E-02 0. -1.
</event>
<event>
 5   0  0.2730801E-07  0.3977341E+04  0.7818609E-02  0.8009133E-01
       -2   -1    0    0    0  501  0.00000000000E+00  0.00000000000E+00  0.19597334055E+04  0.19597334055E+04  0.25500000920E-02 0.  1.
        2   -1    0    0  501    0  0.00000000000E+00  0.00000000000E+00 -0.20180346021E+04  0.20180346021E+04  0.25500000920E-02 0. -1.
    10030    2    1    2    0    0  0.00000000000E+00  0.00000000000E+00 -0.58301196591E+02  0.39777680076E+04  0.39773407312E+04 0.  0.
        2    1    3    3  502    0  0.14480259710E+04  0.53967130796E+02  0.13330229451E+04  0.19689189512E+04  0.25500000920E-02 0.  1.
       -2    1    3    3    0  502 -0.14480259710E+04 -0.53967130796E+02 -0.13913241417E+04  0.20088490564E+04  0.25500000920E-02 0. -1.
</event>
<event>
 5   0  0.8528625E-08  0.4006902E+04  0.7818609E-02  0.8003156E-01
        1   -1    0    0  501    0  0.00000000000E+00  0.00000000000E+00  0.23522702417E+04  0.23522702417E+04  0.50400001928E-02 0. -1.
       -1   -1    0    0    0  501  0.00000000000E+00  0.00000000000E+00 -0.17063582694E+04  0.17063582694E+04  0.50400001928E-02 0.  1.
    10030    2    1    2    0    0  0.00000000000E+00  0.00000000000E+00  0.64591197232E+03  0.40586285111E+04  0.40069019348E+04 0.  0.
        2    1    3    3  502    0  0.24661838358E+03 -0.16840673075E+04 -0.74752795190E+03  0.18589516836E+04  0.25500000920E-02 0.  1.
       -2    1    3    3    0  502 -0.24661838358E+03  0.16840673075E+04  0.13934399242E+04  0.21996768275E+04  0.25500000920E-02 0. -1.
</event>
<event>
 5   0  0.2704088E-07  0.3895937E+04  0.7818609E-02  0.8025875E-01
       -2   -1    0    0    0  501  0.00000000000E+00  0.00000000000E+00  0.24542201771E+04  0.24542201771E+04  0.25500000920E-02 0. -1.
        2   -1    0    0  501    0  0.00000000000E+00  0.00000000000E+00 -0.15461451123E+04  0.15461451123E+04  0.25500000920E-02 0.  1.
    10030    2    1    2    0    0  0.00000000000E+00  0.00000000000E+00  0.90807506476E+03  0.40003652894E+04  0.38959366172E+04 0.  0.
        5    1    3    3  502    0  0.14103428322E+04  0.53852153232E+03  0.17180860559E+04  0.22871191772E+04  0.46999998093E+01 0. -1.
       -5    1    3    3    0  502 -0.14103428322E+04 -0.53852153232E+03 -0.81001099115E+03  0.17132461122E+04  0.46999998093E+01 0.  1.
</event>
<event>
 5   0  0.8528625E-08  0.3888235E+04  0.7818609E-02  0.8027480E-01
       -1   -1    0    0    0  501  0.00000000000E+00  0.00000000000E+00  0.22086757918E+04  0.22086757918E+04  0.50400001928E-02 0.  1.
        1   -1    0    0  501    0  0.00000000000E+00  0.00000000000E+00 -0.17112486920E+04  0.17112486920E+04  0.50400001928E-02 0. -1.
    10030    2    1    2    0    0  0.00000000000E+00  0.00000000000E+00  0.49742709979E+03  0.39199244839E+04  0.38882353632E+04 0.  0.
        3    1    3    3  502    0  0.12086779709E+04 -0.15164850580E+03  0.17762167876E+04  0.21537979927E+04  0.10100000352E+00 0.  1.
       -3    1    3    3    0  502 -0.12086779709E+04  0.15164850580E+03 -0.12787896879E+04  0.17661264911E+04  0.10100000352E+00 0. -1.
</event>
<event>
 5   0  0.8528625E-08  0.4009892E+04  0.7818609E-02  0.8002554E-01
        1   -1    0    0  501    0  0.00000000000E+00  0.00000000000E+00  0.22773528408E+04  0.22773528408E+04  0.50400001928E-02 0.  1.
       -1   -1    0    0    0  501  0.00000000000E+00  0.00000000000E+00 -0.17651232145E+04  0.17651232145E+04  0.50400001928E-02 0. -1.
    10030    2    1    2    0    0  0.00000000000E+00  0.00000000000E+00  0.51222962627E+03  0.40424760553E+04  0.40098919522E+04 0.  0.
        3    1    3    3  502    0 -0.12932389905E+04 -0.13295845432E+04 -0.51135061611E+03  0.19239910620E+04  0.10100000352E+00 0. -1.
       -3    1    3    3    0  502  0.12932389905E+04  0.13295845432E+04  0.10235802424E+04  0.21184849933E+04  0.10100000352E+00 0.  1.
</event>
<event>
 5   0  0.8528625E-08  0.3993826E+04  0.7818609E-02  0.8005793E-01
       -1   -1    0    0    0  501  0.00000000000E+00  0.00000000000E+00  0.16995007165E+04  0.16995007165E+04  0.50400001928E-02 0.  1.
        1   -1    0    0  501    0  0.00000000000E+00  0.00000000000E+00 -0.23463724276E+04  0.23463724276E+04  0.50400001928E-02 0. -1.
    10030    2    1    2    0    0  0.00000000000E+00  0.00000000000E+00 -0.64687171110E+03  0.40458731441E+04  0.39938260462E+04 0.  0.
        4    1    3    3  502    0  0.96099411284E+03  0.15325100512E+04  0.53349767362E+03  0.18859263301E+04  0.12699999809E+01 0.  1.
       -4    1    3    3    0  502 -0.96099411284E+03 -0.15325100512E+04 -0.11803693847E+04  0.21599468140E+04  0.12699999809E+01 0. -1.
</event>
<event>
 5   0  0.2666978E-07  0.3989251E+04  0.7818609E-02  0.8006719E-01
       -2   -1    0    0    0  501  0.00000000000E+00  0.00000000000E+00  0.18765087069E+04  0.18765087069E+04  0.25500000920E-02 0.  1.
        2   -1    0    0  501    0  0.00000000000E+00  0.00000000000E+00 -0.21201769246E+04  0.21201769246E+04  0.25500000920E-02 0. -1.
    10030    2    1    2    0    0  0.00000000000E+00  0.00000000000E+00 -0.24366821774E+03  0.39966856315E+04  0.39892507864E+04 0.  0.
        4    1    3    3  502    0 -0.86076960043E+03  0.55875423821E+03 -0.18354013379E+04  0.21028148486E+04  0.12699999809E+01 0. -1.
       -4    1    3    3    0  502  0.86076960043E+03 -0.55875423821E+03  0.15917331201E+04  0.18938707829E+04  0.12699999809E+01 0.  1.
</event>
<event>
 5   0  0.2730801E-07  0.4075113E+04  0.7818609E-02  0.7989563E-01
        2   -1    0    0  501    0  0.00000000000E+00  0.00000000000E+00  0.25025685177E+04  0.25025685177E+04  0.25500000920E-02 0.  1.
       -2   -1    0    0    0  501  0.00000000000E+00  0.00000000000E+00 -0.16589503982E+04  0.16589503983E+04  0.25500000920E-02 0. -1.
    10030    2    1    2    0    0  0.00000000000E+00  0.00000000000E+00  0.84361811940E+03  0.41615189159E+04  0.40751132691E+04 0.  0.
        2    1    3    3  502    0 -0.13317729904E+04 -0.99605886503E+03  0.16240062367E+04  0.23244674266E+04  0.25500000920E-02 0.  1.
       -2    1    3    3    0  502  0.13317729904E+04  0.99605886503E+03 -0.78038811732E+03  0.18370514893E+04  0.25500000920E-02 0. -1.
</event>
<event>
 5   0  0.2666978E-07  0.3843734E+04  0.7818609E-02  0.8036834E-01
       -2   -1    0    0    0  501  0.00000000000E+00  0.00000000000E+00  0.15194461714E+04  0.15194461714E+04  0.25500000920E-02 0. -1.
        2   -1    0    0  501    0  0.00000000000E+00  0.00000000000E+00 -0.24308675522E+04  0.24308675522E+04  0.25500000920E-02 0.  1.
    10030    2    1    2    0    0  0.00000000000E+00  0.00000000000E+00 -0.91142138074E+03  0.39503137236E+04  0.38437338073E+04 0.  0.
        4    1    3    3  502    0 -0.14331742211E+04  0.12236091829E+04 -0.67938327755E+02  0.18856895316E+04  0.12699999809E+01 0. -1.
       -4    1    3    3    0  502  0.14331742211E+04 -0.12236091829E+04 -0.84348305299E+03  0.20646241920E+04  0.12699999809E+01 0.  1.
</event>
<event>
 5   0  0.2661693E-07  0.3302659E+04  0.7818609E-02  0.8162219E-01
       -2   -1    0    0    0  501  0.00000000000E+00  0.00000000000E+00  0.12891824453E+04  0.12891824453E+04  0.25500000920E-02 0. -1.
        2   -1    0    0  501    0  0.00000000000E+00  0.00000000000E+00 -0.21152081994E+04  0.21152081994E+04  0.25500000920E-02 0.  1.
    10030    2    1    2    0    0  0.00000000000E+00  0.00000000000E+00 -0.82602575410E+03  0.34043906447E+04  0.33026590976E+04 0.  0.
        1    1    3    3  502    0  0.22488853479E+03  0.84913620119E+03 -0.18543990676E+04  0.20519266661E+04  0.50400001928E-02 0.  1.
       -1    1    3    3    0  502 -0.22488853479E+03 -0.84913620119E+03  0.10283733135E+04  0.13524639785E+04  0.50400001928E-02 0. -1.
</event>
<event>
 5   0  0.2839279E-07  0.3265608E+04  0.7818609E-02  0.8171702E-01
        2   -1    0    0  501    0  0.00000000000E+00  0.00000000000E+00  0.21050999668E+04  0.21050999668E+04  0.25500000920E-02 0. -1.
       -2   -1    0    0    0  501  0.00000000000E+00  0.00000000000E+00 -0.12664710688E+04  0.12664710688E+04  0.25500000920E-02 0.  1.
    10030    2    1    2    0    0  0.00000000000E+00  0.00000000000E+00  0.83862889801E+03  0.33715710356E+04  0.32656075728E+04 0.  0.
        3    1    3    3  502    0  0.58358087941E+02  0.72941030887E+03  0.19263364759E+04  0.20606351675E+04  0.10100000352E+00 0. -1.
       -3    1    3    3    0  502 -0.58358087941E+02 -0.72941030887E+03 -0.10877075779E+04  0.13109358681E+04  0.10100000352E+00 0.  1.
</event>
<event>
 5   0  0.8583262E-08  0.3976841E+04  0.7818609E-02  0.8009235E-01
        1   -1    0    0  501    0  0.00000000000E+00  0.00000000000E+00  0.20855041571E+04  0.20855041571E+04  0.50400001928E-02 0.  1.
       -1   -1    0    0    0  501  0.00000000000E+00  0.00000000000E+00 -0.18958558016E+04  0.18958558017E+04  0.50400001928E-02 0. -1.
    10030    2    1    2    0    0  0.00000000000E+00  0.00000000000E+00  0.18964835548E+03  0.39813599588E+04  0.39768405327E+04 0.  0.
        1    1    3    3  502    0  0.71176880591E+03  0.85946260675E+03  0.17424539842E+04  0.20691632832E+04  0.50400001928E-02 0.  1.
       -1    1    3    3    0  502 -0.71176880591E+03 -0.85946260675E+03 -0.15528056287E+04  0.19121966756E+04  0.50400001928E-02 0. -1.
</event>
<event>
 5   0  0.2730801E-07  0.4023303E+04  0.7818609E-02  0.7999862E-01
        2   -1    0    0  501    0  0.00000000000E+00  0.00000000000E+00  0.27520202838E+04  0.27520202838E+04  0.25500000920E-02 0. -1.
       -2   -1    0    0    0  501  0.00000000000E+00  0.00000000000E+00 -0.14704625458E+04  0.14704625458E+04  0.25500000920E-02 0.  1.
    10030    2    1    2    0    0  0.00000000000E+00  0.00000000000E+00  0.12815577380E+04  0.42224828295E+04  0.40233034946E+04 0.  0.
        2    1    3    3  502    0  0.18809559364E+04  0.64584372715E+03  0.32308268880E+03  0.20148180509E+04  0.25500000920E-02 0.  1.
       -2    1    3    3    0  502 -0.18809559364E+04 -0.64584372715E+03  0.95847504921E+03  0.22076647786E+04  0.25500000920E-02 0. -1.
</event>
<event>
 5   0  0.8528625E-08  0.3993454E+04  0.7818609E-02  0.8005868E-01
       -1   -1    0    0    0  501  0.00000000000E+00  0.00000000000E+00  0.25673021717E+04  0.25673021717E+04  0.50400001928E-02 0.  1.
        1   -1    0    0  501    0  0.00000000000E+00  0.00000000000E+00 -0.15529601379E+04  0.15529601379E+04  0.50400001928E-02 0. -1.
    10030    2    1    2    0    0  0.00000000000E+00  0.00000000000E+00  0.10143420338E+04  0.41202623095E+04  0.39934536103E+04 0.  0.
        4    1    3    3  502    0  0.18644937061E+04  0.61156176127E+03  0.12587992007E+03  0.19662634450E+04  0.12699999809E+01 0. -1.
       -4    1    3    3    0  502 -0.18644937061E+04 -0.61156176127E+03  0.88846211375E+03  0.21539988645E+04  0.12699999809E+01 0.  1.
</event>
<event>
 5   0  0.2730801E-07  0.3834468E+04  0.7818609E-02  0.8038798E-01
       -2   -1    0    0    0  501  0.00000000000E+00  0.00000000000E+00  0.14918668794E+04  0.14918668794E+04  0.25500000920E-02 0. -1.
        2   -1    0    0  501    0  0.00000000000E+00  0.00000000000E+00 -0.24638831232E+04  0.24638831232E+04  0.25500000920E-02 0.  1.
    10030    2    1    2    0    0  0.00000000000E+00  0.00000000000E+00 -0.97201624378E+03  0.39557500026E+04  0.38344676951E+04 0.  0.
        2    1    3    3  502    0  0.11185832375E+04 -0.28666596752E+03  0.10928838262E+04  0.15899059386E+04  0.25500000920E-02 0. -1.
       -2    1    3    3    0  502 -0.11185832375E+04  0.28666596752E+03 -0.20649000700E+04  0.23658440640E+04  0.25500000920E-02 0.  1.
</event>
<event>
 5   0  0.2666978E-07  0.3804244E+04  0.7818609E-02  0.8045245E-01
       -2   -1    0    0    0  501  0.00000000000E+00  0.00000000000E+00  0.14969775113E+04  0.14969775113E+04  0.25500000920E-02 0. -1.
        2   -1    0    0  501    0  0.00000000000E+00  0.00000000000E+00 -0.24169152770E+04  0.24169152770E+04  0.25500000920E-02 0.  1.
    10030    2    1    2    0    0  0.00000000000E+00  0.00000000000E+00 -0.91993776573E+03  0.39138927883E+04  0.38042438493E+04 0.  0.
        4    1    3    3  502    0 -0.44212678309E+03 -0.18458974950E+04 -0.33290802283E+03  0.19270814770E+04  0.12699999809E+01 0.  1.
       -4    1    3    3    0  502  0.44212678309E+03  0.18458974950E+04 -0.58702974290E+03  0.19868113112E+04  0.12699999809E+01 0. -1.
</event>
<event>
 5   0  0.8583262E-08  0.4047723E+04  0.7818609E-02  0.7994988E-01
       -1   -1    0    0    0  501  0.00000000000E+00  0.00000000000E+00  0.19722831708E+04  0.19722831708E+04  0.50400001928E-02 0. -1.
        1   -1    0    0  501    0  0.00000000000E+00  0.00000000000E+00 -0.20767882671E+04  0.20767882671E+04  0.50400001928E-02 0.  1.
    10030    2    1    2    0    0  0.00000000000E+00  0.00000000000E+00 -0.10450509631E+03  0.40490714380E+04  0.40477225936E+04 0.  0.
        1    1    3    3  502    0 -0.64954227178E+02 -0.14986117586E+04 -0.14113657797E+04  0.20596139490E+04  0.50400001928E-02 0.  1.
       -1    1    3    3    0  502  0.64954227178E+02  0.14986117586E+04  0.13068606834E+04  0.19894574890E+04  0.50400001928E-02 0. -1.
</event>
<event>
 5   0  0.8528625E-08  0.3000794E+04  0.7818609E-02  0.8243504E-01
       -1   -1    0    0    0  501  0.00000000000E+00  0.00000000000E+00  0.12768738448E+04  0.12768738448E+04  0.50400001928E-02 0. -1.
        1   -1    0    0  501    0  0.00000000000E+00  0.00000000000E+00 -0.17630492507E+04  0.17630492507E+04  0.50400001928E-02 0.  1.
    10030    2    1    2    0    0  0.00000000000E+00  0.00000000000E+00 -0.48617540597E+03  0.30399230955E+04  0.30007942117E+04 0.  0.
        5    1    3    3  502    0  0.60750618968E+03 -0.21356011454E+03  0.11297575202E+04  0.13004021830E+04  0.46999998093E+01 0. -1.
       -5    1    3    3    0  502 -0.60750618968E+03  0.21356011454E+03 -0.16159329262E+04  0.17395209125E+04  0.46999998093E+01 0.  1.
</event>
<event>
 5   0  0.2839279E-07  0.4026852E+04  0.7818609E-02  0.7999151E-01
       -2   -1    0    0    0  501  0.00000000000E+00  0.00000000000E+00  0.15148626179E+04  0.15148626179E+04  0.25500000920E-02 0. -1.
        2   -1    0    0  501    0  0.00000000000E+00  0.00000000000E+00 -0.26760744474E+04  0.26760744474E+04  0.25500000920E-02 0.  1.
    10030    2    1    2    0    0  0.00000000000E+00  0.00000000000E+00 -0.11612118295E+04  0.41909370653E+04  0.40268524399E+04 0.  0.
        3    1    3    3  502    0  0.19099971495E+03 -0.19924822337E+04 -0.80723761524E+03  0.21582629405E+04  0.10100000352E+00 0.  1.
       -3    1    3    3    0  502 -0.19099971495E+03  0.19924822337E+04 -0.35397421423E+03  0.20326741248E+04  0.10100000352E+00 0. -1.
</event>
<event>
 5   0  0.8528625E-08  0.3999748E+04  0.7818609E-02  0.8004597E-01
       -1   -1    0    0    0  501  0.00000000000E+00  0.00000000000E+00  0.23375053097E+04  0.23375053097E+04  0.50400001928E-02 0. -1.
        1   -1    0    0  501    0  0.00000000000E+00  0.00000000000E+00 -0.17110103046E+04  0.17110103046E+04  0.50400001928E-02 0.  1.
    10030    2    1    2    0    0  0.00000000000E+00  0.00000000000E+00  0.62649500511E+03  0.40485156142E+04  0.39997478280E+04 0.  0.
        5    1    3    3  502    0  0.13588434227E+04  0.42199270431E+02  0.17978403804E+04  0.22539938663E+04  0.46999998093E+01 0. -1.
       -5    1    3    3    0  502 -0.13588434227E+04 -0.42199270431E+02 -0.11713453752E+04  0.17945217480E+04  0.46999998093E+01 0.  1.
</event>
<event>
 5   0  0.8528625E-08  0.3986502E+04  0.7818609E-02  0.8007275E-01
       -1   -1    0    0    0  501  0.00000000000E+00  0.00000000000E+00  0.25097677633E+04  0.25097677633E+04  0.50400001928E-02 0.  1.
        1   -1    0    0  501    0  0.00000000000E+00  0.00000000000E+00 -0.15830343648E+04  0.15830343648E+04  0.50400001928E-02 0. -1.
    10030    2    1    2    0    0  0.00000000000E+00  0.00000000000E+00  0.92673339856E+03  0.40928021281E+04  0.39865015324E+04 0.  0.
        4    1    3    3  502    0  0.17429958198E+02 -0.77754853618E+03  0.23475591754E+04  0.24730388643E+04  0.12699999809E+01 0.  1.
       -4    1    3    3    0  502 -0.17429958198E+02  0.77754853618E+03 -0.14208257769E+04  0.16197632638E+04  0.12699999809E+01 0. -1.
</event>
<event>
 5   0  0.2666978E-07  0.2960626E+04  0.7818609E-02  0.8255065E-01
       -2   -1    0    0    0  501  0.00000000000E+00  0.00000000000E+00  0.78467308867E+03  0.78467308867E+03  0.25500000920E-02 0.  1.
        2   -1    0    0  501    0  0.00000000000E+00  0.00000000000E+00 -0.27926611523E+04  0.27926611523E+04  0.25500000920E-02 0. -1.
    10030    2    1    2    0    0  0.00000000000E+00  0.00000000000E+00 -0.20079880636E+04  0.35773342410E+04  0.29606256447E+04 0.  0.
        4    1    3    3  502    0 -0.88934368980E+03 -0.54705522374E+03  0.26393196060E+03  0.10769695024E+04  0.12699999809E+01 0.  1.
       -4    1    3    3    0  502  0.88934368980E+03  0.54705522374E+03 -0.22719200242E+04  0.25003647386E+04  0.12699999809E+01 0. -1.
</event>
<event>
 5   0  0.2661693E-07  0.3966704E+04  0.7818609E-02  0.8011297E-01
        2   -1    0    0  501    0  0.00000000000E+00  0.00000000000E+00  0.19250991611E+04  0.19250991611E+04  0.25500000920E-02 0.  1.
       -2   -1    0    0    0  501  0.00000000000E+00  0.00000000000E+00 -0.20433672943E+04  0.20433672943E+04  0.25500000920E-02 0. -1.
    10030    2    1    2    0    0  0.00000000000E+00  0.00000000000E+00 -0.11826813326E+03  0.39684664554E+04  0.39667037520E+04 0.  0.
        1    1    3    3  502    0 -0.18517433091E+04  0.69418785290E+03 -0.21031245413E+03  0.19887386420E+04  0.50400001928E-02 0.  1.
       -1    1    3    3    0  502  0.18517433091E+04 -0.69418785290E+03  0.92044320861E+02  0.19797278134E+04  0.50400001928E-02 0. -1.
</event>
<event>
 5   0  0.8528625E-08  0.3952892E+04  0.7818609E-02  0.8014118E-01
       -1   -1    0    0    0  501  0.00000000000E+00  0.00000000000E+00  0.17592146276E+04  0.17592146276E+04  0.50400001928E-02 0.  1.
        1   -1    0    0  501    0  0.00000000000E+00  0.00000000000E+00 -0.22205011793E+04  0.22205011793E+04  0.50400001928E-02 0. -1.
    10030    2    1    2    0    0  0.00000000000E+00  0.00000000000E+00 -0.46128655173E+03  0.39797158069E+04  0.39528916784E+04 0.  0.
        2    1    3    3  502    0 -0.12445471279E+04  0.14375589791E+04  0.31233532918E+03  0.19269215682E+04  0.25500000920E-02 0.  1.
       -2    1    3    3    0  502  0.12445471279E+04 -0.14375589791E+04 -0.77362188092E+03  0.20527942387E+04  0.25500000920E-02 0. -1.
</event>
<event>
 5   0  0.2730801E-07  0.3979946E+04  0.7818609E-02  0.8008604E-01
        2   -1    0    0  501    0  0.00000000000E+00  0.00000000000E+00  0.26000516995E+04  0.26000516995E+04  0.25500000920E-02 0.  1.
       -2   -1    0    0    0  501  0.00000000000E+00  0.00000000000E+00 -0.15230440048E+04  0.15230440048E+04  0.25500000920E-02 0. -1.
    10030    2    1    2    0    0  0.00000000000E+00  0.00000000000E+00  0.10770076947E+04  0.41230957043E+04  0.39799463077E+04 0.  0.
        2    1    3    3  502    0 -0.10739226397E+04 -0.14535928096E+04 -0.32437156759E+03  0.18361532632E+04  0.25500000920E-02 0. -1.
       -2    1    3    3    0  502  0.10739226397E+04  0.14535928096E+04  0.14013792623E+04  0.22869424411E+04  0.25500000920E-02 0.  1.
</event>
<event>
 5   0  0.2661693E-07  0.3234065E+04  0.7818609E-02  0.8179878E-01
        2   -1    0    0  501    0  0.00000000000E+00  0.00000000000E+00  0.16934339833E+04  0.16934339833E+04  0.25500000920E-02 0. -1.
       -2   -1    0    0    0  501  0.00000000000E+00  0.00000000000E+00 -0.15440783146E+04  0.15440783146E+04  0.25500000920E-02 0.  1.
    10030    2    1    2    0    0  0.00000000000E+00  0.00000000000E+00  0.14935566867E+03  0.32375122979E+04  0.32340653616E+04 0.  0.
        1    1    3    3  502    0  0.69941819200E+03  0.90421684584E+00  0.15341782687E+04  0.16860870633E+04  0.50400001928E-02 0. -1.
       -1    1    3    3    0  502 -0.69941819200E+03 -0.90421684584E+00 -0.13848226000E+04  0.15514252346E+04  0.50400001928E-02 0.  1.
</event>
<event>
 5   0  0.2839279E-07  0.3947085E+04  0.7818609E-02  0.8015307E-01
        2   -1    0    0  501    0  0.00000000000E+00  0.00000000000E+00  0.16577489749E+04  0.16577489749E+04  0.25500000920E-02 0. -1.
       -2   -1    0    0    0  501  0.00000000000E+00  0.00000000000E+00 -0.23494927976E+04  0.23494927976E+04  0.25500000920E-02 0.  1.
    10030    2    1    2    0    0  0.00000000000E+00  0.00000000000E+00 -0.69174382272E+03  0.40072417725E+04  0.39470846339E+04 0.  0.
        3    1    3    3  502    0  0.15620617891E+04  0.78406004707E+03 -0.12764010273E+04  0.21642520147E+04  0.10100000352E+00 0.  1.
       -3    1    3    3    0  502 -0.15620617891E+04 -0.78406004707E+03  0.58465720455E+03  0.18429897578E+04  0.10100000352E+00 0. -1.
</event>
<event>
 5   0  0.2730801E-07  0.4001237E+04  0.7818609E-02  0.8004297E-01
       -2   -1    0    0    0  501  0.00000000000E+00  0.00000000000E+00  0.29667922980E+04  0.29667922980E+04  0.25500000920E-02 0.  1.
        2   -1    0    0  501    0  0.00000000000E+00  0.00000000000E+00 -0.13490917710E+04  0.13490917710E+04  0.25500000920E-02 0. -1.
    10030    2    1    2    0    0  0.00000000000E+00  0.00000000000E+00  0.16177005271E+04  0.43158840690E+04  0.40012373463E+04 0.  0.
        2    1    3    3  502    0 -0.68248587092E+03  0.18268901435E+04  0.12902181093E+04  0.23383706571E+04  0.25500000920E-02 0.  1.
       -2    1    3    3    0  502  0.68248587092E+03 -0.18268901435E+04  0.32748241775E+03  0.19775134119E+04  0.25500000920E-02 0. -1.
</event>
<event>
 5   0  0.8528625E-08  0.2911546E+04  0.7818609E-02  0.8269451E-01
       -1   -1    0    0    0  501  0.00000000000E+00  0.00000000000E+00  0.13978083045E+04  0.13978083045E+04  0.50400001928E-02 0.  1.
        1   -1    0    0  501    0  0.00000000000E+00  0.00000000000E+00 -0.15161411107E+04  0.15161411107E+04  0.50400001928E-02 0. -1.
    10030    2    1    2    0    0  0.00000000000E+00  0.00000000000E+00 -0.11833280615E+03  0.29139494152E+04  0.29115457306E+04 0.  0.
        5    1    3    3  502    0 -0.20464083165E+03  0.82313945196E+03 -0.12432814162E+04  0.15050605294E+04  0.46999998093E+01 0. -1.
       -5    1    3    3    0  502  0.20464083165E+03 -0.82313945196E+03  0.11249486100E+04  0.14088888858E+04  0.46999998093E+01 0.  1.
</event>
<event>
 5   0  0.2666978E-07  0.3641708E+04  0.7818609E-02  0.8081004E-01
        2   -1    0    0  501    0  0.00000000000E+00  0.00000000000E+00  0.10914827588E+04  0.10914827588E+04  0.25500000920E-02 0.  1.
       -2   -1    0    0    0  501  0.00000000000E+00  0.00000000000E+00 -0.30376193021E+04  0.30376193021E+04  0.25500000920E-02 0. -1.
    10030    2    1    2    0    0  0.00000000000E+00  0.00000000000E+00 -0.19461365434E+04  0.41291020609E+04  0.36417078938E+04 0.  0.
        4    1    3    3  502    0 -0.16860128365E+04  0.54005871726E+02 -0.17503474961E+04  0.24308998106E+04  0.12699999809E+01 0. -1.
       -4    1    3    3    0  502  0.16860128365E+04 -0.54005871726E+02 -0.19578904731E+03  0.16982022503E+04  0.12699999809E+01 0.  1.
</event>
<event>
 5   0  0.8528625E-08  0.4000114E+04  0.7818609E-02  0.8004524E-01
       -1   -1    0    0    0  501  0.00000000000E+00  0.00000000000E+00  0.22850313109E+04  0.22850313109E+04  0.50400001928E-02 0. -1.
        1   -1    0    0  501    0  0.00000000000E+00  0.00000000000E+00 -0.17506227704E+04  0.17506227704E+04  0.50400001928E-02 0.  1.
    10030    2    1    2    0    0  0.00000000000E+00  0.00000000000E+00  0.53440854055E+03  0.40356540813E+04  0.40001139204E+04 0.  0.
        3    1    3    3  502    0 -0.40509223877E+03 -0.37069496997E+03  0.22074954566E+04  0.22747638743E+04  0.10100000352E+00 0. -1.
       -3    1    3    3    0  502  0.40509223877E+03  0.37069496997E+03 -0.16730869160E+04  0.17608902071E+04  0.10100000352E+00 0.  1.
</event>
<event>
 5   0  0.8528625E-08  0.4050607E+04  0.7818609E-02  0.7994415E-01
       -1   -1    0    0    0  501  0.00000000000E+00  0.00000000000E+00  0.12239755731E+04  0.12239755731E+04  0.50400001928E-02 0.  1.
        1   -1    0    0  501    0  0.00000000000E+00  0.00000000000E+00 -0.33512545781E+04  0.33512545781E+04  0.50400001928E-02 0. -1.
    10030    2    1    2    0    0  0.00000000000E+00  0.00000000000E+00 -0.21272790050E+04  0.45752301513E+04  0.40506067412E+04 0.  0.
        3    1    3    3  502    0 -0.82392599391E+03  0.70396250050E+03  0.86893660130E+03  0.13890529410E+04  0.10100000352E+00 0.  1.
       -3    1    3    3    0  502  0.82392599391E+03 -0.70396250050E+03 -0.29962156063E+04  0.31861772103E+04  0.10100000352E+00 0. -1.
</event>
<event>
 5   0  0.2839279E-07  0.3925073E+04  0.7818609E-02  0.8019835E-01
        2   -1    0    0  501    0  0.00000000000E+00  0.00000000000E+00  0.12499575658E+04  0.12499575658E+04  0.25500000920E-02 0. -1.
       -2   -1    0    0    0  501  0.00000000000E+00  0.00000000000E+00 -0.30813439932E+04  0.30813439932E+04  0.25500000920E-02 0.  1.
    10030    2    1    2    0    0  0.00000000000E+00  0.00000000000E+00 -0.18313864274E+04  0.43313015591E+04  0.39250728591E+04 0.  0.
        3    1    3    3  502    0  0.60450844448E+02  0.15852763467E+04 -0.21905981240E+04  0.27047135802E+04  0.10100000352E+00 0.  1.
       -3    1    3    3    0  502 -0.60450844448E+02 -0.15852763467E+04  0.35921169653E+03  0.16265879789E+04  0.10100000352E+00 0. -1.
</event>
<event>
 5   0  0.8528625E-08  0.3999325E+04  0.7818609E-02  0.8004683E-01
        1   -1    0    0  501    0  0.00000000000E+00  0.00000000000E+00  0.17919599833E+04  0.17919599833E+04  0.50400001928E-02 0.  1.
       -1   -1    0    0    0  501  0.00000000000E+00  0.00000000000E+00 -0.22314397930E+04  0.22314397930E+04  0.50400001928E-02 0. -1.
    10030    2    1    2    0    0  0.00000000000E+00  0.00000000000E+00 -0.43947980975E+03  0.40233997763E+04  0.39993253502E+04 0.  0.
        3    1    3    3  502    0  0.93255313942E+02 -0.45148272432E+03 -0.21772477045E+04  0.22255203393E+04  0.10100000352E+00 0. -1.
       -3    1    3    3    0  502 -0.93255313942E+02  0.45148272432E+03  0.17377678947E+04  0.17978794370E+04  0.10100000352E+00 0.  1.
</event>
<event>
 5   0  0.8528625E-08  0.4040097E+04  0.7818609E-02  0.7996506E-01
        1   -1    0    0  501    0  0.00000000000E+00  0.00000000000E+00  0.20100378158E+04  0.20100378158E+04  0.50400001928E-02 0.  1.
       -1   -1    0    0    0  501  0.00000000000E+00  0.00000000000E+00 -0.20301089321E+04  0.20301089321E+04  0.50400001928E-02 0. -1.
    10030    2    1    2    0    0  0.00000000000E+00  0.00000000000E+00 -0.20071116309E+02  0.40401467479E+04  0.40400968917E+04 0.  0.
        4    1    3    3  502    0  0.15919488132E+04 -0.12255027314E+04  0.20076586259E+03  0.20190261298E+04  0.12699999809E+01 0.  1.
       -4    1    3    3    0  502 -0.15919488132E+04  0.12255027314E+04 -0.22083697890E+03  0.20211206180E+04  0.12699999809E+01 0. -1.
</event>
<event>
 5   0  0.8528625E-08  0.4061331E+04  0.7818609E-02  0.7992287E-01
        1   -1    0    0  501    0  0.00000000000E+00  0.00000000000E+00  0.18872390090E+04  0.18872390090E+04  0.50400001928E-02 0.  1.
       -1   -1    0    0    0  501  0.00000000000E+00  0.00000000000E+00 -0.21849917074E+04  0.21849917074E+04  0.50400001928E-02 0. -1.
    10030    2    1    2    0    0  0.00000000000E+00  0.00000000000E+00 -0.29775269837E+03  0.40722307164E+04  0.40613306118E+04 0.  0.
        5    1    3    3  502    0 -0.14111040623E+04 -0.14430275506E+04  0.75411971728E+02  0.20197158815E+04  0.46999998093E+01 0.  1.
       -5    1    3    3    0  502  0.14111040623E+04  0.14430275506E+04 -0.37316467010E+03  0.20525148349E+04  0.46999998093E+01 0. -1.
</event>
<event>
 5   0  0.8528625E-08  0.3980677E+04  0.7818609E-02  0.8008456E-01
       -1   -1    0    0    0  501  0.00000000000E+00  0.00000000000E+00  0.26578738024E+04  0.26578738024E+04  0.50400001928E-02 0. -1.
        1   -1    0    0  501    0  0.00000000000E+00  0.00000000000E+00 -0.14904571855E+04  0.14904571855E+04  0.50400001928E-02 0.  1.
    10030    2    1    2    0    0  0.00000000000E+00  0.00000000000E+00  0.11674166169E+04  0.41483309879E+04  0.39806768806E+04 0.  0.
        4    1    3    3  502    0  0.15009872964E+04 -0.12661098823E+03  0.19394429441E+04  0.24556941488E+04  0.12699999809E+01 0. -1.
       -4    1    3    3    0  502 -0.15009872964E+04  0.12661098823E+03 -0.77202632721E+03  0.16926368391E+04  0.12699999809E+01 0.  1.
</event>
<event>
 5   0  0.2661693E-07  0.3364711E+04  0.7818609E-02  0.8146622E-01
       -2   -1    0    0    0  501  0.00000000000E+00  0.00000000000E+00  0.14700938128E+04  0.14700938128E+04  0.25500000920E-02 0.  1.
        2   -1    0    0  501    0  0.00000000000E+00  0.00000000000E+00 -0.19252644166E+04  0.19252644166E+04  0.25500000920E-02 0. -1.
    10030    2    1    2    0    0  0.00000000000E+00  0.00000000000E+00 -0.45517060380E+03  0.33953582295E+04  0.33647105712E+04 0.  0.
        1    1    3    3  502    0 -0.97622587059E+03  0.13607603456E+04 -0.66021890401E+02  0.16760204530E+04  0.50400001928E-02 0.  1.
       -1    1    3    3    0  502  0.97622587059E+03 -0.13607603456E+04 -0.38914871340E+03  0.17193377765E+04  0.50400001928E-02 0. -1.
</event>
<event>
 5   0  0.8583262E-08  0.4008411E+04  0.7818609E-02  0.8002852E-01
       -1   -1    0    0    0  501  0.00000000000E+00  0.00000000000E+00  0.18255299041E+04  0.18255299041E+04  0.50400001928E-02 0. -1.
        1   -1    0    0  501    0  0.00000000000E+00  0.00000000000E+00 -0.22003694141E+04  0.22003694141E+04  0.50400001928E-02 0.  1.
    10030    2    1    2    0    0  0.00000000000E+00  0.00000000000E+00 -0.37483950995E+03  0.40258993182E+04  0.40084112392E+04 0.  0.
        1    1    3    3  502    0  0.15790882692E+04 -0.11736021667E+04 -0.57115781473E+03  0.20486783684E+04  0.50400001928E-02 0. -1.
       -1    1    3    3    0  502 -0.15790882692E+04  0.11736021667E+04  0.19631830478E+03  0.19772209498E+04  0.50400001928E-02 0.  1.
</event>
<event>
 5   0  0.2839279E-07  0.4008803E+04  0.7818609E-02  0.8002773E-01
       -2   -1    0    0    0  501  0.00000000000E+00  0.00000000000E+00  0.17907216989E+04  0.17907216989E+04  0.25500000920E-02 0. -1.
        2   -1    0    0  501    0  0.00000000000E+00  0.00000000000E+00 -0.22435791959E+04  0.22435791959E+04  0.25500000920E-02 0.  1.
    10030    2    1    2    0    0  0.00000000000E+00  0.00000000000E+00 -0.45285749702E+03  0.40343008949E+04  0.40088032875E+04 0.  0.
        3    1    3    3  502    0  0.14068608035E+04  0.11592302165E+04 -0.10651285212E+04  0.21112959982E+04  0.10100000352E+00 0.  1.
       -3    1    3    3    0  502 -0.14068608035E+04 -0.11592302165E+04  0.61227102419E+03  0.19230048966E+04  0.10100000352E+00 0. -1.
</event>
<event>
 5   0  0.2666978E-07  0.3950203E+04  0.7818609E-02  0.8014668E-01
        2   -1    0    0  501    0  0.00000000000E+00  0.00000000000E+00  0.21335824154E+04  0.21335824154E+04  0.25500000920E-02 0. -1.
       -2   -1    0    0    0  501  0.00000000000E+00  0.00000000000E+00 -0.18283923293E+04  0.18283923293E+04  0.25500000920E-02 0.  1.
    10030    2    1    2    0    0  0.00000000000E+00  0.00000000000E+00  0.30519008603E+03  0.39619747447E+04  0.39502028921E+04 0.  0.
        4    1    3    3  502    0  0.70302231122E+03 -0.10291040622E+04 -0.13842010316E+04  0.18626082921E+04  0.12699999809E+01 0.  1.
       -4    1    3    3    0  502 -0.70302231122E+03  0.10291040622E+04  0.16893911177E+04  0.20993664526E+04  0.12699999809E+01 0. -1.
</event>
<event>
 5   0  0.8583262E-08  0.4001516E+04  0.7818609E-02  0.8004241E-01
        1   -1    0    0  501    0  0.00000000000E+00  0.00000000000E+00  0.28716679630E+04  0.28716679630E+04  0.50400001928E-02 0. -1.
       -1   -1    0    0    0  501  0.00000000000E+00  0.00000000000E+00 -0.13939745681E+04  0.13939745681E+04  0.50400001928E-02 0.  1.
    10030    2    1    2    0    0  0.00000000000E+00  0.00000000000E+00  0.14776933949E+04  0.42656425311E+04  0.40015157670E+04 0.  0.
        1    1    3    3  502    0  0.14558445372E+04 -0.12691317276E+04  0.18201410146E+03  0.19399246871E+04  0.50400001928E-02 0.  1.
       -1    1    3    3    0  502 -0.14558445372E+04  0.12691317276E+04  0.12956792935E+04  0.23257178440E+04  0.50400001928E-02 0. -1.
</event>
<event>
 5   0  0.8583262E-08  0.2908031E+04  0.7818609E-02  0.8270492E-01
        1   -1    0    0  501    0  0.00000000000E+00  0.00000000000E+00  0.26910318457E+04  0.26910318457E+04  0.50400001928E-02 0.  1.
       -1   -1    0    0    0  501  0.00000000000E+00  0.00000000000E+00 -0.78563235633E+03  0.78563235634E+03  0.50400001928E-02 0. -1.
    10030    2    1    2    0    0  0.00000000000E+00  0.00000000000E+00  0.19053994894E+04  0.34766642020E+04  0.29080314234E+04 0.  0.
        1    1    3    3  502    0 -0.29340420093E+02 -0.87329238734E+03  0.23421303745E+04  0.24998150222E+04  0.50400001928E-02 0.  1.
       -1    1    3    3    0  502  0.29340420093E+02  0.87329238734E+03 -0.43673088515E+03  0.97684917982E+03  0.50400001928E-02 0. -1.
</event>
<event>
 5   0  0.2730801E-07  0.3822391E+04  0.7818609E-02  0.8041367E-01
        2   -1    0    0  501    0  0.00000000000E+00  0.00000000000E+00  0.22817114982E+04  0.22817114982E+04  0.25500000920E-02 0.  1.
       -2   -1    0    0    0  501  0.00000000000E+00  0.00000000000E+00 -0.16008460004E+04  0.16008460004E+04  0.25500000920E-02 0. -1.
    10030    2    1    2    0    0  0.00000000000E+00  0.00000000000E+00  0.68086549775E+03  0.38825574986E+04  0.38223912547E+04 0.  0.
        2    1    3    3  502    0 -0.11970222129E+04  0.91464570693E+03  0.15350531368E+04  0.21507736004E+04  0.25500000920E-02 0.  1.
       -2    1    3    3    0  502  0.11970222129E+04 -0.91464570693E+03 -0.85418763901E+03  0.17317838982E+04  0.25500000920E-02 0. -1.
</event>
<event>
 5   0  0.2839279E-07  0.4026656E+04  0.7818609E-02  0.7999191E-01
       -2   -1    0    0    0  501  0.00000000000E+00  0.00000000000E+00  0.18388790866E+04  0.18388790866E+04  0.25500000920E-02 0.  1.
        2   -1    0    0  501    0  0.00000000000E+00  0.00000000000E+00 -0.22043264619E+04  0.22043264620E+04  0.25500000920E-02 0. -1.
    10030    2    1    2    0    0  0.00000000000E+00  0.00000000000E+00 -0.36544737530E+03  0.40432055486E+04  0.40266560971E+04 0.  0.
        3    1    3    3  502    0 -0.99367571582E+03  0.96958226197E+03 -0.16468002643E+04  0.21539341474E+04  0.10100000352E+00 0. -1.
       -3    1    3    3    0  502  0.99367571582E+03 -0.96958226197E+03  0.12813528890E+04  0.18892714011E+04  0.10100000352E+00 0.  1.
</event>
<event>
 5   0  0.8528625E-08  0.4016744E+04  0.7818609E-02  0.8001177E-01
        1   -1    0    0  501    0  0.00000000000E+00  0.00000000000E+00  0.21138881311E+04  0.21138881311E+04  0.50400001928E-02 0. -1.
       -1   -1    0    0    0  501  0.00000000000E+00  0.00000000000E+00 -0.19081224802E+04  0.19081224802E+04  0.50400001928E-02 0.  1.
    10030    2    1    2    0    0  0.00000000000E+00  0.00000000000E+00  0.20576565093E+03  0.40220106113E+04  0.40167436879E+04 0.  0.
        4    1    3    3  502    0 -0.13397237199E+03 -0.12168721822E+04 -0.14913195628E+04  0.19294460748E+04  0.12699999809E+01 0.  1.
       -4    1    3    3    0  502  0.13397237199E+03  0.12168721822E+04  0.16970852137E+04  0.20925645366E+04  0.12699999809E+01 0. -1.
</event>
<event>
 5   0  0.8528625E-08  0.4118647E+04  0.7818609E-02  0.7981030E-01
       -1   -1    0    0    0  501  0.00000000000E+00  0.00000000000E+00  0.20926862279E+04  0.20926862279E+04  0.50400001928E-02 0.  1.
        1   -1    0    0  501    0  0.00000000000E+00  0.00000000000E+00 -0.20264924758E+04  0.20264924758E+04  0.50400001928E-02 0. -1.
    10030    2    1    2    0    0  0.00000000000E+00  0.00000000000E+00  0.66193752076E+02  0.41191787036E+04  0.41186468141E+04 0.  0.
        2    1    3    3  502    0  0.42070669539E+02  0.42710454534E+03 -0.19812696468E+04  0.20272191907E+04  0.25500000920E-02 0. -1.
       -2    1    3    3    0  502 -0.42070669539E+02 -0.42710454534E+03  0.20474633989E+04  0.20919595129E+04  0.25500000920E-02 0.  1.
</event>
<event>
 5   0  0.8583262E-08  0.4022329E+04  0.7818609E-02  0.8000057E-01
        1   -1    0    0  501    0  0.00000000000E+00  0.00000000000E+00  0.28049628135E+04  0.28049628135E+04  0.50400001928E-02 0. -1.
       -1   -1    0    0    0  501  0.00000000000E+00  0.00000000000E+00 -0.14420091155E+04  0.14420091155E+04  0.50400001928E-02 0.  1.
    10030    2    1    2    0    0  0.00000000000E+00  0.00000000000E+00  0.13629536980E+04  0.42469719291E+04  0.40223286518E+04 0.  0.
        1    1    3    3  502    0 -0.75934099142E+03 -0.18462700450E+04  0.42399224545E+03  0.20408530679E+04  0.50400001928E-02 0. -1.
       -1    1    3    3    0  502  0.75934099142E+03  0.18462700450E+04  0.93896145255E+03  0.22061188612E+04  0.50400001928E-02 0.  1.
</event>
<event>
 5   0  0.2730801E-07  0.3953486E+04  0.7818609E-02  0.8013996E-01
       -2   -1    0    0    0  501  0.00000000000E+00  0.00000000000E+00  0.23424536916E+04  0.23424536916E+04  0.25500000920E-02 0. -1.
        2   -1    0    0  501    0  0.00000000000E+00  0.00000000000E+00 -0.16681280995E+04  0.16681280995E+04  0.25500000920E-02 0.  1.
    10030    2    1    2    0    0  0.00000000000E+00  0.00000000000E+00  0.67432559213E+03  0.40105817912E+04  0.39534859680E+04 0.  0.
        2    1    3    3  502    0  0.57238729017E+03  0.92282475498E+03 -0.13384422230E+04  0.17235603623E+04  0.25500000920E-02 0.  1.
       -2    1    3    3    0  502 -0.57238729017E+03 -0.92282475498E+03  0.20127678151E+04  0.22870214288E+04  0.25500000920E-02 0. -1.
</event>
<event>
 5   0  0.8528625E-08  0.4014362E+04  0.7818609E-02  0.8001655E-01
        1   -1    0    0  501    0  0.00000000000E+00  0.00000000000E+00  0.12697171202E+04  0.12697171202E+04  0.50400001928E-02 0.  1.
       -1   -1    0    0    0  501  0.00000000000E+00  0.00000000000E+00 -0.31729714309E+04  0.31729714310E+04  0.50400001928E-02 0. -1.
    10030    2    1    2    0    0  0.00000000000E+00  0.00000000000E+00 -0.19032543108E+04  0.44426885511E+04  0.40143622894E+04 0.  0.
        5    1    3    3  502    0 -0.11498614438E+04  0.77677872922E+03 -0.25566022693E+04  0.29089179754E+04  0.46999998093E+01 0. -1.
       -5    1    3    3    0  502  0.11498614438E+04 -0.77677872922E+03  0.65334795851E+03  0.15337705757E+04  0.46999998093E+01 0.  1.
</event>
<event>
 5   0  0.8528625E-08  0.3972723E+04  0.7818609E-02  0.8010072E-01
       -1   -1    0    0    0  501  0.00000000000E+00  0.00000000000E+00  0.22860197666E+04  0.22860197667E+04  0.50400001928E-02 0.  1.
        1   -1    0    0  501    0  0.00000000000E+00  0.00000000000E+00 -0.17259834905E+04  0.17259834905E+04  0.50400001928E-02 0. -1.
    10030    2    1    2    0    0  0.00000000000E+00  0.00000000000E+00  0.56003627616E+03  0.40120032571E+04  0.39727231850E+04 0.  0.
        3    1    3    3  502    0  0.13120722949E+04  0.14910097105E+04  0.31177266875E+03  0.20104342494E+04  0.10100000352E+00 0. -1.
       -3    1    3    3    0  502 -0.13120722949E+04 -0.14910097105E+04  0.24826360741E+03  0.20015690078E+04  0.10100000352E+00 0.  1.
</event>
<event>
 5   0  0.2839279E-07  0.3662855E+04  0.7818609E-02  0.8076244E-01
        2   -1    0    0  501    0  0.00000000000E+00  0.00000000000E+00  0.25076439683E+04  0.25076439683E+04  0.25500000920E-02 0.  1.
       -2   -1    0    0    0  501  0.00000000000E+00  0.00000000000E+00 -0.13375606609E+04  0.13375606609E+04  0.25500000920E-02 0. -1.
    10030    2    1    2    0    0  0.00000000000E+00  0.00000000000E+00  0.11700833074E+04  0.38452046292E+04  0.36628545828E+04 0.  0.
        3    1    3    3  502    0  0.19073792840E+03 -0.11269214956E+04 -0.91721036240E+03  0.14654718945E+04  0.10100000352E+00 0. -1.
       -3    1    3    3    0  502 -0.19073792840E+03  0.11269214956E+04  0.20872936698E+04  0.23797327347E+04  0.10100000352E+00 0.  1.
</event>
<event>
 5   0  0.2839279E-07  0.3580346E+04  0.7818609E-02  0.8095009E-01
        2   -1    0    0  501    0  0.00000000000E+00  0.00000000000E+00  0.20192459746E+04  0.20192459746E+04  0.25500000920E-02 0.  1.
       -2   -1    0    0    0  501  0.00000000000E+00  0.00000000000E+00 -0.15870867360E+04  0.15870867360E+04  0.25500000920E-02 0. -1.
    10030    2    1    2    0    0  0.00000000000E+00  0.00000000000E+00  0.43215923861E+03  0.36063327106E+04  0.35803455157E+04 0.  0.
        3    1    3    3  502    0  0.57214461239E+03  0.20323240785E+03 -0.14802060356E+04  0.15998946175E+04  0.10100000352E+00 0. -1.
       -3    1    3    3    0  502 -0.57214461239E+03 -0.20323240785E+03  0.19123652742E+04  0.20064380931E+04  0.10100000352E+00 0.  1.
</event>
<event>
 5   0  0.8583262E-08  0.4004490E+04  0.7818609E-02  0.8003641E-01
       -1   -1    0    0    0  501  0.00000000000E+00  0.00000000000E+00  0.21390147594E+04  0.21390147594E+04  0.50400001928E-02 0.  1.
        1   -1    0    0  501    0  0.00000000000E+00  0.00000000000E+00 -0.18742204440E+04  0.18742204440E+04  0.50400001928E-02 0. -1.
    10030    2    1    2    0    0  0.00000000000E+00  0.00000000000E+00  0.26479431540E+03  0.40132352033E+04  0.40044900759E+04 0.  0.
        1    1    3    3  502    0  0.12696132123E+04  0.69961527820E+03  0.15165744654E+04  0.20979459849E+04  0.50400001928E-02 0.  1.
       -1    1    3    3    0  502 -0.12696132123E+04 -0.69961527820E+03 -0.12517801500E+04  0.19152892184E+04  0.50400001928E-02 0. -1.
</event>
<event>
 5   0  0.2661693E-07  0.3968442E+04  0.7818609E-02  0.8010943E-01
        2   -1    0    0  501    0  0.00000000000E+00  0.00000000000E+00  0.29293414143E+04  0.29293414143E+04  0.25500000920E-02 0.  1.
       -2   -1    0    0    0  501  0.00000000000E+00  0.00000000000E+00 -0.13440336716E+04  0.13440336717E+04  0.25500000920E-02 0. -1.
    10030    2    1    2    0    0  0.00000000000E+00  0.00000000000E+00  0.15853077427E+04  0.42733750860E+04  0.39684422620E+04 0.  0.
        1    1    3    3  502    0 -0.12043538990E+04  0.15458423190E+04  0.11280970568E+04  0.22611279837E+04  0.50400001928E-02 0.  1.
       -1    1    3    3    0  502  0.12043538990E+04 -0.15458423190E+04  0.45721068585E+03  0.20122471022E+04  0.50400001928E-02 0. -1.
</event>
<event>
 5   0  0.8528625E-08  0.4001723E+04  0.7818609E-02  0.8004199E-01
        1   -1    0    0  501    0  0.00000000000E+00  0.00000000000E+00  0.20826371928E+04  0.20826371928E+04  0.50400001928E-02 0.  1.
       -1   -1    0    0    0  501  0.00000000000E+00  0.00000000000E+00 -0.19222963930E+04  0.19222963930E+04  0.50400001928E-02 0. -1.
    10030    2    1    2    0    0  0.00000000000E+00  0.00000000000E+00  0.16034079987E+03  0.40049335858E+04  0.40017226109E+04 0.  0.
        4    1    3    3  502    0 -0.17435237437E+04 -0.92773826804E+03 -0.24082206882E+03  0.19896155962E+04  0.12699999809E+01 0.  1.
       -4    1    3    3    0  502  0.17435237437E+04  0.92773826804E+03  0.40116286869E+03  0.20153179896E+04  0.12699999809E+01 0. -1.
</event>
<event>
 5   0  0.8583262E-08  0.3538859E+04  0.7818609E-02  0.8104642E-01
        1   -1    0    0  501    0  0.00000000000E+00  0.00000000000E+00  0.20449217611E+04  0.20449217611E+04  0.50400001928E-02 0.  1.
       -1   -1    0    0    0  501  0.00000000000E+00  0.00000000000E+00 -0.15310517768E+04  0.15310517768E+04  0.50400001928E-02 0. -1.
    10030    2    1    2    0    0  0.00000000000E+00  0.00000000000E+00  0.51386998431E+03  0.35759735379E+04  0.35388591923E+04 0.  0.
        1    1    3    3  502    0 -0.12221810585E+04  0.72523898102E+03  0.13221169535E+04  0.19410541874E+04  0.50400001928E-02 0.  1.
       -1    1    3    3    0  502  0.12221810585E+04 -0.72523898102E+03 -0.80824696923E+03  0.16349193505E+04  0.50400001928E-02 0. -1.
</event>
<event>
 5   0  0.8528625E-08  0.4212282E+04  0.7818609E-02  0.7963040E-01
       -1   -1    0    0    0  501  0.00000000000E+00  0.00000000000E+00  0.25603767654E+04  0.25603767654E+04  0.50400001928E-02 0.  1.
        1   -1    0    0  501    0  0.00000000000E+00  0.00000000000E+00 -0.17324913707E+04  0.17324913707E+04  0.50400001928E-02 0. -1.
    10030    2    1    2    0    0  0.00000000000E+00  0.00000000000E+00  0.82788539470E+03  0.42928681361E+04  0.42122823513E+04 0.  0.
        2    1    3    3  502    0  0.13063974365E+04  0.12660698164E+04  0.14954822032E+04  0.23550104166E+04  0.25500000920E-02 0. -1.
       -2    1    3    3    0  502 -0.13063974365E+04 -0.12660698164E+04 -0.66759680853E+03  0.19378577195E+04  0.25500000920E-02 0.  1.
</event>
<event>
 5   0  0.2661693E-07  0.4016315E+04  0.7818609E-02  0.8001263E-01
        2   -1    0    0  501    0  0.00000000000E+00  0.00000000000E+00  0.18909434971E+04  0.18909434971E+04  0.25500000920E-02 0.  1.
       -2   -1    0    0    0  501  0.00000000000E+00  0.00000000000E+00 -0.21326368295E+04  0.21326368295E+04  0.25500000920E-02 0. -1.
    10030    2    1    2    0    0  0.00000000000E+00  0.00000000000E+00 -0.24169333242E+03  0.40235803266E+04  0.40163146014E+04 0.  0.
        1    1    3    3  502    0  0.29803279535E+03  0.76927719817E+03  0.17133354285E+04  0.19016122752E+04  0.50400001928E-02 0.  1.
       -1    1    3    3    0  502 -0.29803279535E+03 -0.76927719817E+03 -0.19550287609E+04  0.21219680513E+04  0.50400001928E-02 0. -1.
</event>
<event>
 5   0  0.8528625E-08  0.3564413E+04  0.7818609E-02  0.8098692E-01
       -1   -1    0    0    0  501  0.00000000000E+00  0.00000000000E+00  0.10243828875E+04  0.10243828875E+04  0.50400001928E-02 0. -1.
        1   -1    0    0  501    0  0.00000000000E+00  0.00000000000E+00 -0.31006574451E+04  0.31006574451E+04  0.50400001928E-02 0.  1.
    10030    2    1    2    0    0  0.00000000000E+00  0.00000000000E+00 -0.20762745576E+04  0.41250403327E+04  0.35644132347E+04 0.  0.
        4    1    3    3  502    0  0.50252480507E+03 -0.83465273830E+03 -0.27652007500E+04  0.29318105624E+04  0.12699999809E+01 0.  1.
       -4    1    3    3    0  502 -0.50252480507E+03  0.83465273830E+03  0.68892619237E+03  0.11932297703E+04  0.12699999809E+01 0. -1.
</event>
<event>
 5   0  0.8528625E-08  0.4061823E+04  0.7818609E-02  0.7992190E-01
       -1   -1    0    0    0  501  0.00000000000E+00  0.00000000000E+00  0.19158083068E+04  0.19158083068E+04  0.50400001928E-02 0. -1.
        1   -1    0    0  501    0  0.00000000000E+00  0.00000000000E+00 -0.21529305940E+04  0.21529305940E+04  0.50400001928E-02 0.  1.
    10030    2    1    2    0    0  0.00000000000E+00  0.00000000000E+00 -0.23712228724E+03  0.40687389009E+04  0.40618233916E+04 0.  0.
        2    1    3    3  502    0  0.83175674940E+03  0.18306960627E+04  0.16711724815E+03  0.20177203817E+04  0.25500000920E-02 0.  1.
       -2    1    3    3    0  502 -0.83175674940E+03 -0.18306960627E+04 -0.40423953539E+03  0.20510185192E+04  0.25500000920E-02 0. -1.
</event>
<event>
 5   0  0.2730801E-07  0.4063238E+04  0.7818609E-02  0.7991910E-01
       -2   -1    0    0    0  501  0.00000000000E+00  0.00000000000E+00  0.19999784531E+04  0.19999784531E+04  0.25500000920E-02 0.  1.
        2   -1    0    0  501    0  0.00000000000E+00  0.00000000000E+00 -0.20637599993E+04  0.20637599993E+04  0.25500000920E-02 0. -1.
    10030    2    1    2    0    0  0.00000000000E+00  0.00000000000E+00 -0.63781546233E+02  0.40637384525E+04  0.40632378868E+04 0.  0.
        2    1    3    3  502    0 -0.85180756096E+03 -0.18444118548E+04 -0.25232615144E+02  0.20317647245E+04  0.25500000920E-02 0.  1.
       -2    1    3    3    0  502  0.85180756096E+03  0.18444118548E+04 -0.38548931089E+02  0.20319737279E+04  0.25500000920E-02 0. -1.
</event>
<event>
 5   0  0.8528625E-08  0.3812002E+04  0.7818609E-02  0.8043584E-01
        1   -1    0    0  501    0  0.00000000000E+00  0.00000000000E+00  0.17734102408E+04  0.17734102408E+04  0.50400001928E-02 0. -1.
       -1   -1    0    0    0  501  0.00000000000E+00  0.00000000000E+00 -0.20485052724E+04  0.20485052724E+04  0.50400001928E-02 0.  1.
    10030    2    1    2    0    0  0.00000000000E+00  0.00000000000E+00 -0.27509503159E+03  0.38219155132E+04  0.38120022184E+04 0.  0.
        3    1    3    3  502    0  0.11978672186E+03  0.14936988039E+04 -0.13184710497E+04  0.19959586405E+04  0.10100000352E+00 0.  1.
       -3    1    3    3    0  502 -0.11978672186E+03 -0.14936988039E+04  0.10433760181E+04  0.18259568727E+04  0.10100000352E+00 0. -1.
</event>
<event>
 5   0  0.2704088E-07  0.2878492E+04  0.7818609E-02  0.8279306E-01
        2   -1    0    0  501    0  0.00000000000E+00  0.00000000000E+00  0.14448551129E+04  0.14448551129E+04  0.25500000920E-02 0. -1.
       -2   -1    0    0    0  501  0.00000000000E+00  0.00000000000E+00 -0.14336587549E+04  0.14336587549E+04  0.25500000920E-02 0.  1.
    10030    2    1    2    0    0  0.00000000000E+00  0.00000000000E+00  0.11196357935E+02  0.28785138678E+04  0.28784920929E+04 0.  0.
        5    1    3    3  502    0  0.56679637762E+03 -0.75256867690E+03 -0.10824308901E+04  0.14350249019E+04  0.46999998093E+01 0.  1.
       -5    1    3    3    0  502 -0.56679637762E+03  0.75256867690E+03  0.10936272480E+04  0.14434889659E+04  0.46999998093E+01 0. -1.
</event>
<event>
 5   0  0.8528625E-08  0.2999706E+04  0.7818609E-02  0.8243815E-01
       -1   -1    0    0    0  501  0.00000000000E+00  0.00000000000E+00  0.96128391902E+03  0.96128391903E+03  0.50400001928E-02 0.  1.
        1   -1    0    0  501    0  0.00000000000E+00  0.00000000000E+00 -0.23401609497E+04  0.23401609497E+04  0.50400001928E-02 0. -1.
    10030    2    1    2    0    0  0.00000000000E+00  0.00000000000E+00 -0.13788770306E+04  0.33014448687E+04  0.29997060448E+04 0.  0.
        3    1    3    3  502    0  0.92397816752E+03 -0.11596115872E+04 -0.44058749435E+03  0.15467876511E+04  0.10100000352E+00 0.  1.
       -3    1    3    3    0  502 -0.92397816752E+03  0.11596115872E+04 -0.93828953630E+03  0.17546572176E+04  0.10100000352E+00 0. -1.
</event>
<event>
 5   0  0.2730801E-07  0.4009187E+04  0.7818609E-02  0.8002696E-01
        2   -1    0    0  501    0  0.00000000000E+00  0.00000000000E+00  0.24599586960E+04  0.24599586960E+04  0.25500000920E-02 0. -1.
       -2   -1    0    0    0  501  0.00000000000E+00  0.00000000000E+00 -0.16335210591E+04  0.16335210591E+04  0.25500000920E-02 0.  1.
    10030    2    1    2    0    0  0.00000000000E+00  0.00000000000E+00  0.82643763691E+03  0.40934797551E+04  0.40091866180E+04 0.  0.
        2    1    3    3  502    0 -0.90119419939E+03  0.11477320063E+04  0.18165078600E+04  0.23300516193E+04  0.25500000920E-02 0. -1.
       -2    1    3    3    0  502  0.90119419939E+03 -0.11477320063E+04 -0.99007022307E+03  0.17634281358E+04  0.25500000920E-02 0.  1.
</event>
<event>
 5   0  0.2730801E-07  0.3917788E+04  0.7818609E-02  0.8021340E-01
        2   -1    0    0  501    0  0.00000000000E+00  0.00000000000E+00  0.23821596289E+04  0.23821596289E+04  0.25500000920E-02 0.  1.
       -2   -1    0    0    0  501  0.00000000000E+00  0.00000000000E+00 -0.16108351943E+04  0.16108351943E+04  0.25500000920E-02 0. -1.
    10030    2    1    2    0    0  0.00000000000E+00  0.00000000000E+00  0.77132443459E+03  0.39929948231E+04  0.39177884417E+04 0.  0.
        2    1    3    3  502    0  0.60172743293E+03  0.65393554415E+03  0.21648993159E+04  0.23401915834E+04  0.25500000920E-02 0.  1.
       -2    1    3    3    0  502 -0.60172743293E+03 -0.65393554415E+03 -0.13935748813E+04  0.16528032397E+04  0.25500000920E-02 0. -1.
</event>
<event>
 5   0  0.8583262E-08  0.2966060E+04  0.7818609E-02  0.8253490E-01
       -1   -1    0    0    0  501  0.00000000000E+00  0.00000000000E+00  0.15594641068E+04  0.15594641068E+04  0.50400001928E-02 0. -1.
        1   -1    0    0  501    0  0.00000000000E+00  0.00000000000E+00 -0.14103417931E+04  0.14103417931E+04  0.50400001928E-02 0.  1.
    10030    2    1    2    0    0  0.00000000000E+00  0.00000000000E+00  0.14912231372E+03  0.29698058999E+04  0.29660596114E+04 0.  0.
        1    1    3    3  502    0  0.10492705523E+04 -0.57994215359E+03 -0.79951098559E+03  0.14410133273E+04  0.50400001928E-02 0.  1.
       -1    1    3    3    0  502 -0.10492705523E+04  0.57994215359E+03  0.94863329931E+03  0.15287925726E+04  0.50400001928E-02 0. -1.
</event>
<event>
 5   0  0.2839279E-07  0.4015860E+04  0.7818609E-02  0.8001355E-01
       -2   -1    0    0    0  501  0.00000000000E+00  0.00000000000E+00  0.13097161060E+04  0.13097161060E+04  0.25500000920E-02 0.  1.
        2   -1    0    0  501    0  0.00000000000E+00  0.00000000000E+00 -0.30783632671E+04  0.30783632671E+04  0.25500000920E-02 0. -1.
    10030    2    1    2    0    0  0.00000000000E+00  0.00000000000E+00 -0.17686471612E+04  0.43880793731E+04  0.40158595349E+04 0.  0.
        3    1    3    3  502    0  0.62101516895E+03 -0.12124096264E+04 -0.24962450023E+04  0.28437362859E+04  0.10100000352E+00 0. -1.
       -3    1    3    3    0  502 -0.62101516895E+03  0.12124096264E+04  0.72759784112E+03  0.15443430872E+04  0.10100000352E+00 0.  1.
</event>
<event>
 5   0  0.2730801E-07  0.3737633E+04  0.7818609E-02  0.8059673E-01
       -2   -1    0    0    0  501  0.00000000000E+00  0.00000000000E+00  0.14963300430E+04  0.14963300430E+04  0.25500000920E-02 0.  1.
        2   -1    0    0  501    0  0.00000000000E+00  0.00000000000E+00 -0.23340277123E+04  0.23340277123E+04  0.25500000920E-02 0. -1.
    10030    2    1    2    0    0  0.00000000000E+00  0.00000000000E+00 -0.83769766928E+03  0.38303577554E+04  0.37376333620E+04 0.  0.
        2    1    3    3  502    0 -0.87850586984E+03 -0.10332503954E+04 -0.17364737237E+04  0.22033429002E+04  0.25500000920E-02 0. -1.
       -2    1    3    3    0  502  0.87850586984E+03  0.10332503954E+04  0.89877605442E+03  0.16270148551E+04  0.25500000920E-02 0.  1.
</event>
<event>
 5   0  0.8528625E-08  0.3989316E+04  0.7818609E-02  0.8006705E-01
        1   -1    0    0  501    0  0.00000000000E+00  0.00000000000E+00  0.23944447159E+04  0.23944447159E+04  0.50400001928E-02 0. -1.
       -1   -1    0    0    0  501  0.00000000000E+00  0.00000000000E+00 -0.16616214777E+04  0.16616214777E+04  0.50400001928E-02 0.  1.
    10030    2    1    2    0    0  0.00000000000E+00  0.00000000000E+00  0.73282323825E+03  0.40560661936E+04  0.39893161154E+04 0.  0.
        3    1    3    3  502    0 -0.42744910778E+03 -0.24993543578E+03 -0.15981403157E+04  0.16730908346E+04  0.10100000352E+00 0.  1.
       -3    1    3    3    0  502  0.42744910778E+03  0.24993543578E+03  0.23309635540E+04  0.23829753591E+04  0.10100000352E+00 0. -1.
</event>
<event>
 5   0  0.8528625E-08  0.4196160E+04  0.7818609E-02  0.7966103E-01
       -1   -1    0    0    0  501  0.00000000000E+00  0.00000000000E+00  0.24631734484E+04  0.24631734484E+04  0.50400001928E-02 0. -1.
        1   -1    0    0  501    0  0.00000000000E+00  0.00000000000E+00 -0.17871010501E+04  0.17871010501E+04  0.50400001928E-02 0.  1.
    10030    2    1    2    0    0  0.00000000000E+00  0.00000000000E+00  0.67607239829E+03  0.42502744985E+04  0.41961600809E+04 0.  0.
        5    1    3    3  502    0  0.21751974559E+03  0.72429434555E+03 -0.16442408556E+04  0.18098251904E+04  0.46999998093E+01 0.  1.
       -5    1    3    3    0  502 -0.21751974559E+03 -0.72429434555E+03  0.23203132539E+04  0.24404493080E+04  0.46999998093E+01 0. -1.
</event>
<event>
 5   0  0.8528625E-08  0.4073233E+04  0.7818609E-02  0.7989934E-01
        1   -1    0    0  501    0  0.00000000000E+00  0.00000000000E+00  0.15852445909E+04  0.15852445909E+04  0.50400001928E-02 0. -1.
       -1   -1    0    0    0  501  0.00000000000E+00  0.00000000000E+00 -0.26165091391E+04  0.26165091391E+04  0.50400001928E-02 0.  1.
    10030    2    1    2    0    0  0.00000000000E+00  0.00000000000E+00 -0.10312645482E+04  0.42017537300E+04  0.40732330941E+04 0.  0.
        4    1    3    3  502    0 -0.14738224940E+04 -0.34343294826E+03 -0.19216146305E+04  0.24459565276E+04  0.12699999809E+01 0.  1.
       -4    1    3    3    0  502  0.14738224940E+04  0.34343294826E+03  0.89035008231E+03  0.17557972024E+04  0.12699999809E+01 0. -1.
</event>
<event>
 5   0  0.2839279E-07  0.3942156E+04  0.7818609E-02  0.8016318E-01
        2   -1    0    0  501    0  0.00000000000E+00  0.00000000000E+00  0.16411666185E+04  0.16411666185E+04  0.25500000920E-02 0. -1.
       -2   -1    0    0    0  501  0.00000000000E+00  0.00000000000E+00 -0.23673095796E+04  0.23673095796E+04  0.25500000920E-02 0.  1.
    10030    2    1    2    0    0  0.00000000000E+00  0.00000000000E+00 -0.72614296113E+03  0.40084761981E+04  0.39421564950E+04 0.  0.
        3    1    3    3  502    0  0.13189063254E+04  0.42157061940E+03  0.10633520029E+04  0.17458388169E+04  0.10100000352E+00 0. -1.
       -3    1    3    3    0  502 -0.13189063254E+04 -0.42157061940E+03 -0.17894949641E+04  0.22626373812E+04  0.10100000352E+00 0.  1.
</event>
<event>
 5   0  0.2730801E-07  0.3997512E+04  0.7818609E-02  0.8005049E-01
       -2   -1    0    0    0  501  0.00000000000E+00  0.00000000000E+00  0.24500835254E+04  0.24500835254E+04  0.25500000920E-02 0.  1.
        2   -1    0    0  501    0  0.00000000000E+00  0.00000000000E+00 -0.16305668624E+04  0.16305668624E+04  0.25500000920E-02 0. -1.
    10030    2    1    2    0    0  0.00000000000E+00  0.00000000000E+00  0.81951666299E+03  0.40806503877E+04  0.39975117293E+04 0.  0.
        2    1    3    3  502    0 -0.47163266302E+03 -0.18974066583E+04  0.83364828227E+03  0.21254549759E+04  0.25500000920E-02 0. -1.
       -2    1    3    3    0  502  0.47163266302E+03  0.18974066583E+04 -0.14131619285E+02  0.19551954119E+04  0.25500000920E-02 0.  1.
</event>
<event>
 5   0  0.2666978E-07  0.4170202E+04  0.7818609E-02  0.7971065E-01
        2   -1    0    0  501    0  0.00000000000E+00  0.00000000000E+00  0.22087703330E+04  0.22087703330E+04  0.25500000920E-02 0. -1.
       -2   -1    0    0    0  501  0.00000000000E+00  0.00000000000E+00 -0.19683559233E+04  0.19683559233E+04  0.25500000920E-02 0.  1.
    10030    2    1    2    0    0  0.00000000000E+00  0.00000000000E+00  0.24041440971E+03  0.41771262563E+04  0.41702019942E+04 0.  0.
        4    1    3    3  502    0 -0.81841145314E+03  0.68447873489E+03  0.19146437771E+04  0.21918418855E+04  0.12699999809E+01 0. -1.
       -4    1    3    3    0  502  0.81841145314E+03 -0.68447873489E+03 -0.16742293674E+04  0.19852843707E+04  0.12699999809E+01 0.  1.
</event>
<event>
 5   0  0.8528625E-08  0.4018068E+04  0.7818609E-02  0.8000912E-01
        1   -1    0    0  501    0  0.00000000000E+00  0.00000000000E+00  0.11475166467E+04  0.11475166467E+04  0.50400001928E-02 0. -1.
       -1   -1    0    0    0  501  0.00000000000E+00  0.00000000000E+00 -0.35173492479E+04  0.35173492479E+04  0.50400001928E-02 0.  1.
    10030    2    1    2    0    0  0.00000000000E+00  0.00000000000E+00 -0.23698326012E+04  0.46648658946E+04  0.40180676024E+04 0.  0.
        2    1    3    3  502    0 -0.94505029329E+02  0.19000366733E+04 -0.19347519733E+04  0.27133624452E+04  0.25500000920E-02 0. -1.
       -2    1    3    3    0  502  0.94505029329E+02 -0.19000366733E+04 -0.43508062783E+03  0.19515034495E+04  0.25500000920E-02 0.  1.
</event>
<event>
 5   0  0.2661693E-07  0.4002953E+04  0.7818609E-02  0.8003951E-01
        2   -1    0    0  501    0  0.00000000000E+00  0.00000000000E+00  0.28481299322E+04  0.28481299322E+04  0.25500000920E-02 0. -1.
       -2   -1    0    0    0  501  0.00000000000E+00  0.00000000000E+00 -0.14065049789E+04  0.14065049789E+04  0.25500000920E-02 0.  1.
    10030    2    1    2    0    0  0.00000000000E+00  0.00000000000E+00  0.14416249533E+04  0.42546349112E+04  0.40029533749E+04 0.  0.
        1    1    3    3  502    0 -0.44106740325E+03 -0.41128707405E+03 -0.13076376936E+04  0.14400048088E+04  0.50400001928E-02 0.  1.
       -1    1    3    3    0  502  0.44106740325E+03  0.41128707405E+03  0.27492626469E+04  0.28146301024E+04  0.50400001928E-02 0. -1.
</event>
<event>
 5   0  0.2730801E-07  0.3794425E+04  0.7818609E-02  0.8047352E-01
       -2   -1    0    0    0  501  0.00000000000E+00  0.00000000000E+00  0.14306123039E+04  0.14306123039E+04  0.25500000920E-02 0. -1.
        2   -1    0    0  501    0  0.00000000000E+00  0.00000000000E+00 -0.25159963783E+04  0.25159963783E+04  0.25500000920E-02 0.  1.
    10030    2    1    2    0    0  0.00000000000E+00  0.00000000000E+00 -0.10853840743E+04  0.39466086822E+04  0.37944250555E+04 0.  0.
        2    1    3    3  502    0  0.46059278078E+03  0.95666366351E+03 -0.21780316961E+04  0.24230503800E+04  0.25500000920E-02 0.  1.
       -2    1    3    3    0  502 -0.46059278078E+03 -0.95666366351E+03  0.10926476218E+04  0.15235583022E+04  0.25500000920E-02 0. -1.
</event>
<event>
 5   0  0.8583262E-08  0.3741277E+04  0.7818609E-02  0.8058875E-01
       -1   -1    0    0    0  501  0.00000000000E+00  0.00000000000E+00  0.16184357882E+04  0.16184357882E+04  0.50400001928E-02 0. -1.
        1   -1    0    0  501    0  0.00000000000E+00  0.00000000000E+00 -0.21621421904E+04  0.21621421905E+04  0.50400001928E-02 0.  1.
    10030    2    1    2    0    0  0.00000000000E+00  0.00000000000E+00 -0.54370640228E+03  0.37805779786E+04  0.37412769479E+04 0.  0.
        1    1    3    3  502    0  0.17266754723E+04  0.49015175987E+03 -0.80429557011E+03  0.19668625520E+04  0.50400001928E-02 0.  1.
       -1    1    3    3    0  502 -0.17266754723E+04 -0.49015175987E+03  0.26058916784E+03  0.18137154266E+04  0.50400001928E-02 0. -1.
</event>
<event>
 5   0  0.8528625E-08  0.3992428E+04  0.7818609E-02  0.8006076E-01
        1   -1    0    0  501    0  0.00000000000E+00  0.00000000000E+00  0.21235140238E+04  0.21235140238E+04  0.50400001928E-02 0.  1.
       -1   -1    0    0    0  501  0.00000000000E+00  0.00000000000E+00 -0.18765456043E+04  0.18765456043E+04  0.50400001928E-02 0. -1.
    10030    2    1    2    0    0  0.00000000000E+00  0.00000000000E+00  0.24696841943E+03  0.40000596281E+04  0.39924282872E+04 0.  0.
        5    1    3    3  502    0 -0.10158038113E+04  0.14038777809E+04  0.11163974721E+04  0.20613334550E+04  0.46999998093E+01 0.  1.
       -5    1    3    3    0  502  0.10158038113E+04 -0.14038777809E+04 -0.86942905268E+03  0.19387261732E+04  0.46999998093E+01 0. -1.
</event>
<event>
 5   0  0.8528625E-08  0.3915707E+04  0.7818609E-02  0.8021770E-01
       -1   -1    0    0    0  501  0.00000000000E+00  0.00000000000E+00  0.25596998823E+04  0.25596998823E+04  0.50400001928E-02 0. -1.
        1   -1    0    0  501    0  0.00000000000E+00  0.00000000000E+00 -0.14975151827E+04  0.14975151827E+04  0.50400001928E-02 0.  1.
    10030    2    1    2    0    0  0.00000000000E+00  0.00000000000E+00  0.10621846996E+04  0.40572150650E+04  0.39157065451E+04 0.  0.
        4    1    3    3  502    0  0.97186789814E+03 -0.93079332002E+03  0.20045545841E+04  0.24143620502E+04  0.12699999809E+01 0. -1.
       -4    1    3    3    0  502 -0.97186789814E+03  0.93079332002E+03 -0.94236988452E+03  0.16428530148E+04  0.12699999809E+01 0.  1.
</event>
<event>
 5   0  0.8528625E-08  0.2881426E+04  0.7818609E-02  0.8278425E-01
        1   -1    0    0  501    0  0.00000000000E+00  0.00000000000E+00  0.98128457480E+03  0.98128457481E+03  0.50400001928E-02 0.  1.
       -1   -1    0    0    0  501  0.00000000000E+00  0.00000000000E+00 -0.21152422203E+04  0.21152422204E+04  0.50400001928E-02 0. -1.
    10030    2    1    2    0    0  0.00000000000E+00  0.00000000000E+00 -0.11339576456E+04  0.30965267952E+04  0.28814264265E+04 0.  0.
        3    1    3    3  502    0  0.29564153254E+03 -0.11301047252E+04  0.33924798613E+03  0.12164003502E+04  0.10100000352E+00 0.  1.
       -3    1    3    3    0  502 -0.29564153254E+03  0.11301047252E+04 -0.14732056317E+04  0.18801264450E+04  0.10100000352E+00 0. -1.
</event>
<event>
 5   0  0.2839279E-07  0.4009899E+04  0.7818609E-02  0.8002553E-01
        2   -1    0    0  501    0  0.00000000000E+00  0.00000000000E+00  0.18032948398E+04  0.18032948398E+04  0.25500000920E-02 0.  1.
       -2   -1    0    0    0  501  0.00000000000E+00  0.00000000000E+00 -0.22291544346E+04  0.22291544346E+04  0.25500000920E-02 0. -1.
    10030    2    1    2    0    0  0.00000000000E+00  0.00000000000E+00 -0.42585959476E+03  0.40324492744E+04  0.40098990956E+04 0.  0.
        3    1    3    3  502    0 -0.11314290123E+04  0.15321707073E+04 -0.84266540675E+03  0.20827298635E+04  0.10100000352E+00 0. -1.
       -3    1    3    3    0  502  0.11314290123E+04 -0.15321707073E+04  0.41680581199E+03  0.19497194110E+04  0.10100000352E+00 0.  1.
</event>
<event>
 5   0  0.8528625E-08  0.3226227E+04  0.7818609E-02  0.8181925E-01
       -1   -1    0    0    0  501  0.00000000000E+00  0.00000000000E+00  0.14154000538E+04  0.14154000538E+04  0.50400001928E-02 0. -1.
        1   -1    0    0  501    0  0.00000000000E+00  0.00000000000E+00 -0.18384445748E+04  0.18384445749E+04  0.50400001928E-02 0.  1.
    10030    2    1    2    0    0  0.00000000000E+00  0.00000000000E+00 -0.42304452104E+03  0.32538446287E+04  0.32262266196E+04 0.  0.
        4    1    3    3  502    0 -0.52669969091E+03 -0.54876715793E+01 -0.17492678466E+04  0.18268503746E+04  0.12699999809E+01 0.  1.
       -4    1    3    3    0  502  0.52669969091E+03  0.54876715793E+01  0.13262233256E+04  0.14269942541E+04  0.12699999809E+01 0. -1.
</event>
<event>
 5   0  0.2661693E-07  0.3020377E+04  0.7818609E-02  0.8237936E-01
        2   -1    0    0  501    0  0.00000000000E+00  0.00000000000E+00  0.19245606195E+04  0.19245606195E+04  0.25500000920E-02 0. -1.
       -2   -1    0    0    0  501  0.00000000000E+00  0.00000000000E+00 -0.11850341188E+04  0.11850341188E+04  0.25500000920E-02 0.  1.
    10030    2    1    2    0    0  0.00000000000E+00  0.00000000000E+00  0.73952650068E+03  0.31095947383E+04  0.30203774584E+04 0.  0.
        1    1    3    3  502    0  0.65330871290E+03 -0.24882725341E+03  0.17479390962E+04  0.18825563366E+04  0.50400001928E-02 0. -1.
       -1    1    3    3    0  502 -0.65330871290E+03  0.24882725341E+03 -0.10084125955E+04  0.12270384017E+04  0.50400001928E-02 0.  1.
</event>
<event>
 5   0  0.8528625E-08  0.3710365E+04  0.7818609E-02  0.8065669E-01
        1   -1    0    0  501    0  0.00000000000E+00  0.00000000000E+00  0.15411992502E+04  0.15411992502E+04  0.50400001928E-02 0. -1.
       -1   -1    0    0    0  501  0.00000000000E+00  0.00000000000E+00 -0.22331324471E+04  0.22331324471E+04  0.50400001928E-02 0.  1.
    10030    2    1    2    0    0  0.00000000000E+00  0.00000000000E+00 -0.69193319691E+03  0.37743316973E+04  0.37103649702E+04 0.  0.
        2    1    3    3  502    0 -0.16353936056E+04 -0.29180370411E+03 -0.11860617638E+04  0.20411771492E+04  0.25500000920E-02 0.  1.
       -2    1    3    3    0  502  0.16353936056E+04  0.29180370411E+03  0.49412856686E+03  0.17331545481E+04  0.25500000920E-02 0. -1.
</event>
<event>
 5   0  0.8528625E-08  0.4201786E+04  0.7818609E-02  0.7965033E-01
        1   -1    0    0  501    0  0.00000000000E+00  0.00000000000E+00  0.25699911841E+04  0.25699911841E+04  0.50400001928E-02 0.  1.
       -1   -1    0    0    0  501  0.00000000000E+00  0.00000000000E+00 -0.17174187432E+04  0.17174187432E+04  0.50400001928E-02 0. -1.
    10030    2    1    2    0    0  0.00000000000E+00  0.00000000000E+00  0.85257244097E+03  0.42874099273E+04  0.42017858248E+04 0.  0.
        3    1    3    3  502    0  0.59769992930E+03  0.11448959672E+04 -0.12645017338E+04  0.18074835065E+04  0.10100000352E+00 0. -1.
       -3    1    3    3    0  502 -0.59769992930E+03 -0.11448959672E+04  0.21170741748E+04  0.24799264209E+04  0.10100000352E+00 0.  1.
</event>
<event>
 5   0  0.2666978E-07  0.4153410E+04  0.7818609E-02  0.7974294E-01
       -2   -1    0    0    0  501  0.00000000000E+00  0.00000000000E+00  0.15366770169E+04  0.15366770169E+04  0.25500000920E-02 0.  1.
        2   -1    0    0  501    0  0.00000000000E+00  0.00000000000E+00 -0.28065125330E+04  0.28065125330E+04  0.25500000920E-02 0. -1.
    10030    2    1    2    0    0  0.00000000000E+00  0.00000000000E+00 -0.12698355162E+04  0.43431895499E+04  0.41534098315E+04 0.  0.
        4    1    3    3  502    0  0.68121458458E+02  0.19988968008E+04 -0.50383370255E+02  0.20006921428E+04  0.12699999809E+01 0.  1.
       -4    1    3    3    0  502 -0.68121458458E+02 -0.19988968008E+04 -0.12194521459E+04  0.23424974071E+04  0.12699999809E+01 0. -1.
</event>
<event>
 5   0  0.8528625E-08  0.3744055E+04  0.7818609E-02  0.8058268E-01
       -1   -1    0    0    0  501  0.00000000000E+00  0.00000000000E+00  0.17456549460E+04  0.17456549460E+04  0.50400001928E-02 0. -1.
        1   -1    0    0  501    0  0.00000000000E+00  0.00000000000E+00 -0.20075480478E+04  0.20075480478E+04  0.50400001928E-02 0.  1.
    10030    2    1    2    0    0  0.00000000000E+00  0.00000000000E+00 -0.26189310179E+03  0.37532029938E+04  0.37440545824E+04 0.  0.
        4    1    3    3  502    0 -0.70475345108E+03  0.33277800364E+02  0.16072741260E+04  0.17553109604E+04  0.12699999809E+01 0. -1.
       -4    1    3    3    0  502  0.70475345108E+03 -0.33277800364E+02 -0.18691672278E+04  0.19978920334E+04  0.12699999809E+01 0.  1.
</event>
<event>
 5   0  0.2730801E-07  0.4052039E+04  0.7818609E-02  0.7994130E-01
       -2   -1    0    0    0  501  0.00000000000E+00  0.00000000000E+00  0.19045020582E+04  0.19045020582E+04  0.25500000920E-02 0.  1.
        2   -1    0    0  501    0  0.00000000000E+00  0.00000000000E+00 -0.21552900576E+04  0.21552900576E+04  0.25500000920E-02 0. -1.
    10030    2    1    2    0    0  0.00000000000E+00  0.00000000000E+00 -0.25078799939E+03  0.40597921158E+04  0.40520386724E+04 0.  0.
        2    1    3    3  502    0 -0.17296737540E+04 -0.10451989967E+04  0.18205447480E+02  0.20210254022E+04  0.25500000920E-02 0.  1.
       -2    1    3    3    0  502  0.17296737540E+04  0.10451989967E+04 -0.26899344687E+03  0.20387667136E+04  0.25500000920E-02 0. -1.
</event>
<event>
 5   0  0.8528625E-08  0.3929831E+04  0.7818609E-02  0.8018853E-01
        1   -1    0    0  501    0  0.00000000000E+00  0.00000000000E+00  0.28516726628E+04  0.28516726628E+04  0.50400001928E-02 0.  1.
       -1   -1    0    0    0  501  0.00000000000E+00  0.00000000000E+00 -0.13539048422E+04  0.13539048422E+04  0.50400001928E-02 0. -1.
    10030    2    1    2    0    0  0.00000000000E+00  0.00000000000E+00  0.14977678206E+04  0.42055775050E+04  0.39298312567E+04 0.  0.
        5    1    3    3  502    0  0.75123209137E+03 -0.85731456896E+03  0.24616645723E+04  0.27127757891E+04  0.46999998093E+01 0.  1.
       -5    1    3    3    0  502 -0.75123209137E+03  0.85731456896E+03 -0.96389675169E+03  0.14928017160E+04  0.46999998093E+01 0. -1.
</event>
<event>
 5   0  0.2839279E-07  0.3904923E+04  0.7818609E-02  0.8024006E-01
        2   -1    0    0  501    0  0.00000000000E+00  0.00000000000E+00  0.29460999721E+04  0.29460999721E+04  0.25500000920E-02 0. -1.
       -2   -1    0    0    0  501  0.00000000000E+00  0.00000000000E+00 -0.12939498090E+04  0.12939498090E+04  0.25500000920E-02 0.  1.
    10030    2    1    2    0    0  0.00000000000E+00  0.00000000000E+00  0.16521501631E+04  0.42400497812E+04  0.39049227887E+04 0.  0.
        3    1    3    3  502    0 -0.12426885802E+04 -0.12712417498E+04 -0.50536796578E+02  0.17784500195E+04  0.10100000352E+00 0. -1.
       -3    1    3    3    0  502  0.12426885802E+04  0.12712417498E+04  0.17026869597E+04  0.24615997617E+04  0.10100000352E+00 0.  1.
</event>
<event>
 5   0  0.8528625E-08  0.3998694E+04  0.7818609E-02  0.8004810E-01
       -1   -1    0    0    0  501  0.00000000000E+00  0.00000000000E+00  0.18528193767E+04  0.18528193767E+04  0.50400001928E-02 0.  1.
        1   -1    0    0  501    0  0.00000000000E+00  0.00000000000E+00 -0.21574627713E+04  0.21574627713E+04  0.50400001928E-02 0. -1.
    10030    2    1    2    0    0  0.00000000000E+00  0.00000000000E+00 -0.30464339459E+03  0.40102821480E+04  0.39986942005E+04 0.  0.
        2    1    3    3  502    0  0.11111111937E+04  0.16313095640E+04  0.16742797271E+03  0.19808511060E+04  0.25500000920E-02 0.  1.
       -2    1    3    3    0  502 -0.11111111937E+04 -0.16313095640E+04 -0.47207136730E+03  0.20294310420E+04  0.25500000920E-02 0. -1.
</event>
<event>
 5   0  0.2730801E-07  0.4025171E+04  0.7818609E-02  0.7999488E-01
       -2   -1    0    0    0  501  0.00000000000E+00  0.00000000000E+00  0.14169938589E+04  0.14169938589E+04  0.25500000920E-02 0.  1.
        2   -1    0    0  501    0  0.00000000000E+00  0.00000000000E+00 -0.28585172121E+04  0.28585172121E+04  0.25500000920E-02 0. -1.
    10030    2    1    2    0    0  0.00000000000E+00  0.00000000000E+00 -0.14415233532E+04  0.42755110710E+04  0.40251714673E+04 0.  0.
        2    1    3    3  502    0  0.97778358841E+03 -0.51569240413E+03 -0.25071747561E+04  0.27400592437E+04  0.25500000920E-02 0. -1.
       -2    1    3    3    0  502 -0.97778358841E+03  0.51569240413E+03  0.10656514029E+04  0.15354518273E+04  0.25500000920E-02 0.  1.
</event>
<event>
 5   0  0.2661693E-07  0.3676515E+04  0.7818609E-02  0.8073186E-01
       -2   -1    0    0    0  501  0.00000000000E+00  0.00000000000E+00  0.25605810950E+04  0.25605810950E+04  0.25500000920E-02 0.  1.
        2   -1    0    0  501    0  0.00000000000E+00  0.00000000000E+00 -0.13196966404E+04  0.13196966404E+04  0.25500000920E-02 0. -1.
    10030    2    1    2    0    0  0.00000000000E+00  0.00000000000E+00  0.12408844546E+04  0.38802777355E+04  0.36765148000E+04 0.  0.
        1    1    3    3  502    0  0.10795737800E+03 -0.17765709065E+04  0.11056283746E+04  0.20952978509E+04  0.50400001928E-02 0.  1.
       -1    1    3    3    0  502 -0.10795737800E+03  0.17765709065E+04  0.13525607999E+03  0.17849798846E+04  0.50400001928E-02 0. -1.
</event>
<event>
 5   0  0.8528625E-08  0.3677259E+04  0.7818609E-02  0.8073020E-01
        1   -1    0    0  501    0  0.00000000000E+00  0.00000000000E+00  0.22585845670E+04  0.22585845670E+04  0.50400001928E-02 0.  1.
       -1   -1    0    0    0  501  0.00000000000E+00  0.00000000000E+00 -0.14967594895E+04  0.14967594895E+04  0.50400001928E-02 0. -1.
    10030    2    1    2    0    0  0.00000000000E+00  0.00000000000E+00  0.76182507748E+03  0.37553440565E+04  0.36772586982E+04 0.  0.
        3    1    3    3  502    0  0.91840955801E+03 -0.85967663560E+03 -0.98847055529E+03  0.15998731459E+04  0.10100000352E+00 0. -1.
       -3    1    3    3    0  502 -0.91840955801E+03  0.85967663560E+03  0.17502956328E+04  0.21554709106E+04  0.10100000352E+00 0.  1.
</event>
<event>
 5   0  0.8528625E-08  0.3606315E+04  0.7818609E-02  0.8089047E-01
       -1   -1    0    0    0  501  0.00000000000E+00  0.00000000000E+00  0.14673197809E+04  0.14673197809E+04  0.50400001928E-02 0. -1.
        1   -1    0    0  501    0  0.00000000000E+00  0.00000000000E+00 -0.22158608044E+04  0.22158608044E+04  0.50400001928E-02 0.  1.
    10030    2    1    2    0    0  0.00000000000E+00  0.00000000000E+00 -0.74854102349E+03  0.36831805854E+04  0.36063146785E+04 0.  0.
        4    1    3    3  502    0  0.61549269235E+03 -0.16948551616E+04 -0.37741906939E+03  0.18422301811E+04  0.12699999809E+01 0.  1.
       -4    1    3    3    0  502 -0.61549269235E+03  0.16948551616E+04 -0.37112195411E+03  0.18409504043E+04  0.12699999809E+01 0. -1.
</event>
<event>
 5   0  0.2730801E-07  0.3981612E+04  0.7818609E-02  0.8008266E-01
       -2   -1    0    0    0  501  0.00000000000E+00  0.00000000000E+00  0.24952238276E+04  0.24952238276E+04  0.25500000920E-02 0. -1.
        2   -1    0    0  501    0  0.00000000000E+00  0.00000000000E+00 -0.15883575219E+04  0.15883575219E+04  0.25500000920E-02 0.  1.
    10030    2    1    2    0    0  0.00000000000E+00  0.00000000000E+00  0.90686630565E+03  0.40835813495E+04  0.39816115006E+04 0.  0.
        2    1    3    3  502    0 -0.37553199043E+03  0.14319588907E+04 -0.91173723298E+03  0.17386187973E+04  0.25500000920E-02 0.  1.
       -2    1    3    3    0  502  0.37553199043E+03 -0.14319588907E+04  0.18186035386E+04  0.23449625522E+04  0.25500000920E-02 0. -1.
</event>
<event>
 5   0  0.2666978E-07  0.3410872E+04  0.7818609E-02  0.8135243E-01
       -2   -1    0    0    0  501  0.00000000000E+00  0.00000000000E+00  0.16228831896E+04  0.16228831896E+04  0.25500000920E-02 0.  1.
        2   -1    0    0  501    0  0.00000000000E+00  0.00000000000E+00 -0.17921880864E+04  0.17921880864E+04  0.25500000920E-02 0. -1.
    10030    2    1    2    0    0  0.00000000000E+00  0.00000000000E+00 -0.16930489681E+03  0.34150712760E+04  0.34108719812E+04 0.  0.
        4    1    3    3  502    0 -0.15161012705E+04  0.61713291680E+03 -0.56387958809E+03  0.17312937077E+04  0.12699999809E+01 0. -1.
       -4    1    3    3    0  502  0.15161012705E+04 -0.61713291680E+03  0.39457469128E+03  0.16837775683E+04  0.12699999809E+01 0.  1.
</event>
<event>
 5   0  0.2839279E-07  0.3817675E+04  0.7818609E-02  0.8042373E-01
        2   -1    0    0  501    0  0.00000000000E+00  0.00000000000E+00  0.14421919907E+04  0.14421919907E+04  0.25500000920E-02 0.  1.
       -2   -1    0    0    0  501  0.00000000000E+00  0.00000000000E+00 -0.25264735460E+04  0.25264735460E+04  0.25500000920E-02 0. -1.
    10030    2    1    2    0    0  0.00000000000E+00  0.00000000000E+00 -0.10842815552E+04  0.39686655367E+04  0.38176746393E+04 0.  0.
        3    1    3    3  502    0  0.12384065963E+04  0.81424466229E+03  0.70835447888E+03  0.16426841893E+04  0.10100000352E+00 0.  1.
       -3    1    3    3    0  502 -0.12384065963E+04 -0.81424466229E+03 -0.17926360341E+04  0.23259813474E+04  0.10100000352E+00 0. -1.
</event>
<event>
 5   0  0.2704088E-07  0.3788707E+04  0.7818609E-02  0.8048583E-01
       -2   -1    0    0    0  501  0.00000000000E+00  0.00000000000E+00  0.13079839211E+04  0.13079839211E+04  0.25500000920E-02 0. -1.
        2   -1    0    0  501    0  0.00000000000E+00  0.00000000000E+00 -0.27435924789E+04  0.27435924789E+04  0.25500000920E-02 0.  1.
    10030    2    1    2    0    0  0.00000000000E+00  0.00000000000E+00 -0.14356085578E+04  0.40515763999E+04  0.37887068233E+04 0.  0.
        5    1    3    3  502    0  0.75149742535E+03  0.16619972962E+03  0.11332413737E+04  0.13699010298E+04  0.46999998093E+01 0. -1.
       -5    1    3    3    0  502 -0.75149742535E+03 -0.16619972962E+03 -0.25688499315E+04  0.26816753701E+04  0.46999998093E+01 0.  1.
</event>
<event>
 5   0  0.8528625E-08  0.4014172E+04  0.7818609E-02  0.8001694E-01
        1   -1    0    0  501    0  0.00000000000E+00  0.00000000000E+00  0.28471071582E+04  0.28471071582E+04  0.50400001928E-02 0. -1.
       -1   -1    0    0    0  501  0.00000000000E+00  0.00000000000E+00 -0.14149076763E+04  0.14149076763E+04  0.50400001928E-02 0.  1.
    10030    2    1    2    0    0  0.00000000000E+00  0.00000000000E+00  0.14321994820E+04  0.42620148345E+04  0.40141717817E+04 0.  0.
        4    1    3    3  502    0  0.11313909367E+04 -0.94414326834E+03 -0.73073178102E+03  0.16448168626E+04  0.12699999809E+01 0.  1.
       -4    1    3    3    0  502 -0.11313909367E+04  0.94414326834E+03  0.21629312630E+04  0.26171979719E+04  0.12699999809E+01 0. -1.
</event>
<event>
 5   0  0.8528625E-08  0.4262586E+04  0.7818609E-02  0.7953573E-01
       -1   -1    0    0    0  501  0.00000000000E+00  0.00000000000E+00  0.22673941107E+04  0.22673941107E+04  0.50400001928E-02 0.  1.
        1   -1    0    0  501    0  0.00000000000E+00  0.00000000000E+00 -0.20033616026E+04  0.20033616026E+04  0.50400001928E-02 0. -1.
    10030    2    1    2    0    0  0.00000000000E+00  0.00000000000E+00  0.26403250807E+03  0.42707557134E+04  0.42625862100E+04 0.  0.
        5    1    3    3  502    0  0.19770579475E+04  0.27787427947E+03  0.87937882982E+03  0.21815823293E+04  0.46999998093E+01 0.  1.
       -5    1    3    3    0  502 -0.19770579475E+04 -0.27787427947E+03 -0.61534632175E+03  0.20891733841E+04  0.46999998093E+01 0. -1.
</event>
<event>
 5   0  0.8583262E-08  0.4001799E+04  0.7818609E-02  0.8004184E-01
        1   -1    0    0  501    0  0.00000000000E+00  0.00000000000E+00  0.20649302940E+04  0.20649302940E+04  0.50400001928E-02 0. -1.
       -1   -1    0    0    0  501  0.00000000000E+00  0.00000000000E+00 -0.19388540336E+04  0.19388540336E+04  0.50400001928E-02 0.  1.
    10030    2    1    2    0    0  0.00000000000E+00  0.00000000000E+00  0.12607626044E+03  0.40037843277E+04  0.40017988104E+04 0.  0.
        1    1    3    3  502    0  0.48130290799E+03 -0.12016714630E+04 -0.14634749696E+04  0.19538233751E+04  0.50400001928E-02 0.  1.
       -1    1    3    3    0  502 -0.48130290799E+03  0.12016714630E+04  0.15895512300E+04  0.20499609526E+04  0.50400001928E-02 0. -1.
</event>
<event>
 5   0  0.2666978E-07  0.3985771E+04  0.7818609E-02  0.8007423E-01
       -2   -1    0    0    0  501  0.00000000000E+00  0.00000000000E+00  0.23734292930E+04  0.23734292930E+04  0.25500000920E-02 0.  1.
        2   -1    0    0  501    0  0.00000000000E+00  0.00000000000E+00 -0.16733563737E+04  0.16733563737E+04  0.25500000920E-02 0. -1.
    10030    2    1    2    0    0  0.00000000000E+00  0.00000000000E+00  0.70007291936E+03  0.40467856667E+04  0.39857712102E+04 0.  0.
        4    1    3    3  502    0 -0.16350040310E+04  0.56544012556E+02 -0.80543408994E+03  0.18235024247E+04  0.12699999809E+01 0. -1.
       -4    1    3    3    0  502  0.16350040310E+04 -0.56544012556E+02  0.15055070093E+04  0.22232832421E+04  0.12699999809E+01 0.  1.
</event>
<event>
 5   0  0.2666978E-07  0.3344061E+04  0.7818609E-02  0.8151774E-01
       -2   -1    0    0    0  501  0.00000000000E+00  0.00000000000E+00  0.11721891801E+04  0.11721891801E+04  0.25500000920E-02 0.  1.
        2   -1    0    0  501    0  0.00000000000E+00  0.00000000000E+00 -0.23850131547E+04  0.23850131547E+04  0.25500000920E-02 0. -1.
    10030    2    1    2    0    0  0.00000000000E+00  0.00000000000E+00 -0.12128239746E+04  0.35572023348E+04  0.33440613717E+04 0.  0.
        4    1    3    3  502    0 -0.37149224111E+03 -0.12498239782E+03 -0.23354538020E+04  0.23681159514E+04  0.12699999809E+01 0. -1.
       -4    1    3    3    0  502  0.37149224111E+03  0.12498239782E+03  0.11226298274E+04  0.11890863834E+04  0.12699999809E+01 0.  1.
</event>
<event>
 5   0  0.2730801E-07  0.4014004E+04  0.7818609E-02  0.8001727E-01
       -2   -1    0    0    0  501  0.00000000000E+00  0.00000000000E+00  0.25635216837E+04  0.25635216837E+04  0.25500000920E-02 0. -1.
        2   -1    0    0  501    0  0.00000000000E+00  0.00000000000E+00 -0.15712980807E+04  0.15712980807E+04  0.25500000920E-02 0.  1.
    10030    2    1    2    0    0  0.00000000000E+00  0.00000000000E+00  0.99222360307E+03  0.41348197644E+04  0.40140038372E+04 0.  0.
        2    1    3    3  502    0 -0.11422355443E+04 -0.14314240049E+04  0.13420353894E+04  0.22704043047E+04  0.25500000920E-02 0. -1.
       -2    1    3    3    0  502  0.11422355443E+04  0.14314240049E+04 -0.34981178633E+03  0.18644154597E+04  0.25500000920E-02 0.  1.
</event>
<event>
 5   0  0.8528625E-08  0.3979836E+04  0.7818609E-02  0.8008627E-01
       -1   -1    0    0    0  501  0.00000000000E+00  0.00000000000E+00  0.25902717312E+04  0.25902717312E+04  0.50400001928E-02 0. -1.
        1   -1    0    0  501    0  0.00000000000E+00  0.00000000000E+00 -0.15287100656E+04  0.15287100656E+04  0.50400001928E-02 0.  1.
    10030    2    1    2    0    0  0.00000000000E+00  0.00000000000E+00  0.10615616656E+04  0.41189817968E+04  0.39798364127E+04 0.  0.
        2    1    3    3  502    0 -0.36693483553E+03 -0.20900428730E+03  0.25433641180E+04  0.25781824998E+04  0.25500000920E-02 0. -1.
       -2    1    3    3    0  502  0.36693483553E+03  0.20900428730E+03 -0.14818024524E+04  0.15407992969E+04  0.25500000920E-02 0.  1.
</event>
<event>
 5   0  0.8528625E-08  0.4065678E+04  0.7818609E-02  0.7991427E-01
       -1   -1    0    0    0  501  0.00000000000E+00  0.00000000000E+00  0.15215901763E+04  0.15215901763E+04  0.50400001928E-02 0. -1.
        1   -1    0    0  501    0  0.00000000000E+00  0.00000000000E+00 -0.27158650006E+04  0.27158650006E+04  0.50400001928E-02 0.  1.
    10030    2    1    2    0    0  0.00000000000E+00  0.00000000000E+00 -0.11942748243E+04  0.42374551769E+04  0.40656775599E+04 0.  0.
        3    1    3    3  502    0 -0.56987626594E+03  0.12945668437E+04 -0.21188845106E+04  0.25476133637E+04  0.10100000352E+00 0.  1.
       -3    1    3    3    0  502  0.56987626594E+03 -0.12945668437E+04  0.92460968637E+03  0.16898418132E+04  0.10100000352E+00 0. -1.
</event>
<event>
 5   0  0.2704088E-07  0.3926953E+04  0.7818609E-02  0.8019447E-01
       -2   -1    0    0    0  501  0.00000000000E+00  0.00000000000E+00  0.14586524160E+04  0.14586524160E+04  0.25500000920E-02 0.  1.
        2   -1    0    0  501    0  0.00000000000E+00  0.00000000000E+00 -0.26430143281E+04  0.26430143281E+04  0.25500000920E-02 0. -1.
    10030    2    1    2    0    0  0.00000000000E+00  0.00000000000E+00 -0.11843619121E+04  0.41016667442E+04  0.39269526278E+04 0.  0.
        5    1    3    3  502    0 -0.29564610248E+03  0.16659209136E+04  0.44839530316E+03  0.17503655465E+04  0.46999998093E+01 0.  1.
       -5    1    3    3    0  502  0.29564610248E+03 -0.16659209136E+04 -0.16327572152E+04  0.23513011977E+04  0.46999998093E+01 0. -1.
</event>
<event>
 5   0  0.2661693E-07  0.3791542E+04  0.7818609E-02  0.8047972E-01
       -2   -1    0    0    0  501  0.00000000000E+00  0.00000000000E+00  0.21654724717E+04  0.21654724717E+04  0.25500000920E-02 0. -1.
        2   -1    0    0  501    0  0.00000000000E+00  0.00000000000E+00 -0.16596599180E+04  0.16596599180E+04  0.25500000920E-02 0.  1.
    10030    2    1    2    0    0  0.00000000000E+00  0.00000000000E+00  0.50581255376E+03  0.38251323897E+04  0.37915420951E+04 0.  0.
        1    1    3    3  502    0  0.58821501339E+03  0.54068427381E+03  0.19873262301E+04  0.21419154817E+04  0.50400001928E-02 0. -1.
       -1    1    3    3    0  502 -0.58821501339E+03 -0.54068427381E+03 -0.14815136764E+04  0.16832169079E+04  0.50400001928E-02 0.  1.
</event>
<event>
 5   0  0.8528625E-08  0.3938073E+04  0.7818609E-02  0.8017157E-01
       -1   -1    0    0    0  501  0.00000000000E+00  0.00000000000E+00  0.14622370235E+04  0.14622370235E+04  0.50400001928E-02 0.  1.
        1   -1    0    0  501    0  0.00000000000E+00  0.00000000000E+00 -0.26514878913E+04  0.26514878913E+04  0.50400001928E-02 0. -1.
    10030    2    1    2    0    0  0.00000000000E+00  0.00000000000E+00 -0.11892508678E+04  0.41137249148E+04  0.39380725041E+04 0.  0.
        4    1    3    3  502    0 -0.15767774945E+04  0.93254759754E+03 -0.13487901034E+04  0.22748865125E+04  0.12699999809E+01 0. -1.
       -4    1    3    3    0  502  0.15767774945E+04 -0.93254759754E+03  0.15953923554E+03  0.18388384022E+04  0.12699999809E+01 0.  1.
</event>
<event>
 5   0  0.8528625E-08  0.3184716E+04  0.7818609E-02  0.8192865E-01
       -1   -1    0    0    0  501  0.00000000000E+00  0.00000000000E+00  0.18886280942E+04  0.18886280942E+04  0.50400001928E-02 0.  1.
        1   -1    0    0  501    0  0.00000000000E+00  0.00000000000E+00 -0.13425641966E+04  0.13425641966E+04  0.50400001928E-02 0. -1.
    10030    2    1    2    0    0  0.00000000000E+00  0.00000000000E+00  0.54606389759E+03  0.32311922908E+04  0.31847162888E+04 0.  0.
        4    1    3    3  502    0 -0.37011266765E+03 -0.15374971036E+04  0.46208998940E+03  0.16475465096E+04  0.12699999809E+01 0.  1.
       -4    1    3    3    0  502  0.37011266765E+03  0.15374971036E+04  0.83973908184E+02  0.15836457812E+04  0.12699999809E+01 0. -1.
</event>
<event>
 5   0  0.8528625E-08  0.3997517E+04  0.7818609E-02  0.8005048E-01
       -1   -1    0    0    0  501  0.00000000000E+00  0.00000000000E+00  0.21574782929E+04  0.21574782929E+04  0.50400001928E-02 0.  1.
        1   -1    0    0  501    0  0.00000000000E+00  0.00000000000E+00 -0.18517151447E+04  0.18517151447E+04  0.50400001928E-02 0. -1.
    10030    2    1    2    0    0  0.00000000000E+00  0.00000000000E+00  0.30576314815E+03  0.40091934376E+04  0.39975168439E+04 0.  0.
        5    1    3    3  502    0 -0.10210945919E+04 -0.10669062081E+04  0.15036973906E+04  0.21076173645E+04  0.46999998093E+01 0.  1.
       -5    1    3    3    0  502  0.10210945919E+04  0.10669062081E+04 -0.11979342425E+04  0.19015760731E+04  0.46999998093E+01 0. -1.
</event>
<event>
 5   0  0.2666978E-07  0.3981018E+04  0.7818609E-02  0.8008387E-01
        2   -1    0    0  501    0  0.00000000000E+00  0.00000000000E+00  0.27126375988E+04  0.27126375988E+04  0.25500000920E-02 0.  1.
       -2   -1    0    0    0  501  0.00000000000E+00  0.00000000000E+00 -0.14606174074E+04  0.14606174074E+04  0.25500000920E-02 0. -1.
    10030    2    1    2    0    0  0.00000000000E+00  0.00000000000E+00  0.12520201914E+04  0.41732550062E+04  0.39810178079E+04 0.  0.
        4    1    3    3  502    0  0.10590839727E+03  0.15844876058E+04  0.18840901193E+04  0.24640646809E+04  0.12699999809E+01 0.  1.
       -4    1    3    3    0  502 -0.10590839727E+03 -0.15844876058E+04 -0.63206992785E+03  0.17091903253E+04  0.12699999809E+01 0. -1.
</event>
<event>
 5   0  0.8528625E-08  0.3742823E+04  0.7818609E-02  0.8058538E-01
       -3   -1    0    0    0  501  0.00000000000E+00  0.00000000000E+00  0.21131704793E+04  0.21131704817E+04  0.10100000352E+00 0.  1.
        3   -1    0    0  501    0  0.00000000000E+00  0.00000000000E+00 -0.16573108567E+04  0.16573108598E+04  0.10100000352E+00 0. -1.
    10030    2    1    2    0    0  0.00000000000E+00  0.00000000000E+00  0.45585962262E+03  0.37704813415E+04  0.37428226716E+04 0.  0.
        4    1    3    3  502    0 -0.44798844893E+03 -0.34990007419E+03 -0.15682365952E+04  0.16680801371E+04  0.12699999809E+01 0. -1.
       -4    1    3    3    0  502  0.44798844893E+03  0.34990007419E+03  0.20240962178E+04  0.21024012044E+04  0.12699999809E+01 0.  1.
</event>
<event>
 5   0  0.2839279E-07  0.4021010E+04  0.7818609E-02  0.8000322E-01
       -2   -1    0    0    0  501  0.00000000000E+00  0.00000000000E+00  0.22850671354E+04  0.22850671354E+04  0.25500000920E-02 0. -1.
        2   -1    0    0  501    0  0.00000000000E+00  0.00000000000E+00 -0.17689326776E+04  0.17689326776E+04  0.25500000920E-02 0.  1.
    10030    2    1    2    0    0  0.00000000000E+00  0.00000000000E+00  0.51613445780E+03  0.40539998129E+04  0.40210097867E+04 0.  0.
        3    1    3    3  502    0  0.38437544629E+03  0.53646640572E+03 -0.16566160069E+04  0.17832322599E+04  0.10100000352E+00 0.  1.
       -3    1    3    3    0  502 -0.38437544629E+03 -0.53646640572E+03  0.21727504647E+04  0.22707675531E+04  0.10100000352E+00 0. -1.
</event>
<event>
 5   0  0.2839279E-07  0.3043131E+04  0.7818609E-02  0.8231521E-01
        2   -1    0    0  501    0  0.00000000000E+00  0.00000000000E+00  0.15283409197E+04  0.15283409197E+04  0.25500000920E-02 0.  1.
       -2   -1    0    0    0  501  0.00000000000E+00  0.00000000000E+00 -0.15148204902E+04  0.15148204903E+04  0.25500000920E-02 0. -1.
    10030    2    1    2    0    0  0.00000000000E+00  0.00000000000E+00  0.13520429467E+02  0.30431614100E+04  0.30431313749E+04 0.  0.
        3    1    3    3  502    0  0.39595626605E+03  0.11773009785E+04  0.88559945952E+03  0.15254852905E+04  0.10100000352E+00 0.  1.
       -3    1    3    3    0  502 -0.39595626605E+03 -0.11773009785E+04 -0.87207903006E+03  0.15176761194E+04  0.10100000352E+00 0. -1.
</event>
<event>
 5   0  0.8528625E-08  0.4074923E+04  0.7818609E-02  0.7989600E-01
        1   -1    0    0  501    0  0.00000000000E+00  0.00000000000E+00  0.15138575731E+04  0.15138575731E+04  0.50400001928E-02 0. -1.
       -1   -1    0    0    0  501  0.00000000000E+00  0.00000000000E+00 -0.27421660784E+04  0.27421660784E+04  0.50400001928E-02 0.  1.
    10030    2    1    2    0    0  0.00000000000E+00  0.00000000000E+00 -0.12283085053E+04  0.42560236515E+04  0.40749227646E+04 0.  0.
        5    1    3    3  502    0  0.11217570896E+04 -0.12785890588E+04 -0.17856530858E+04  0.24661119160E+04  0.46999998093E+01 0.  1.
       -5    1    3    3    0  502 -0.11217570896E+04  0.12785890588E+04  0.55734458051E+03  0.17899117355E+04  0.46999998093E+01 0. -1.
</event>
<event>
 5   0  0.2839279E-07  0.3762006E+04  0.7818609E-02  0.8054358E-01
       -2   -1    0    0    0  501  0.00000000000E+00  0.00000000000E+00  0.24340842122E+04  0.24340842122E+04  0.25500000920E-02 0. -1.
        2   -1    0    0  501    0  0.00000000000E+00  0.00000000000E+00 -0.14535947070E+04  0.14535947070E+04  0.25500000920E-02 0.  1.
    10030    2    1    2    0    0  0.00000000000E+00  0.00000000000E+00  0.98048950524E+03  0.38876789192E+04  0.37620058093E+04 0.  0.
        3    1    3    3  502    0 -0.88404419569E+03  0.10389688454E+04 -0.84807830836E+03  0.16063085721E+04  0.10100000352E+00 0.  1.
       -3    1    3    3    0  502  0.88404419569E+03 -0.10389688454E+04  0.18285678136E+04  0.22813703471E+04  0.10100000352E+00 0. -1.
</event>
<event>
 5   0  0.2730801E-07  0.3977987E+04  0.7818609E-02  0.8009002E-01
        2   -1    0    0  501    0  0.00000000000E+00  0.00000000000E+00  0.14223878532E+04  0.14223878533E+04  0.25500000920E-02 0.  1.
       -2   -1    0    0    0  501  0.00000000000E+00  0.00000000000E+00 -0.27813054859E+04  0.27813054859E+04  0.25500000920E-02 0. -1.
    10030    2    1    2    0    0  0.00000000000E+00  0.00000000000E+00 -0.13589176326E+04  0.42036933391E+04  0.39779869981E+04 0.  0.
        2    1    3    3  502    0  0.88797036086E+03  0.76654331324E+03  0.10179200609E+04  0.15531391642E+04  0.25500000920E-02 0.  1.
       -2    1    3    3    0  502 -0.88797036086E+03 -0.76654331324E+03 -0.23768376936E+04  0.26505541750E+04  0.25500000920E-02 0. -1.
</event>
<event>
 5   0  0.2661693E-07  0.4351826E+04  0.7818609E-02  0.7937104E-01
       -2   -1    0    0    0  501  0.00000000000E+00  0.00000000000E+00  0.22682216875E+04  0.22682216875E+04  0.25500000920E-02 0. -1.
        2   -1    0    0  501    0  0.00000000000E+00  0.00000000000E+00 -0.20873608613E+04  0.20873608613E+04  0.25500000920E-02 0.  1.
    10030    2    1    2    0    0  0.00000000000E+00  0.00000000000E+00  0.18086082619E+03  0.43555825489E+04  0.43518259043E+04 0.  0.
        1    1    3    3  502    0 -0.91890763123E+03 -0.55900352403E+03 -0.18026888352E+04  0.20991815575E+04  0.50400001928E-02 0.  1.
       -1    1    3    3    0  502  0.91890763123E+03  0.55900352403E+03  0.19835496614E+04  0.22564009914E+04  0.50400001928E-02 0. -1.
</event>
<event>
 5   0  0.8528625E-08  0.4030243E+04  0.7818609E-02  0.7998473E-01
        1   -1    0    0  501    0  0.00000000000E+00  0.00000000000E+00  0.14852077350E+04  0.14852077350E+04  0.50400001928E-02 0. -1.
       -1   -1    0    0    0  501  0.00000000000E+00  0.00000000000E+00 -0.27341052911E+04  0.27341052911E+04  0.50400001928E-02 0.  1.
    10030    2    1    2    0    0  0.00000000000E+00  0.00000000000E+00 -0.12488975561E+04  0.42193130261E+04  0.40302428347E+04 0.  0.
        3    1    3    3  502    0  0.18934020444E+04  0.64570039292E+03 -0.87834191067E+03  0.21848077310E+04  0.10100000352E+00 0.  1.
       -3    1    3    3    0  502 -0.18934020444E+04 -0.64570039292E+03 -0.37055564540E+03  0.20345052951E+04  0.10100000352E+00 0. -1.
</event>
<event>
 5   0  0.2666978E-07  0.4034154E+04  0.7818609E-02  0.7997692E-01
       -2   -1    0    0    0  501  0.00000000000E+00  0.00000000000E+00  0.15384387400E+04  0.15384387401E+04  0.25500000920E-02 0.  1.
        2   -1    0    0  501    0  0.00000000000E+00  0.00000000000E+00 -0.26446291528E+04  0.26446291528E+04  0.25500000920E-02 0. -1.
    10030    2    1    2    0    0  0.00000000000E+00  0.00000000000E+00 -0.11061904128E+04  0.41830678929E+04  0.40341541576E+04 0.  0.
        4    1    3    3  502    0 -0.49709130769E+03  0.19447761154E+04 -0.34741902230E+03  0.20371439559E+04  0.12699999809E+01 0. -1.
       -4    1    3    3    0  502  0.49709130769E+03 -0.19447761154E+04 -0.75877139048E+03  0.21459239369E+04  0.12699999809E+01 0.  1.
</event>
<event>
 5   0  0.2666978E-07  0.3915158E+04  0.7818609E-02  0.8021884E-01
        2   -1    0    0  501    0  0.00000000000E+00  0.00000000000E+00  0.24065221966E+04  0.24065221966E+04  0.25500000920E-02 0.  1.
       -2   -1    0    0    0  501  0.00000000000E+00  0.00000000000E+00 -0.15923871671E+04  0.15923871671E+04  0.25500000920E-02 0. -1.
    10030    2    1    2    0    0  0.00000000000E+00  0.00000000000E+00  0.81413502947E+03  0.39989093637E+04  0.39151577558E+04 0.  0.
        4    1    3    3  502    0  0.11500839158E+04 -0.14264403004E+04 -0.29664723337E+03  0.18561859115E+04  0.12699999809E+01 0. -1.
       -4    1    3    3    0  502 -0.11500839158E+04  0.14264403004E+04  0.11107822628E+04  0.21427234522E+04  0.12699999809E+01 0.  1.
</event>
<event>
 5   0  0.2704088E-07  0.3935284E+04  0.7818609E-02  0.8017731E-01
       -2   -1    0    0    0  501  0.00000000000E+00  0.00000000000E+00  0.17119604940E+04  0.17119604940E+04  0.25500000920E-02 0. -1.
        2   -1    0    0  501    0  0.00000000000E+00  0.00000000000E+00 -0.22615097032E+04  0.22615097032E+04  0.25500000920E-02 0.  1.
    10030    2    1    2    0    0  0.00000000000E+00  0.00000000000E+00 -0.54954920920E+03  0.39734701972E+04  0.39352841161E+04 0.  0.
        5    1    3    3  502    0  0.15604191472E+04  0.11354391920E+04  0.11296088535E+03  0.19331094965E+04  0.46999998093E+01 0.  1.
       -5    1    3    3    0  502 -0.15604191472E+04 -0.11354391920E+04 -0.66251009455E+03  0.20403607007E+04  0.46999998093E+01 0. -1.
</event>
<event>
 5   0  0.8528625E-08  0.3929287E+04  0.7818609E-02  0.8018966E-01
        1   -1    0    0  501    0  0.00000000000E+00  0.00000000000E+00  0.29973879393E+04  0.29973879393E+04  0.50400001928E-02 0.  1.
       -1   -1    0    0    0  501  0.00000000000E+00  0.00000000000E+00 -0.12877289656E+04  0.12877289657E+04  0.50400001928E-02 0. -1.
    10030    2    1    2    0    0  0.00000000000E+00  0.00000000000E+00  0.17096589737E+04  0.42851169050E+04  0.39292865871E+04 0.  0.
        4    1    3    3  502    0 -0.31741995317E+03  0.17975138123E+04  0.62382575793E+02  0.18263911220E+04  0.12699999809E+01 0.  1.
       -4    1    3    3    0  502  0.31741995317E+03 -0.17975138123E+04  0.16472763979E+04  0.24587257830E+04  0.12699999809E+01 0. -1.
</event>
<event>
 5   0  0.8528625E-08  0.3780807E+04  0.7818609E-02  0.8050286E-01
       -1   -1    0    0    0  501  0.00000000000E+00  0.00000000000E+00  0.21744290510E+04  0.21744290511E+04  0.50400001928E-02 0.  1.
        1   -1    0    0  501    0  0.00000000000E+00  0.00000000000E+00 -0.16434777825E+04  0.16434777825E+04  0.50400001928E-02 0. -1.
    10030    2    1    2    0    0  0.00000000000E+00  0.00000000000E+00  0.53095126856E+03  0.38179068335E+04  0.37808072339E+04 0.  0.
        2    1    3    3  502    0  0.14439872560E+04  0.12044208989E+04  0.68894041066E+02  0.18816150738E+04  0.25500000920E-02 0.  1.
       -2    1    3    3    0  502 -0.14439872560E+04 -0.12044208989E+04  0.46205722749E+03  0.19362917597E+04  0.25500000920E-02 0. -1.
</event>
<event>
 5   0  0.2839279E-07  0.3989903E+04  0.7818609E-02  0.8006586E-01
       -2   -1    0    0    0  501  0.00000000000E+00  0.00000000000E+00  0.13147647374E+04  0.13147647374E+04  0.25500000920E-02 0.  1.
        2   -1    0    0  501    0  0.00000000000E+00  0.00000000000E+00 -0.30270300190E+04  0.30270300190E+04  0.25500000920E-02 0. -1.
    10030    2    1    2    0    0  0.00000000000E+00  0.00000000000E+00 -0.17122652816E+04  0.43417947564E+04  0.39899034214E+04 0.  0.
        3    1    3    3  502    0 -0.13528949377E+04  0.66315919553E+03 -0.22790194500E+04  0.27320385237E+04  0.10100000352E+00 0. -1.
       -3    1    3    3    0  502  0.13528949377E+04 -0.66315919553E+03  0.56675416838E+03  0.16097562327E+04  0.10100000352E+00 0.  1.
</event>
<event>
 5   0  0.2666978E-07  0.3960333E+04  0.7818609E-02  0.8012597E-01
        2   -1    0    0  501    0  0.00000000000E+00  0.00000000000E+00  0.16943441364E+04  0.16943441364E+04  0.25500000920E-02 0.  1.
       -2   -1    0    0    0  501  0.00000000000E+00  0.00000000000E+00 -0.23142050747E+04  0.23142050747E+04  0.25500000920E-02 0. -1.
    10030    2    1    2    0    0  0.00000000000E+00  0.00000000000E+00 -0.61986093827E+03  0.40085492111E+04  0.39603332177E+04 0.  0.
        4    1    3    3  502    0  0.97507215658E+03 -0.12220538541E+04  0.92013331783E+03  0.18140640199E+04  0.12699999809E+01 0.  1.
       -4    1    3    3    0  502 -0.97507215658E+03  0.12220538541E+04 -0.15399942561E+04  0.21944851912E+04  0.12699999809E+01 0. -1.
</event>
<event>
 5   0  0.2666978E-07  0.4014423E+04  0.7818609E-02  0.8001643E-01
        2   -1    0    0  501    0  0.00000000000E+00  0.00000000000E+00  0.32340148687E+04  0.32340148687E+04  0.25500000920E-02 0. -1.
       -2   -1    0    0    0  501  0.00000000000E+00  0.00000000000E+00 -0.12457880788E+04  0.12457880788E+04  0.25500000920E-02 0.  1.
    10030    2    1    2    0    0  0.00000000000E+00  0.00000000000E+00  0.19882267899E+04  0.44798029475E+04  0.40144225836E+04 0.  0.
        4    1    3    3  502    0  0.74216996282E+03  0.16334831641E+04  0.19983312595E+04  0.26855935911E+04  0.12699999809E+01 0. -1.
       -4    1    3    3    0  502 -0.74216996282E+03 -0.16334831641E+04 -0.10104469581E+02  0.17942093563E+04  0.12699999809E+01 0.  1.
</event>
<event>
 5   0  0.8528625E-08  0.3990841E+04  0.7818609E-02  0.8006397E-01
        1   -1    0    0  501    0  0.00000000000E+00  0.00000000000E+00  0.12889412215E+04  0.12889412215E+04  0.50400001928E-02 0. -1.
       -1   -1    0    0    0  501  0.00000000000E+00  0.00000000000E+00 -0.30891266560E+04  0.30891266560E+04  0.50400001928E-02 0.  1.
    10030    2    1    2    0    0  0.00000000000E+00  0.00000000000E+00 -0.18001854345E+04  0.43780678775E+04  0.39908408564E+04 0.  0.
        3    1    3    3  502    0  0.24255583890E+03  0.74781197286E+03  0.11118854363E+04  0.13617434837E+04  0.10100000352E+00 0. -1.
       -3    1    3    3    0  502 -0.24255583890E+03 -0.74781197286E+03 -0.29120708708E+04  0.30163243938E+04  0.10100000352E+00 0.  1.
</event>
<event>
 5   0  0.8583262E-08  0.3997377E+04  0.7818609E-02  0.8005076E-01
        1   -1    0    0  501    0  0.00000000000E+00  0.00000000000E+00  0.20344746305E+04  0.20344746305E+04  0.50400001928E-02 0.  1.
       -1   -1    0    0    0  501  0.00000000000E+00  0.00000000000E+00 -0.19635314893E+04  0.19635314893E+04  0.50400001928E-02 0. -1.
    10030    2    1    2    0    0  0.00000000000E+00  0.00000000000E+00  0.70943141208E+02  0.39980061198E+04  0.39973766403E+04 0.  0.
        1    1    3    3  502    0  0.42833736584E+02  0.14454355616E+04 -0.13444689716E+04  0.19745165249E+04  0.50400001928E-02 0. -1.
       -1    1    3    3    0  502 -0.42833736584E+02 -0.14454355616E+04  0.14154121128E+04  0.20234895949E+04  0.50400001928E-02 0.  1.
</event>
<event>
 5   0  0.8528625E-08  0.3970920E+04  0.7818609E-02  0.8010439E-01
        1   -1    0    0  501    0  0.00000000000E+00  0.00000000000E+00  0.15930649248E+04  0.15930649248E+04  0.50400001928E-02 0. -1.
       -1   -1    0    0    0  501  0.00000000000E+00  0.00000000000E+00 -0.24745082929E+04  0.24745082929E+04  0.50400001928E-02 0.  1.
    10030    2    1    2    0    0  0.00000000000E+00  0.00000000000E+00 -0.88144336819E+03  0.40675732177E+04  0.39709204815E+04 0.  0.
        4    1    3    3  502    0  0.62448991295E+03  0.47911206060E+02 -0.23706632091E+04  0.24520050568E+04  0.12699999809E+01 0. -1.
       -4    1    3    3    0  502 -0.62448991295E+03 -0.47911206060E+02  0.14892198409E+04  0.16155681609E+04  0.12699999809E+01 0.  1.
</event>
<event>
 5   0  0.2661693E-07  0.3462155E+04  0.7818609E-02  0.8122818E-01
        2   -1    0    0  501    0  0.00000000000E+00  0.00000000000E+00  0.11881122473E+04  0.11881122473E+04  0.25500000920E-02 0. -1.
       -2   -1    0    0    0  501  0.00000000000E+00  0.00000000000E+00 -0.25221770583E+04  0.25221770583E+04  0.25500000920E-02 0.  1.
    10030    2    1    2    0    0  0.00000000000E+00  0.00000000000E+00 -0.13340648111E+04  0.37102893056E+04  0.34621550819E+04 0.  0.
        1    1    3    3  502    0 -0.98562349187E+03 -0.32514222933E+03 -0.21517730574E+04  0.23889952758E+04  0.50400001928E-02 0.  1.
       -1    1    3    3    0  502  0.98562349187E+03  0.32514222933E+03  0.81770824637E+03  0.13212940298E+04  0.50400001928E-02 0. -1.
</event>
<event>
 5   0  0.2666978E-07  0.3983600E+04  0.7818609E-02  0.8007863E-01
       -2   -1    0    0    0  501  0.00000000000E+00  0.00000000000E+00  0.20847751122E+04  0.20847751122E+04  0.25500000920E-02 0. -1.
        2   -1    0    0  501    0  0.00000000000E+00  0.00000000000E+00 -0.19029715565E+04  0.19029715565E+04  0.25500000920E-02 0.  1.
    10030    2    1    2    0    0  0.00000000000E+00  0.00000000000E+00  0.18180355574E+03  0.39877466687E+04  0.39836002512E+04 0.  0.
        4    1    3    3  502    0 -0.43457026775E+03  0.19418241179E+04  0.17893593674E+03  0.19978868599E+04  0.12699999809E+01 0.  1.
       -4    1    3    3    0  502  0.43457026775E+03 -0.19418241179E+04  0.28676190095E+01  0.19898598088E+04  0.12699999809E+01 0. -1.
</event>
<event>
 5   0  0.8528625E-08  0.3939138E+04  0.7818609E-02  0.8016938E-01
       -1   -1    0    0    0  501  0.00000000000E+00  0.00000000000E+00  0.16661930585E+04  0.16661930586E+04  0.50400001928E-02 0. -1.
        1   -1    0    0  501    0  0.00000000000E+00  0.00000000000E+00 -0.23281832617E+04  0.23281832617E+04  0.50400001928E-02 0.  1.
    10030    2    1    2    0    0  0.00000000000E+00  0.00000000000E+00 -0.66199020318E+03  0.39943763203E+04  0.39391383777E+04 0.  0.
        5    1    3    3  502    0 -0.19532165005E+04  0.13904120397E+03 -0.11638238056E+03  0.19616202748E+04  0.46999998093E+01 0. -1.
       -5    1    3    3    0  502  0.19532165005E+04 -0.13904120397E+03 -0.54560782262E+03  0.20327560454E+04  0.46999998093E+01 0.  1.
</event>
<event>
 5   0  0.2661693E-07  0.4021388E+04  0.7818609E-02  0.8000246E-01
       -2   -1    0    0    0  501  0.00000000000E+00  0.00000000000E+00  0.15579453358E+04  0.15579453358E+04  0.25500000920E-02 0.  1.
        2   -1    0    0  501    0  0.00000000000E+00  0.00000000000E+00 -0.25950143084E+04  0.25950143084E+04  0.25500000920E-02 0. -1.
    10030    2    1    2    0    0  0.00000000000E+00  0.00000000000E+00 -0.10370689726E+04  0.41529596441E+04  0.40213880380E+04 0.  0.
        1    1    3    3  502    0 -0.83722795287E+03  0.76240470552E+03 -0.22344253975E+04  0.25049687497E+04  0.50400001928E-02 0. -1.
       -1    1    3    3    0  502  0.83722795287E+03 -0.76240470552E+03  0.11973564249E+04  0.16479908945E+04  0.50400001928E-02 0.  1.
</event>
<event>
 5   0  0.8528625E-08  0.3995085E+04  0.7818609E-02  0.8005539E-01
       -1   -1    0    0    0  501  0.00000000000E+00  0.00000000000E+00  0.21220301502E+04  0.21220301502E+04  0.50400001928E-02 0.  1.
        1   -1    0    0  501    0  0.00000000000E+00  0.00000000000E+00 -0.18803582050E+04  0.18803582050E+04  0.50400001928E-02 0. -1.
    10030    2    1    2    0    0  0.00000000000E+00  0.00000000000E+00  0.24167194522E+03  0.40023883552E+04  0.39950853829E+04 0.  0.
        3    1    3    3  502    0 -0.13282482385E+04  0.13965920955E+04  0.64664196393E+03  0.20329433597E+04  0.10100000352E+00 0.  1.
       -3    1    3    3    0  502  0.13282482385E+04 -0.13965920955E+04 -0.40497001871E+03  0.19694449955E+04  0.10100000352E+00 0. -1.
</event>
<event>
 5   0  0.8528625E-08  0.3960865E+04  0.7818609E-02  0.8012488E-01
        1   -1    0    0  501    0  0.00000000000E+00  0.00000000000E+00  0.22454432332E+04  0.22454432332E+04  0.50400001928E-02 0.  1.
       -1   -1    0    0    0  501  0.00000000000E+00  0.00000000000E+00 -0.17466983656E+04  0.17466983656E+04  0.50400001928E-02 0. -1.
    10030    2    1    2    0    0  0.00000000000E+00  0.00000000000E+00  0.49874486766E+03  0.39921415988E+04  0.39608645650E+04 0.  0.
        5    1    3    3  502    0  0.19091597557E+04  0.20397877352E+03  0.73858304216E+03  0.20571886917E+04  0.46999998093E+01 0. -1.
       -5    1    3    3    0  502 -0.19091597557E+04 -0.20397877352E+03 -0.23983817450E+03  0.19349529072E+04  0.46999998093E+01 0.  1.
</event>
<event>
 5   0  0.2704088E-07  0.3802241E+04  0.7818609E-02  0.8045674E-01
        2   -1    0    0  501    0  0.00000000000E+00  0.00000000000E+00  0.25119209916E+04  0.25119209916E+04  0.25500000920E-02 0. -1.
       -2   -1    0    0    0  501  0.00000000000E+00  0.00000000000E+00 -0.14388426830E+04  0.14388426830E+04  0.25500000920E-02 0.  1.
    10030    2    1    2    0    0  0.00000000000E+00  0.00000000000E+00  0.10730783086E+04  0.39507636746E+04  0.38022409913E+04 0.  0.
        5    1    3    3  502    0  0.17110210137E+04 -0.20517969288E+03 -0.29765699390E+03  0.17488034172E+04  0.46999998093E+01 0.  1.
       -5    1    3    3    0  502 -0.17110210137E+04  0.20517969288E+03  0.13707353025E+04  0.22019602574E+04  0.46999998093E+01 0. -1.
</event>
<event>
 5   0  0.2704088E-07  0.4077346E+04  0.7818609E-02  0.7989123E-01
        2   -1    0    0  501    0  0.00000000000E+00  0.00000000000E+00  0.15951110299E+04  0.15951110299E+04  0.25500000920E-02 0.  1.
       -2   -1    0    0    0  501  0.00000000000E+00  0.00000000000E+00 -0.26055787508E+04  0.26055787508E+04  0.25500000920E-02 0. -1.
    10030    2    1    2    0    0  0.00000000000E+00  0.00000000000E+00 -0.10104677209E+04  0.42006897808E+04  0.40773459038E+04 0.  0.
        5    1    3    3  502    0  0.13475529852E+04  0.13405704928E+04 -0.12645065107E+04  0.22829864432E+04  0.46999998093E+01 0. -1.
       -5    1    3    3    0  502 -0.13475529852E+04 -0.13405704928E+04  0.25403878977E+03  0.19177033376E+04  0.46999998093E+01 0.  1.
</event>
<event>
 5   0  0.2666978E-07  0.3982021E+04  0.7818609E-02  0.8008183E-01
       -2   -1    0    0    0  501  0.00000000000E+00  0.00000000000E+00  0.16391929122E+04  0.16391929122E+04  0.25500000920E-02 0. -1.
        2   -1    0    0  501    0  0.00000000000E+00  0.00000000000E+00 -0.24183384997E+04  0.24183384997E+04  0.25500000920E-02 0.  1.
    10030    2    1    2    0    0  0.00000000000E+00  0.00000000000E+00 -0.77914558744E+03  0.40575314119E+04  0.39820212596E+04 0.  0.
        4    1    3    3  502    0 -0.13401502389E+04 -0.87793959672E+03 -0.15940803685E+04  0.22600607143E+04  0.12699999809E+01 0.  1.
       -4    1    3    3    0  502  0.13401502389E+04  0.87793959672E+03  0.81493478102E+03  0.17974706976E+04  0.12699999809E+01 0. -1.
</event>
<event>
 5   0  0.8583262E-08  0.4097104E+04  0.7818609E-02  0.7985239E-01
       -1   -1    0    0    0  501  0.00000000000E+00  0.00000000000E+00  0.21571528827E+04  0.21571528827E+04  0.50400001928E-02 0.  1.
        1   -1    0    0  501    0  0.00000000000E+00  0.00000000000E+00 -0.19454188510E+04  0.19454188510E+04  0.50400001928E-02 0. -1.
    10030    2    1    2    0    0  0.00000000000E+00  0.00000000000E+00  0.21173403170E+03  0.41025717337E+04  0.40971042860E+04 0.  0.
        1    1    3    3  502    0  0.15470700496E+04 -0.90622052145E+03  0.10981003031E+04  0.21024951005E+04  0.50400001928E-02 0.  1.
       -1    1    3    3    0  502 -0.15470700496E+04  0.90622052145E+03 -0.88636627139E+03  0.20000766333E+04  0.50400001928E-02 0. -1.
</event>
<event>
 5   0  0.2704088E-07  0.4027756E+04  0.7818609E-02  0.7998971E-01
       -2   -1    0    0    0  501  0.00000000000E+00  0.00000000000E+00  0.28073375770E+04  0.28073375770E+04  0.25500000920E-02 0. -1.
        2   -1    0    0  501    0  0.00000000000E+00  0.00000000000E+00 -0.14446803279E+04  0.14446803279E+04  0.25500000920E-02 0.  1.
    10030    2    1    2    0    0  0.00000000000E+00  0.00000000000E+00  0.13626572490E+04  0.42520179049E+04  0.40277563836E+04 0.  0.
        5    1    3    3  502    0  0.16769317176E+04  0.11028921073E+04  0.50718223314E+03  0.20701997231E+04  0.46999998093E+01 0.  1.
       -5    1    3    3    0  502 -0.16769317176E+04 -0.11028921073E+04  0.85547501590E+03  0.21818181818E+04  0.46999998093E+01 0. -1.
</event>
<event>
 5   0  0.8528625E-08  0.4167263E+04  0.7818609E-02  0.7971629E-01
       -1   -1    0    0    0  501  0.00000000000E+00  0.00000000000E+00  0.30465487543E+04  0.30465487543E+04  0.50400001928E-02 0. -1.
        1   -1    0    0  501    0  0.00000000000E+00  0.00000000000E+00 -0.14250615632E+04  0.14250615632E+04  0.50400001928E-02 0.  1.
    10030    2    1    2    0    0  0.00000000000E+00  0.00000000000E+00  0.16214871911E+04  0.44716103175E+04  0.41672626652E+04 0.  0.
        5    1    3    3  502    0 -0.13178443525E+04  0.11534714768E+04  0.20220297249E+04  0.26750395294E+04  0.46999998093E+01 0. -1.
       -5    1    3    3    0  502  0.13178443525E+04 -0.11534714768E+04 -0.40054253382E+03  0.17965707881E+04  0.46999998093E+01 0.  1.
</event>
<event>
 5   0  0.2839279E-07  0.3981252E+04  0.7818609E-02  0.8008339E-01
       -2   -1    0    0    0  501  0.00000000000E+00  0.00000000000E+00  0.25300318477E+04  0.25300318477E+04  0.25500000920E-02 0.  1.
        2   -1    0    0  501    0  0.00000000000E+00  0.00000000000E+00 -0.15662224313E+04  0.15662224313E+04  0.25500000920E-02 0. -1.
    10030    2    1    2    0    0  0.00000000000E+00  0.00000000000E+00  0.96380941644E+03  0.40962542790E+04  0.39812523817E+04 0.  0.
        3    1    3    3  502    0 -0.12174693484E+04 -0.15733292045E+04  0.55463042994E+03  0.20652388056E+04  0.10100000352E+00 0.  1.
       -3    1    3    3    0  502  0.12174693484E+04  0.15733292045E+04  0.40917898650E+03  0.20310154734E+04  0.10100000352E+00 0. -1.
</event>
<event>
 5   0  0.2704088E-07  0.3647225E+04  0.7818609E-02  0.8079759E-01
       -2   -1    0    0    0  501  0.00000000000E+00  0.00000000000E+00  0.23503714634E+04  0.23503714634E+04  0.25500000920E-02 0. -1.
        2   -1    0    0  501    0  0.00000000000E+00  0.00000000000E+00 -0.14149097133E+04  0.14149097133E+04  0.25500000920E-02 0.  1.
    10030    2    1    2    0    0  0.00000000000E+00  0.00000000000E+00  0.93546175010E+03  0.37652811767E+04  0.36472254734E+04 0.  0.
        5    1    3    3  502    0  0.23676537804E+03 -0.18081698278E+04  0.46534228005E+03  0.18820471561E+04  0.46999998093E+01 0. -1.
       -5    1    3    3    0  502 -0.23676537804E+03  0.18081698278E+04  0.47011947005E+03  0.18832340206E+04  0.46999998093E+01 0.  1.
</event>
<event>
 5   0  0.8528625E-08  0.3994262E+04  0.7818609E-02  0.8005705E-01
       -1   -1    0    0    0  501  0.00000000000E+00  0.00000000000E+00  0.11798732432E+04  0.11798732433E+04  0.50400001928E-02 0. -1.
        1   -1    0    0  501    0  0.00000000000E+00  0.00000000000E+00 -0.33804760222E+04  0.33804760222E+04  0.50400001928E-02 0.  1.
    10030    2    1    2    0    0  0.00000000000E+00  0.00000000000E+00 -0.22006027789E+04  0.45603492654E+04  0.39942624891E+04 0.  0.
        4    1    3    3  502    0  0.49236699610E+03  0.16919729289E+04 -0.21733612839E+04  0.27979811533E+04  0.12699999809E+01 0.  1.
       -4    1    3    3    0  502 -0.49236699610E+03 -0.16919729289E+04 -0.27241495046E+02  0.17623681122E+04  0.12699999809E+01 0. -1.
</event>
<event>
 5   0  0.2839279E-07  0.4028799E+04  0.7818609E-02  0.7998762E-01
        2   -1    0    0  501    0  0.00000000000E+00  0.00000000000E+00  0.29488237551E+04  0.29488237551E+04  0.25500000920E-02 0. -1.
       -2   -1    0    0    0  501  0.00000000000E+00  0.00000000000E+00 -0.13760759506E+04  0.13760759506E+04  0.25500000920E-02 0.  1.
    10030    2    1    2    0    0  0.00000000000E+00  0.00000000000E+00  0.15727478045E+04  0.43248997056E+04  0.40287990527E+04 0.  0.
        3    1    3    3  502    0 -0.83740165217E+03  0.84809615108E+03 -0.95695745130E+03  0.15284882016E+04  0.10100000352E+00 0.  1.
       -3    1    3    3    0  502  0.83740165217E+03 -0.84809615108E+03  0.25297052558E+04  0.27964115041E+04  0.10100000352E+00 0. -1.
</event>
<event>
 5   0  0.2730801E-07  0.3900672E+04  0.7818609E-02  0.8024889E-01
        2   -1    0    0  501    0  0.00000000000E+00  0.00000000000E+00  0.27681186397E+04  0.27681186397E+04  0.25500000920E-02 0. -1.
       -2   -1    0    0    0  501  0.00000000000E+00  0.00000000000E+00 -0.13741502778E+04  0.13741502778E+04  0.25500000920E-02 0.  1.
    10030    2    1    2    0    0  0.00000000000E+00  0.00000000000E+00  0.13939683619E+04  0.41422689174E+04  0.39006722485E+04 0.  0.
        2    1    3    3  502    0 -0.11607192774E+04  0.10835056956E+03 -0.96344618687E+03  0.15123616108E+04  0.25500000920E-02 0.  1.
       -2    1    3    3    0  502  0.11607192774E+04 -0.10835056956E+03  0.23574145488E+04  0.26299073066E+04  0.25500000920E-02 0. -1.
</event>
<event>
 5   0  0.2666978E-07  0.3570508E+04  0.7818609E-02  0.8097281E-01
       -2   -1    0    0    0  501  0.00000000000E+00  0.00000000000E+00  0.14841213011E+04  0.14841213011E+04  0.25500000920E-02 0. -1.
        2   -1    0    0  501    0  0.00000000000E+00  0.00000000000E+00 -0.21474879292E+04  0.21474879292E+04  0.25500000920E-02 0.  1.
    10030    2    1    2    0    0  0.00000000000E+00  0.00000000000E+00 -0.66336662816E+03  0.36316092303E+04  0.35705084118E+04 0.  0.
        4    1    3    3  502    0 -0.17468607422E+04  0.76629386282E+02 -0.69803657199E+03  0.18827244047E+04  0.12699999809E+01 0.  1.
       -4    1    3    3    0  502  0.17468607422E+04 -0.76629386282E+02  0.34669943831E+02  0.17488848256E+04  0.12699999809E+01 0. -1.
</event>
<event>
 5   0  0.2704088E-07  0.4163431E+04  0.7818609E-02  0.7972365E-01
        2   -1    0    0  501    0  0.00000000000E+00  0.00000000000E+00  0.29460383070E+04  0.29460383070E+04  0.25500000920E-02 0.  1.
       -2   -1    0    0    0  501  0.00000000000E+00  0.00000000000E+00 -0.14709716794E+04  0.14709716794E+04  0.25500000920E-02 0. -1.
    10030    2    1    2    0    0  0.00000000000E+00  0.00000000000E+00  0.14750666276E+04  0.44170099864E+04  0.41634307565E+04 0.  0.
        5    1    3    3  502    0 -0.30657889107E+03 -0.11817703752E+04  0.25263311594E+04  0.28058765214E+04  0.46999998093E+01 0.  1.
       -5    1    3    3    0  502  0.30657889107E+03  0.11817703752E+04 -0.10512645318E+04  0.16111334650E+04  0.46999998093E+01 0. -1.
</event>
<event>
 5   0  0.2661693E-07  0.3121653E+04  0.7818609E-02  0.8209820E-01
        2   -1    0    0  501    0  0.00000000000E+00  0.00000000000E+00  0.20341382669E+04  0.20341382669E+04  0.25500000920E-02 0. -1.
       -2   -1    0    0    0  501  0.00000000000E+00  0.00000000000E+00 -0.11976469412E+04  0.11976469412E+04  0.25500000920E-02 0.  1.
    10030    2    1    2    0    0  0.00000000000E+00  0.00000000000E+00  0.83649132564E+03  0.32317852081E+04  0.31216530706E+04 0.  0.
        1    1    3    3  502    0 -0.41842580339E+03 -0.12940797498E+04  0.12110680619E+04  0.18211008765E+04  0.50400001928E-02 0. -1.
       -1    1    3    3    0  502  0.41842580339E+03  0.12940797498E+04 -0.37457673626E+03  0.14106843315E+04  0.50400001928E-02 0.  1.
</event>
<event>
 5   0  0.2661693E-07  0.3926615E+04  0.7818609E-02  0.8019516E-01
       -2   -1    0    0    0  501  0.00000000000E+00  0.00000000000E+00  0.16719965218E+04  0.16719965218E+04  0.25500000920E-02 0.  1.
        2   -1    0    0  501    0  0.00000000000E+00  0.00000000000E+00 -0.23053733620E+04  0.23053733620E+04  0.25500000920E-02 0. -1.
    10030    2    1    2    0    0  0.00000000000E+00  0.00000000000E+00 -0.63337684021E+03  0.39773698838E+04  0.39266149507E+04 0.  0.
        1    1    3    3  502    0 -0.19308086567E+04 -0.31830025723E+03 -0.47761017926E+03  0.20143109506E+04  0.50400001928E-02 0. -1.
       -1    1    3    3    0  502  0.19308086567E+04  0.31830025723E+03 -0.15576666095E+03  0.19630589332E+04  0.50400001928E-02 0.  1.
</event>
<event>
 5   0  0.8583262E-08  0.3981783E+04  0.7818609E-02  0.8008232E-01
       -1   -1    0    0    0  501  0.00000000000E+00  0.00000000000E+00  0.28298019604E+04  0.28298019604E+04  0.50400001928E-02 0. -1.
        1   -1    0    0  501    0  0.00000000000E+00  0.00000000000E+00 -0.14006807894E+04  0.14006807894E+04  0.50400001928E-02 0.  1.
    10030    2    1    2    0    0  0.00000000000E+00  0.00000000000E+00  0.14291211710E+04  0.42304827497E+04  0.39817831401E+04 0.  0.
        1    1    3    3  502    0  0.19032900856E+04  0.38082274836E+03  0.11850635205E+04  0.22741843951E+04  0.50400001928E-02 0.  1.
       -1    1    3    3    0  502 -0.19032900856E+04 -0.38082274836E+03  0.24405765051E+03  0.19562983546E+04  0.50400001928E-02 0. -1.
</event>
<event>
 5   0  0.8528625E-08  0.3963914E+04  0.7818609E-02  0.8011866E-01
        1   -1    0    0  501    0  0.00000000000E+00  0.00000000000E+00  0.16762409813E+04  0.16762409813E+04  0.50400001928E-02 0. -1.
       -1   -1    0    0    0  501  0.00000000000E+00  0.00000000000E+00 -0.23434303562E+04  0.23434303562E+04  0.50400001928E-02 0.  1.
    10030    2    1    2    0    0  0.00000000000E+00  0.00000000000E+00 -0.66718937498E+03  0.40196713375E+04  0.39639142271E+04 0.  0.
        2    1    3    3  502    0  0.23305994362E+03 -0.66681106310E+03  0.15442631389E+04  0.16981468056E+04  0.25500000920E-02 0. -1.
       -2    1    3    3    0  502 -0.23305994362E+03  0.66681106310E+03 -0.22114525139E+04  0.23215245319E+04  0.25500000920E-02 0.  1.
</event>
<event>
 5   0  0.2661693E-07  0.4208207E+04  0.7818609E-02  0.7963813E-01
        2   -1    0    0  501    0  0.00000000000E+00  0.00000000000E+00  0.21847642554E+04  0.21847642554E+04  0.25500000920E-02 0.  1.
       -2   -1    0    0    0  501  0.00000000000E+00  0.00000000000E+00 -0.20264207324E+04  0.20264207324E+04  0.25500000920E-02 0. -1.
    10030    2    1    2    0    0  0.00000000000E+00  0.00000000000E+00  0.15834352296E+03  0.42111849878E+04  0.42082070208E+04 0.  0.
        1    1    3    3  502    0 -0.56187481653E+03 -0.94678620136E+03  0.18735229563E+04  0.21730613632E+04  0.50400001928E-02 0.  1.
       -1    1    3    3    0  502  0.56187481653E+03  0.94678620136E+03 -0.17151794333E+04  0.20381236246E+04  0.50400001928E-02 0. -1.
</event>
<event>
 5   0  0.8528625E-08  0.3963129E+04  0.7818609E-02  0.8012026E-01
        1   -1    0    0  501    0  0.00000000000E+00  0.00000000000E+00  0.30021370978E+04  0.30021370978E+04  0.50400001928E-02 0.  1.
       -1   -1    0    0    0  501  0.00000000000E+00  0.00000000000E+00 -0.13079345300E+04  0.13079345300E+04  0.50400001928E-02 0. -1.
    10030    2    1    2    0    0  0.00000000000E+00  0.00000000000E+00  0.16942025678E+04  0.43100716278E+04  0.39631294574E+04 0.  0.
        5    1    3    3  502    0 -0.99532206411E+03 -0.12569725021E+04  0.21134840505E+04  0.26528254379E+04  0.46999998093E+01 0.  1.
       -5    1    3    3    0  502  0.99532206411E+03  0.12569725021E+04 -0.41928148269E+03  0.16572461899E+04  0.46999998093E+01 0. -1.
</event>
<event>
 5   0  0.2704088E-07  0.3948096E+04  0.7818609E-02  0.8015100E-01
        2   -1    0    0  501    0  0.00000000000E+00  0.00000000000E+00  0.22784897437E+04  0.22784897437E+04  0.25500000920E-02 0. -1.
       -2   -1    0    0    0  501  0.00000000000E+00  0.00000000000E+00 -0.17102841550E+04  0.17102841550E+04  0.25500000920E-02 0.  1.
    10030    2    1    2    0    0  0.00000000000E+00  0.00000000000E+00  0.56820558865E+03  0.39887738987E+04  0.39480956959E+04 0.  0.
        5    1    3    3  502    0  0.13958468648E+04 -0.42563865001E+03 -0.10589873975E+04  0.18030621532E+04  0.46999998093E+01 0.  1.
       -5    1    3    3    0  502 -0.13958468648E+04  0.42563865001E+03  0.16271929862E+04  0.21857117455E+04  0.46999998093E+01 0. -1.
</event>
<event>
 5   0  0.8528625E-08  0.3900252E+04  0.7818609E-02  0.8024977E-01
        1   -1    0    0  501    0  0.00000000000E+00  0.00000000000E+00  0.21813046267E+04  0.21813046267E+04  0.50400001928E-02 0. -1.
       -1   -1    0    0    0  501  0.00000000000E+00  0.00000000000E+00 -0.17434483534E+04  0.17434483534E+04  0.50400001928E-02 0.  1.
    10030    2    1    2    0    0  0.00000000000E+00  0.00000000000E+00  0.43785627325E+03  0.39247529801E+04  0.39002522788E+04 0.  0.
        3    1    3    3  502    0  0.16260482811E+04 -0.97806199448E+03  0.67159132014E+03  0.20128768440E+04  0.10100000352E+00 0. -1.
       -3    1    3    3    0  502 -0.16260482811E+04  0.97806199448E+03 -0.23373504688E+03  0.19118761361E+04  0.10100000352E+00 0.  1.
</event>
<event>
 5   0  0.2730801E-07  0.3997947E+04  0.7818609E-02  0.8004961E-01
        2   -1    0    0  501    0  0.00000000000E+00  0.00000000000E+00  0.22496678656E+04  0.22496678656E+04  0.25500000920E-02 0. -1.
       -2   -1    0    0    0  501  0.00000000000E+00  0.00000000000E+00 -0.17762159243E+04  0.17762159243E+04  0.25500000920E-02 0.  1.
    10030    2    1    2    0    0  0.00000000000E+00  0.00000000000E+00  0.47345194132E+03  0.40258837900E+04  0.39979474171E+04 0.  0.
        2    1    3    3  502    0 -0.12148894884E+04 -0.14207310868E+04  0.94981446573E+03  0.20968025204E+04  0.25500000920E-02 0. -1.
       -2    1    3    3    0  502  0.12148894884E+04  0.14207310868E+04 -0.47636252442E+03  0.19290812696E+04  0.25500000920E-02 0.  1.
</event>
<event>
 5   0  0.8528625E-08  0.4081340E+04  0.7818609E-02  0.7988336E-01
       -1   -1    0    0    0  501  0.00000000000E+00  0.00000000000E+00  0.26758053424E+04  0.26758053424E+04  0.50400001928E-02 0. -1.
        1   -1    0    0  501    0  0.00000000000E+00  0.00000000000E+00 -0.15562915682E+04  0.15562915682E+04  0.50400001928E-02 0.  1.
    10030    2    1    2    0    0  0.00000000000E+00  0.00000000000E+00  0.11195137742E+04  0.42320969106E+04  0.40813396293E+04 0.  0.
        4    1    3    3  502    0 -0.16097166390E+04 -0.80194608586E+02  0.18576758276E+04  0.24593860873E+04  0.12699999809E+01 0. -1.
       -4    1    3    3    0  502  0.16097166390E+04  0.80194608586E+02 -0.73816205340E+03  0.17727108233E+04  0.12699999809E+01 0.  1.
</event>
<event>
 5   0  0.8528625E-08  0.4102258E+04  0.7818609E-02  0.7984230E-01
        1   -1    0    0  501    0  0.00000000000E+00  0.00000000000E+00  0.24830450493E+04  0.24830450493E+04  0.50400001928E-02 0. -1.
       -1   -1    0    0    0  501  0.00000000000E+00  0.00000000000E+00 -0.16943432332E+04  0.16943432332E+04  0.50400001928E-02 0.  1.
    10030    2    1    2    0    0  0.00000000000E+00  0.00000000000E+00  0.78870181612E+03  0.41773882825E+04  0.41022581961E+04 0.  0.
        5    1    3    3  502    0  0.77245280737E+03  0.15855189470E+04  0.14606941630E+04  0.22900225323E+04  0.46999998093E+01 0. -1.
       -5    1    3    3    0  502 -0.77245280737E+03 -0.15855189470E+04 -0.67199234684E+03  0.18873657502E+04  0.46999998093E+01 0.  1.
</event>
<event>
 5   0  0.8528625E-08  0.3759662E+04  0.7818609E-02  0.8054867E-01
       -1   -1    0    0    0  501  0.00000000000E+00  0.00000000000E+00  0.25229609307E+04  0.25229609307E+04  0.50400001928E-02 0. -1.
        1   -1    0    0  501    0  0.00000000000E+00  0.00000000000E+00 -0.14006421077E+04  0.14006421077E+04  0.50400001928E-02 0.  1.
    10030    2    1    2    0    0  0.00000000000E+00  0.00000000000E+00  0.11223188230E+04  0.39236030385E+04  0.37596623869E+04 0.  0.
        3    1    3    3  502    0 -0.23327357764E+03  0.27208647192E+03 -0.13646576600E+04  0.14109352038E+04  0.10100000352E+00 0.  1.
       -3    1    3    3    0  502  0.23327357764E+03 -0.27208647192E+03  0.24869764830E+04  0.25126678347E+04  0.10100000352E+00 0. -1.
</event>
<event>
 5   0  0.8528625E-08  0.3216950E+04  0.7818609E-02  0.8184355E-01
       -1   -1    0    0    0  501  0.00000000000E+00  0.00000000000E+00  0.18570928109E+04  0.18570928109E+04  0.50400001928E-02 0. -1.
        1   -1    0    0  501    0  0.00000000000E+00  0.00000000000E+00 -0.13931408429E+04  0.13931408429E+04  0.50400001928E-02 0.  1.
    10030    2    1    2    0    0  0.00000000000E+00  0.00000000000E+00  0.46395196800E+03  0.32502336538E+04  0.32169500114E+04 0.  0.
        2    1    3    3  502    0  0.47438180678E+02 -0.88502301001E+03  0.15881286596E+04  0.18186997412E+04  0.25500000920E-02 0. -1.
       -2    1    3    3    0  502 -0.47438180678E+02  0.88502301001E+03 -0.11241766916E+04  0.14315339127E+04  0.25500000920E-02 0.  1.
</event>
<event>
 5   0  0.2839279E-07  0.4051337E+04  0.7818609E-02  0.7994270E-01
       -2   -1    0    0    0  501  0.00000000000E+00  0.00000000000E+00  0.17837412431E+04  0.17837412431E+04  0.25500000920E-02 0.  1.
        2   -1    0    0  501    0  0.00000000000E+00  0.00000000000E+00 -0.23004086359E+04  0.23004086359E+04  0.25500000920E-02 0. -1.
    10030    2    1    2    0    0  0.00000000000E+00  0.00000000000E+00 -0.51666739276E+03  0.40841498790E+04  0.40513374384E+04 0.  0.
        3    1    3    3  502    0  0.13730976615E+03  0.14150223393E+04 -0.17130007226E+04  0.22260983084E+04  0.10100000352E+00 0. -1.
       -3    1    3    3    0  502 -0.13730976615E+03 -0.14150223393E+04  0.11963333299E+04  0.18580515706E+04  0.10100000352E+00 0.  1.
</event>
<event>
 5   0  0.2661693E-07  0.4034601E+04  0.7818609E-02  0.7997603E-01
       -2   -1    0    0    0  501  0.00000000000E+00  0.00000000000E+00  0.14893225820E+04  0.14893225820E+04  0.25500000920E-02 0.  1.
        2   -1    0    0  501    0  0.00000000000E+00  0.00000000000E+00 -0.27324518041E+04  0.27324518041E+04  0.25500000920E-02 0. -1.
    10030    2    1    2    0    0  0.00000000000E+00  0.00000000000E+00 -0.12431292221E+04  0.42217743860E+04  0.40346014306E+04 0.  0.
        1    1    3    3  502    0 -0.16747727904E+04 -0.49739437922E+03 -0.16769363971E+04  0.24216483535E+04  0.50400001928E-02 0. -1.
       -1    1    3    3    0  502  0.16747727904E+04  0.49739437922E+03  0.43380717494E+03  0.18001260326E+04  0.50400001928E-02 0.  1.
</event>
<event>
 5   0  0.8528625E-08  0.3401619E+04  0.7818609E-02  0.8137509E-01
       -1   -1    0    0    0  501  0.00000000000E+00  0.00000000000E+00  0.23030558307E+04  0.23030558308E+04  0.50400001928E-02 0.  1.
        1   -1    0    0  501    0  0.00000000000E+00  0.00000000000E+00 -0.12560500429E+04  0.12560500429E+04  0.50400001928E-02 0. -1.
    10030    2    1    2    0    0  0.00000000000E+00  0.00000000000E+00  0.10470057878E+04  0.35591058737E+04  0.34016192468E+04 0.  0.
        2    1    3    3  502    0  0.11265642474E+04  0.12213950125E+04  0.90335443493E+03  0.18912963848E+04  0.25500000920E-02 0.  1.
       -2    1    3    3    0  502 -0.11265642474E+04 -0.12213950125E+04  0.14365135288E+03  0.16678094889E+04  0.25500000920E-02 0. -1.
</event>
<event>
 5   0  0.8528625E-08  0.4023547E+04  0.7818609E-02  0.7999813E-01
        1   -1    0    0  501    0  0.00000000000E+00  0.00000000000E+00  0.18549662745E+04  0.18549662745E+04  0.50400001928E-02 0. -1.
       -1   -1    0    0    0  501  0.00000000000E+00  0.00000000000E+00 -0.21818365790E+04  0.21818365790E+04  0.50400001928E-02 0.  1.
    10030    2    1    2    0    0  0.00000000000E+00  0.00000000000E+00 -0.32687030443E+03  0.40368028535E+04  0.40235473257E+04 0.  0.
        4    1    3    3  502    0  0.10700396012E+04  0.13799844403E+04 -0.11656705322E+04  0.20995550019E+04  0.12699999809E+01 0.  1.
       -4    1    3    3    0  502 -0.10700396012E+04 -0.13799844403E+04  0.83880022773E+03  0.19372478516E+04  0.12699999809E+01 0. -1.
</event>
<event>
 5   0  0.8528625E-08  0.3984511E+04  0.7818609E-02  0.8007678E-01
       -1   -1    0    0    0  501  0.00000000000E+00  0.00000000000E+00  0.15714999702E+04  0.15714999702E+04  0.50400001928E-02 0. -1.
        1   -1    0    0  501    0  0.00000000000E+00  0.00000000000E+00 -0.25256647527E+04  0.25256647527E+04  0.50400001928E-02 0.  1.
    10030    2    1    2    0    0  0.00000000000E+00  0.00000000000E+00 -0.95416478245E+03  0.40971647229E+04  0.39845110534E+04 0.  0.
        3    1    3    3  502    0 -0.41803028908E+03 -0.18686467606E+04 -0.10426250388E+04  0.21802882883E+04  0.10100000352E+00 0. -1.
       -3    1    3    3    0  502  0.41803028908E+03  0.18686467606E+04  0.88460256352E+02  0.19168764346E+04  0.10100000352E+00 0.  1.
</event>
<event>
 5   0  0.8528625E-08  0.4052215E+04  0.7818609E-02  0.7994095E-01
       -1   -1    0    0    0  501  0.00000000000E+00  0.00000000000E+00  0.11532806876E+04  0.11532806876E+04  0.50400001928E-02 0. -1.
        1   -1    0    0  501    0  0.00000000000E+00  0.00000000000E+00 -0.35595083167E+04  0.35595083167E+04  0.50400001928E-02 0.  1.
    10030    2    1    2    0    0  0.00000000000E+00  0.00000000000E+00 -0.24062276291E+04  0.47127890043E+04  0.40522152949E+04 0.  0.
        4    1    3    3  502    0  0.90834153027E+03 -0.10001378372E+04 -0.29591325704E+04  0.32529720582E+04  0.12699999809E+01 0.  1.
       -4    1    3    3    0  502 -0.90834153027E+03  0.10001378372E+04  0.55290494135E+03  0.14598169461E+04  0.12699999809E+01 0. -1.
</event>
<event>
 5   0  0.2730801E-07  0.3749625E+04  0.7818609E-02  0.8057052E-01
       -2   -1    0    0    0  501  0.00000000000E+00  0.00000000000E+00  0.14381477064E+04  0.14381477064E+04  0.25500000920E-02 0.  1.
        2   -1    0    0  501    0  0.00000000000E+00  0.00000000000E+00 -0.24440624031E+04  0.24440624031E+04  0.25500000920E-02 0. -1.
    10030    2    1    2    0    0  0.00000000000E+00  0.00000000000E+00 -0.10059146968E+04  0.38822101095E+04  0.37496254423E+04 0.  0.
        2    1    3    3  502    0 -0.74468503505E+03  0.12284767746E+04  0.74430135238E+03  0.16179293836E+04  0.25500000920E-02 0.  1.
       -2    1    3    3    0  502  0.74468503505E+03 -0.12284767746E+04 -0.17502160491E+04  0.22642807259E+04  0.25500000920E-02 0. -1.
</event>
<event>
 5   0  0.2661693E-07  0.3940036E+04  0.7818609E-02  0.8016754E-01
        2   -1    0    0  501    0  0.00000000000E+00  0.00000000000E+00  0.26264301870E+04  0.26264301870E+04  0.25500000920E-02 0.  1.
       -2   -1    0    0    0  501  0.00000000000E+00  0.00000000000E+00 -0.14776603336E+04  0.14776603336E+04  0.25500000920E-02 0. -1.
    10030    2    1    2    0    0  0.00000000000E+00  0.00000000000E+00  0.11487698534E+04  0.41040905205E+04  0.39400363989E+04 0.  0.
        1    1    3    3  502    0  0.14060208030E+04  0.89206679832E+03  0.16709747092E+04  0.23589900700E+04  0.50400001928E-02 0.  1.
       -1    1    3    3    0  502 -0.14060208030E+04 -0.89206679832E+03 -0.52220485582E+03  0.17451004506E+04  0.50400001928E-02 0. -1.
</event>
<event>
 5   0  0.8583262E-08  0.3843786E+04  0.7818609E-02  0.8036823E-01
       -1   -1    0    0    0  501  0.00000000000E+00  0.00000000000E+00  0.20718427803E+04  0.20718427803E+04  0.50400001928E-02 0. -1.
        1   -1    0    0  501    0  0.00000000000E+00  0.00000000000E+00 -0.17827960210E+04  0.17827960211E+04  0.50400001928E-02 0.  1.
    10030    2    1    2    0    0  0.00000000000E+00  0.00000000000E+00  0.28904675920E+03  0.38546388013E+04  0.38437861881E+04 0.  0.
        1    1    3    3  502    0  0.26284570641E+03 -0.10425711436E+04 -0.14529685361E+04  0.18075287056E+04  0.50400001928E-02 0.  1.
       -1    1    3    3    0  502 -0.26284570641E+03  0.10425711436E+04  0.17420152953E+04  0.20471100957E+04  0.50400001928E-02 0. -1.
</event>
<event>
 5   0  0.2730801E-07  0.3952026E+04  0.7818609E-02  0.8014295E-01
       -2   -1    0    0    0  501  0.00000000000E+00  0.00000000000E+00  0.24798297245E+04  0.24798297245E+04  0.25500000920E-02 0. -1.
        2   -1    0    0  501    0  0.00000000000E+00  0.00000000000E+00 -0.15745542893E+04  0.15745542893E+04  0.25500000920E-02 0.  1.
    10030    2    1    2    0    0  0.00000000000E+00  0.00000000000E+00  0.90527543517E+03  0.40543840138E+04  0.39520255715E+04 0.  0.
        2    1    3    3  502    0  0.18839547896E+03  0.10591621320E+04 -0.12477928721E+04  0.16475145918E+04  0.25500000920E-02 0.  1.
       -2    1    3    3    0  502 -0.18839547896E+03 -0.10591621320E+04  0.21530683073E+04  0.24068694220E+04  0.25500000920E-02 0. -1.
</event>
<event>
 5   0  0.8528625E-08  0.3996218E+04  0.7818609E-02  0.8005310E-01
       -1   -1    0    0    0  501  0.00000000000E+00  0.00000000000E+00  0.20642613423E+04  0.20642613423E+04  0.50400001928E-02 0.  1.
        1   -1    0    0  501    0  0.00000000000E+00  0.00000000000E+00 -0.19340767524E+04  0.19340767524E+04  0.50400001928E-02 0. -1.
    10030    2    1    2    0    0  0.00000000000E+00  0.00000000000E+00  0.13018458997E+03  0.39983380947E+04  0.39962181487E+04 0.  0.
        3    1    3    3  502    0 -0.34407716275E+03 -0.10906560232E+04  0.17044120244E+04  0.20525447654E+04  0.10100000352E+00 0.  1.
       -3    1    3    3    0  502  0.34407716275E+03  0.10906560232E+04 -0.15742274344E+04  0.19457933293E+04  0.10100000352E+00 0. -1.
</event>
<event>
 5   0  0.2661693E-07  0.3747897E+04  0.7818609E-02  0.8057429E-01
       -2   -1    0    0    0  501  0.00000000000E+00  0.00000000000E+00  0.21609904228E+04  0.21609904228E+04  0.25500000920E-02 0. -1.
        2   -1    0    0  501    0  0.00000000000E+00  0.00000000000E+00 -0.16250339191E+04  0.16250339191E+04  0.25500000920E-02 0.  1.
    10030    2    1    2    0    0  0.00000000000E+00  0.00000000000E+00  0.53595650368E+03  0.37860243420E+04  0.37478968694E+04 0.  0.
        1    1    3    3  502    0 -0.11620861420E+04 -0.49192760259E+03  0.16674401081E+04  0.20911225410E+04  0.50400001928E-02 0. -1.
       -1    1    3    3    0  502  0.11620861420E+04  0.49192760259E+03 -0.11314836044E+04  0.16949018009E+04  0.50400001928E-02 0.  1.
</event>
<event>
 5   0  0.8528625E-08  0.3431420E+04  0.7818609E-02  0.8130238E-01
        1   -1    0    0  501    0  0.00000000000E+00  0.00000000000E+00  0.27101873077E+04  0.27101873077E+04  0.50400001928E-02 0. -1.
       -1   -1    0    0    0  501  0.00000000000E+00  0.00000000000E+00 -0.10861467267E+04  0.10861467267E+04  0.50400001928E-02 0.  1.
    10030    2    1    2    0    0  0.00000000000E+00  0.00000000000E+00  0.16240405810E+04  0.37963340344E+04  0.34314201568E+04 0.  0.
        3    1    3    3  502    0 -0.75151353516E+03  0.72503989555E+03 -0.69407456327E+03  0.12538719844E+04  0.10100000352E+00 0.  1.
       -3    1    3    3    0  502  0.75151353516E+03 -0.72503989555E+03  0.23181151443E+04  0.25424620500E+04  0.10100000352E+00 0. -1.
</event>
<event>
 5   0  0.2704088E-07  0.3904367E+04  0.7818609E-02  0.8024122E-01
        2   -1    0    0  501    0  0.00000000000E+00  0.00000000000E+00  0.22956645402E+04  0.22956645402E+04  0.25500000920E-02 0.  1.
       -2   -1    0    0    0  501  0.00000000000E+00  0.00000000000E+00 -0.16600947378E+04  0.16600947378E+04  0.25500000920E-02 0. -1.
    10030    2    1    2    0    0  0.00000000000E+00  0.00000000000E+00  0.63556980244E+03  0.39557592781E+04  0.39043671052E+04 0.  0.
        5    1    3    3  502    0 -0.38768131953E+03  0.14155741894E+04 -0.98634542847E+03  0.17683456918E+04  0.46999998093E+01 0. -1.
       -5    1    3    3    0  502  0.38768131953E+03 -0.14155741894E+04  0.16219152309E+04  0.21874135863E+04  0.46999998093E+01 0.  1.
</event>
<event>
 5   0  0.2661693E-07  0.4183403E+04  0.7818609E-02  0.7968537E-01
        2   -1    0    0  501    0  0.00000000000E+00  0.00000000000E+00  0.27721518475E+04  0.27721518475E+04  0.25500000920E-02 0.  1.
       -2   -1    0    0    0  501  0.00000000000E+00  0.00000000000E+00 -0.15782741421E+04  0.15782741421E+04  0.25500000920E-02 0. -1.
    10030    2    1    2    0    0  0.00000000000E+00  0.00000000000E+00  0.11938777054E+04  0.43504259895E+04  0.41834031978E+04 0.  0.
        1    1    3    3  502    0  0.31997326668E+03 -0.84343592042E+03  0.25594647537E+04  0.27137846025E+04  0.50400001928E-02 0.  1.
       -1    1    3    3    0  502 -0.31997326668E+03  0.84343592042E+03 -0.13655870483E+04  0.16366413870E+04  0.50400001928E-02 0. -1.
</event>
<event>
 5   0  0.8528625E-08  0.3705663E+04  0.7818609E-02  0.8066708E-01
       -1   -1    0    0    0  501  0.00000000000E+00  0.00000000000E+00  0.19063067977E+04  0.19063067977E+04  0.50400001928E-02 0. -1.
        1   -1    0    0  501    0  0.00000000000E+00  0.00000000000E+00 -0.18008559180E+04  0.18008559180E+04  0.50400001928E-02 0.  1.
    10030    2    1    2    0    0  0.00000000000E+00  0.00000000000E+00  0.10545087973E+03  0.37071627158E+04  0.37056626281E+04 0.  0.
        2    1    3    3  502    0 -0.11931521997E+04  0.13900481062E+04 -0.22512422087E+03  0.18456778766E+04  0.25500000920E-02 0.  1.
       -2    1    3    3    0  502  0.11931521997E+04 -0.13900481062E+04  0.33057510060E+03  0.18614848392E+04  0.25500000920E-02 0. -1.
</event>
<event>
 5   0  0.2730801E-07  0.4139799E+04  0.7818609E-02  0.7976924E-01
        2   -1    0    0  501    0  0.00000000000E+00  0.00000000000E+00  0.17547527520E+04  0.17547527520E+04  0.25500000920E-02 0. -1.
       -2   -1    0    0    0  501  0.00000000000E+00  0.00000000000E+00 -0.24416449601E+04  0.24416449601E+04  0.25500000920E-02 0.  1.
    10030    2    1    2    0    0  0.00000000000E+00  0.00000000000E+00 -0.68689220810E+03  0.41963977121E+04  0.41397986488E+04 0.  0.
        2    1    3    3  502    0 -0.14456685401E+04 -0.11125669129E+04  0.64804763086E+03  0.19359050585E+04  0.25500000920E-02 0. -1.
       -2    1    3    3    0  502  0.14456685401E+04  0.11125669129E+04 -0.13349398390E+04  0.22604926536E+04  0.25500000920E-02 0.  1.
</event>
<event>
 5   0  0.2661693E-07  0.4009839E+04  0.7818609E-02  0.8002565E-01
        2   -1    0    0  501    0  0.00000000000E+00  0.00000000000E+00  0.24656947622E+04  0.24656947622E+04  0.25500000920E-02 0. -1.
       -2   -1    0    0    0  501  0.00000000000E+00  0.00000000000E+00 -0.16302510914E+04  0.16302510914E+04  0.25500000920E-02 0.  1.
    10030    2    1    2    0    0  0.00000000000E+00  0.00000000000E+00  0.83544367085E+03  0.40959458536E+04  0.40098386886E+04 0.  0.
        1    1    3    3  502    0 -0.11511324779E+04 -0.49801363305E+03  0.20154645269E+04  0.23738620052E+04  0.50400001928E-02 0. -1.
       -1    1    3    3    0  502  0.11511324779E+04  0.49801363305E+03 -0.11800208561E+04  0.17220838485E+04  0.50400001928E-02 0.  1.
</event>
<event>
 5   0  0.8528625E-08  0.3592987E+04  0.7818609E-02  0.8092100E-01
        1   -1    0    0  501    0  0.00000000000E+00  0.00000000000E+00  0.16811125397E+04  0.16811125397E+04  0.50400001928E-02 0.  1.
       -1   -1    0    0    0  501  0.00000000000E+00  0.00000000000E+00 -0.19197932547E+04  0.19197932547E+04  0.50400001928E-02 0. -1.
    10030    2    1    2    0    0  0.00000000000E+00  0.00000000000E+00 -0.23868071499E+03  0.36009057945E+04  0.35929867877E+04 0.  0.
        2    1    3    3  502    0 -0.13396477690E+04  0.15960726275E+03 -0.13082339481E+04  0.18792569506E+04  0.25500000920E-02 0. -1.
       -2    1    3    3    0  502  0.13396477690E+04 -0.15960726275E+03  0.10695532331E+04  0.17216488439E+04  0.25500000920E-02 0.  1.
</event>
<event>
 5   0  0.8528625E-08  0.3986005E+04  0.7818609E-02  0.8007376E-01
       -1   -1    0    0    0  501  0.00000000000E+00  0.00000000000E+00  0.23214963731E+04  0.23214963731E+04  0.50400001928E-02 0. -1.
        1   -1    0    0  501    0  0.00000000000E+00  0.00000000000E+00 -0.17109909516E+04  0.17109909516E+04  0.50400001928E-02 0.  1.
    10030    2    1    2    0    0  0.00000000000E+00  0.00000000000E+00  0.61050542146E+03  0.40324873247E+04  0.39860051623E+04 0.  0.
        4    1    3    3  502    0 -0.36987563182E+03 -0.54479468570E+03  0.22082649881E+04  0.23043535109E+04  0.12699999809E+01 0. -1.
       -4    1    3    3    0  502  0.36987563182E+03  0.54479468570E+03 -0.15977595666E+04  0.17281338138E+04  0.12699999809E+01 0.  1.
</event>
<event>
 5   0  0.2704088E-07  0.3929415E+04  0.7818609E-02  0.8018939E-01
       -2   -1    0    0    0  501  0.00000000000E+00  0.00000000000E+00  0.20486971888E+04  0.20486971888E+04  0.25500000920E-02 0. -1.
        2   -1    0    0  501    0  0.00000000000E+00  0.00000000000E+00 -0.18841608608E+04  0.18841608608E+04  0.25500000920E-02 0.  1.
    10030    2    1    2    0    0  0.00000000000E+00  0.00000000000E+00  0.16453632804E+03  0.39328580496E+04  0.39294147446E+04 0.  0.
        5    1    3    3  502    0  0.11486546022E+04 -0.15680859371E+04 -0.20390557245E+03  0.19544565673E+04  0.46999998093E+01 0. -1.
       -5    1    3    3    0  502 -0.11486546022E+04  0.15680859371E+04  0.36844190049E+03  0.19784014823E+04  0.46999998093E+01 0.  1.
</event>
<event>
 5   0  0.8528625E-08  0.4027883E+04  0.7818609E-02  0.7998945E-01
       -1   -1    0    0    0  501  0.00000000000E+00  0.00000000000E+00  0.14779314680E+04  0.14779314680E+04  0.50400001928E-02 0. -1.
        1   -1    0    0  501    0  0.00000000000E+00  0.00000000000E+00 -0.27443499964E+04  0.27443499964E+04  0.50400001928E-02 0.  1.
    10030    2    1    2    0    0  0.00000000000E+00  0.00000000000E+00 -0.12664185284E+04  0.42222814644E+04  0.40278834238E+04 0.  0.
        5    1    3    3  502    0 -0.59864874272E+03 -0.10908960386E+04  0.10267260379E+04  0.16132646811E+04  0.46999998093E+01 0. -1.
       -5    1    3    3    0  502  0.59864874272E+03  0.10908960386E+04 -0.22931445663E+04  0.26090167834E+04  0.46999998093E+01 0.  1.
</event>
<event>
 5   0  0.8528625E-08  0.3918537E+04  0.7818609E-02  0.8021185E-01
       -1   -1    0    0    0  501  0.00000000000E+00  0.00000000000E+00  0.14549060243E+04  0.14549060243E+04  0.50400001928E-02 0. -1.
        1   -1    0    0  501    0  0.00000000000E+00  0.00000000000E+00 -0.26384747217E+04  0.26384747217E+04  0.50400001928E-02 0.  1.
    10030    2    1    2    0    0  0.00000000000E+00  0.00000000000E+00 -0.11835686974E+04  0.40933807460E+04  0.39185368533E+04 0.  0.
        3    1    3    3  502    0 -0.11949949710E+04  0.11233136823E+04 -0.17114715229E+04  0.23704390718E+04  0.10100000352E+00 0.  1.
       -3    1    3    3    0  502  0.11949949710E+04 -0.11233136823E+04  0.52790282548E+03  0.17229416742E+04  0.10100000352E+00 0. -1.
</event>
<event>
 5   0  0.2839279E-07  0.3951253E+04  0.7818609E-02  0.8014453E-01
        2   -1    0    0  501    0  0.00000000000E+00  0.00000000000E+00  0.25307645074E+04  0.25307645074E+04  0.25500000920E-02 0. -1.
       -2   -1    0    0    0  501  0.00000000000E+00  0.00000000000E+00 -0.15422616276E+04  0.15422616276E+04  0.25500000920E-02 0.  1.
    10030    2    1    2    0    0  0.00000000000E+00  0.00000000000E+00  0.98850287984E+03  0.40730261350E+04  0.39512534660E+04 0.  0.
        3    1    3    3  502    0  0.52508334293E+03  0.99451389716E+03 -0.11801011249E+04  0.16301561532E+04  0.10100000352E+00 0.  1.
       -3    1    3    3    0  502 -0.52508334293E+03 -0.99451389716E+03  0.21686040047E+04  0.24428699818E+04  0.10100000352E+00 0. -1.
</event>
<event>
 5   0  0.2704088E-07  0.3915860E+04  0.7818609E-02  0.8021739E-01
       -2   -1    0    0    0  501  0.00000000000E+00  0.00000000000E+00  0.25921482033E+04  0.25921482033E+04  0.25500000920E-02 0.  1.
        2   -1    0    0  501    0  0.00000000000E+00  0.00000000000E+00 -0.14788851243E+04  0.14788851243E+04  0.25500000920E-02 0. -1.
    10030    2    1    2    0    0  0.00000000000E+00  0.00000000000E+00  0.11132630790E+04  0.40710333277E+04  0.39158597615E+04 0.  0.
        5    1    3    3  502    0 -0.40048590202E+03  0.69063698665E+03 -0.13019757413E+04  0.15272626906E+04  0.46999998093E+01 0. -1.
       -5    1    3    3    0  502  0.40048590202E+03 -0.69063698665E+03  0.24152388203E+04  0.25437706371E+04  0.46999998093E+01 0.  1.
</event>
<event>
 5   0  0.8528625E-08  0.3879320E+04  0.7818609E-02  0.8029344E-01
        1   -1    0    0  501    0  0.00000000000E+00  0.00000000000E+00  0.28891824452E+04  0.28891824452E+04  0.50400001928E-02 0. -1.
       -1   -1    0    0    0  501  0.00000000000E+00  0.00000000000E+00 -0.13021958526E+04  0.13021958526E+04  0.50400001928E-02 0.  1.
    10030    2    1    2    0    0  0.00000000000E+00  0.00000000000E+00  0.15869865926E+04  0.41913782978E+04  0.38793202485E+04 0.  0.
        5    1    3    3  502    0  0.51091194436E+03  0.12127618244E+04 -0.74606448053E+03  0.15127645411E+04  0.46999998093E+01 0.  1.
       -5    1    3    3    0  502 -0.51091194436E+03 -0.12127618244E+04  0.23330510732E+04  0.26786137567E+04  0.46999998093E+01 0. -1.
</event>
<event>
 5   0  0.8528625E-08  0.3961931E+04  0.7818609E-02  0.8012271E-01
       -1   -1    0    0    0  501  0.00000000000E+00  0.00000000000E+00  0.19096789634E+04  0.19096789634E+04  0.50400001928E-02 0.  1.
        1   -1    0    0  501    0  0.00000000000E+00  0.00000000000E+00 -0.20549129390E+04  0.20549129390E+04  0.50400001928E-02 0. -1.
    10030    2    1    2    0    0  0.00000000000E+00  0.00000000000E+00 -0.14523397565E+03  0.39645919024E+04  0.39619308481E+04 0.  0.
        2    1    3    3  502    0  0.26275077511E+03 -0.19127397075E+04 -0.51632528600E+03  0.19985502144E+04  0.25500000920E-02 0. -1.
       -2    1    3    3    0  502 -0.26275077511E+03  0.19127397075E+04  0.37109131034E+03  0.19660416880E+04  0.25500000920E-02 0.  1.
</event>
<event>
 5   0  0.2666978E-07  0.4032876E+04  0.7818609E-02  0.7997947E-01
       -2   -1    0    0    0  501  0.00000000000E+00  0.00000000000E+00  0.13900719859E+04  0.13900719859E+04  0.25500000920E-02 0.  1.
        2   -1    0    0  501    0  0.00000000000E+00  0.00000000000E+00 -0.29250444801E+04  0.29250444801E+04  0.25500000920E-02 0. -1.
    10030    2    1    2    0    0  0.00000000000E+00  0.00000000000E+00 -0.15349724942E+04  0.43151164660E+04  0.40328760900E+04 0.  0.
        4    1    3    3  502    0  0.74421175975E+03  0.16671980860E+04 -0.16833209177E+04  0.24833387860E+04  0.12699999809E+01 0.  1.
       -4    1    3    3    0  502 -0.74421175975E+03 -0.16671980860E+04  0.14834842353E+03  0.18317776800E+04  0.12699999809E+01 0. -1.
</event>
<event>
 5   0  0.2704088E-07  0.2892845E+04  0.7818609E-02  0.8275009E-01
       -2   -1    0    0    0  501  0.00000000000E+00  0.00000000000E+00  0.71690736250E+03  0.71690736251E+03  0.25500000920E-02 0.  1.
        2   -1    0    0  501    0  0.00000000000E+00  0.00000000000E+00 -0.29182829720E+04  0.29182829720E+04  0.25500000920E-02 0. -1.
    10030    2    1    2    0    0  0.00000000000E+00  0.00000000000E+00 -0.22013756095E+04  0.36351903345E+04  0.28928453457E+04 0.  0.
        5    1    3    3  502    0  0.90912947432E+02 -0.10926185147E+04  0.84823619965E+02  0.10996806442E+04  0.46999998093E+01 0.  1.
       -5    1    3    3    0  502 -0.90912947432E+02  0.10926185147E+04 -0.22861992295E+04  0.25355096903E+04  0.46999998093E+01 0. -1.
</event>
<event>
 5   0  0.8583262E-08  0.3061785E+04  0.7818609E-02  0.8226305E-01
        1   -1    0    0  501    0  0.00000000000E+00  0.00000000000E+00  0.16360324835E+04  0.16360324835E+04  0.50400001928E-02 0. -1.
       -1   -1    0    0    0  501  0.00000000000E+00  0.00000000000E+00 -0.14325089931E+04  0.14325089931E+04  0.50400001928E-02 0.  1.
    10030    2    1    2    0    0  0.00000000000E+00  0.00000000000E+00  0.20352349037E+03  0.30685414767E+04  0.30617846075E+04 0.  0.
        1    1    3    3  502    0 -0.19912482797E+03 -0.15217354207E+03 -0.14118107494E+04  0.14338818209E+04  0.50400001928E-02 0.  1.
       -1    1    3    3    0  502  0.19912482797E+03  0.15217354207E+03  0.16153342398E+04  0.16346596558E+04  0.50400001928E-02 0. -1.
</event>
<event>
 5   0  0.2730801E-07  0.3669445E+04  0.7818609E-02  0.8074767E-01
       -2   -1    0    0    0  501  0.00000000000E+00  0.00000000000E+00  0.15532398298E+04  0.15532398298E+04  0.25500000920E-02 0.  1.
        2   -1    0    0  501    0  0.00000000000E+00  0.00000000000E+00 -0.21672164019E+04  0.21672164019E+04  0.25500000920E-02 0. -1.
    10030    2    1    2    0    0  0.00000000000E+00  0.00000000000E+00 -0.61397657215E+03  0.37204562317E+04  0.36694450998E+04 0.  0.
        2    1    3    3  502    0  0.15224865724E+03 -0.12136167668E+04  0.10795611684E+04  0.16314097053E+04  0.25500000920E-02 0.  1.
       -2    1    3    3    0  502 -0.15224865724E+03  0.12136167668E+04 -0.16935377406E+04  0.20890465263E+04  0.25500000920E-02 0. -1.
</event>
<event>
 5   0  0.8528625E-08  0.3951827E+04  0.7818609E-02  0.8014336E-01
        1   -1    0    0  501    0  0.00000000000E+00  0.00000000000E+00  0.25805345518E+04  0.25805345518E+04  0.50400001928E-02 0.  1.
       -1   -1    0    0    0  501  0.00000000000E+00  0.00000000000E+00 -0.15129553604E+04  0.15129553604E+04  0.50400001928E-02 0. -1.
    10030    2    1    2    0    0  0.00000000000E+00  0.00000000000E+00  0.10675791915E+04  0.40934899122E+04  0.39518267081E+04 0.  0.
        2    1    3    3  502    0  0.87533909814E+03  0.10618442505E+04 -0.93496104539E+03  0.16636958573E+04  0.25500000920E-02 0. -1.
       -2    1    3    3    0  502 -0.87533909814E+03 -0.10618442505E+04  0.20025402369E+04  0.24297940549E+04  0.25500000920E-02 0.  1.
</event>
<event>
 5   0  0.2661693E-07  0.3998055E+04  0.7818609E-02  0.8004939E-01
        2   -1    0    0  501    0  0.00000000000E+00  0.00000000000E+00  0.23948763542E+04  0.23948763542E+04  0.25500000920E-02 0.  1.
       -2   -1    0    0    0  501  0.00000000000E+00  0.00000000000E+00 -0.16686083281E+04  0.16686083281E+04  0.25500000920E-02 0. -1.
    10030    2    1    2    0    0  0.00000000000E+00  0.00000000000E+00  0.72626802612E+03  0.40634846823E+04  0.39980548418E+04 0.  0.
        1    1    3    3  502    0  0.15656711304E+04 -0.60064449590E+03  0.14690641657E+04  0.22294056208E+04  0.50400001928E-02 0.  1.
       -1    1    3    3    0  502 -0.15656711304E+04  0.60064449590E+03 -0.74279613956E+03  0.18340790615E+04  0.50400001928E-02 0. -1.
</event>
<event>
 5   0  0.8528625E-08  0.4068646E+04  0.7818609E-02  0.7990840E-01
       -1   -1    0    0    0  501  0.00000000000E+00  0.00000000000E+00  0.22752538860E+04  0.22752538860E+04  0.50400001928E-02 0. -1.
        1   -1    0    0  501    0  0.00000000000E+00  0.00000000000E+00 -0.18189047268E+04  0.18189047268E+04  0.50400001928E-02 0.  1.
    10030    2    1    2    0    0  0.00000000000E+00  0.00000000000E+00  0.45634915927E+03  0.40941586128E+04  0.40686459900E+04 0.  0.
        3    1    3    3  502    0  0.87541555523E+03 -0.42043839291E+03  0.20269374866E+04  0.22475756765E+04  0.10100000352E+00 0. -1.
       -3    1    3    3    0  502 -0.87541555523E+03  0.42043839291E+03 -0.15705883273E+04  0.18465829363E+04  0.10100000352E+00 0.  1.
</event>
<event>
 5   0  0.8528625E-08  0.3913234E+04  0.7818609E-02  0.8022282E-01
       -1   -1    0    0    0  501  0.00000000000E+00  0.00000000000E+00  0.14109158188E+04  0.14109158188E+04  0.50400001928E-02 0. -1.
        1   -1    0    0  501    0  0.00000000000E+00  0.00000000000E+00 -0.27133797347E+04  0.27133797347E+04  0.50400001928E-02 0.  1.
    10030    2    1    2    0    0  0.00000000000E+00  0.00000000000E+00 -0.13024639159E+04  0.41242955535E+04  0.39132341561E+04 0.  0.
        3    1    3    3  502    0  0.16433211617E+04  0.60615417542E+03 -0.15702871275E+04  0.23523879352E+04  0.10100000352E+00 0.  1.
       -3    1    3    3    0  502 -0.16433211617E+04 -0.60615417542E+03  0.26782321160E+03  0.17719076183E+04  0.10100000352E+00 0. -1.
</event>
<event>
 5   0  0.2666978E-07  0.3854233E+04  0.7818609E-02  0.8034616E-01
       -2   -1    0    0    0  501  0.00000000000E+00  0.00000000000E+00  0.18954746235E+04  0.18954746235E+04  0.25500000920E-02 0. -1.
        2   -1    0    0  501    0  0.00000000000E+00  0.00000000000E+00 -0.19592867064E+04  0.19592867064E+04  0.25500000920E-02 0.  1.
    10030    2    1    2    0    0  0.00000000000E+00  0.00000000000E+00 -0.63812082875E+02  0.38547613299E+04  0.38542331181E+04 0.  0.
        4    1    3    3  502    0  0.62411827721E+03 -0.17657919313E+04  0.42228376644E+03  0.19198619640E+04  0.12699999809E+01 0. -1.
       -4    1    3    3    0  502 -0.62411827721E+03  0.17657919313E+04 -0.48609584932E+03  0.19348993659E+04  0.12699999809E+01 0.  1.
</event>
<event>
 5   0  0.2661693E-07  0.3979867E+04  0.7818609E-02  0.8008620E-01
       -2   -1    0    0    0  501  0.00000000000E+00  0.00000000000E+00  0.16256417142E+04  0.16256417142E+04  0.25500000920E-02 0. -1.
        2   -1    0    0  501    0  0.00000000000E+00  0.00000000000E+00 -0.24358596629E+04  0.24358596629E+04  0.25500000920E-02 0.  1.
    10030    2    1    2    0    0  0.00000000000E+00  0.00000000000E+00 -0.81021794867E+03  0.40615013771E+04  0.39798668711E+04 0.  0.
        1    1    3    3  502    0  0.16762628053E+04  0.95898417125E+03 -0.89487753660E+03  0.21284532973E+04  0.50400001928E-02 0.  1.
       -1    1    3    3    0  502 -0.16762628053E+04 -0.95898417125E+03  0.84659587924E+02  0.19330480798E+04  0.50400001928E-02 0. -1.
</event>
<event>
 5   0  0.8528625E-08  0.3954348E+04  0.7818609E-02  0.8013820E-01
       -1   -1    0    0    0  501  0.00000000000E+00  0.00000000000E+00  0.27405588655E+04  0.27405588655E+04  0.50400001928E-02 0. -1.
        1   -1    0    0  501    0  0.00000000000E+00  0.00000000000E+00 -0.14264302576E+04  0.14264302576E+04  0.50400001928E-02 0.  1.
    10030    2    1    2    0    0  0.00000000000E+00  0.00000000000E+00  0.13141286079E+04  0.41669891230E+04  0.39543475256E+04 0.  0.
        2    1    3    3  502    0 -0.40663643462E+03  0.14378216026E+02 -0.13818337417E+04  0.14404945029E+04  0.25500000920E-02 0.  1.
       -2    1    3    3    0  502  0.40663643462E+03 -0.14378216026E+02  0.26959623496E+04  0.27264946201E+04  0.25500000920E-02 0. -1.
</event>
<event>
 5   0  0.8528625E-08  0.3830497E+04  0.7818609E-02  0.8039642E-01
       -1   -1    0    0    0  501  0.00000000000E+00  0.00000000000E+00  0.17379520720E+04  0.17379520720E+04  0.50400001928E-02 0. -1.
        1   -1    0    0  501    0  0.00000000000E+00  0.00000000000E+00 -0.21106318305E+04  0.21106318305E+04  0.50400001928E-02 0.  1.
    10030    2    1    2    0    0  0.00000000000E+00  0.00000000000E+00 -0.37267975852E+03  0.38485839025E+04  0.38304970764E+04 0.  0.
        4    1    3    3  502    0 -0.88833427600E+03 -0.16967676619E+04 -0.19049045796E+03  0.19246938748E+04  0.12699999809E+01 0. -1.
       -4    1    3    3    0  502  0.88833427600E+03  0.16967676619E+04 -0.18218930056E+03  0.19238900277E+04  0.12699999809E+01 0.  1.
</event>
<event>
 5   0  0.8528625E-08  0.3760237E+04  0.7818609E-02  0.8054742E-01
       -1   -1    0    0    0  501  0.00000000000E+00  0.00000000000E+00  0.25511564334E+04  0.25511564334E+04  0.50400001928E-02 0.  1.
        1   -1    0    0  501    0  0.00000000000E+00  0.00000000000E+00 -0.13855859062E+04  0.13855859062E+04  0.50400001928E-02 0. -1.
    10030    2    1    2    0    0  0.00000000000E+00  0.00000000000E+00  0.11655705272E+04  0.39367423397E+04  0.37602374387E+04 0.  0.
        5    1    3    3  502    0 -0.69578179800E+03 -0.17285758613E+04  0.32055350244E+03  0.18907309319E+04  0.46999998093E+01 0. -1.
       -5    1    3    3    0  502  0.69578179800E+03  0.17285758613E+04  0.84501702477E+03  0.20460114078E+04  0.46999998093E+01 0.  1.
</event>
<event>
 5   0  0.2730801E-07  0.4029264E+04  0.7818609E-02  0.7998669E-01
        2   -1    0    0  501    0  0.00000000000E+00  0.00000000000E+00  0.24099763725E+04  0.24099763725E+04  0.25500000920E-02 0.  1.
       -2   -1    0    0    0  501  0.00000000000E+00  0.00000000000E+00 -0.16841414525E+04  0.16841414525E+04  0.25500000920E-02 0. -1.
    10030    2    1    2    0    0  0.00000000000E+00  0.00000000000E+00  0.72583491992E+03  0.40941178250E+04  0.40292635101E+04 0.  0.
        2    1    3    3  502    0 -0.17118244703E+04 -0.72231992949E+03  0.11543328422E+04  0.21873667749E+04  0.25500000920E-02 0.  1.
       -2    1    3    3    0  502  0.17118244703E+04  0.72231992949E+03 -0.42849792226E+03  0.19067510501E+04  0.25500000920E-02 0. -1.
</event>
<event>
 5   0  0.8528625E-08  0.2994562E+04  0.7818609E-02  0.8245286E-01
        1   -1    0    0  501    0  0.00000000000E+00  0.00000000000E+00  0.22085905617E+04  0.22085905617E+04  0.50400001928E-02 0.  1.
       -1   -1    0    0    0  501  0.00000000000E+00  0.00000000000E+00 -0.10150590350E+04  0.10150590350E+04  0.50400001928E-02 0. -1.
    10030    2    1    2    0    0  0.00000000000E+00  0.00000000000E+00  0.11935315267E+04  0.32236495967E+04  0.29945616068E+04 0.  0.
        4    1    3    3  502    0  0.13114459384E+04  0.71766425944E+03  0.50724282962E+03  0.15786796191E+04  0.12699999809E+01 0.  1.
       -4    1    3    3    0  502 -0.13114459384E+04 -0.71766425944E+03  0.68628869709E+03  0.16449699776E+04  0.12699999809E+01 0. -1.
</event>
<event>
 5   0  0.2704088E-07  0.3957961E+04  0.7818609E-02  0.8013081E-01
        2   -1    0    0  501    0  0.00000000000E+00  0.00000000000E+00  0.22478314614E+04  0.22478314614E+04  0.25500000920E-02 0.  1.
       -2   -1    0    0    0  501  0.00000000000E+00  0.00000000000E+00 -0.17422850580E+04  0.17422850580E+04  0.25500000920E-02 0. -1.
    10030    2    1    2    0    0  0.00000000000E+00  0.00000000000E+00  0.50554640336E+03  0.39901165194E+04  0.39579606709E+04 0.  0.
        5    1    3    3  502    0 -0.39718136041E+03 -0.19244968989E+04  0.48898370910E+03  0.20249860505E+04  0.46999998093E+01 0.  1.
       -5    1    3    3    0  502  0.39718136041E+03  0.19244968989E+04  0.16562694256E+02  0.19651304689E+04  0.46999998093E+01 0. -1.
</event>
<event>
 5   0  0.8528625E-08  0.4000776E+04  0.7818609E-02  0.8004390E-01
        1   -1    0    0  501    0  0.00000000000E+00  0.00000000000E+00  0.21495129883E+04  0.21495129883E+04  0.50400001928E-02 0.  1.
       -1   -1    0    0    0  501  0.00000000000E+00  0.00000000000E+00 -0.18616088801E+04  0.18616088801E+04  0.50400001928E-02 0. -1.
    10030    2    1    2    0    0  0.00000000000E+00  0.00000000000E+00  0.28790410825E+03  0.40111218684E+04  0.40007761581E+04 0.  0.
        5    1    3    3  502    0 -0.19064503376E+04  0.31446784792E+03 -0.37515849367E+03  0.19683010193E+04  0.46999998093E+01 0. -1.
       -5    1    3    3    0  502  0.19064503376E+04 -0.31446784792E+03  0.66306260192E+03  0.20428208491E+04  0.46999998093E+01 0.  1.
</event>
<event>
 5   0  0.8583262E-08  0.4179665E+04  0.7818609E-02  0.7969252E-01
       -1   -1    0    0    0  501  0.00000000000E+00  0.00000000000E+00  0.31849313308E+04  0.31849313308E+04  0.50400001928E-02 0. -1.
        1   -1    0    0  501    0  0.00000000000E+00  0.00000000000E+00 -0.13712695104E+04  0.13712695104E+04  0.50400001928E-02 0.  1.
    10030    2    1    2    0    0  0.00000000000E+00  0.00000000000E+00  0.18136618204E+04  0.45562008413E+04  0.41796646884E+04 0.  0.
        1    1    3    3  502    0  0.11379410844E+04  0.15330169700E+04 -0.19646299930E+02  0.19093027311E+04  0.50400001928E-02 0.  1.
       -1    1    3    3    0  502 -0.11379410844E+04 -0.15330169700E+04  0.18333081203E+04  0.26468981102E+04  0.50400001928E-02 0. -1.
</event>
<event>
 5   0  0.2730801E-07  0.3920590E+04  0.7818609E-02  0.8020760E-01
       -2   -1    0    0    0  501  0.00000000000E+00  0.00000000000E+00  0.25448590737E+04  0.25448590737E+04  0.25500000920E-02 0. -1.
        2   -1    0    0  501    0  0.00000000000E+00  0.00000000000E+00 -0.15100078911E+04  0.15100078911E+04  0.25500000920E-02 0.  1.
    10030    2    1    2    0    0  0.00000000000E+00  0.00000000000E+00  0.10348511825E+04  0.40548669648E+04  0.39205904061E+04 0.  0.
        2    1    3    3  502    0 -0.60268926779E+03 -0.13665224541E+04  0.18306121278E+04  0.23625745985E+04  0.25500000920E-02 0. -1.
       -2    1    3    3    0  502  0.60268926779E+03  0.13665224541E+04 -0.79576094531E+03  0.16922923663E+04  0.25500000920E-02 0.  1.
</event>
<event>
 5   0  0.8528625E-08  0.3746970E+04  0.7818609E-02  0.8057632E-01
        1   -1    0    0  501    0  0.00000000000E+00  0.00000000000E+00  0.21879891765E+04  0.21879891765E+04  0.50400001928E-02 0. -1.
       -1   -1    0    0    0  501  0.00000000000E+00  0.00000000000E+00 -0.16041884056E+04  0.16041884056E+04  0.50400001928E-02 0.  1.
    10030    2    1    2    0    0  0.00000000000E+00  0.00000000000E+00  0.58380077090E+03  0.37921775820E+04  0.37469704394E+04 0.  0.
        5    1    3    3  502    0 -0.18409723842E+04  0.34067570797E+03  0.36117710855E+03  0.19067538518E+04  0.46999998093E+01 0.  1.
       -5    1    3    3    0  502  0.18409723842E+04 -0.34067570797E+03  0.22262366234E+03  0.18854237302E+04  0.46999998093E+01 0. -1.
</event>
<event>
 5   0  0.2661693E-07  0.2896029E+04  0.7818609E-02  0.8274060E-01
        2   -1    0    0  501    0  0.00000000000E+00  0.00000000000E+00  0.16116896473E+04  0.16116896473E+04  0.25500000920E-02 0. -1.
       -2   -1    0    0    0  501  0.00000000000E+00  0.00000000000E+00 -0.13009611881E+04  0.13009611881E+04  0.25500000920E-02 0.  1.
    10030    2    1    2    0    0  0.00000000000E+00  0.00000000000E+00  0.31072845920E+03  0.29126508354E+04  0.28960287833E+04 0.  0.
        1    1    3    3  502    0  0.10240430877E+04  0.19628733770E+03  0.11658961850E+04  0.15641313495E+04  0.50400001928E-02 0. -1.
       -1    1    3    3    0  502 -0.10240430877E+04 -0.19628733770E+03 -0.85516772580E+03  0.13485194858E+04  0.50400001928E-02 0.  1.
</event>
<event>
 5   0  0.8583262E-08  0.3966516E+04  0.7818609E-02  0.8011336E-01
        1   -1    0    0  501    0  0.00000000000E+00  0.00000000000E+00  0.22521264991E+04  0.22521264991E+04  0.50400001928E-02 0. -1.
       -1   -1    0    0    0  501  0.00000000000E+00  0.00000000000E+00 -0.17464885141E+04  0.17464885141E+04  0.50400001928E-02 0.  1.
    10030    2    1    2    0    0  0.00000000000E+00  0.00000000000E+00  0.50563798502E+03  0.39986150133E+04  0.39665163875E+04 0.  0.
        1    1    3    3  502    0  0.10602549710E+04 -0.14762299563E+04  0.10529151824E+04  0.21004822944E+04  0.50400001928E-02 0. -1.
       -1    1    3    3    0  502 -0.10602549710E+04  0.14762299563E+04 -0.54727719740E+03  0.18981327189E+04  0.50400001928E-02 0.  1.
</event>
<event>
 5   0  0.8528625E-08  0.4012891E+04  0.7818609E-02  0.8001951E-01
       -1   -1    0    0    0  501  0.00000000000E+00  0.00000000000E+00  0.15408631699E+04  0.15408631699E+04  0.50400001928E-02 0. -1.
        1   -1    0    0  501    0  0.00000000000E+00  0.00000000000E+00 -0.26127071958E+04  0.26127071958E+04  0.50400001928E-02 0.  1.
    10030    2    1    2    0    0  0.00000000000E+00  0.00000000000E+00 -0.10718440259E+04  0.41535703657E+04  0.40128913724E+04 0.  0.
        2    1    3    3  502    0  0.10023320369E+04 -0.11090742720E+04  0.84931848988E+03  0.17193188041E+04  0.25500000920E-02 0. -1.
       -2    1    3    3    0  502 -0.10023320369E+04  0.11090742720E+04 -0.19211625158E+04  0.24342515616E+04  0.25500000920E-02 0.  1.
</event>
<event>
 5   0  0.2666978E-07  0.3912722E+04  0.7818609E-02  0.8022389E-01
       -2   -1    0    0    0  501  0.00000000000E+00  0.00000000000E+00  0.23367710489E+04  0.23367710489E+04  0.25500000920E-02 0.  1.
        2   -1    0    0  501    0  0.00000000000E+00  0.00000000000E+00 -0.16378788836E+04  0.16378788836E+04  0.25500000920E-02 0. -1.
    10030    2    1    2    0    0  0.00000000000E+00  0.00000000000E+00  0.69889216535E+03  0.39746499325E+04  0.39127217927E+04 0.  0.
        4    1    3    3  502    0 -0.15365217095E+02 -0.36663629533E+03  0.23014973848E+04  0.23305686190E+04  0.12699999809E+01 0.  1.
       -4    1    3    3    0  502  0.15365217095E+02  0.36663629533E+03 -0.16026052194E+04  0.16440813134E+04  0.12699999809E+01 0. -1.
</event>
<event>
 5   0  0.2730801E-07  0.4003874E+04  0.7818609E-02  0.8003766E-01
        2   -1    0    0  501    0  0.00000000000E+00  0.00000000000E+00  0.28658642475E+04  0.28658642475E+04  0.25500000920E-02 0.  1.
       -2   -1    0    0    0  501  0.00000000000E+00  0.00000000000E+00 -0.13984441955E+04  0.13984441955E+04  0.25500000920E-02 0. -1.
    10030    2    1    2    0    0  0.00000000000E+00  0.00000000000E+00  0.14674200520E+04  0.42643084430E+04  0.40038737353E+04 0.  0.
        2    1    3    3  502    0 -0.82604389884E+03 -0.46125318338E+03 -0.11453179931E+04  0.14855491669E+04  0.25500000920E-02 0. -1.
       -2    1    3    3    0  502  0.82604389884E+03  0.46125318338E+03  0.26127380451E+04  0.27787592761E+04  0.25500000920E-02 0.  1.
</event>
<event>
 5   0  0.2666978E-07  0.3919169E+04  0.7818609E-02  0.8021054E-01
       -2   -1    0    0    0  501  0.00000000000E+00  0.00000000000E+00  0.19950541732E+04  0.19950541732E+04  0.25500000920E-02 0. -1.
        2   -1    0    0  501    0  0.00000000000E+00  0.00000000000E+00 -0.19247457181E+04  0.19247457181E+04  0.25500000920E-02 0.  1.
    10030    2    1    2    0    0  0.00000000000E+00  0.00000000000E+00  0.70308455060E+02  0.39197998913E+04  0.39191692881E+04 0.  0.
        4    1    3    3  502    0 -0.18435199883E+04 -0.47187392894E+03  0.50292533552E+03  0.19682902372E+04  0.12699999809E+01 0. -1.
       -4    1    3    3    0  502  0.18435199883E+04  0.47187392894E+03 -0.43261688046E+03  0.19515096541E+04  0.12699999809E+01 0.  1.
</event>
<event>
 5   0  0.8528625E-08  0.3944556E+04  0.7818609E-02  0.8015826E-01
        1   -1    0    0  501    0  0.00000000000E+00  0.00000000000E+00  0.25242310175E+04  0.25242310175E+04  0.50400001928E-02 0. -1.
       -1   -1    0    0    0  501  0.00000000000E+00  0.00000000000E+00 -0.15410158034E+04  0.15410158034E+04  0.50400001928E-02 0.  1.
    10030    2    1    2    0    0  0.00000000000E+00  0.00000000000E+00  0.98321521412E+03  0.40652468209E+04  0.39445556857E+04 0.  0.
        2    1    3    3  502    0 -0.11639618716E+04 -0.99217991045E+03  0.17749600863E+04  0.23430133420E+04  0.25500000920E-02 0. -1.
       -2    1    3    3    0  502  0.11639618716E+04  0.99217991045E+03 -0.79174487215E+03  0.17222334789E+04  0.25500000920E-02 0.  1.
</event>
<event>
 5   0  0.2661693E-07  0.3981217E+04  0.7818609E-02  0.8008346E-01
       -2   -1    0    0    0  501  0.00000000000E+00  0.00000000000E+00  0.21726766841E+04  0.21726766841E+04  0.25500000920E-02 0.  1.
        2   -1    0    0  501    0  0.00000000000E+00  0.00000000000E+00 -0.18237974598E+04  0.18237974598E+04  0.25500000920E-02 0. -1.
    10030    2    1    2    0    0  0.00000000000E+00  0.00000000000E+00  0.34887922427E+03  0.39964741439E+04  0.39812170086E+04 0.  0.
        1    1    3    3  502    0 -0.64795873894E+03  0.13154077417E+04  0.15258432632E+04  0.21162102254E+04  0.50400001928E-02 0.  1.
       -1    1    3    3    0  502  0.64795873894E+03 -0.13154077417E+04 -0.11769640389E+04  0.18802639185E+04  0.50400001928E-02 0. -1.
</event>
<event>
 5   0  0.8528625E-08  0.3318781E+04  0.7818609E-02  0.8158133E-01
       -1   -1    0    0    0  501  0.00000000000E+00  0.00000000000E+00  0.20148199082E+04  0.20148199082E+04  0.50400001928E-02 0.  1.
        1   -1    0    0  501    0  0.00000000000E+00  0.00000000000E+00 -0.13666611789E+04  0.13666611789E+04  0.50400001928E-02 0. -1.
    10030    2    1    2    0    0  0.00000000000E+00  0.00000000000E+00  0.64815872927E+03  0.33814810871E+04  0.33187805900E+04 0.  0.
        4    1    3    3  502    0  0.82840775790E+03 -0.11646204515E+04 -0.53504370526E+03  0.15260647394E+04  0.12699999809E+01 0. -1.
       -4    1    3    3    0  502 -0.82840775790E+03  0.11646204515E+04  0.11832024345E+04  0.18554163477E+04  0.12699999809E+01 0.  1.
</event>
<event>
 5   0  0.8528625E-08  0.3908099E+04  0.7818609E-02  0.8023347E-01
       -1   -1    0    0    0  501  0.00000000000E+00  0.00000000000E+00  0.17867596582E+04  0.17867596582E+04  0.50400001928E-02 0. -1.
        1   -1    0    0  501    0  0.00000000000E+00  0.00000000000E+00 -0.21370021500E+04  0.21370021500E+04  0.50400001928E-02 0.  1.
    10030    2    1    2    0    0  0.00000000000E+00  0.00000000000E+00 -0.35024249178E+03  0.39237618081E+04  0.39080988887E+04 0.  0.
        2    1    3    3  502    0 -0.50458082611E+03  0.16782336648E+04  0.69277320384E+03  0.18844109837E+04  0.25500000920E-02 0. -1.
       -2    1    3    3    0  502  0.50458082611E+03 -0.16782336648E+04 -0.10430156956E+04  0.20393508244E+04  0.25500000920E-02 0.  1.
</event>
<event>
 5   0  0.8583262E-08  0.4006902E+04  0.7818609E-02  0.8003156E-01
        1   -1    0    0  501    0  0.00000000000E+00  0.00000000000E+00  0.30354643230E+04  0.30354643230E+04  0.50400001928E-02 0.  1.
       -1   -1    0    0    0  501  0.00000000000E+00  0.00000000000E+00 -0.13223073288E+04  0.13223073289E+04  0.50400001928E-02 0. -1.
    10030    2    1    2    0    0  0.00000000000E+00  0.00000000000E+00  0.17131569941E+04  0.43577716518E+04  0.40069024050E+04 0.  0.
        1    1    3    3  502    0 -0.11356277769E+04 -0.63202606789E+02  0.26502952488E+04  0.28840440224E+04  0.50400001928E-02 0.  1.
       -1    1    3    3    0  502  0.11356277769E+04  0.63202606789E+02 -0.93713825472E+03  0.14737276294E+04  0.50400001928E-02 0. -1.
</event>
<event>
 5   0  0.2661693E-07  0.3992773E+04  0.7818609E-02  0.8006006E-01
        2   -1    0    0  501    0  0.00000000000E+00  0.00000000000E+00  0.14908060526E+04  0.14908060526E+04  0.25500000920E-02 0.  1.
       -2   -1    0    0    0  501  0.00000000000E+00  0.00000000000E+00 -0.26734255483E+04  0.26734255483E+04  0.25500000920E-02 0. -1.
    10030    2    1    2    0    0  0.00000000000E+00  0.00000000000E+00 -0.11826194957E+04  0.41642316009E+04  0.39927729655E+04 0.  0.
        1    1    3    3  502    0  0.17449496363E+04  0.96983167487E+03 -0.57913464704E+03  0.20786581369E+04  0.50400001928E-02 0.  1.
       -1    1    3    3    0  502 -0.17449496363E+04 -0.96983167487E+03 -0.60348484871E+03  0.20855734639E+04  0.50400001928E-02 0. -1.
</event>
<event>
 5   0  0.8528625E-08  0.3207490E+04  0.7818609E-02  0.8186842E-01
       -1   -1    0    0    0  501  0.00000000000E+00  0.00000000000E+00  0.12165861024E+04  0.12165861024E+04  0.50400001928E-02 0.  1.
        1   -1    0    0  501    0  0.00000000000E+00  0.00000000000E+00 -0.21141108861E+04  0.21141108861E+04  0.50400001928E-02 0. -1.
    10030    2    1    2    0    0  0.00000000000E+00  0.00000000000E+00 -0.89752478366E+03  0.33306969885E+04  0.32074899364E+04 0.  0.
        3    1    3    3  502    0 -0.89153627939E+03  0.98959814064E+03 -0.13763014668E+04  0.19152929685E+04  0.10100000352E+00 0. -1.
       -3    1    3    3    0  502  0.89153627939E+03 -0.98959814064E+03  0.47877668314E+03  0.14154040200E+04  0.10100000352E+00 0.  1.
</event>
<event>
 5   0  0.8528625E-08  0.3070824E+04  0.7818609E-02  0.8223791E-01
       -1   -1    0    0    0  501  0.00000000000E+00  0.00000000000E+00  0.12869856011E+04  0.12869856011E+04  0.50400001928E-02 0.  1.
        1   -1    0    0  501    0  0.00000000000E+00  0.00000000000E+00 -0.18317915768E+04  0.18317915768E+04  0.50400001928E-02 0. -1.
    10030    2    1    2    0    0  0.00000000000E+00  0.00000000000E+00 -0.54480597570E+03  0.31187771779E+04  0.30708235922E+04 0.  0.
        5    1    3    3  502    0 -0.58078050899E+03  0.55788589349E+03 -0.16000754053E+04  0.17913140602E+04  0.46999998093E+01 0. -1.
       -5    1    3    3    0  502  0.58078050899E+03 -0.55788589349E+03  0.10552694296E+04  0.13274631177E+04  0.46999998093E+01 0.  1.
</event>
<event>
 5   0  0.8528625E-08  0.3962366E+04  0.7818609E-02  0.8012182E-01
        1   -1    0    0  501    0  0.00000000000E+00  0.00000000000E+00  0.12034954098E+04  0.12034954098E+04  0.50400001928E-02 0. -1.
       -1   -1    0    0    0  501  0.00000000000E+00  0.00000000000E+00 -0.32614047863E+04  0.32614047863E+04  0.50400001928E-02 0.  1.
    10030    2    1    2    0    0  0.00000000000E+00  0.00000000000E+00 -0.20579093765E+04  0.44649001962E+04  0.39623658034E+04 0.  0.
        3    1    3    3  502    0  0.67285182869E+03  0.70000808613E+03  0.91701518822E+03  0.13355365100E+04  0.10100000352E+00 0. -1.
       -3    1    3    3    0  502 -0.67285182869E+03 -0.70000808613E+03 -0.29749245647E+04  0.31293636861E+04  0.10100000352E+00 0.  1.
</event>
<event>
 5   0  0.2730801E-07  0.3958723E+04  0.7818609E-02  0.8012925E-01
       -2   -1    0    0    0  501  0.00000000000E+00  0.00000000000E+00  0.27708982677E+04  0.27708982677E+04  0.25500000920E-02 0. -1.
        2   -1    0    0  501    0  0.00000000000E+00  0.00000000000E+00 -0.14139360326E+04  0.14139360326E+04  0.25500000920E-02 0.  1.
    10030    2    1    2    0    0  0.00000000000E+00  0.00000000000E+00  0.13569622351E+04  0.41848343003E+04  0.39587234829E+04 0.  0.
        2    1    3    3  502    0  0.14087812802E+04  0.12486498216E+03  0.21423562342E+04  0.25670890506E+04  0.25500000920E-02 0. -1.
       -2    1    3    3    0  502 -0.14087812802E+04 -0.12486498216E+03 -0.78539399918E+03  0.16177452498E+04  0.25500000920E-02 0.  1.
</event>
<event>
 5   0  0.2730801E-07  0.4075379E+04  0.7818609E-02  0.7989510E-01
        2   -1    0    0  501    0  0.00000000000E+00  0.00000000000E+00  0.15654909061E+04  0.15654909061E+04  0.25500000920E-02 0. -1.
       -2   -1    0    0    0  501  0.00000000000E+00  0.00000000000E+00 -0.26523175780E+04  0.26523175780E+04  0.25500000920E-02 0.  1.
    10030    2    1    2    0    0  0.00000000000E+00  0.00000000000E+00 -0.10868266719E+04  0.42178084842E+04  0.40753792700E+04 0.  0.
        2    1    3    3  502    0  0.19015700380E+04 -0.72104967103E+03 -0.67553786797E+03  0.21429495208E+04  0.25500000920E-02 0.  1.
       -2    1    3    3    0  502 -0.19015700380E+04  0.72104967103E+03 -0.41128880395E+03  0.20748589634E+04  0.25500000920E-02 0. -1.
</event>
<event>
 5   0  0.2666978E-07  0.3973063E+04  0.7818609E-02  0.8010003E-01
       -2   -1    0    0    0  501  0.00000000000E+00  0.00000000000E+00  0.30923803213E+04  0.30923803213E+04  0.25500000920E-02 0. -1.
        2   -1    0    0  501    0  0.00000000000E+00  0.00000000000E+00 -0.12761392963E+04  0.12761392963E+04  0.25500000920E-02 0.  1.
    10030    2    1    2    0    0  0.00000000000E+00  0.00000000000E+00  0.18162410250E+04  0.43685196177E+04  0.39730633256E+04 0.  0.
        4    1    3    3  502    0 -0.10335091018E+03  0.15872349195E+04  0.22166635624E+04  0.27282952667E+04  0.12699999809E+01 0. -1.
       -4    1    3    3    0  502  0.10335091018E+03 -0.15872349195E+04 -0.40042253741E+03  0.16402243510E+04  0.12699999809E+01 0.  1.
</event>
<event>
 5   0  0.8528625E-08  0.4012447E+04  0.7818609E-02  0.8002040E-01
        1   -1    0    0  501    0  0.00000000000E+00  0.00000000000E+00  0.12880341763E+04  0.12880341763E+04  0.50400001928E-02 0.  1.
       -1   -1    0    0    0  501  0.00000000000E+00  0.00000000000E+00 -0.31248642527E+04  0.31248642527E+04  0.50400001928E-02 0. -1.
    10030    2    1    2    0    0  0.00000000000E+00  0.00000000000E+00 -0.18368300764E+04  0.44128984289E+04  0.40124466121E+04 0.  0.
        3    1    3    3  502    0 -0.63938464823E+03  0.55058208183E+03 -0.29202302215E+04  0.30396871408E+04  0.10100000352E+00 0. -1.
       -3    1    3    3    0  502  0.63938464823E+03 -0.55058208183E+03  0.10834001451E+04  0.13732112881E+04  0.10100000352E+00 0.  1.
</event>
<event>
 5   0  0.8528625E-08  0.4061446E+04  0.7818609E-02  0.7992264E-01
       -1   -1    0    0    0  501  0.00000000000E+00  0.00000000000E+00  0.28161057742E+04  0.28161057742E+04  0.50400001928E-02 0.  1.
        1   -1    0    0  501    0  0.00000000000E+00  0.00000000000E+00 -0.14643756395E+04  0.14643756396E+04  0.50400001928E-02 0. -1.
    10030    2    1    2    0    0  0.00000000000E+00  0.00000000000E+00  0.13517301347E+04  0.42804814138E+04  0.40614463897E+04 0.  0.
        4    1    3    3  502    0  0.14936915089E+04  0.13433412741E+03 -0.76716339132E+03  0.16845477920E+04  0.12699999809E+01 0. -1.
       -4    1    3    3    0  502 -0.14936915089E+04 -0.13433412741E+03  0.21188935260E+04  0.25959336218E+04  0.12699999809E+01 0.  1.
</event>
<event>
 5   0  0.2704088E-07  0.4131732E+04  0.7818609E-02  0.7978487E-01
        2   -1    0    0  501    0  0.00000000000E+00  0.00000000000E+00  0.28328488225E+04  0.28328488225E+04  0.25500000920E-02 0. -1.
       -2   -1    0    0    0  501  0.00000000000E+00  0.00000000000E+00 -0.15065410822E+04  0.15065410822E+04  0.25500000920E-02 0.  1.
    10030    2    1    2    0    0  0.00000000000E+00  0.00000000000E+00  0.13263077403E+04  0.43393899046E+04  0.41317323876E+04 0.  0.
        5    1    3    3  502    0 -0.56370093460E+03  0.67730978332E+03 -0.12992502256E+04  0.15698982530E+04  0.46999998093E+01 0.  1.
       -5    1    3    3    0  502  0.56370093460E+03 -0.67730978332E+03  0.26255579659E+04  0.27694916516E+04  0.46999998093E+01 0. -1.
</event>
<event>
 5   0  0.8528625E-08  0.4002267E+04  0.7818609E-02  0.8004089E-01
       -1   -1    0    0    0  501  0.00000000000E+00  0.00000000000E+00  0.24140458640E+04  0.24140458640E+04  0.50400001928E-02 0. -1.
        1   -1    0    0  501    0  0.00000000000E+00  0.00000000000E+00 -0.16588478023E+04  0.16588478023E+04  0.50400001928E-02 0.  1.
    10030    2    1    2    0    0  0.00000000000E+00  0.00000000000E+00  0.75519806168E+03  0.40728936663E+04  0.40022666958E+04 0.  0.
        5    1    3    3  502    0 -0.10892905559E+04  0.39368604568E+03  0.20382569513E+04  0.23443668884E+04  0.46999998093E+01 0. -1.
       -5    1    3    3    0  502  0.10892905559E+04 -0.39368604568E+03 -0.12830588896E+04  0.17285267779E+04  0.46999998093E+01 0.  1.
</event>
<event>
 5   0  0.8528625E-08  0.3961919E+04  0.7818609E-02  0.8012273E-01
       -1   -1    0    0    0  501  0.00000000000E+00  0.00000000000E+00  0.23464415399E+04  0.23464415399E+04  0.50400001928E-02 0.  1.
        1   -1    0    0  501    0  0.00000000000E+00  0.00000000000E+00 -0.16724048599E+04  0.16724048599E+04  0.50400001928E-02 0. -1.
    10030    2    1    2    0    0  0.00000000000E+00  0.00000000000E+00  0.67403667996E+03  0.40188463998E+04  0.39619188457E+04 0.  0.
        2    1    3    3  502    0  0.11403038669E+04  0.15911122092E+04  0.28895168301E+02  0.19577451065E+04  0.25500000920E-02 0.  1.
       -2    1    3    3    0  502 -0.11403038669E+04 -0.15911122092E+04  0.64514151166E+03  0.20611012933E+04  0.25500000920E-02 0. -1.
</event>
<event>
 5   0  0.2839279E-07  0.2963816E+04  0.7818609E-02  0.8254140E-01
        2   -1    0    0  501    0  0.00000000000E+00  0.00000000000E+00  0.10571969200E+04  0.10571969200E+04  0.25500000920E-02 0. -1.
       -2   -1    0    0    0  501  0.00000000000E+00  0.00000000000E+00 -0.20772398405E+04  0.20772398405E+04  0.25500000920E-02 0.  1.
    10030    2    1    2    0    0  0.00000000000E+00  0.00000000000E+00 -0.10200429204E+04  0.31344367605E+04  0.29638161627E+04 0.  0.
        3    1    3    3  502    0  0.41831935847E+03  0.13806976777E+04 -0.86824576815E+03  0.16837956786E+04  0.10100000352E+00 0.  1.
       -3    1    3    3    0  502 -0.41831935847E+03 -0.13806976777E+04 -0.15179715226E+03  0.14506410820E+04  0.10100000352E+00 0. -1.
</event>
<event>
 5   0  0.8528625E-08  0.3984700E+04  0.7818609E-02  0.8007640E-01
       -1   -1    0    0    0  501  0.00000000000E+00  0.00000000000E+00  0.14111201981E+04  0.14111201981E+04  0.50400001928E-02 0.  1.
        1   -1    0    0  501    0  0.00000000000E+00  0.00000000000E+00 -0.28129839290E+04  0.28129839290E+04  0.50400001928E-02 0. -1.
    10030    2    1    2    0    0  0.00000000000E+00  0.00000000000E+00 -0.14018637309E+04  0.42241041271E+04  0.39846999581E+04 0.  0.
        3    1    3    3  502    0 -0.15410132825E+04  0.12015310257E+04 -0.28891662616E+03  0.19753155620E+04  0.10100000352E+00 0.  1.
       -3    1    3    3    0  502  0.15410132825E+04 -0.12015310257E+04 -0.11129471047E+04  0.22487885651E+04  0.10100000352E+00 0. -1.
</event>
<event>
 5   0  0.8528625E-08  0.3955998E+04  0.7818609E-02  0.8013482E-01
       -1   -1    0    0    0  501  0.00000000000E+00  0.00000000000E+00  0.25226838172E+04  0.25226838172E+04  0.50400001928E-02 0.  1.
        1   -1    0    0  501    0  0.00000000000E+00  0.00000000000E+00 -0.15509197402E+04  0.15509197402E+04  0.50400001928E-02 0. -1.
    10030    2    1    2    0    0  0.00000000000E+00  0.00000000000E+00  0.97176407698E+03  0.40736035574E+04  0.39559980437E+04 0.  0.
        3    1    3    3  502    0 -0.13877019441E+04  0.13715077526E+04  0.82070994175E+03  0.21166754640E+04  0.10100000352E+00 0.  1.
       -3    1    3    3    0  502  0.13877019441E+04 -0.13715077526E+04  0.15105413524E+03  0.19569280935E+04  0.10100000352E+00 0. -1.
</event>
<event>
 5   0  0.8528625E-08  0.3279711E+04  0.7818609E-02  0.8168077E-01
        1   -1    0    0  501    0  0.00000000000E+00  0.00000000000E+00  0.15769010430E+04  0.15769010430E+04  0.50400001928E-02 0.  1.
       -1   -1    0    0    0  501  0.00000000000E+00  0.00000000000E+00 -0.17053232691E+04  0.17053232691E+04  0.50400001928E-02 0. -1.
    10030    2    1    2    0    0  0.00000000000E+00  0.00000000000E+00 -0.12842222609E+03  0.32822243121E+04  0.32797109883E+04 0.  0.
        3    1    3    3  502    0  0.14074992888E+03 -0.13483722086E+03 -0.16936893209E+04  0.17048680724E+04  0.10100000352E+00 0. -1.
       -3    1    3    3    0  502 -0.14074992888E+03  0.13483722086E+03  0.15652670948E+04  0.15773562397E+04  0.10100000352E+00 0.  1.
</event>
<event>
 5   0  0.8528625E-08  0.3992387E+04  0.7818609E-02  0.8006084E-01
        1   -1    0    0  501    0  0.00000000000E+00  0.00000000000E+00  0.14080760985E+04  0.14080760985E+04  0.50400001928E-02 0.  1.
       -1   -1    0    0    0  501  0.00000000000E+00  0.00000000000E+00 -0.28299526622E+04  0.28299526622E+04  0.50400001928E-02 0. -1.
    10030    2    1    2    0    0  0.00000000000E+00  0.00000000000E+00 -0.14218765637E+04  0.42380287607E+04  0.39923871073E+04 0.  0.
        2    1    3    3  502    0  0.19900826461E+04 -0.14716084609E+03 -0.65574446004E+03  0.21004966198E+04  0.25500000920E-02 0.  1.
       -2    1    3    3    0  502 -0.19900826461E+04  0.14716084609E+03 -0.76613210370E+03  0.21375321409E+04  0.25500000920E-02 0. -1.
</event>
<event>
 5   0  0.8528625E-08  0.4001339E+04  0.7818609E-02  0.8004276E-01
        1   -1    0    0  501    0  0.00000000000E+00  0.00000000000E+00  0.22201286967E+04  0.22201286967E+04  0.50400001928E-02 0.  1.
       -1   -1    0    0    0  501  0.00000000000E+00  0.00000000000E+00 -0.18029038948E+04  0.18029038949E+04  0.50400001928E-02 0. -1.
    10030    2    1    2    0    0  0.00000000000E+00  0.00000000000E+00  0.41722480180E+03  0.40230325915E+04  0.40013391130E+04 0.  0.
        4    1    3    3  502    0  0.14810219977E+04 -0.10742509240E+04 -0.60524256737E+03  0.19271121876E+04  0.12699999809E+01 0. -1.
       -4    1    3    3    0  502 -0.14810219977E+04  0.10742509240E+04  0.10224673692E+04  0.20959204039E+04  0.12699999809E+01 0.  1.
</event>
<event>
 5   0  0.8528625E-08  0.4101637E+04  0.7818609E-02  0.7984351E-01
       -1   -1    0    0    0  501  0.00000000000E+00  0.00000000000E+00  0.15281554974E+04  0.15281554974E+04  0.50400001928E-02 0. -1.
        1   -1    0    0  501    0  0.00000000000E+00  0.00000000000E+00 -0.27522444847E+04  0.27522444847E+04  0.50400001928E-02 0.  1.
    10030    2    1    2    0    0  0.00000000000E+00  0.00000000000E+00 -0.12240889873E+04  0.42803999822E+04  0.41016374972E+04 0.  0.
        4    1    3    3  502    0 -0.32202131728E+03 -0.17100879142E+04 -0.17445883342E+04  0.24640796399E+04  0.12699999809E+01 0. -1.
       -4    1    3    3    0  502  0.32202131728E+03  0.17100879142E+04  0.52049934686E+03  0.18163203423E+04  0.12699999809E+01 0.  1.
</event>
<event>
 5   0  0.2839279E-07  0.3932415E+04  0.7818609E-02  0.8018321E-01
        2   -1    0    0  501    0  0.00000000000E+00  0.00000000000E+00  0.20123653969E+04  0.20123653969E+04  0.25500000920E-02 0.  1.
       -2   -1    0    0    0  501  0.00000000000E+00  0.00000000000E+00 -0.19211079589E+04  0.19211079589E+04  0.25500000920E-02 0. -1.
    10030    2    1    2    0    0  0.00000000000E+00  0.00000000000E+00  0.91257438003E+02  0.39334733558E+04  0.39324146171E+04 0.  0.
        3    1    3    3  502    0  0.24914101028E+03 -0.10714073966E+04 -0.15845297003E+04  0.19289166478E+04  0.10100000352E+00 0. -1.
       -3    1    3    3    0  502 -0.24914101028E+03  0.10714073966E+04  0.16757871383E+04  0.20045567081E+04  0.10100000352E+00 0.  1.
</event>
<event>
 5   0  0.2666978E-07  0.3970179E+04  0.7818609E-02  0.8010590E-01
       -2   -1    0    0    0  501  0.00000000000E+00  0.00000000000E+00  0.27747403289E+04  0.27747403289E+04  0.25500000920E-02 0.  1.
        2   -1    0    0  501    0  0.00000000000E+00  0.00000000000E+00 -0.14201619660E+04  0.14201619660E+04  0.25500000920E-02 0. -1.
    10030    2    1    2    0    0  0.00000000000E+00  0.00000000000E+00  0.13545783630E+04  0.41949022949E+04  0.39701791801E+04 0.  0.
        4    1    3    3  502    0 -0.18128142406E+04 -0.28166564111E+03 -0.12388334855E+03  0.18387440554E+04  0.12699999809E+01 0.  1.
       -4    1    3    3    0  502  0.18128142406E+04  0.28166564111E+03  0.14784617115E+04  0.23561582395E+04  0.12699999809E+01 0. -1.
</event>
<event>
 5   0  0.2666978E-07  0.3997658E+04  0.7818609E-02  0.8005019E-01
        2   -1    0    0  501    0  0.00000000000E+00  0.00000000000E+00  0.27032675563E+04  0.27032675563E+04  0.25500000920E-02 0.  1.
       -2   -1    0    0    0  501  0.00000000000E+00  0.00000000000E+00 -0.14779587848E+04  0.14779587848E+04  0.25500000920E-02 0. -1.
    10030    2    1    2    0    0  0.00000000000E+00  0.00000000000E+00  0.12253087715E+04  0.41812263411E+04  0.39976583309E+04 0.  0.
        4    1    3    3  502    0  0.73367839561E+03  0.13772535491E+04 -0.69378375221E+03  0.17077613517E+04  0.12699999809E+01 0. -1.
       -4    1    3    3    0  502 -0.73367839561E+03 -0.13772535491E+04  0.19190925237E+04  0.24734649894E+04  0.12699999809E+01 0.  1.
</event>
<event>
 5   0  0.8528625E-08  0.4020360E+04  0.7818609E-02  0.8000452E-01
       -1   -1    0    0    0  501  0.00000000000E+00  0.00000000000E+00  0.25089905703E+04  0.25089905703E+04  0.50400001928E-02 0.  1.
        1   -1    0    0  501    0  0.00000000000E+00  0.00000000000E+00 -0.16105372537E+04  0.16105372537E+04  0.50400001928E-02 0. -1.
    10030    2    1    2    0    0  0.00000000000E+00  0.00000000000E+00  0.89845331659E+03  0.41195278240E+04  0.40203595773E+04 0.  0.
        5    1    3    3  502    0  0.45157943295E+03 -0.15948078277E+04 -0.71613260694E+03  0.18056034981E+04  0.46999998093E+01 0. -1.
       -5    1    3    3    0  502 -0.45157943295E+03  0.15948078277E+04  0.16145859235E+04  0.23139243259E+04  0.46999998093E+01 0.  1.
</event>
<event>
 5   0  0.8528625E-08  0.3954022E+04  0.7818609E-02  0.8013887E-01
        1   -1    0    0  501    0  0.00000000000E+00  0.00000000000E+00  0.28858796084E+04  0.28858796084E+04  0.50400001928E-02 0. -1.
       -1   -1    0    0    0  501  0.00000000000E+00  0.00000000000E+00 -0.13543779140E+04  0.13543779140E+04  0.50400001928E-02 0.  1.
    10030    2    1    2    0    0  0.00000000000E+00  0.00000000000E+00  0.15315016944E+04  0.42402575224E+04  0.39540215498E+04 0.  0.
        3    1    3    3  502    0 -0.93312729351E+03  0.17417209000E+04  0.83568977662E+03  0.21453893941E+04  0.10100000352E+00 0. -1.
       -3    1    3    3    0  502  0.93312729351E+03 -0.17417209000E+04  0.69581191774E+03  0.20948681282E+04  0.10100000352E+00 0.  1.
</event>
<event>
 5   0  0.2666978E-07  0.3373711E+04  0.7818609E-02  0.8144389E-01
       -2   -1    0    0    0  501  0.00000000000E+00  0.00000000000E+00  0.16369662778E+04  0.16369662778E+04  0.25500000920E-02 0. -1.
        2   -1    0    0  501    0  0.00000000000E+00  0.00000000000E+00 -0.17382656105E+04  0.17382656105E+04  0.25500000920E-02 0.  1.
    10030    2    1    2    0    0  0.00000000000E+00  0.00000000000E+00 -0.10129933273E+03  0.33752318884E+04  0.33737114200E+04 0.  0.
        4    1    3    3  502    0  0.10086647402E+04  0.14271761289E+03  0.12944664867E+04  0.16472455716E+04  0.12699999809E+01 0. -1.
       -4    1    3    3    0  502 -0.10086647402E+04 -0.14271761289E+03 -0.13957658194E+04  0.17279863167E+04  0.12699999809E+01 0.  1.
</event>
<event>
 5   0  0.2704088E-07  0.3973371E+04  0.7818609E-02  0.8009940E-01
        2   -1    0    0  501    0  0.00000000000E+00  0.00000000000E+00  0.18909423086E+04  0.18909423086E+04  0.25500000920E-02 0. -1.
       -2   -1    0    0    0  501  0.00000000000E+00  0.00000000000E+00 -0.20872760330E+04  0.20872760330E+04  0.25500000920E-02 0.  1.
    10030    2    1    2    0    0  0.00000000000E+00  0.00000000000E+00 -0.19633372435E+03  0.39782183416E+04  0.39733706399E+04 0.  0.
        5    1    3    3  502    0 -0.80828717870E+03  0.16740520423E+04 -0.79982003352E+03  0.20237372803E+04  0.46999998093E+01 0.  1.
       -5    1    3    3    0  502  0.80828717870E+03 -0.16740520423E+04  0.60348630917E+03  0.19544810613E+04  0.46999998093E+01 0. -1.
</event>
<event>
 5   0  0.8528625E-08  0.3085795E+04  0.7818609E-02  0.8219647E-01
        1   -1    0    0  501    0  0.00000000000E+00  0.00000000000E+00  0.15555406484E+04  0.15555406485E+04  0.50400001928E-02 0. -1.
       -1   -1    0    0    0  501  0.00000000000E+00  0.00000000000E+00 -0.15303567358E+04  0.15303567358E+04  0.50400001928E-02 0.  1.
    10030    2    1    2    0    0  0.00000000000E+00  0.00000000000E+00  0.25183912654E+02  0.30858973842E+04  0.30857946200E+04 0.  0.
        5    1    3    3  502    0  0.12274553418E+04  0.90654914951E+03  0.24070488496E+03  0.15448103146E+04  0.46999998093E+01 0. -1.
       -5    1    3    3    0  502 -0.12274553418E+04 -0.90654914951E+03 -0.21552097230E+03  0.15410870696E+04  0.46999998093E+01 0.  1.
</event>
<event>
 5   0  0.8528625E-08  0.3951940E+04  0.7818609E-02  0.8014312E-01
       -1   -1    0    0    0  501  0.00000000000E+00  0.00000000000E+00  0.14137563631E+04  0.14137563631E+04  0.50400001928E-02 0.  1.
        1   -1    0    0  501    0  0.00000000000E+00  0.00000000000E+00 -0.27617617115E+04  0.27617617115E+04  0.50400001928E-02 0. -1.
    10030    2    1    2    0    0  0.00000000000E+00  0.00000000000E+00 -0.13480053484E+04  0.41755180746E+04  0.39519403806E+04 0.  0.
        3    1    3    3  502    0 -0.21333060160E+03 -0.35070415198E+03 -0.27162145269E+04  0.27470574646E+04  0.10100000352E+00 0. -1.
       -3    1    3    3    0  502  0.21333060160E+03  0.35070415198E+03  0.13682091785E+04  0.14284606099E+04  0.10100000352E+00 0.  1.
</event>
<event>
 5   0  0.2730801E-07  0.3940611E+04  0.7818609E-02  0.8016636E-01
        2   -1    0    0  501    0  0.00000000000E+00  0.00000000000E+00  0.27299100496E+04  0.27299100496E+04  0.25500000920E-02 0. -1.
       -2   -1    0    0    0  501  0.00000000000E+00  0.00000000000E+00 -0.14220626535E+04  0.14220626535E+04  0.25500000920E-02 0.  1.
    10030    2    1    2    0    0  0.00000000000E+00  0.00000000000E+00  0.13078473961E+04  0.41519727031E+04  0.39406106780E+04 0.  0.
        2    1    3    3  502    0 -0.10569125608E+03 -0.16753496378E+04 -0.43297618902E+03  0.17336191712E+04  0.25500000920E-02 0.  1.
       -2    1    3    3    0  502  0.10569125608E+03  0.16753496378E+04  0.17408235851E+04  0.24183535318E+04  0.25500000920E-02 0. -1.
</event>
<event>
 5   0  0.2704088E-07  0.2992152E+04  0.7818609E-02  0.8245976E-01
        2   -1    0    0  501    0  0.00000000000E+00  0.00000000000E+00  0.12157194616E+04  0.12157194616E+04  0.25500000920E-02 0.  1.
       -2   -1    0    0    0  501  0.00000000000E+00  0.00000000000E+00 -0.18410853031E+04  0.18410853031E+04  0.25500000920E-02 0. -1.
    10030    2    1    2    0    0  0.00000000000E+00  0.00000000000E+00 -0.62536584150E+03  0.30568047647E+04  0.29921518902E+04 0.  0.
        5    1    3    3  502    0  0.80117748446E+03 -0.77229541293E+03  0.70887122236E+03  0.13194112575E+04  0.46999998093E+01 0.  1.
       -5    1    3    3    0  502 -0.80117748446E+03  0.77229541293E+03 -0.13342370639E+04  0.17373935072E+04  0.46999998093E+01 0. -1.
</event>
<event>
 5   0  0.2661693E-07  0.4004465E+04  0.7818609E-02  0.8003646E-01
        2   -1    0    0  501    0  0.00000000000E+00  0.00000000000E+00  0.29508248353E+04  0.29508248353E+04  0.25500000920E-02 0.  1.
       -2   -1    0    0    0  501  0.00000000000E+00  0.00000000000E+00 -0.13585811672E+04  0.13585811672E+04  0.25500000920E-02 0. -1.
    10030    2    1    2    0    0  0.00000000000E+00  0.00000000000E+00  0.15922436682E+04  0.43094060025E+04  0.40044650324E+04 0.  0.
        1    1    3    3  502    0 -0.69728463069E+03  0.41377252547E+02 -0.12232066653E+04  0.14085994744E+04  0.50400001928E-02 0. -1.
       -1    1    3    3    0  502  0.69728463069E+03 -0.41377252547E+02  0.28154503335E+04  0.29008065281E+04  0.50400001928E-02 0.  1.
</event>
<event>
 5   0  0.2666978E-07  0.3905776E+04  0.7818609E-02  0.8023829E-01
       -2   -1    0    0    0  501  0.00000000000E+00  0.00000000000E+00  0.25008335386E+04  0.25008335386E+04  0.25500000920E-02 0. -1.
        2   -1    0    0  501    0  0.00000000000E+00  0.00000000000E+00 -0.15250000067E+04  0.15250000067E+04  0.25500000920E-02 0.  1.
    10030    2    1    2    0    0  0.00000000000E+00  0.00000000000E+00  0.97583353191E+03  0.40258335453E+04  0.39057758068E+04 0.  0.
        4    1    3    3  502    0  0.38686056095E+03  0.13525503711E+04  0.18840694695E+04  0.23513342975E+04  0.12699999809E+01 0. -1.
       -4    1    3    3    0  502 -0.38686056095E+03 -0.13525503711E+04 -0.90823593756E+03  0.16744992478E+04  0.12699999809E+01 0.  1.
</event>
<event>
 5   0  0.2704088E-07  0.3871241E+04  0.7818609E-02  0.8031037E-01
        2   -1    0    0  501    0  0.00000000000E+00  0.00000000000E+00  0.12321448445E+04  0.12321448445E+04  0.25500000920E-02 0. -1.
       -2   -1    0    0    0  501  0.00000000000E+00  0.00000000000E+00 -0.30407350483E+04  0.30407350483E+04  0.25500000920E-02 0.  1.
    10030    2    1    2    0    0  0.00000000000E+00  0.00000000000E+00 -0.18085902038E+04  0.42728798928E+04  0.38712406349E+04 0.  0.
        5    1    3    3  502    0  0.14649991779E+04 -0.10355685740E+03  0.48733006197E+03  0.15474040498E+04  0.46999998093E+01 0. -1.
       -5    1    3    3    0  502 -0.14649991779E+04  0.10355685740E+03 -0.22959202658E+04  0.27254758430E+04  0.46999998093E+01 0.  1.
</event>
<event>
 5   0  0.2839279E-07  0.3997997E+04  0.7818609E-02  0.8004951E-01
        2   -1    0    0  501    0  0.00000000000E+00  0.00000000000E+00  0.20835696130E+04  0.20835696130E+04  0.25500000920E-02 0.  1.
       -2   -1    0    0    0  501  0.00000000000E+00  0.00000000000E+00 -0.19178604156E+04  0.19178604156E+04  0.25500000920E-02 0. -1.
    10030    2    1    2    0    0  0.00000000000E+00  0.00000000000E+00  0.16570919739E+03  0.40014300285E+04  0.39979973406E+04 0.  0.
        3    1    3    3  502    0  0.11152751364E+04  0.32242485418E+02 -0.15772188103E+04  0.19319672340E+04  0.10100000352E+00 0. -1.
       -3    1    3    3    0  502 -0.11152751364E+04 -0.32242485418E+02  0.17429280076E+04  0.20694627945E+04  0.10100000352E+00 0.  1.
</event>
<event>
 5   0  0.8528625E-08  0.4036392E+04  0.7818609E-02  0.7997245E-01
       -1   -1    0    0    0  501  0.00000000000E+00  0.00000000000E+00  0.25853752092E+04  0.25853752092E+04  0.50400001928E-02 0.  1.
        1   -1    0    0  501    0  0.00000000000E+00  0.00000000000E+00 -0.15754445760E+04  0.15754445760E+04  0.50400001928E-02 0. -1.
    10030    2    1    2    0    0  0.00000000000E+00  0.00000000000E+00  0.10099306332E+04  0.41608197853E+04  0.40363921269E+04 0.  0.
        4    1    3    3  502    0  0.19859103016E+04  0.35837091708E+03  0.47501280267E+03  0.20731397000E+04  0.12699999809E+01 0. -1.
       -4    1    3    3    0  502 -0.19859103016E+04 -0.35837091708E+03  0.53491783054E+03  0.20876800853E+04  0.12699999809E+01 0.  1.
</event>
<event>
 5   0  0.2704088E-07  0.4063263E+04  0.7818609E-02  0.7991905E-01
        2   -1    0    0  501    0  0.00000000000E+00  0.00000000000E+00  0.13507865922E+04  0.13507865922E+04  0.25500000920E-02 0. -1.
       -2   -1    0    0    0  501  0.00000000000E+00  0.00000000000E+00 -0.30556467568E+04  0.30556467568E+04  0.25500000920E-02 0.  1.
    10030    2    1    2    0    0  0.00000000000E+00  0.00000000000E+00 -0.17048601646E+04  0.44064333490E+04  0.40632630580E+04 0.  0.
        5    1    3    3  502    0  0.14147553252E+04  0.24671726407E+03  0.70598476184E+03  0.16002620449E+04  0.46999998093E+01 0. -1.
       -5    1    3    3    0  502 -0.14147553252E+04 -0.24671726407E+03 -0.24108449265E+04  0.28061713041E+04  0.46999998093E+01 0.  1.
</event>
<event>
 5   0  0.8528625E-08  0.3775374E+04  0.7818609E-02  0.8051460E-01
        1   -1    0    0  501    0  0.00000000000E+00  0.00000000000E+00  0.26939427701E+04  0.26939427701E+04  0.50400001928E-02 0.  1.
       -1   -1    0    0    0  501  0.00000000000E+00  0.00000000000E+00 -0.13227310736E+04  0.13227310736E+04  0.50400001928E-02 0. -1.
    10030    2    1    2    0    0  0.00000000000E+00  0.00000000000E+00  0.13712116965E+04  0.40166738437E+04  0.37753737895E+04 0.  0.
        5    1    3    3  502    0 -0.18700747796E+04  0.21626856027E+03  0.53746577042E+03  0.19577648776E+04  0.46999998093E+01 0.  1.
       -5    1    3    3    0  502  0.18700747796E+04 -0.21626856027E+03  0.83374592607E+03  0.20589089661E+04  0.46999998093E+01 0. -1.
</event>
<event>
 5   0  0.8528625E-08  0.3968644E+04  0.7818609E-02  0.8010902E-01
        1   -1    0    0  501    0  0.00000000000E+00  0.00000000000E+00  0.19228986797E+04  0.19228986797E+04  0.50400001928E-02 0. -1.
       -1   -1    0    0    0  501  0.00000000000E+00  0.00000000000E+00 -0.20477073188E+04  0.20477073188E+04  0.50400001928E-02 0.  1.
    10030    2    1    2    0    0  0.00000000000E+00  0.00000000000E+00 -0.12480863908E+03  0.39706059985E+04  0.39686439496E+04 0.  0.
        5    1    3    3  502    0 -0.14869115773E+04  0.81892126583E+03  0.96570944368E+03  0.19529861490E+04  0.46999998093E+01 0. -1.
       -5    1    3    3    0  502  0.14869115773E+04 -0.81892126583E+03 -0.10905180828E+04  0.20176198495E+04  0.46999998093E+01 0.  1.
</event>
<event>
 5   0  0.8528625E-08  0.4024477E+04  0.7818609E-02  0.7999627E-01
       -1   -1    0    0    0  501  0.00000000000E+00  0.00000000000E+00  0.19104917464E+04  0.19104917464E+04  0.50400001928E-02 0. -1.
        1   -1    0    0  501    0  0.00000000000E+00  0.00000000000E+00 -0.21194036967E+04  0.21194036967E+04  0.50400001928E-02 0.  1.
    10030    2    1    2    0    0  0.00000000000E+00  0.00000000000E+00 -0.20891195032E+03  0.40298954431E+04  0.40244767460E+04 0.  0.
        5    1    3    3  502    0 -0.72813021398E+03  0.56657659812E+03  0.16862187171E+04  0.19221181810E+04  0.46999998093E+01 0. -1.
       -5    1    3    3    0  502  0.72813021398E+03 -0.56657659812E+03 -0.18951306674E+04  0.21077772621E+04  0.46999998093E+01 0.  1.
</event>
<event>
 5   0  0.8583262E-08  0.3963709E+04  0.7818609E-02  0.8011908E-01
       -1   -1    0    0    0  501  0.00000000000E+00  0.00000000000E+00  0.12583938808E+04  0.12583938808E+04  0.50400001928E-02 0.  1.
        1   -1    0    0  501    0  0.00000000000E+00  0.00000000000E+00 -0.31212381414E+04  0.31212381414E+04  0.50400001928E-02 0. -1.
    10030    2    1    2    0    0  0.00000000000E+00  0.00000000000E+00 -0.18628442605E+04  0.43796320222E+04  0.39637088580E+04 0.  0.
        1    1    3    3  502    0 -0.32103315025E+03 -0.19308567829E+03 -0.30817595507E+04  0.31044462133E+04  0.50400001928E-02 0. -1.
       -1    1    3    3    0  502  0.32103315025E+03  0.19308567829E+03  0.12189152902E+04  0.12751858089E+04  0.50400001928E-02 0.  1.
</event>
<event>
 5   0  0.2839279E-07  0.4080472E+04  0.7818609E-02  0.7988507E-01
        2   -1    0    0  501    0  0.00000000000E+00  0.00000000000E+00  0.32353800622E+04  0.32353800622E+04  0.25500000920E-02 0. -1.
       -2   -1    0    0    0  501  0.00000000000E+00  0.00000000000E+00 -0.12865764692E+04  0.12865764692E+04  0.25500000920E-02 0.  1.
    10030    2    1    2    0    0  0.00000000000E+00  0.00000000000E+00  0.19488035930E+04  0.45219565314E+04  0.40804724515E+04 0.  0.
        3    1    3    3  502    0  0.57289088328E+03  0.12734458711E+04  0.26228555169E+04  0.29714036117E+04  0.10100000352E+00 0. -1.
       -3    1    3    3    0  502 -0.57289088328E+03 -0.12734458711E+04 -0.67405192387E+03  0.15505529198E+04  0.10100000352E+00 0.  1.
</event>
<event>
 5   0  0.8528625E-08  0.3439615E+04  0.7818609E-02  0.8128251E-01
       -4   -1    0    0    0  501  0.00000000000E+00  0.00000000000E+00  0.17584598245E+04  0.17584602831E+04  0.12699999809E+01 0.  1.
        4   -1    0    0  501    0  0.00000000000E+00  0.00000000000E+00 -0.16820038556E+04  0.16820043351E+04  0.12699999809E+01 0. -1.
    10030    2    1    2    0    0  0.00000000000E+00  0.00000000000E+00  0.76455968872E+02  0.34404646182E+04  0.34396149892E+04 0.  0.
        5    1    3    3  502    0  0.29588223440E+03  0.24574874570E+03  0.17148809775E+04  0.17574918491E+04  0.46999998093E+01 0.  1.
       -5    1    3    3    0  502 -0.29588223440E+03 -0.24574874570E+03 -0.16384250086E+04  0.16829727691E+04  0.46999998093E+01 0. -1.
</event>
<event>
 5   0  0.8528625E-08  0.4022374E+04  0.7818609E-02  0.8000048E-01
        1   -1    0    0  501    0  0.00000000000E+00  0.00000000000E+00  0.16480203978E+04  0.16480203979E+04  0.50400001928E-02 0. -1.
       -1   -1    0    0    0  501  0.00000000000E+00  0.00000000000E+00 -0.24543833641E+04  0.24543833641E+04  0.50400001928E-02 0.  1.
    10030    2    1    2    0    0  0.00000000000E+00  0.00000000000E+00 -0.80636296626E+03  0.41024037620E+04  0.40223743477E+04 0.  0.
        4    1    3    3  502    0 -0.26213370232E+03  0.15051520617E+04  0.93076904751E+03  0.17890023587E+04  0.12699999809E+01 0. -1.
       -4    1    3    3    0  502  0.26213370232E+03 -0.15051520617E+04 -0.17371320138E+04  0.23134014033E+04  0.12699999809E+01 0.  1.
</event>
<event>
 5   0  0.2730801E-07  0.4009174E+04  0.7818609E-02  0.8002698E-01
       -2   -1    0    0    0  501  0.00000000000E+00  0.00000000000E+00  0.13871599536E+04  0.13871599536E+04  0.25500000920E-02 0. -1.
        2   -1    0    0  501    0  0.00000000000E+00  0.00000000000E+00 -0.28968322436E+04  0.28968322436E+04  0.25500000920E-02 0.  1.
    10030    2    1    2    0    0  0.00000000000E+00  0.00000000000E+00 -0.15096722900E+04  0.42839921972E+04  0.40091743193E+04 0.  0.
        2    1    3    3  502    0 -0.16940475029E+04  0.24710580963E+03  0.35948571898E+03  0.17493107802E+04  0.25500000920E-02 0. -1.
       -2    1    3    3    0  502  0.16940475029E+04 -0.24710580963E+03 -0.18691580090E+04  0.25346814171E+04  0.25500000920E-02 0.  1.
</event>
<event>
 5   0  0.2730801E-07  0.4271085E+04  0.7818609E-02  0.7951986E-01
        2   -1    0    0  501    0  0.00000000000E+00  0.00000000000E+00  0.21091846074E+04  0.21091846074E+04  0.25500000920E-02 0.  1.
       -2   -1    0    0    0  501  0.00000000000E+00  0.00000000000E+00 -0.21622297454E+04  0.21622297454E+04  0.25500000920E-02 0. -1.
    10030    2    1    2    0    0  0.00000000000E+00  0.00000000000E+00 -0.53045138003E+02  0.42714143528E+04  0.42710849660E+04 0.  0.
        2    1    3    3  502    0  0.20591331192E+04  0.56280452081E+03 -0.87875203250E+02  0.21364690924E+04  0.25500000920E-02 0.  1.
       -2    1    3    3    0  502 -0.20591331192E+04 -0.56280452081E+03  0.34830065248E+02  0.21349452604E+04  0.25500000920E-02 0. -1.
</event>
<event>
 5   0  0.8583262E-08  0.3965305E+04  0.7818609E-02  0.8011583E-01
       -1   -1    0    0    0  501  0.00000000000E+00  0.00000000000E+00  0.14877081705E+04  0.14877081705E+04  0.50400001928E-02 0. -1.
        1   -1    0    0  501    0  0.00000000000E+00  0.00000000000E+00 -0.26422588916E+04  0.26422588916E+04  0.50400001928E-02 0.  1.
    10030    2    1    2    0    0  0.00000000000E+00  0.00000000000E+00 -0.11545507211E+04  0.41299670620E+04  0.39653045994E+04 0.  0.
        1    1    3    3  502    0 -0.18528801818E+03  0.13122620813E+04 -0.21131451782E+04  0.24943427920E+04  0.50400001928E-02 0.  1.
       -1    1    3    3    0  502  0.18528801818E+03 -0.13122620813E+04  0.95859445709E+03  0.16356242701E+04  0.50400001928E-02 0. -1.
</event>
<event>
 5   0  0.2704088E-07  0.2902885E+04  0.7818609E-02  0.8272020E-01
       -2   -1    0    0    0  501  0.00000000000E+00  0.00000000000E+00  0.10149733958E+04  0.10149733958E+04  0.25500000920E-02 0.  1.
        2   -1    0    0  501    0  0.00000000000E+00  0.00000000000E+00 -0.20756065582E+04  0.20756065582E+04  0.25500000920E-02 0. -1.
    10030    2    1    2    0    0  0.00000000000E+00  0.00000000000E+00 -0.10606331624E+04  0.30905799540E+04  0.29028850730E+04 0.  0.
        5    1    3    3  502    0 -0.36968957955E+03  0.10852257865E+04 -0.14779686757E+04  0.18705076555E+04  0.46999998093E+01 0. -1.
       -5    1    3    3    0  502  0.36968957955E+03 -0.10852257865E+04  0.41733551331E+03  0.12200722985E+04  0.46999998093E+01 0.  1.
</event>
<event>
 5   0  0.8528625E-08  0.3979014E+04  0.7818609E-02  0.8008793E-01
        1   -1    0    0  501    0  0.00000000000E+00  0.00000000000E+00  0.15989028404E+04  0.15989028404E+04  0.50400001928E-02 0. -1.
       -1   -1    0    0    0  501  0.00000000000E+00  0.00000000000E+00 -0.24755341438E+04  0.24755341438E+04  0.50400001928E-02 0.  1.
    10030    2    1    2    0    0  0.00000000000E+00  0.00000000000E+00 -0.87663130340E+03  0.40744369842E+04  0.39790142367E+04 0.  0.
        3    1    3    3  502    0 -0.37312828711E+03 -0.90492945303E+03 -0.22119085297E+04  0.24188140456E+04  0.10100000352E+00 0.  1.
       -3    1    3    3    0  502  0.37312828711E+03  0.90492945303E+03  0.13352772262E+04  0.16556229386E+04  0.10100000352E+00 0. -1.
</event>
<event>
 5   0  0.2666978E-07  0.3984614E+04  0.7818609E-02  0.8007658E-01
       -2   -1    0    0    0  501  0.00000000000E+00  0.00000000000E+00  0.23859067743E+04  0.23859067743E+04  0.25500000920E-02 0.  1.
        2   -1    0    0  501    0  0.00000000000E+00  0.00000000000E+00 -0.16636385656E+04  0.16636385656E+04  0.25500000920E-02 0. -1.
    10030    2    1    2    0    0  0.00000000000E+00  0.00000000000E+00  0.72226820868E+03  0.40495453399E+04  0.39846136694E+04 0.  0.
        4    1    3    3  502    0 -0.11932706973E+04 -0.13272470176E+04  0.12608888489E+04  0.21852509936E+04  0.12699999809E+01 0.  1.
       -4    1    3    3    0  502  0.11932706973E+04  0.13272470176E+04 -0.53862064019E+03  0.18642943463E+04  0.12699999809E+01 0. -1.
</event>
<event>
 5   0  0.8528625E-08  0.3979150E+04  0.7818609E-02  0.8008766E-01
       -1   -1    0    0    0  501  0.00000000000E+00  0.00000000000E+00  0.17383102190E+04  0.17383102190E+04  0.50400001928E-02 0.  1.
        1   -1    0    0  501    0  0.00000000000E+00  0.00000000000E+00 -0.22771594982E+04  0.22771594982E+04  0.50400001928E-02 0. -1.
    10030    2    1    2    0    0  0.00000000000E+00  0.00000000000E+00 -0.53884927916E+03  0.40154697172E+04  0.39791504752E+04 0.  0.
        2    1    3    3  502    0 -0.15036438639E+04 -0.32475773279E+03  0.10038354849E+04  0.18368718342E+04  0.25500000920E-02 0.  1.
       -2    1    3    3    0  502  0.15036438639E+04  0.32475773279E+03 -0.15426847641E+04  0.21785978830E+04  0.25500000920E-02 0. -1.
</event>
<event>
 5   0  0.8528625E-08  0.3921011E+04  0.7818609E-02  0.8020673E-01
       -1   -1    0    0    0  501  0.00000000000E+00  0.00000000000E+00  0.18012719588E+04  0.18012719588E+04  0.50400001928E-02 0.  1.
        1   -1    0    0  501    0  0.00000000000E+00  0.00000000000E+00 -0.21338157952E+04  0.21338157952E+04  0.50400001928E-02 0. -1.
    10030    2    1    2    0    0  0.00000000000E+00  0.00000000000E+00 -0.33254383636E+03  0.39350877540E+04  0.39210113782E+04 0.  0.
        3    1    3    3  502    0  0.45561433144E+03  0.13028690703E+04  0.12310376003E+04  0.18494609531E+04  0.10100000352E+00 0.  1.
       -3    1    3    3    0  502 -0.45561433144E+03 -0.13028690703E+04 -0.15635814366E+04  0.20856268009E+04  0.10100000352E+00 0. -1.
</event>
<event>
 5   0  0.8583262E-08  0.4023568E+04  0.7818609E-02  0.7999809E-01
       -1   -1    0    0    0  501  0.00000000000E+00  0.00000000000E+00  0.14979025257E+04  0.14979025257E+04  0.50400001928E-02 0. -1.
        1   -1    0    0  501    0  0.00000000000E+00  0.00000000000E+00 -0.27019613926E+04  0.27019613926E+04  0.50400001928E-02 0.  1.
    10030    2    1    2    0    0  0.00000000000E+00  0.00000000000E+00 -0.12040588669E+04  0.41998639182E+04  0.40235679660E+04 0.  0.
        1    1    3    3  502    0 -0.88980994942E+03 -0.61479210854E+03  0.11686292019E+04  0.15923018855E+04  0.50400001928E-02 0. -1.
       -1    1    3    3    0  502  0.88980994942E+03  0.61479210854E+03 -0.23726880688E+04  0.26075620328E+04  0.50400001928E-02 0.  1.
</event>
<event>
 5   0  0.8528625E-08  0.3923752E+04  0.7818609E-02  0.8020107E-01
       -1   -1    0    0    0  501  0.00000000000E+00  0.00000000000E+00  0.13137331299E+04  0.13137331299E+04  0.50400001928E-02 0.  1.
        1   -1    0    0  501    0  0.00000000000E+00  0.00000000000E+00 -0.29297865352E+04  0.29297865352E+04  0.50400001928E-02 0. -1.
    10030    2    1    2    0    0  0.00000000000E+00  0.00000000000E+00 -0.16160534053E+04  0.42435196652E+04  0.39237520997E+04 0.  0.
        3    1    3    3  502    0 -0.18218334367E+04 -0.58893913836E+03 -0.34533972644E+03  0.19455554262E+04  0.10100000352E+00 0.  1.
       -3    1    3    3    0  502  0.18218334367E+04  0.58893913836E+03 -0.12707136789E+04  0.22979642390E+04  0.10100000352E+00 0. -1.
</event>
<event>
 5   0  0.2666978E-07  0.3943079E+04  0.7818609E-02  0.8016129E-01
       -2   -1    0    0    0  501  0.00000000000E+00  0.00000000000E+00  0.25867918459E+04  0.25867918459E+04  0.25500000920E-02 0.  1.
        2   -1    0    0  501    0  0.00000000000E+00  0.00000000000E+00 -0.15026212811E+04  0.15026212811E+04  0.25500000920E-02 0. -1.
    10030    2    1    2    0    0  0.00000000000E+00  0.00000000000E+00  0.10841705647E+04  0.40894131270E+04  0.39430792422E+04 0.  0.
        4    1    3    3  502    0  0.72829812033E+03 -0.74086997284E+03  0.22798771870E+04  0.25054237305E+04  0.12699999809E+01 0.  1.
       -4    1    3    3    0  502 -0.72829812033E+03  0.74086997284E+03 -0.11957066223E+04  0.15839893965E+04  0.12699999809E+01 0. -1.
</event>
<event>
 5   0  0.2661693E-07  0.4032865E+04  0.7818609E-02  0.7997949E-01
        2   -1    0    0  501    0  0.00000000000E+00  0.00000000000E+00  0.17445284717E+04  0.17445284717E+04  0.25500000920E-02 0.  1.
       -2   -1    0    0    0  501  0.00000000000E+00  0.00000000000E+00 -0.23307154072E+04  0.23307154072E+04  0.25500000920E-02 0. -1.
    10030    2    1    2    0    0  0.00000000000E+00  0.00000000000E+00 -0.58618693555E+03  0.40752438789E+04  0.40328646827E+04 0.  0.
        1    1    3    3  502    0 -0.76364117828E+03  0.15761057796E+04  0.71677923761E+03  0.18923608940E+04  0.50400001928E-02 0.  1.
       -1    1    3    3    0  502  0.76364117828E+03 -0.15761057796E+04 -0.13029661732E+04  0.21828829849E+04  0.50400001928E-02 0. -1.
</event>
<event>
 5   0  0.8528625E-08  0.3754626E+04  0.7818609E-02  0.8055963E-01
       -1   -1    0    0    0  501  0.00000000000E+00  0.00000000000E+00  0.13972638978E+04  0.13972638978E+04  0.50400001928E-02 0. -1.
        1   -1    0    0  501    0  0.00000000000E+00  0.00000000000E+00 -0.25222901139E+04  0.25222901139E+04  0.50400001928E-02 0.  1.
    10030    2    1    2    0    0  0.00000000000E+00  0.00000000000E+00 -0.11250262161E+04  0.39195540117E+04  0.37546264346E+04 0.  0.
        2    1    3    3  502    0 -0.87267805157E+03  0.14189561569E+04  0.34113257891E+03  0.17004043617E+04  0.25500000920E-02 0. -1.
       -2    1    3    3    0  502  0.87267805157E+03 -0.14189561569E+04 -0.14661587950E+04  0.22191496500E+04  0.25500000920E-02 0.  1.
</event>
<event>
 5   0  0.8528625E-08  0.3998043E+04  0.7818609E-02  0.8004942E-01
       -1   -1    0    0    0  501  0.00000000000E+00  0.00000000000E+00  0.22806948560E+04  0.22806948560E+04  0.50400001928E-02 0.  1.
        1   -1    0    0  501    0  0.00000000000E+00  0.00000000000E+00 -0.17521354761E+04  0.17521354761E+04  0.50400001928E-02 0. -1.
    10030    2    1    2    0    0  0.00000000000E+00  0.00000000000E+00  0.52855937994E+03  0.40328303321E+04  0.39980427048E+04 0.  0.
        2    1    3    3  502    0 -0.15487087992E+04  0.82339913175E+03  0.12315821866E+04  0.21431938217E+04  0.25500000920E-02 0.  1.
       -2    1    3    3    0  502  0.15487087992E+04 -0.82339913175E+03 -0.70302280666E+03  0.18896365105E+04  0.25500000920E-02 0. -1.
</event>
<event>
 5   0  0.2666978E-07  0.3984643E+04  0.7818609E-02  0.8007652E-01
       -2   -1    0    0    0  501  0.00000000000E+00  0.00000000000E+00  0.21409221692E+04  0.21409221692E+04  0.25500000920E-02 0.  1.
        2   -1    0    0  501    0  0.00000000000E+00  0.00000000000E+00 -0.18540349995E+04  0.18540349995E+04  0.25500000920E-02 0. -1.
    10030    2    1    2    0    0  0.00000000000E+00  0.00000000000E+00  0.28688716975E+03  0.39949571687E+04  0.39846428362E+04 0.  0.
        4    1    3    3  502    0  0.14308985855E+04  0.10378829811E+04  0.10648825322E+04  0.20636492592E+04  0.12699999809E+01 0.  1.
       -4    1    3    3    0  502 -0.14308985855E+04 -0.10378829811E+04 -0.77799536249E+03  0.19313079096E+04  0.12699999809E+01 0. -1.
</event>
<event>
 5   0  0.8528625E-08  0.3977486E+04  0.7818609E-02  0.8009104E-01
        1   -1    0    0  501    0  0.00000000000E+00  0.00000000000E+00  0.25622747423E+04  0.25622747423E+04  0.50400001928E-02 0.  1.
       -1   -1    0    0    0  501  0.00000000000E+00  0.00000000000E+00 -0.15435892321E+04  0.15435892321E+04  0.50400001928E-02 0. -1.
    10030    2    1    2    0    0  0.00000000000E+00  0.00000000000E+00  0.10186855102E+04  0.41058639745E+04  0.39774864937E+04 0.  0.
        3    1    3    3  502    0  0.18941663541E+04 -0.22039579745E+03  0.10920616218E+04  0.21975074699E+04  0.10100000352E+00 0.  1.
       -3    1    3    3    0  502 -0.18941663541E+04  0.22039579745E+03 -0.73376111542E+02  0.19083565045E+04  0.10100000352E+00 0. -1.
</event>
<event>
 5   0  0.2666978E-07  0.3950657E+04  0.7818609E-02  0.8014575E-01
        2   -1    0    0  501    0  0.00000000000E+00  0.00000000000E+00  0.24514102859E+04  0.24514102859E+04  0.25500000920E-02 0.  1.
       -2   -1    0    0    0  501  0.00000000000E+00  0.00000000000E+00 -0.15917048917E+04  0.15917048917E+04  0.25500000920E-02 0. -1.
    10030    2    1    2    0    0  0.00000000000E+00  0.00000000000E+00  0.85970539421E+03  0.40431151776E+04  0.39506565245E+04 0.  0.
        4    1    3    3  502    0 -0.17151366835E+04 -0.22132665879E+02 -0.57273606183E+03  0.18083727236E+04  0.12699999809E+01 0. -1.
       -4    1    3    3    0  502  0.17151366835E+04  0.22132665879E+02  0.14324414560E+04  0.22347424540E+04  0.12699999809E+01 0.  1.
</event>
<event>
 5   0  0.8528625E-08  0.3978187E+04  0.7818609E-02  0.8008961E-01
        1   -1    0    0  501    0  0.00000000000E+00  0.00000000000E+00  0.18195569244E+04  0.18195569244E+04  0.50400001928E-02 0.  1.
       -1   -1    0    0    0  501  0.00000000000E+00  0.00000000000E+00 -0.21744263904E+04  0.21744263904E+04  0.50400001928E-02 0. -1.
    10030    2    1    2    0    0  0.00000000000E+00  0.00000000000E+00 -0.35486946599E+03  0.39939833149E+04  0.39781868209E+04 0.  0.
        3    1    3    3  502    0  0.12180708051E+04 -0.11103231980E+04  0.94053011562E+03  0.18976593474E+04  0.10100000352E+00 0.  1.
       -3    1    3    3    0  502 -0.12180708051E+04  0.11103231980E+04 -0.12953995816E+04  0.20963239675E+04  0.10100000352E+00 0. -1.
</event>
<event>
 5   0  0.8528625E-08  0.4044510E+04  0.7818609E-02  0.7995627E-01
        1   -1    0    0  501    0  0.00000000000E+00  0.00000000000E+00  0.21047605495E+04  0.21047605496E+04  0.50400001928E-02 0.  1.
       -1   -1    0    0    0  501  0.00000000000E+00  0.00000000000E+00 -0.19429839294E+04  0.19429839294E+04  0.50400001928E-02 0. -1.
    10030    2    1    2    0    0  0.00000000000E+00  0.00000000000E+00  0.16177662015E+03  0.40477444790E+04  0.40445103155E+04 0.  0.
        3    1    3    3  502    0  0.19191204988E+03 -0.71525310688E+03 -0.18023971604E+04  0.19486027753E+04  0.10100000352E+00 0. -1.
       -3    1    3    3    0  502 -0.19191204988E+03  0.71525310688E+03  0.19641737805E+04  0.20991417037E+04  0.10100000352E+00 0.  1.
</event>
<event>
 5   0  0.2666978E-07  0.3974715E+04  0.7818609E-02  0.8009667E-01
        2   -1    0    0  501    0  0.00000000000E+00  0.00000000000E+00  0.22136834474E+04  0.22136834474E+04  0.25500000920E-02 0.  1.
       -2   -1    0    0    0  501  0.00000000000E+00  0.00000000000E+00 -0.17841706803E+04  0.17841706803E+04  0.25500000920E-02 0. -1.
    10030    2    1    2    0    0  0.00000000000E+00  0.00000000000E+00  0.42951276714E+03  0.39978541277E+04  0.39747146324E+04 0.  0.
        4    1    3    3  502    0  0.36522488300E+03 -0.11202420961E+04 -0.13949530073E+04  0.18259866031E+04  0.12699999809E+01 0. -1.
       -4    1    3    3    0  502 -0.36522488300E+03  0.11202420961E+04  0.18244657745E+04  0.21718675246E+04  0.12699999809E+01 0.  1.
</event>
<event>
 5   0  0.2661693E-07  0.3935492E+04  0.7818609E-02  0.8017688E-01
        2   -1    0    0  501    0  0.00000000000E+00  0.00000000000E+00  0.19570598284E+04  0.19570598284E+04  0.25500000920E-02 0. -1.
       -2   -1    0    0    0  501  0.00000000000E+00  0.00000000000E+00 -0.19784901273E+04  0.19784901274E+04  0.25500000920E-02 0.  1.
    10030    2    1    2    0    0  0.00000000000E+00  0.00000000000E+00 -0.21430298995E+02  0.39355499557E+04  0.39354916079E+04 0.  0.
        1    1    3    3  502    0 -0.15210235604E+04  0.13749026158E+03  0.12301123803E+04  0.19610182843E+04  0.50400001928E-02 0. -1.
       -1    1    3    3    0  502  0.15210235604E+04 -0.13749026158E+03 -0.12515426793E+04  0.19745316714E+04  0.50400001928E-02 0.  1.
</event>
<event>
 5   0  0.2730801E-07  0.4166862E+04  0.7818609E-02  0.7971706E-01
        2   -1    0    0  501    0  0.00000000000E+00  0.00000000000E+00  0.18930208274E+04  0.18930208274E+04  0.25500000920E-02 0. -1.
       -2   -1    0    0    0  501  0.00000000000E+00  0.00000000000E+00 -0.22929931443E+04  0.22929931443E+04  0.25500000920E-02 0.  1.
    10030    2    1    2    0    0  0.00000000000E+00  0.00000000000E+00 -0.39997231692E+03  0.41860139718E+04  0.41668615429E+04 0.  0.
        2    1    3    3  502    0  0.53429468232E+03 -0.19763095961E+04 -0.58830307338E+03  0.21301105448E+04  0.25500000920E-02 0.  1.
       -2    1    3    3    0  502 -0.53429468232E+03  0.19763095961E+04  0.18833075646E+03  0.20559034269E+04  0.25500000920E-02 0. -1.
</event>
<event>
 5   0  0.2666978E-07  0.3955550E+04  0.7818609E-02  0.8013574E-01
        2   -1    0    0  501    0  0.00000000000E+00  0.00000000000E+00  0.23254870895E+04  0.23254870895E+04  0.25500000920E-02 0.  1.
       -2   -1    0    0    0  501  0.00000000000E+00  0.00000000000E+00 -0.16820533612E+04  0.16820533612E+04  0.25500000920E-02 0. -1.
    10030    2    1    2    0    0  0.00000000000E+00  0.00000000000E+00  0.64343372832E+03  0.40075404507E+04  0.39555497092E+04 0.  0.
        4    1    3    3  502    0  0.17406138476E+04  0.80321529731E+03 -0.17119644838E+03  0.19246301507E+04  0.12699999809E+01 0.  1.
       -4    1    3    3    0  502 -0.17406138476E+04 -0.80321529731E+03  0.81463017670E+03  0.20829103000E+04  0.12699999809E+01 0. -1.
</event>
<event>
 5   0  0.8583262E-08  0.3019489E+04  0.7818609E-02  0.8238187E-01
       -1   -1    0    0    0  501  0.00000000000E+00  0.00000000000E+00  0.22218250587E+04  0.22218250587E+04  0.50400001928E-02 0.  1.
        1   -1    0    0  501    0  0.00000000000E+00  0.00000000000E+00 -0.10258813503E+04  0.10258813503E+04  0.50400001928E-02 0. -1.
    10030    2    1    2    0    0  0.00000000000E+00  0.00000000000E+00  0.11959437084E+04  0.32477064090E+04  0.30194892889E+04 0.  0.
        1    1    3    3  502    0  0.44410843814E+02 -0.79548082390E+03  0.19773045531E+04  0.21317822028E+04  0.50400001928E-02 0.  1.
       -1    1    3    3    0  502 -0.44410843814E+02  0.79548082390E+03 -0.78136084478E+03  0.11159242062E+04  0.50400001928E-02 0. -1.
</event>
<event>
 5   0  0.8528625E-08  0.4000313E+04  0.7818609E-02  0.8004483E-01
        1   -1    0    0  501    0  0.00000000000E+00  0.00000000000E+00  0.20258756318E+04  0.20258756319E+04  0.50400001928E-02 0. -1.
       -1   -1    0    0    0  501  0.00000000000E+00  0.00000000000E+00 -0.19747637686E+04  0.19747637686E+04  0.50400001928E-02 0.  1.
    10030    2    1    2    0    0  0.00000000000E+00  0.00000000000E+00  0.51111863286E+02  0.40006394004E+04  0.40003128865E+04 0.  0.
        3    1    3    3  502    0  0.27711794673E+03  0.16887685046E+04 -0.10098509237E+04  0.19870914213E+04  0.10100000352E+00 0.  1.
       -3    1    3    3    0  502 -0.27711794673E+03 -0.16887685046E+04  0.10609627870E+04  0.20135479791E+04  0.10100000352E+00 0. -1.
</event>
<event>
 5   0  0.2730801E-07  0.4003720E+04  0.7818609E-02  0.8003797E-01
       -2   -1    0    0    0  501  0.00000000000E+00  0.00000000000E+00  0.32625679549E+04  0.32625679549E+04  0.25500000920E-02 0.  1.
        2   -1    0    0  501    0  0.00000000000E+00  0.00000000000E+00 -0.12283095596E+04  0.12283095596E+04  0.25500000920E-02 0. -1.
    10030    2    1    2    0    0  0.00000000000E+00  0.00000000000E+00  0.20342583954E+04  0.44908775145E+04  0.40037199741E+04 0.  0.
        2    1    3    3  502    0  0.16111718118E+03 -0.19562041089E+04  0.57588089392E+03  0.20455639970E+04  0.25500000920E-02 0.  1.
       -2    1    3    3    0  502 -0.16111718118E+03  0.19562041089E+04  0.14583775015E+04  0.24453135175E+04  0.25500000920E-02 0. -1.
</event>
<event>
 5   0  0.8528625E-08  0.4058883E+04  0.7818609E-02  0.7992772E-01
       -1   -1    0    0    0  501  0.00000000000E+00  0.00000000000E+00  0.30540471265E+04  0.30540471265E+04  0.50400001928E-02 0.  1.
        1   -1    0    0  501    0  0.00000000000E+00  0.00000000000E+00 -0.13485821793E+04  0.13485821793E+04  0.50400001928E-02 0. -1.
    10030    2    1    2    0    0  0.00000000000E+00  0.00000000000E+00  0.17054649472E+04  0.44026293057E+04  0.40588833585E+04 0.  0.
        2    1    3    3  502    0 -0.15027919105E+03 -0.13098679347E+04 -0.82074936672E+03  0.15530509858E+04  0.25500000920E-02 0. -1.
       -2    1    3    3    0  502  0.15027919105E+03  0.13098679347E+04  0.25262143139E+04  0.28495783199E+04  0.25500000920E-02 0.  1.
</event>
<event>
 5   0  0.8528625E-08  0.3956208E+04  0.7818609E-02  0.8013440E-01
       -1   -1    0    0    0  501  0.00000000000E+00  0.00000000000E+00  0.13527294937E+04  0.13527294937E+04  0.50400001928E-02 0. -1.
        1   -1    0    0  501    0  0.00000000000E+00  0.00000000000E+00 -0.28925922105E+04  0.28925922105E+04  0.50400001928E-02 0.  1.
    10030    2    1    2    0    0  0.00000000000E+00  0.00000000000E+00 -0.15398627169E+04  0.42453217042E+04  0.39562076772E+04 0.  0.
        4    1    3    3  502    0 -0.51862076868E+03  0.52021303995E+03  0.12009445014E+04  0.14077849328E+04  0.12699999809E+01 0. -1.
       -4    1    3    3    0  502  0.51862076868E+03 -0.52021303995E+03 -0.27408072183E+04  0.28375367714E+04  0.12699999809E+01 0.  1.
</event>
<event>
 5   0  0.8528625E-08  0.3943405E+04  0.7818609E-02  0.8016062E-01
        1   -1    0    0  501    0  0.00000000000E+00  0.00000000000E+00  0.16338316747E+04  0.16338316747E+04  0.50400001928E-02 0.  1.
       -1   -1    0    0    0  501  0.00000000000E+00  0.00000000000E+00 -0.23794436339E+04  0.23794436339E+04  0.50400001928E-02 0. -1.
    10030    2    1    2    0    0  0.00000000000E+00  0.00000000000E+00 -0.74561195919E+03  0.40132753086E+04  0.39434048117E+04 0.  0.
        4    1    3    3  502    0 -0.81641658098E+03  0.17787734107E+04 -0.12974832950E+03  0.19614808493E+04  0.12699999809E+01 0.  1.
       -4    1    3    3    0  502  0.81641658098E+03 -0.17787734107E+04 -0.61586362969E+03  0.20517944593E+04  0.12699999809E+01 0. -1.
</event>
<event>
 5   0  0.2730801E-07  0.3856644E+04  0.7818609E-02  0.8034107E-01
        2   -1    0    0  501    0  0.00000000000E+00  0.00000000000E+00  0.25268407315E+04  0.25268407315E+04  0.25500000920E-02 0.  1.
       -2   -1    0    0    0  501  0.00000000000E+00  0.00000000000E+00 -0.14715712736E+04  0.14715712736E+04  0.25500000920E-02 0. -1.
    10030    2    1    2    0    0  0.00000000000E+00  0.00000000000E+00  0.10552694579E+04  0.39984120051E+04  0.38566442582E+04 0.  0.
        2    1    3    3  502    0 -0.95120748029E+03  0.92279929722E+03 -0.92459537164E+03  0.16159303248E+04  0.25500000920E-02 0. -1.
       -2    1    3    3    0  502  0.95120748029E+03 -0.92279929722E+03  0.19798648296E+04  0.23824816803E+04  0.25500000920E-02 0.  1.
</event>
<event>
 5   0  0.8583262E-08  0.3990312E+04  0.7818609E-02  0.8006504E-01
       -1   -1    0    0    0  501  0.00000000000E+00  0.00000000000E+00  0.22188977530E+04  0.22188977530E+04  0.50400001928E-02 0. -1.
        1   -1    0    0  501    0  0.00000000000E+00  0.00000000000E+00 -0.17939755542E+04  0.17939755542E+04  0.50400001928E-02 0.  1.
    10030    2    1    2    0    0  0.00000000000E+00  0.00000000000E+00  0.42492219880E+03  0.40128733072E+04  0.39903124320E+04 0.  0.
        1    1    3    3  502    0  0.71565774558E+02  0.18852767241E+04  0.86517491178E+03  0.20755523638E+04  0.50400001928E-02 0. -1.
       -1    1    3    3    0  502 -0.71565774558E+02 -0.18852767241E+04 -0.44025271298E+03  0.19373209435E+04  0.50400001928E-02 0.  1.
</event>
<event>
 5   0  0.2730801E-07  0.3951562E+04  0.7818609E-02  0.8014390E-01
        2   -1    0    0  501    0  0.00000000000E+00  0.00000000000E+00  0.17921370468E+04  0.17921370468E+04  0.25500000920E-02 0. -1.
       -2   -1    0    0    0  501  0.00000000000E+00  0.00000000000E+00 -0.21782434038E+04  0.21782434038E+04  0.25500000920E-02 0.  1.
    10030    2    1    2    0    0  0.00000000000E+00  0.00000000000E+00 -0.38610635701E+03  0.39703804506E+04  0.39515620714E+04 0.  0.
        2    1    3    3  502    0 -0.75601957782E+03  0.11358491449E+04  0.12427348056E+04  0.18455645963E+04  0.25500000920E-02 0. -1.
       -2    1    3    3    0  502  0.75601957782E+03 -0.11358491449E+04 -0.16288411626E+04  0.21248158544E+04  0.25500000920E-02 0.  1.
</event>
<event>
 5   0  0.2730801E-07  0.3160400E+04  0.7818609E-02  0.8199354E-01
       -2   -1    0    0    0  501  0.00000000000E+00  0.00000000000E+00  0.86125913034E+03  0.86125913035E+03  0.25500000920E-02 0. -1.
        2   -1    0    0  501    0  0.00000000000E+00  0.00000000000E+00 -0.28992805925E+04  0.28992805925E+04  0.25500000920E-02 0.  1.
    10030    2    1    2    0    0  0.00000000000E+00  0.00000000000E+00 -0.20380214622E+04  0.37605397228E+04  0.31603998998E+04 0.  0.
        2    1    3    3  502    0 -0.99070707888E+03 -0.12058312149E+04 -0.13141006263E+04  0.20401935915E+04  0.25500000920E-02 0. -1.
       -2    1    3    3    0  502  0.99070707888E+03  0.12058312149E+04 -0.72392083587E+03  0.17203461313E+04  0.25500000920E-02 0.  1.
</event>
<event>
 5   0  0.2730801E-07  0.3984394E+04  0.7818609E-02  0.8007702E-01
        2   -1    0    0  501    0  0.00000000000E+00  0.00000000000E+00  0.25846025787E+04  0.25846025787E+04  0.25500000920E-02 0.  1.
       -2   -1    0    0    0  501  0.00000000000E+00  0.00000000000E+00 -0.15355738319E+04  0.15355738319E+04  0.25500000920E-02 0. -1.
    10030    2    1    2    0    0  0.00000000000E+00  0.00000000000E+00  0.10490287468E+04  0.41201764105E+04  0.39843935978E+04 0.  0.
        2    1    3    3  502    0  0.13191227452E+04 -0.12623427424E+04 -0.29967555966E+03  0.18502430806E+04  0.25500000920E-02 0.  1.
       -2    1    3    3    0  502 -0.13191227452E+04  0.12623427424E+04  0.13487043065E+04  0.22699333300E+04  0.25500000920E-02 0. -1.
</event>
<event>
 5   0  0.2661693E-07  0.2946467E+04  0.7818609E-02  0.8259185E-01
        2   -1    0    0  501    0  0.00000000000E+00  0.00000000000E+00  0.28225885541E+04  0.28225885541E+04  0.25500000920E-02 0. -1.
       -2   -1    0    0    0  501  0.00000000000E+00  0.00000000000E+00 -0.76894550039E+03  0.76894550039E+03  0.25500000920E-02 0.  1.
    10030    2    1    2    0    0  0.00000000000E+00  0.00000000000E+00  0.20536430537E+04  0.35915340545E+04  0.29464668796E+04 0.  0.
        1    1    3    3  502    0 -0.13234494320E+04 -0.63134994929E+03  0.85316964875E+03  0.16964726957E+04  0.50400001928E-02 0. -1.
       -1    1    3    3    0  502  0.13234494320E+04  0.63134994929E+03  0.12004734050E+04  0.18950613588E+04  0.50400001928E-02 0.  1.
</event>
<event>
 5   0  0.8528625E-08  0.4054256E+04  0.7818609E-02  0.7993690E-01
        1   -1    0    0  501    0  0.00000000000E+00  0.00000000000E+00  0.20891601797E+04  0.20891601797E+04  0.50400001928E-02 0.  1.
       -1   -1    0    0    0  501  0.00000000000E+00  0.00000000000E+00 -0.19669380707E+04  0.19669380707E+04  0.50400001928E-02 0. -1.
    10030    2    1    2    0    0  0.00000000000E+00  0.00000000000E+00  0.12222210904E+03  0.40560982504E+04  0.40542563774E+04 0.  0.
        2    1    3    3  502    0 -0.77791276507E+03 -0.64725392495E+03 -0.16961500623E+04  0.19750977058E+04  0.25500000920E-02 0. -1.
       -2    1    3    3    0  502  0.77791276507E+03  0.64725392495E+03  0.18183721714E+04  0.20810005447E+04  0.25500000920E-02 0.  1.
</event>
<event>
 5   0  0.2666978E-07  0.3878501E+04  0.7818609E-02  0.8029515E-01
       -2   -1    0    0    0  501  0.00000000000E+00  0.00000000000E+00  0.12179488275E+04  0.12179488275E+04  0.25500000920E-02 0. -1.
        2   -1    0    0  501    0  0.00000000000E+00  0.00000000000E+00 -0.30877263732E+04  0.30877263732E+04  0.25500000920E-02 0.  1.
    10030    2    1    2    0    0  0.00000000000E+00  0.00000000000E+00 -0.18697775457E+04  0.43056752006E+04  0.38785011103E+04 0.  0.
        4    1    3    3  502    0 -0.83162625481E+02 -0.18770504755E+04 -0.14678209148E+04  0.23842680975E+04  0.12699999809E+01 0.  1.
       -4    1    3    3    0  502  0.83162625481E+02  0.18770504755E+04 -0.40195663089E+03  0.19214071031E+04  0.12699999809E+01 0. -1.
</event>
<event>
 5   0  0.2704088E-07  0.3980186E+04  0.7818609E-02  0.8008556E-01
       -2   -1    0    0    0  501  0.00000000000E+00  0.00000000000E+00  0.25903394395E+04  0.25903394395E+04  0.25500000920E-02 0.  1.
        2   -1    0    0  501    0  0.00000000000E+00  0.00000000000E+00 -0.15289389291E+04  0.15289389291E+04  0.25500000920E-02 0. -1.
    10030    2    1    2    0    0  0.00000000000E+00  0.00000000000E+00  0.10614005105E+04  0.41192783686E+04  0.39801863316E+04 0.  0.
        5    1    3    3  502    0  0.13194806641E+04 -0.11182192658E+04  0.15494811318E+04  0.23221450034E+04  0.46999998093E+01 0.  1.
       -5    1    3    3    0  502 -0.13194806641E+04  0.11182192658E+04 -0.48808062134E+03  0.17971333651E+04  0.46999998093E+01 0. -1.
</event>
<event>
 5   0  0.8528625E-08  0.4061365E+04  0.7818609E-02  0.7992280E-01
        1   -1    0    0  501    0  0.00000000000E+00  0.00000000000E+00  0.15739125259E+04  0.15739125259E+04  0.50400001928E-02 0. -1.
       -1   -1    0    0    0  501  0.00000000000E+00  0.00000000000E+00 -0.26200136207E+04  0.26200136207E+04  0.50400001928E-02 0.  1.
    10030    2    1    2    0    0  0.00000000000E+00  0.00000000000E+00 -0.10461010948E+04  0.41939261466E+04  0.40613654135E+04 0.  0.
        5    1    3    3  502    0  0.95181246496E+03  0.56374142930E+03 -0.22815414803E+04  0.25355876999E+04  0.46999998093E+01 0.  1.
       -5    1    3    3    0  502 -0.95181246496E+03 -0.56374142930E+03  0.12354403855E+04  0.16583384467E+04  0.46999998093E+01 0. -1.
</event>
<event>
 5   0  0.2704088E-07  0.2931528E+04  0.7818609E-02  0.8263558E-01
        2   -1    0    0  501    0  0.00000000000E+00  0.00000000000E+00  0.18223730044E+04  0.18223730044E+04  0.25500000920E-02 0.  1.
       -2   -1    0    0    0  501  0.00000000000E+00  0.00000000000E+00 -0.11789375346E+04  0.11789375346E+04  0.25500000920E-02 0. -1.
    10030    2    1    2    0    0  0.00000000000E+00  0.00000000000E+00  0.64343546979E+03  0.30013105390E+04  0.29315278863E+04 0.  0.
        5    1    3    3  502    0  0.70672126258E+03  0.58137099531E+03 -0.85052450501E+03  0.12493443083E+04  0.46999998093E+01 0. -1.
       -5    1    3    3    0  502 -0.70672126258E+03 -0.58137099531E+03  0.14939599748E+04  0.17519662307E+04  0.46999998093E+01 0.  1.
</event>
<event>
 5   0  0.8528625E-08  0.3973122E+04  0.7818609E-02  0.8009991E-01
        1   -1    0    0  501    0  0.00000000000E+00  0.00000000000E+00  0.20974029102E+04  0.20974029102E+04  0.50400001928E-02 0. -1.
       -1   -1    0    0    0  501  0.00000000000E+00  0.00000000000E+00 -0.18815771794E+04  0.18815771794E+04  0.50400001928E-02 0.  1.
    10030    2    1    2    0    0  0.00000000000E+00  0.00000000000E+00  0.21582573079E+03  0.39789800896E+04  0.39731224255E+04 0.  0.
        5    1    3    3  502    0  0.10777329998E+04 -0.16573094251E+04  0.30370151211E+03  0.20001099089E+04  0.46999998093E+01 0. -1.
       -5    1    3    3    0  502 -0.10777329998E+04  0.16573094251E+04 -0.87875781314E+02  0.19788701807E+04  0.46999998093E+01 0.  1.
</event>
<event>
 5   0  0.2704088E-07  0.3759250E+04  0.7818609E-02  0.8054957E-01
        2   -1    0    0  501    0  0.00000000000E+00  0.00000000000E+00  0.21505649255E+04  0.21505649255E+04  0.25500000920E-02 0.  1.
       -2   -1    0    0    0  501  0.00000000000E+00  0.00000000000E+00 -0.16428196036E+04  0.16428196036E+04  0.25500000920E-02 0. -1.
    10030    2    1    2    0    0  0.00000000000E+00  0.00000000000E+00  0.50774532189E+03  0.37933845292E+04  0.37592500414E+04 0.  0.
        5    1    3    3  502    0 -0.14985444830E+04  0.11055310788E+04  0.51140286941E+03  0.19311627375E+04  0.46999998093E+01 0.  1.
       -5    1    3    3    0  502  0.14985444830E+04 -0.11055310788E+04 -0.36575475182E+01  0.18622217917E+04  0.46999998093E+01 0. -1.
</event>
<event>
 5   0  0.2730801E-07  0.3992074E+04  0.7818609E-02  0.8006147E-01
        2   -1    0    0  501    0  0.00000000000E+00  0.00000000000E+00  0.21470978510E+04  0.21470978510E+04  0.25500000920E-02 0. -1.
       -2   -1    0    0    0  501  0.00000000000E+00  0.00000000000E+00 -0.18556037624E+04  0.18556037624E+04  0.25500000920E-02 0.  1.
    10030    2    1    2    0    0  0.00000000000E+00  0.00000000000E+00  0.29149408867E+03  0.40027016134E+04  0.39920735717E+04 0.  0.
        2    1    3    3  502    0 -0.19657595988E+04 -0.13224199106E+03  0.46669939281E+03  0.20247239485E+04  0.25500000920E-02 0. -1.
       -2    1    3    3    0  502  0.19657595988E+04  0.13224199106E+03 -0.17520530414E+03  0.19779776649E+04  0.25500000920E-02 0.  1.
</event>
<event>
 5   0  0.8583262E-08  0.4113489E+04  0.7818609E-02  0.7982035E-01
       -1   -1    0    0    0  501  0.00000000000E+00  0.00000000000E+00  0.22632402611E+04  0.22632402611E+04  0.50400001928E-02 0.  1.
        1   -1    0    0  501    0  0.00000000000E+00  0.00000000000E+00 -0.18690893595E+04  0.18690893595E+04  0.50400001928E-02 0. -1.
    10030    2    1    2    0    0  0.00000000000E+00  0.00000000000E+00  0.39415090162E+03  0.41323296206E+04  0.41134891710E+04 0.  0.
        1    1    3    3  502    0 -0.17284464928E+04 -0.95269059652E+03 -0.38441216689E+03  0.20107012123E+04  0.50400001928E-02 0. -1.
       -1    1    3    3    0  502  0.17284464928E+04  0.95269059652E+03  0.77856306851E+03  0.21216284083E+04  0.50400001928E-02 0.  1.
</event>
<event>
 5   0  0.8528625E-08  0.3838914E+04  0.7818609E-02  0.8037855E-01
       -1   -1    0    0    0  501  0.00000000000E+00  0.00000000000E+00  0.15059980223E+04  0.15059980223E+04  0.50400001928E-02 0. -1.
        1   -1    0    0  501    0  0.00000000000E+00  0.00000000000E+00 -0.24464281455E+04  0.24464281455E+04  0.50400001928E-02 0.  1.
    10030    2    1    2    0    0  0.00000000000E+00  0.00000000000E+00 -0.94043012316E+03  0.39524261678E+04  0.38389144032E+04 0.  0.
        3    1    3    3  502    0  0.84509515398E+03 -0.14991786344E+04  0.40497499551E+03  0.17679726113E+04  0.10100000352E+00 0. -1.
       -3    1    3    3    0  502 -0.84509515398E+03  0.14991786344E+04 -0.13454051187E+04  0.21844535565E+04  0.10100000352E+00 0.  1.
</event>
<event>
 5   0  0.2666978E-07  0.3997741E+04  0.7818609E-02  0.8005003E-01
        2   -1    0    0  501    0  0.00000000000E+00  0.00000000000E+00  0.30217377572E+04  0.30217377572E+04  0.25500000920E-02 0.  1.
       -2   -1    0    0    0  501  0.00000000000E+00  0.00000000000E+00 -0.13222465890E+04  0.13222465890E+04  0.25500000920E-02 0. -1.
    10030    2    1    2    0    0  0.00000000000E+00  0.00000000000E+00  0.16994911682E+04  0.43439843461E+04  0.39977405830E+04 0.  0.
        4    1    3    3  502    0 -0.13646511940E+04 -0.41472799610E+03 -0.67197719332E+03  0.15766506123E+04  0.12699999809E+01 0. -1.
       -4    1    3    3    0  502  0.13646511940E+04  0.41472799610E+03  0.23714683616E+04  0.27673337339E+04  0.12699999809E+01 0.  1.
</event>
<event>
 5   0  0.2666978E-07  0.3956418E+04  0.7818609E-02  0.8013396E-01
       -2   -1    0    0    0  501  0.00000000000E+00  0.00000000000E+00  0.16618991814E+04  0.16618991814E+04  0.25500000920E-02 0.  1.
        2   -1    0    0  501    0  0.00000000000E+00  0.00000000000E+00 -0.23547227350E+04  0.23547227350E+04  0.25500000920E-02 0. -1.
    10030    2    1    2    0    0  0.00000000000E+00  0.00000000000E+00 -0.69282355362E+03  0.40166219165E+04  0.39564184742E+04 0.  0.
        4    1    3    3  502    0  0.10764109284E+04 -0.10664889524E+04 -0.16374748117E+04  0.22310052766E+04  0.12699999809E+01 0. -1.
       -4    1    3    3    0  502 -0.10764109284E+04  0.10664889524E+04  0.94465125806E+03  0.17856166399E+04  0.12699999809E+01 0.  1.
</event>
<event>
 5   0  0.2661693E-07  0.4030105E+04  0.7818609E-02  0.7998501E-01
       -2   -1    0    0    0  501  0.00000000000E+00  0.00000000000E+00  0.18081278786E+04  0.18081278786E+04  0.25500000920E-02 0. -1.
        2   -1    0    0  501    0  0.00000000000E+00  0.00000000000E+00 -0.22456580644E+04  0.22456580644E+04  0.25500000920E-02 0.  1.
    10030    2    1    2    0    0  0.00000000000E+00  0.00000000000E+00 -0.43753018579E+03  0.40537859430E+04  0.40301051858E+04 0.  0.
        1    1    3    3  502    0  0.21993775995E+03  0.10633319372E+04 -0.19262049598E+04  0.22111790914E+04  0.50400001928E-02 0.  1.
       -1    1    3    3    0  502 -0.21993775995E+03 -0.10633319372E+04  0.14886747740E+04  0.18426068516E+04  0.50400001928E-02 0. -1.
</event>
<event>
 5   0  0.2704088E-07  0.4004971E+04  0.7818609E-02  0.8003545E-01
        2   -1    0    0  501    0  0.00000000000E+00  0.00000000000E+00  0.16760818010E+04  0.16760818010E+04  0.25500000920E-02 0.  1.
       -2   -1    0    0    0  501  0.00000000000E+00  0.00000000000E+00 -0.23924535786E+04  0.23924535786E+04  0.25500000920E-02 0. -1.
    10030    2    1    2    0    0  0.00000000000E+00  0.00000000000E+00 -0.71637177759E+03  0.40685353796E+04  0.40049708627E+04 0.  0.
        5    1    3    3  502    0  0.13623631722E+03  0.26902544570E+02 -0.23875506089E+04  0.23915902829E+04  0.46999998093E+01 0. -1.
       -5    1    3    3    0  502 -0.13623631722E+03 -0.26902544570E+02  0.16711788313E+04  0.16769450967E+04  0.46999998093E+01 0.  1.
</event>
<event>
 5   0  0.8528625E-08  0.4119456E+04  0.7818609E-02  0.7980873E-01
        1   -1    0    0  501    0  0.00000000000E+00  0.00000000000E+00  0.22534516440E+04  0.22534516440E+04  0.50400001928E-02 0. -1.
       -1   -1    0    0    0  501  0.00000000000E+00  0.00000000000E+00 -0.18826583337E+04  0.18826583337E+04  0.50400001928E-02 0.  1.
    10030    2    1    2    0    0  0.00000000000E+00  0.00000000000E+00  0.37079331026E+03  0.41361099777E+04  0.41194560404E+04 0.  0.
        3    1    3    3  502    0  0.11269912581E+04 -0.10898891210E+04 -0.11558601277E+04  0.19478142203E+04  0.10100000352E+00 0.  1.
       -3    1    3    3    0  502 -0.11269912581E+04  0.10898891210E+04  0.15266534380E+04  0.21882957574E+04  0.10100000352E+00 0. -1.
</event>
<event>
 5   0  0.8583262E-08  0.2977118E+04  0.7818609E-02  0.8250295E-01
        1   -1    0    0  501    0  0.00000000000E+00  0.00000000000E+00  0.20101396537E+04  0.20101396537E+04  0.50400001928E-02 0. -1.
       -1   -1    0    0    0  501  0.00000000000E+00  0.00000000000E+00 -0.11023157483E+04  0.11023157483E+04  0.50400001928E-02 0.  1.
    10030    2    1    2    0    0  0.00000000000E+00  0.00000000000E+00  0.90782390540E+03  0.31124554019E+04  0.29771184702E+04 0.  0.
        1    1    3    3  502    0 -0.52861196343E+03  0.75593921650E+03 -0.76750186411E+03  0.11999724240E+04  0.50400001928E-02 0.  1.
       -1    1    3    3    0  502  0.52861196343E+03 -0.75593921650E+03  0.16753257695E+04  0.19124829779E+04  0.50400001928E-02 0. -1.
</event>
<event>
 5   0  0.2730801E-07  0.3986963E+04  0.7818609E-02  0.8007182E-01
       -2   -1    0    0    0  501  0.00000000000E+00  0.00000000000E+00  0.30439232351E+04  0.30439232351E+04  0.25500000920E-02 0.  1.
        2   -1    0    0  501    0  0.00000000000E+00  0.00000000000E+00 -0.13055413667E+04  0.13055413667E+04  0.25500000920E-02 0. -1.
    10030    2    1    2    0    0  0.00000000000E+00  0.00000000000E+00  0.17383818684E+04  0.43494646018E+04  0.39869626035E+04 0.  0.
        2    1    3    3  502    0  0.18623277160E+04  0.65263008523E+03  0.56106170462E+03  0.20515800707E+04  0.25500000920E-02 0. -1.
       -2    1    3    3    0  502 -0.18623277160E+04 -0.65263008523E+03  0.11773201638E+04  0.22978845311E+04  0.25500000920E-02 0.  1.
</event>
<event>
 5   0  0.8528625E-08  0.4003878E+04  0.7818609E-02  0.8003765E-01
       -1   -1    0    0    0  501  0.00000000000E+00  0.00000000000E+00  0.23815070348E+04  0.23815070348E+04  0.50400001928E-02 0. -1.
        1   -1    0    0  501    0  0.00000000000E+00  0.00000000000E+00 -0.16828669079E+04  0.16828669079E+04  0.50400001928E-02 0.  1.
    10030    2    1    2    0    0  0.00000000000E+00  0.00000000000E+00  0.69864012685E+03  0.40643739427E+04  0.40038778102E+04 0.  0.
        5    1    3    3  502    0 -0.17686110296E+04 -0.62680848964E+03 -0.35897859894E+03  0.19104349194E+04  0.46999998093E+01 0.  1.
       -5    1    3    3    0  502  0.17686110296E+04  0.62680848964E+03  0.10576187258E+04  0.21539390233E+04  0.46999998093E+01 0. -1.
</event>
<event>
 5   0  0.8528625E-08  0.4035277E+04  0.7818609E-02  0.7997468E-01
        1   -1    0    0  501    0  0.00000000000E+00  0.00000000000E+00  0.29579699037E+04  0.29579699037E+04  0.50400001928E-02 0. -1.
       -1   -1    0    0    0  501  0.00000000000E+00  0.00000000000E+00 -0.13762364329E+04  0.13762364330E+04  0.50400001928E-02 0.  1.
    10030    2    1    2    0    0  0.00000000000E+00  0.00000000000E+00  0.15817334708E+04  0.43342063367E+04  0.40352774126E+04 0.  0.
        3    1    3    3  502    0  0.16200116900E+04  0.98544024376E+03  0.50347486079E+02  0.18968566707E+04  0.10100000352E+00 0.  1.
       -3    1    3    3    0  502 -0.16200116900E+04 -0.98544024376E+03  0.15313859847E+04  0.24373496659E+04  0.10100000352E+00 0. -1.
</event>
<event>
 5   0  0.8528625E-08  0.3976658E+04  0.7818609E-02  0.8009272E-01
        1   -1    0    0  501    0  0.00000000000E+00  0.00000000000E+00  0.18312168587E+04  0.18312168587E+04  0.50400001928E-02 0. -1.
       -1   -1    0    0    0  501  0.00000000000E+00  0.00000000000E+00 -0.21589210021E+04  0.21589210022E+04  0.50400001928E-02 0.  1.
    10030    2    1    2    0    0  0.00000000000E+00  0.00000000000E+00 -0.32770414347E+03  0.39901378608E+04  0.39766581627E+04 0.  0.
        2    1    3    3  502    0 -0.10534053394E+04 -0.85876667328E+03 -0.16200846305E+04  0.21146671649E+04  0.25500000920E-02 0.  1.
       -2    1    3    3    0  502  0.10534053394E+04  0.85876667328E+03  0.12923804870E+04  0.18754706960E+04  0.25500000920E-02 0. -1.
</event>
<event>
 5   0  0.2730801E-07  0.4058561E+04  0.7818609E-02  0.7992836E-01
        2   -1    0    0  501    0  0.00000000000E+00  0.00000000000E+00  0.26070325002E+04  0.26070325002E+04  0.25500000920E-02 0. -1.
       -2   -1    0    0    0  501  0.00000000000E+00  0.00000000000E+00 -0.15795656116E+04  0.15795656116E+04  0.25500000920E-02 0.  1.
    10030    2    1    2    0    0  0.00000000000E+00  0.00000000000E+00  0.10274668886E+04  0.41865981118E+04  0.40585607723E+04 0.  0.
        2    1    3    3  502    0  0.15959115461E+04 -0.97917717473E+03  0.13208870661E+04  0.22913891515E+04  0.25500000920E-02 0. -1.
       -2    1    3    3    0  502 -0.15959115461E+04  0.97917717473E+03 -0.29342017741E+03  0.18952089603E+04  0.25500000920E-02 0.  1.
</event>
<event>
 5   0  0.2839279E-07  0.2964512E+04  0.7818609E-02  0.8253938E-01
        2   -1    0    0  501    0  0.00000000000E+00  0.00000000000E+00  0.16877422674E+04  0.16877422674E+04  0.25500000920E-02 0. -1.
       -2   -1    0    0    0  501  0.00000000000E+00  0.00000000000E+00 -0.13017880284E+04  0.13017880284E+04  0.25500000920E-02 0.  1.
    10030    2    1    2    0    0  0.00000000000E+00  0.00000000000E+00  0.38595423892E+03  0.29895302958E+04  0.29645118848E+04 0.  0.
        3    1    3    3  502    0 -0.17213074001E+03 -0.63578694721E+03  0.15320495793E+04  0.16676420352E+04  0.10100000352E+00 0. -1.
       -3    1    3    3    0  502  0.17213074001E+03  0.63578694721E+03 -0.11460953404E+04  0.13218882606E+04  0.10100000352E+00 0.  1.
</event>
<event>
 5   0  0.8528625E-08  0.4036486E+04  0.7818609E-02  0.7997226E-01
       -1   -1    0    0    0  501  0.00000000000E+00  0.00000000000E+00  0.29425606374E+04  0.29425606374E+04  0.50400001928E-02 0. -1.
        1   -1    0    0  501    0  0.00000000000E+00  0.00000000000E+00 -0.13842724683E+04  0.13842724683E+04  0.50400001928E-02 0.  1.
    10030    2    1    2    0    0  0.00000000000E+00  0.00000000000E+00  0.15582881691E+04  0.43268331057E+04  0.40364864308E+04 0.  0.
        5    1    3    3  502    0 -0.16996302555E+03 -0.12439386093E+04 -0.91471407069E+03  0.15533816707E+04  0.46999998093E+01 0.  1.
       -5    1    3    3    0  502  0.16996302555E+03  0.12439386093E+04  0.24730022398E+04  0.27734514349E+04  0.46999998093E+01 0. -1.
</event>
<event>
 5   0  0.8583262E-08  0.4047586E+04  0.7818609E-02  0.7995015E-01
        1   -1    0    0  501    0  0.00000000000E+00  0.00000000000E+00  0.18325510412E+04  0.18325510412E+04  0.50400001928E-02 0. -1.
       -1   -1    0    0    0  501  0.00000000000E+00  0.00000000000E+00 -0.22349924681E+04  0.22349924682E+04  0.50400001928E-02 0.  1.
    10030    2    1    2    0    0  0.00000000000E+00  0.00000000000E+00 -0.40244142693E+03  0.40675435094E+04  0.40475858358E+04 0.  0.
        1    1    3    3  502    0  0.77912138072E+02  0.13925354019E+04  0.12724726856E+04  0.18879650109E+04  0.50400001928E-02 0. -1.
       -1    1    3    3    0  502 -0.77912138072E+02 -0.13925354019E+04 -0.16749141125E+04  0.21795784985E+04  0.50400001928E-02 0.  1.
</event>
<event>
 5   0  0.8528625E-08  0.3457647E+04  0.7818609E-02  0.8123901E-01
        1   -1    0    0  501    0  0.00000000000E+00  0.00000000000E+00  0.10648795555E+04  0.10648795555E+04  0.50400001928E-02 0.  1.
       -1   -1    0    0    0  501  0.00000000000E+00  0.00000000000E+00 -0.28067311971E+04  0.28067311971E+04  0.50400001928E-02 0. -1.
    10030    2    1    2    0    0  0.00000000000E+00  0.00000000000E+00 -0.17418516416E+04  0.38716107527E+04  0.34576469858E+04 0.  0.
        5    1    3    3  502    0  0.13075462790E+04 -0.71365120976E+02 -0.21347954643E+04  0.25044248874E+04  0.46999998093E+01 0. -1.
       -5    1    3    3    0  502 -0.13075462790E+04  0.71365120976E+02  0.39294382271E+03  0.13671858652E+04  0.46999998093E+01 0.  1.
</event>
<event>
 5   0  0.2704088E-07  0.3963427E+04  0.7818609E-02  0.8011965E-01
       -2   -1    0    0    0  501  0.00000000000E+00  0.00000000000E+00  0.16154866724E+04  0.16154866724E+04  0.25500000920E-02 0. -1.
        2   -1    0    0  501    0  0.00000000000E+00  0.00000000000E+00 -0.24309633891E+04  0.24309633891E+04  0.25500000920E-02 0.  1.
    10030    2    1    2    0    0  0.00000000000E+00  0.00000000000E+00 -0.81547671667E+03  0.40464500615E+04  0.39634272826E+04 0.  0.
        5    1    3    3  502    0  0.28574910809E+03  0.11060826368E+04  0.12454698167E+04  0.16900557703E+04  0.46999998093E+01 0. -1.
       -5    1    3    3    0  502 -0.28574910809E+03 -0.11060826368E+04 -0.20609465334E+04  0.23563942912E+04  0.46999998093E+01 0.  1.
</event>
<event>
 5   0  0.2730801E-07  0.4004570E+04  0.7818609E-02  0.8003625E-01
       -2   -1    0    0    0  501  0.00000000000E+00  0.00000000000E+00  0.15659105639E+04  0.15659105639E+04  0.25500000920E-02 0. -1.
        2   -1    0    0  501    0  0.00000000000E+00  0.00000000000E+00 -0.25602650792E+04  0.25602650792E+04  0.25500000920E-02 0.  1.
    10030    2    1    2    0    0  0.00000000000E+00  0.00000000000E+00 -0.99435451532E+03  0.41261756431E+04  0.40045704558E+04 0.  0.
        2    1    3    3  502    0 -0.10050018762E+04 -0.13066942991E+04  0.67385030334E+03  0.17808854522E+04  0.25500000920E-02 0. -1.
       -2    1    3    3    0  502  0.10050018762E+04  0.13066942991E+04 -0.16682048187E+04  0.23452901909E+04  0.25500000920E-02 0.  1.
</event>
<event>
 5   0  0.2730801E-07  0.3982360E+04  0.7818609E-02  0.8008115E-01
        2   -1    0    0  501    0  0.00000000000E+00  0.00000000000E+00  0.19043773510E+04  0.19043773510E+04  0.25500000920E-02 0. -1.
       -2   -1    0    0    0  501  0.00000000000E+00  0.00000000000E+00 -0.20819386430E+04  0.20819386430E+04  0.25500000920E-02 0.  1.
    10030    2    1    2    0    0  0.00000000000E+00  0.00000000000E+00 -0.17756129202E+03  0.39863159941E+04  0.39823595006E+04 0.  0.
        2    1    3    3  502    0  0.46103888204E+03  0.19335199675E+04 -0.20611690964E+03  0.19983844715E+04  0.25500000920E-02 0. -1.
       -2    1    3    3    0  502 -0.46103888204E+03 -0.19335199675E+04  0.28555617627E+02  0.19879315226E+04  0.25500000920E-02 0.  1.
</event>
<event>
 5   0  0.2704088E-07  0.3678057E+04  0.7818609E-02  0.8072842E-01
       -2   -1    0    0    0  501  0.00000000000E+00  0.00000000000E+00  0.15248310734E+04  0.15248310734E+04  0.25500000920E-02 0. -1.
        2   -1    0    0  501    0  0.00000000000E+00  0.00000000000E+00 -0.22179675048E+04  0.22179675048E+04  0.25500000920E-02 0.  1.
    10030    2    1    2    0    0  0.00000000000E+00  0.00000000000E+00 -0.69313643136E+03  0.37427985782E+04  0.36780569714E+04 0.  0.
        5    1    3    3  502    0 -0.37771527082E+02  0.15125054018E+04 -0.14103905199E+04  0.20684106912E+04  0.46999998093E+01 0.  1.
       -5    1    3    3    0  502  0.37771527082E+02 -0.15125054018E+04  0.71725408849E+03  0.16743878870E+04  0.46999998093E+01 0. -1.
</event>
<event>
 5   0  0.2661693E-07  0.3861129E+04  0.7818609E-02  0.8033162E-01
        2   -1    0    0  501    0  0.00000000000E+00  0.00000000000E+00  0.19381884559E+04  0.19381884559E+04  0.25500000920E-02 0.  1.
       -2   -1    0    0    0  501  0.00000000000E+00  0.00000000000E+00 -0.19229709478E+04  0.19229709478E+04  0.25500000920E-02 0. -1.
    10030    2    1    2    0    0  0.00000000000E+00  0.00000000000E+00  0.15217508026E+02  0.38611594037E+04  0.38611294162E+04 0.  0.
        1    1    3    3  502    0  0.10472627999E+04 -0.16027712773E+04  0.25549160336E+03  0.19315566517E+04  0.50400001928E-02 0.  1.
       -1    1    3    3    0  502 -0.10472627999E+04  0.16027712773E+04 -0.24027409534E+03  0.19296027520E+04  0.50400001928E-02 0. -1.
</event>
<event>
 5   0  0.2730801E-07  0.3988025E+04  0.7818609E-02  0.8006967E-01
       -2   -1    0    0    0  501  0.00000000000E+00  0.00000000000E+00  0.20706943647E+04  0.20706943647E+04  0.25500000920E-02 0. -1.
        2   -1    0    0  501    0  0.00000000000E+00  0.00000000000E+00 -0.19201706573E+04  0.19201706573E+04  0.25500000920E-02 0.  1.
    10030    2    1    2    0    0  0.00000000000E+00  0.00000000000E+00  0.15052370738E+03  0.39908650220E+04  0.39880253556E+04 0.  0.
        2    1    3    3  502    0  0.19307636578E+04  0.11552841781E+03  0.56026295552E+03  0.20137253281E+04  0.25500000920E-02 0.  1.
       -2    1    3    3    0  502 -0.19307636578E+04 -0.11552841781E+03 -0.40973924814E+03  0.19771396939E+04  0.25500000920E-02 0. -1.
</event>
<event>
 5   0  0.2661693E-07  0.3965611E+04  0.7818609E-02  0.8011520E-01
        2   -1    0    0  501    0  0.00000000000E+00  0.00000000000E+00  0.18917239594E+04  0.18917239594E+04  0.25500000920E-02 0. -1.
       -2   -1    0    0    0  501  0.00000000000E+00  0.00000000000E+00 -0.20782720295E+04  0.20782720295E+04  0.25500000920E-02 0.  1.
    10030    2    1    2    0    0  0.00000000000E+00  0.00000000000E+00 -0.18654807012E+03  0.39699959889E+04  0.39656106679E+04 0.  0.
        1    1    3    3  502    0  0.64264591583E+03  0.17968069655E+04  0.44584534504E+03  0.19596650520E+04  0.50400001928E-02 0. -1.
       -1    1    3    3    0  502 -0.64264591583E+03 -0.17968069655E+04 -0.63239341516E+03  0.20103309369E+04  0.50400001928E-02 0.  1.
</event>
<event>
 5   0  0.8528625E-08  0.3960767E+04  0.7818609E-02  0.8012508E-01
        1   -1    0    0  501    0  0.00000000000E+00  0.00000000000E+00  0.16237815216E+04  0.16237815216E+04  0.50400001928E-02 0.  1.
       -1   -1    0    0    0  501  0.00000000000E+00  0.00000000000E+00 -0.24152992464E+04  0.24152992464E+04  0.50400001928E-02 0. -1.
    10030    2    1    2    0    0  0.00000000000E+00  0.00000000000E+00 -0.79151772480E+03  0.40390807680E+04  0.39607667366E+04 0.  0.
        4    1    3    3  502    0 -0.11822913956E+04 -0.15605179230E+04 -0.69979395620E+03  0.20791205656E+04  0.12699999809E+01 0. -1.
       -4    1    3    3    0  502  0.11822913956E+04  0.15605179230E+04 -0.91723768599E+02  0.19599602024E+04  0.12699999809E+01 0.  1.
</event>
<event>
 5   0  0.8583262E-08  0.3960284E+04  0.7818609E-02  0.8012607E-01
        1   -1    0    0  501    0  0.00000000000E+00  0.00000000000E+00  0.24816092744E+04  0.24816092744E+04  0.50400001928E-02 0.  1.
       -1   -1    0    0    0  501  0.00000000000E+00  0.00000000000E+00 -0.15800075538E+04  0.15800075538E+04  0.50400001928E-02 0. -1.
    10030    2    1    2    0    0  0.00000000000E+00  0.00000000000E+00  0.90160172056E+03  0.40616168282E+04  0.39602835247E+04 0.  0.
        1    1    3    3  502    0  0.13994842737E+04  0.78177608408E+03  0.16429690307E+04  0.22954470836E+04  0.50400001928E-02 0.  1.
       -1    1    3    3    0  502 -0.13994842737E+04 -0.78177608408E+03 -0.74136731013E+03  0.17661697445E+04  0.50400001928E-02 0. -1.
</event>
<event>
 5   0  0.8528625E-08  0.3937068E+04  0.7818609E-02  0.8017364E-01
        1   -1    0    0  501    0  0.00000000000E+00  0.00000000000E+00  0.18463425492E+04  0.18463425492E+04  0.50400001928E-02 0. -1.
       -1   -1    0    0    0  501  0.00000000000E+00  0.00000000000E+00 -0.20988125155E+04  0.20988125155E+04  0.50400001928E-02 0.  1.
    10030    2    1    2    0    0  0.00000000000E+00  0.00000000000E+00 -0.25246996631E+03  0.39451550647E+04  0.39370683765E+04 0.  0.
        4    1    3    3  502    0 -0.72539256233E+03  0.76802641920E+03  0.15382205138E+04  0.18660608008E+04  0.12699999809E+01 0. -1.
       -4    1    3    3    0  502  0.72539256233E+03 -0.76802641920E+03 -0.17906904801E+04  0.20790942640E+04  0.12699999809E+01 0.  1.
</event>
<event>
 5   0  0.2666978E-07  0.3507072E+04  0.7818609E-02  0.8112116E-01
        2   -1    0    0  501    0  0.00000000000E+00  0.00000000000E+00  0.22924787353E+04  0.22924787353E+04  0.25500000920E-02 0. -1.
       -2   -1    0    0    0  501  0.00000000000E+00  0.00000000000E+00 -0.13412938633E+04  0.13412938633E+04  0.25500000920E-02 0.  1.
    10030    2    1    2    0    0  0.00000000000E+00  0.00000000000E+00  0.95118487193E+03  0.36337725986E+04  0.35070715188E+04 0.  0.
        4    1    3    3  502    0 -0.14948164879E+04  0.47756160789E+03 -0.33520259460E+03  0.16046506829E+04  0.12699999809E+01 0.  1.
       -4    1    3    3    0  502  0.14948164879E+04 -0.47756160789E+03  0.12863874665E+04  0.20291219157E+04  0.12699999809E+01 0. -1.
</event>
<event>
 5   0  0.8528625E-08  0.3993623E+04  0.7818609E-02  0.8005834E-01
        1   -1    0    0  501    0  0.00000000000E+00  0.00000000000E+00  0.27387227439E+04  0.27387227439E+04  0.50400001928E-02 0. -1.
       -1   -1    0    0    0  501  0.00000000000E+00  0.00000000000E+00 -0.14558818851E+04  0.14558818851E+04  0.50400001928E-02 0.  1.
    10030    2    1    2    0    0  0.00000000000E+00  0.00000000000E+00  0.12828408588E+04  0.41946046290E+04  0.39936233329E+04 0.  0.
        5    1    3    3  502    0 -0.85663901814E+03  0.69117805899E+03 -0.11084601516E+04  0.15621342818E+04  0.46999998093E+01 0.  1.
       -5    1    3    3    0  502  0.85663901814E+03 -0.69117805899E+03  0.23913010104E+04  0.26324703472E+04  0.46999998093E+01 0. -1.
</event>
<event>
 5   0  0.8528625E-08  0.3774891E+04  0.7818609E-02  0.8051565E-01
       -1   -1    0    0    0  501  0.00000000000E+00  0.00000000000E+00  0.16457790744E+04  0.16457790744E+04  0.50400001928E-02 0. -1.
        1   -1    0    0  501    0  0.00000000000E+00  0.00000000000E+00 -0.21645983370E+04  0.21645983370E+04  0.50400001928E-02 0.  1.
    10030    2    1    2    0    0  0.00000000000E+00  0.00000000000E+00 -0.51881926254E+03  0.38103774114E+04  0.37748910700E+04 0.  0.
        2    1    3    3  502    0  0.72463610507E+03  0.35589124794E+03  0.14627043346E+04  0.16707064481E+04  0.25500000920E-02 0. -1.
       -2    1    3    3    0  502 -0.72463610507E+03 -0.35589124794E+03 -0.19815235972E+04  0.21396709633E+04  0.25500000920E-02 0.  1.
</event>
<event>
 5   0  0.8528625E-08  0.4064607E+04  0.7818609E-02  0.7991639E-01
       -1   -1    0    0    0  501  0.00000000000E+00  0.00000000000E+00  0.21925528695E+04  0.21925528695E+04  0.50400001928E-02 0. -1.
        1   -1    0    0  501    0  0.00000000000E+00  0.00000000000E+00 -0.18837664757E+04  0.18837664757E+04  0.50400001928E-02 0.  1.
    10030    2    1    2    0    0  0.00000000000E+00  0.00000000000E+00  0.30878639380E+03  0.40763193451E+04  0.40646070371E+04 0.  0.
        4    1    3    3  502    0 -0.10878586660E+04 -0.83482689565E+03  0.16586765725E+04  0.21521110585E+04  0.12699999809E+01 0. -1.
       -4    1    3    3    0  502  0.10878586660E+04  0.83482689565E+03 -0.13498901787E+04  0.19242082866E+04  0.12699999809E+01 0.  1.
</event>
<event>
 5   0  0.8583262E-08  0.4000625E+04  0.7818609E-02  0.8004420E-01
        1   -1    0    0  501    0  0.00000000000E+00  0.00000000000E+00  0.15735845462E+04  0.15735845462E+04  0.50400001928E-02 0.  1.
       -1   -1    0    0    0  501  0.00000000000E+00  0.00000000000E+00 -0.25427620220E+04  0.25427620220E+04  0.50400001928E-02 0. -1.
    10030    2    1    2    0    0  0.00000000000E+00  0.00000000000E+00 -0.96917747584E+03  0.41163465682E+04  0.40006254623E+04 0.  0.
        1    1    3    3  502    0 -0.11366999345E+04  0.14516580630E+02  0.12089097636E+04  0.16594457776E+04  0.50400001928E-02 0.  1.
       -1    1    3    3    0  502  0.11366999345E+04 -0.14516580630E+02 -0.21780872394E+04  0.24569007906E+04  0.50400001928E-02 0. -1.
</event>
<event>
 5   0  0.2839279E-07  0.4000940E+04  0.7818609E-02  0.8004357E-01
        2   -1    0    0  501    0  0.00000000000E+00  0.00000000000E+00  0.26808856404E+04  0.26808856404E+04  0.25500000920E-02 0.  1.
       -2   -1    0    0    0  501  0.00000000000E+00  0.00000000000E+00 -0.14927453570E+04  0.14927453571E+04  0.25500000920E-02 0. -1.
    10030    2    1    2    0    0  0.00000000000E+00  0.00000000000E+00  0.11881402834E+04  0.41736309975E+04  0.40009396859E+04 0.  0.
        3    1    3    3  502    0  0.22314259788E+03 -0.14093585557E+04 -0.86851516037E+03  0.16704498650E+04  0.10100000352E+00 0. -1.
       -3    1    3    3    0  502 -0.22314259788E+03  0.14093585557E+04  0.20566554438E+04  0.25031811325E+04  0.10100000352E+00 0.  1.
</event>
<event>
 5   0  0.8528625E-08  0.4062659E+04  0.7818609E-02  0.7992024E-01
        1   -1    0    0  501    0  0.00000000000E+00  0.00000000000E+00  0.24840030291E+04  0.24840030291E+04  0.50400001928E-02 0.  1.
       -1   -1    0    0    0  501  0.00000000000E+00  0.00000000000E+00 -0.16611491613E+04  0.16611491613E+04  0.50400001928E-02 0. -1.
    10030    2    1    2    0    0  0.00000000000E+00  0.00000000000E+00  0.82285386781E+03  0.41451521904E+04  0.40626590053E+04 0.  0.
        2    1    3    3  502    0  0.62225203250E+03  0.13752727316E+04 -0.97548535353E+03  0.17972602352E+04  0.25500000920E-02 0. -1.
       -2    1    3    3    0  502 -0.62225203250E+03 -0.13752727316E+04  0.17983392213E+04  0.23478919552E+04  0.25500000920E-02 0.  1.
</event>
<event>
 5   0  0.2839279E-07  0.4056200E+04  0.7818609E-02  0.7993304E-01
       -2   -1    0    0    0  501  0.00000000000E+00  0.00000000000E+00  0.16990092258E+04  0.16990092258E+04  0.25500000920E-02 0.  1.
        2   -1    0    0  501    0  0.00000000000E+00  0.00000000000E+00 -0.24209340290E+04  0.24209340290E+04  0.25500000920E-02 0. -1.
    10030    2    1    2    0    0  0.00000000000E+00  0.00000000000E+00 -0.72192480323E+03  0.41199432548E+04  0.40561998227E+04 0.  0.
        3    1    3    3  502    0 -0.64268702403E+03 -0.14987581768E+04  0.86375014211E+03  0.18453690692E+04  0.10100000352E+00 0.  1.
       -3    1    3    3    0  502  0.64268702403E+03  0.14987581768E+04 -0.15856749453E+04  0.22745741856E+04  0.10100000352E+00 0. -1.
</event>
<event>
 5   0  0.8528625E-08  0.3959741E+04  0.7818609E-02  0.8012718E-01
        3   -1    0    0  501    0  0.00000000000E+00  0.00000000000E+00  0.20656086355E+04  0.20656086380E+04  0.10100000352E+00 0.  1.
       -3   -1    0    0    0  501  0.00000000000E+00  0.00000000000E+00 -0.18976911657E+04  0.18976911684E+04  0.10100000352E+00 0. -1.
    10030    2    1    2    0    0  0.00000000000E+00  0.00000000000E+00  0.16791746984E+03  0.39632998064E+04  0.39597410368E+04 0.  0.
        4    1    3    3  502    0 -0.62071414005E+02  0.17879163033E+04 -0.76497103398E+03  0.19456823646E+04  0.12699999809E+01 0. -1.
       -4    1    3    3    0  502  0.62071414005E+02 -0.17879163033E+04  0.93288850382E+03  0.20176174418E+04  0.12699999809E+01 0.  1.
</event>
<event>
 5   0  0.2839279E-07  0.3985754E+04  0.7818609E-02  0.8007427E-01
        2   -1    0    0  501    0  0.00000000000E+00  0.00000000000E+00  0.29735398565E+04  0.29735398565E+04  0.25500000920E-02 0.  1.
       -2   -1    0    0    0  501  0.00000000000E+00  0.00000000000E+00 -0.13356333914E+04  0.13356333914E+04  0.25500000920E-02 0. -1.
    10030    2    1    2    0    0  0.00000000000E+00  0.00000000000E+00  0.16379064651E+04  0.43091732479E+04  0.39857541936E+04 0.  0.
        3    1    3    3  502    0  0.44537732174E+03 -0.97550902437E+03  0.26350109638E+04  0.28448658325E+04  0.10100000352E+00 0.  1.
       -3    1    3    3    0  502 -0.44537732174E+03  0.97550902437E+03 -0.99710449867E+03  0.14643074154E+04  0.10100000352E+00 0. -1.
</event>
<event>
 5   0  0.8528625E-08  0.3279035E+04  0.7818609E-02  0.8168251E-01
       -1   -1    0    0    0  501  0.00000000000E+00  0.00000000000E+00  0.12040489191E+04  0.12040489191E+04  0.50400001928E-02 0.  1.
        1   -1    0    0  501    0  0.00000000000E+00  0.00000000000E+00 -0.22324814101E+04  0.22324814101E+04  0.50400001928E-02 0. -1.
    10030    2    1    2    0    0  0.00000000000E+00  0.00000000000E+00 -0.10284324910E+04  0.34365303292E+04  0.32790345095E+04 0.  0.
        3    1    3    3  502    0 -0.14499072494E+04  0.31097650599E+02 -0.13156817369E+04  0.19581155581E+04  0.10100000352E+00 0. -1.
       -3    1    3    3    0  502  0.14499072494E+04 -0.31097650599E+02  0.28724924594E+03  0.14784147711E+04  0.10100000352E+00 0.  1.
</event>
<event>
 5   0  0.8528625E-08  0.3326045E+04  0.7818609E-02  0.8156300E-01
        1   -1    0    0  501    0  0.00000000000E+00  0.00000000000E+00  0.15119892358E+04  0.15119892358E+04  0.50400001928E-02 0.  1.
       -1   -1    0    0    0  501  0.00000000000E+00  0.00000000000E+00 -0.18291430409E+04  0.18291430409E+04  0.50400001928E-02 0. -1.
    10030    2    1    2    0    0  0.00000000000E+00  0.00000000000E+00 -0.31715380506E+03  0.33411322767E+04  0.33260454528E+04 0.  0.
        5    1    3    3  502    0 -0.11893094907E+04  0.10823400743E+04  0.26726270278E+03  0.16301437186E+04  0.46999998093E+01 0.  1.
       -5    1    3    3    0  502  0.11893094907E+04 -0.10823400743E+04 -0.58441650784E+03  0.17109885580E+04  0.46999998093E+01 0. -1.
</event>
<event>
 5   0  0.2704088E-07  0.4209111E+04  0.7818609E-02  0.7963641E-01
        2   -1    0    0  501    0  0.00000000000E+00  0.00000000000E+00  0.24159988993E+04  0.24159988993E+04  0.25500000920E-02 0.  1.
       -2   -1    0    0    0  501  0.00000000000E+00  0.00000000000E+00 -0.18332598955E+04  0.18332598955E+04  0.25500000920E-02 0. -1.
    10030    2    1    2    0    0  0.00000000000E+00  0.00000000000E+00  0.58273900380E+03  0.42492587948E+04  0.42091110176E+04 0.  0.
        5    1    3    3  502    0 -0.86908624798E+03 -0.20567084704E+03  0.22152010627E+04  0.23884616894E+04  0.46999998093E+01 0.  1.
       -5    1    3    3    0  502  0.86908624798E+03  0.20567084704E+03 -0.16324620589E+04  0.18607971054E+04  0.46999998093E+01 0. -1.
</event>
<event>
 5   0  0.8528625E-08  0.3309826E+04  0.7818609E-02  0.8160400E-01
       -1   -1    0    0    0  501  0.00000000000E+00  0.00000000000E+00  0.15325589689E+04  0.15325589689E+04  0.50400001928E-02 0.  1.
        1   -1    0    0  501    0  0.00000000000E+00  0.00000000000E+00 -0.17870348763E+04  0.17870348763E+04  0.50400001928E-02 0. -1.
    10030    2    1    2    0    0  0.00000000000E+00  0.00000000000E+00 -0.25447590738E+03  0.33195938452E+04  0.33098255709E+04 0.  0.
        3    1    3    3  502    0  0.39401161613E+03  0.19896625955E+03  0.14724311911E+04  0.15371682891E+04  0.10100000352E+00 0.  1.
       -3    1    3    3    0  502 -0.39401161613E+03 -0.19896625955E+03 -0.17269070985E+04  0.17824255561E+04  0.10100000352E+00 0. -1.
</event>
<event>
 5   0  0.8528625E-08  0.4007795E+04  0.7818609E-02  0.8002976E-01
        1   -1    0    0  501    0  0.00000000000E+00  0.00000000000E+00  0.16286676409E+04  0.16286676409E+04  0.50400001928E-02 0. -1.
       -1   -1    0    0    0  501  0.00000000000E+00  0.00000000000E+00 -0.24655766608E+04  0.24655766608E+04  0.50400001928E-02 0.  1.
    10030    2    1    2    0    0  0.00000000000E+00  0.00000000000E+00 -0.83690901985E+03  0.40942443017E+04  0.40077948669E+04 0.  0.
        2    1    3    3  502    0 -0.19939434121E+04  0.16131081471E+03 -0.29856282255E+03  0.20226149580E+04  0.25500000920E-02 0.  1.
       -2    1    3    3    0  502  0.19939434121E+04 -0.16131081471E+03 -0.53834619730E+03  0.20716293437E+04  0.25500000920E-02 0. -1.
</event>
<event>
 5   0  0.2730801E-07  0.2886433E+04  0.7818609E-02  0.8276926E-01
        2   -1    0    0  501    0  0.00000000000E+00  0.00000000000E+00  0.15711244659E+04  0.15711244659E+04  0.25500000920E-02 0. -1.
       -2   -1    0    0    0  501  0.00000000000E+00  0.00000000000E+00 -0.13257214599E+04  0.13257214599E+04  0.25500000920E-02 0.  1.
    10030    2    1    2    0    0  0.00000000000E+00  0.00000000000E+00  0.24540300602E+03  0.28968459259E+04  0.28864326915E+04 0.  0.
        2    1    3    3  502    0  0.53643249484E+03  0.13274641000E+04  0.30488507672E+03  0.14638564371E+04  0.25500000920E-02 0. -1.
       -2    1    3    3    0  502 -0.53643249484E+03 -0.13274641000E+04 -0.59482070698E+02  0.14329894888E+04  0.25500000920E-02 0.  1.
</event>
<event>
 5   0  0.2730801E-07  0.3676256E+04  0.7818609E-02  0.8073244E-01
       -2   -1    0    0    0  501  0.00000000000E+00  0.00000000000E+00  0.18890492153E+04  0.18890492153E+04  0.25500000920E-02 0.  1.
        2   -1    0    0  501    0  0.00000000000E+00  0.00000000000E+00 -0.17885789535E+04  0.17885789535E+04  0.25500000920E-02 0. -1.
    10030    2    1    2    0    0  0.00000000000E+00  0.00000000000E+00  0.10047026179E+03  0.36776281687E+04  0.36762555235E+04 0.  0.
        2    1    3    3  502    0  0.86162722600E+03  0.11811785333E+04 -0.10642407399E+04  0.18083673732E+04  0.25500000920E-02 0. -1.
       -2    1    3    3    0  502 -0.86162722600E+03 -0.11811785333E+04  0.11647110017E+04  0.18692607955E+04  0.25500000920E-02 0.  1.
</event>
<event>
 5   0  0.2666978E-07  0.4025226E+04  0.7818609E-02  0.7999477E-01
        2   -1    0    0  501    0  0.00000000000E+00  0.00000000000E+00  0.21180992469E+04  0.21180992469E+04  0.25500000920E-02 0.  1.
       -2   -1    0    0    0  501  0.00000000000E+00  0.00000000000E+00 -0.19123798060E+04  0.19123798060E+04  0.25500000920E-02 0. -1.
    10030    2    1    2    0    0  0.00000000000E+00  0.00000000000E+00  0.20571944088E+03  0.40304790529E+04  0.40252255722E+04 0.  0.
        4    1    3    3  502    0 -0.95591289606E+03 -0.53848371589E+03 -0.15866107357E+04  0.19290073657E+04  0.12699999809E+01 0. -1.
       -4    1    3    3    0  502  0.95591289606E+03  0.53848371589E+03  0.17923301766E+04  0.21014716872E+04  0.12699999809E+01 0.  1.
</event>
<event>
 5   0  0.2661693E-07  0.3990464E+04  0.7818609E-02  0.8006473E-01
       -2   -1    0    0    0  501  0.00000000000E+00  0.00000000000E+00  0.19482784951E+04  0.19482784951E+04  0.25500000920E-02 0.  1.
        2   -1    0    0  501    0  0.00000000000E+00  0.00000000000E+00 -0.20433169746E+04  0.20433169746E+04  0.25500000920E-02 0. -1.
    10030    2    1    2    0    0  0.00000000000E+00  0.00000000000E+00 -0.95038479446E+02  0.39915954697E+04  0.39904638930E+04 0.  0.
        1    1    3    3  502    0  0.12775278578E+04  0.14801569742E+02  0.14854472348E+04  0.19592983441E+04  0.50400001928E-02 0.  1.
       -1    1    3    3    0  502 -0.12775278578E+04 -0.14801569742E+02 -0.15804857142E+04  0.20322971256E+04  0.50400001928E-02 0. -1.
</event>
<event>
 5   0  0.8528625E-08  0.3924836E+04  0.7818609E-02  0.8019884E-01
        1   -1    0    0  501    0  0.00000000000E+00  0.00000000000E+00  0.23786988492E+04  0.23786988493E+04  0.50400001928E-02 0.  1.
       -1   -1    0    0    0  501  0.00000000000E+00  0.00000000000E+00 -0.16189876188E+04  0.16189876188E+04  0.50400001928E-02 0. -1.
    10030    2    1    2    0    0  0.00000000000E+00  0.00000000000E+00  0.75971123041E+03  0.39976864681E+04  0.39248357856E+04 0.  0.
        2    1    3    3  502    0  0.69890173489E+03 -0.18165767280E+04  0.63484071762E+03  0.20473000221E+04  0.25500000920E-02 0.  1.
       -2    1    3    3    0  502 -0.69890173489E+03  0.18165767280E+04  0.12487051279E+03  0.19503864460E+04  0.25500000920E-02 0. -1.
</event>
<event>
 5   0  0.2666978E-07  0.4153288E+04  0.7818609E-02  0.7974318E-01
       -2   -1    0    0    0  501  0.00000000000E+00  0.00000000000E+00  0.14366247758E+04  0.14366247758E+04  0.25500000920E-02 0.  1.
        2   -1    0    0  501    0  0.00000000000E+00  0.00000000000E+00 -0.30017929765E+04  0.30017929765E+04  0.25500000920E-02 0. -1.
    10030    2    1    2    0    0  0.00000000000E+00  0.00000000000E+00 -0.15651682008E+04  0.44384177523E+04  0.41532879321E+04 0.  0.
        4    1    3    3  502    0 -0.84404263015E+03  0.52331882094E+03 -0.27315708187E+04  0.29065015569E+04  0.12699999809E+01 0. -1.
       -4    1    3    3    0  502  0.84404263015E+03 -0.52331882094E+03  0.11664026179E+04  0.15319161954E+04  0.12699999809E+01 0.  1.
</event>
<event>
 5   0  0.2661693E-07  0.3911353E+04  0.7818609E-02  0.8022672E-01
        2   -1    0    0  501    0  0.00000000000E+00  0.00000000000E+00  0.22258477201E+04  0.22258477201E+04  0.25500000920E-02 0.  1.
       -2   -1    0    0    0  501  0.00000000000E+00  0.00000000000E+00 -0.17182980756E+04  0.17182980756E+04  0.25500000920E-02 0. -1.
    10030    2    1    2    0    0  0.00000000000E+00  0.00000000000E+00  0.50754964447E+03  0.39441457957E+04  0.39113526326E+04 0.  0.
        1    1    3    3  502    0 -0.11399380073E+04 -0.91722917892E+03  0.15623068963E+04  0.21404604331E+04  0.50400001928E-02 0.  1.
       -1    1    3    3    0  502  0.11399380073E+04  0.91722917892E+03 -0.10547572519E+04  0.18036853627E+04  0.50400001928E-02 0. -1.
</event>
<event>
 5   0  0.8528625E-08  0.3805338E+04  0.7818609E-02  0.8045010E-01
        1   -1    0    0  501    0  0.00000000000E+00  0.00000000000E+00  0.16703347017E+04  0.16703347017E+04  0.50400001928E-02 0. -1.
       -1   -1    0    0    0  501  0.00000000000E+00  0.00000000000E+00 -0.21673201102E+04  0.21673201102E+04  0.50400001928E-02 0.  1.
    10030    2    1    2    0    0  0.00000000000E+00  0.00000000000E+00 -0.49698540857E+03  0.38376548119E+04  0.38053383501E+04 0.  0.
        3    1    3    3  502    0  0.82529419501E+03 -0.17143238420E+04 -0.26013351484E+03  0.19203349186E+04  0.10100000352E+00 0. -1.
       -3    1    3    3    0  502 -0.82529419501E+03  0.17143238420E+04 -0.23685189373E+03  0.19173198934E+04  0.10100000352E+00 0.  1.
</event>
<event>
 5   0  0.2704088E-07  0.3969214E+04  0.7818609E-02  0.8010786E-01
        2   -1    0    0  501    0  0.00000000000E+00  0.00000000000E+00  0.27426568166E+04  0.27426568166E+04  0.25500000920E-02 0.  1.
       -2   -1    0    0    0  501  0.00000000000E+00  0.00000000000E+00 -0.14360765713E+04  0.14360765713E+04  0.25500000920E-02 0. -1.
    10030    2    1    2    0    0  0.00000000000E+00  0.00000000000E+00  0.13065802453E+04  0.41787333879E+04  0.39692141274E+04 0.  0.
        5    1    3    3  502    0 -0.13721358776E+04  0.15668224689E+03  0.21537732459E+04  0.25585283813E+04  0.46999998093E+01 0.  1.
       -5    1    3    3    0  502  0.13721358776E+04 -0.15668224689E+03 -0.84719300059E+03  0.16202050066E+04  0.46999998093E+01 0. -1.
</event>
<event>
 5   0  0.8528625E-08  0.4002627E+04  0.7818609E-02  0.8004017E-01
       -1   -1    0    0    0  501  0.00000000000E+00  0.00000000000E+00  0.22512999332E+04  0.22512999332E+04  0.50400001928E-02 0.  1.
        1   -1    0    0  501    0  0.00000000000E+00  0.00000000000E+00 -0.17790854449E+04  0.17790854449E+04  0.50400001928E-02 0. -1.
    10030    2    1    2    0    0  0.00000000000E+00  0.00000000000E+00  0.47221448835E+03  0.40303853781E+04  0.40026266092E+04 0.  0.
        4    1    3    3  502    0  0.85299897883E+03 -0.18061037351E+04  0.36201589987E+03  0.20299446013E+04  0.12699999809E+01 0.  1.
       -4    1    3    3    0  502 -0.85299897883E+03  0.18061037351E+04  0.11019858848E+03  0.20004407768E+04  0.12699999809E+01 0. -1.
</event>
<event>
 5   0  0.2661693E-07  0.3801503E+04  0.7818609E-02  0.8045833E-01
        2   -1    0    0  501    0  0.00000000000E+00  0.00000000000E+00  0.20222684728E+04  0.20222684728E+04  0.25500000920E-02 0.  1.
       -2   -1    0    0    0  501  0.00000000000E+00  0.00000000000E+00 -0.17865360541E+04  0.17865360541E+04  0.25500000920E-02 0. -1.
    10030    2    1    2    0    0  0.00000000000E+00  0.00000000000E+00  0.23573241866E+03  0.38088045269E+04  0.38015026175E+04 0.  0.
        1    1    3    3  502    0 -0.75950075205E+03  0.13190567417E+04 -0.10227859457E+04  0.18338056525E+04  0.50400001928E-02 0. -1.
       -1    1    3    3    0  502  0.75950075205E+03 -0.13190567417E+04  0.12585183644E+04  0.19749988744E+04  0.50400001928E-02 0.  1.
</event>
<event>
 5   0  0.2730801E-07  0.3943380E+04  0.7818609E-02  0.8016067E-01
        2   -1    0    0  501    0  0.00000000000E+00  0.00000000000E+00  0.32689736696E+04  0.32689736696E+04  0.25500000920E-02 0.  1.
       -2   -1    0    0    0  501  0.00000000000E+00  0.00000000000E+00 -0.11892297648E+04  0.11892297648E+04  0.25500000920E-02 0. -1.
    10030    2    1    2    0    0  0.00000000000E+00  0.00000000000E+00  0.20797439048E+04  0.44582034344E+04  0.39433796612E+04 0.  0.
        2    1    3    3  502    0  0.13876679623E+04 -0.11341522827E+04  0.19691549837E+04  0.26626105843E+04  0.25500000920E-02 0. -1.
       -2    1    3    3    0  502 -0.13876679623E+04  0.11341522827E+04  0.11058892116E+03  0.17955928501E+04  0.25500000920E-02 0.  1.
</event>
<event>
 5   0  0.8528625E-08  0.4050322E+04  0.7818609E-02  0.7994471E-01
       -3   -1    0    0    0  501  0.00000000000E+00  0.00000000000E+00  0.16544101849E+04  0.16544101879E+04  0.10100000352E+00 0.  1.
        3   -1    0    0  501    0  0.00000000000E+00  0.00000000000E+00 -0.24789970301E+04  0.24789970321E+04  0.10100000352E+00 0. -1.
    10030    2    1    2    0    0  0.00000000000E+00  0.00000000000E+00 -0.82458684520E+03  0.41334072201E+04  0.40503224293E+04 0.  0.
        2    1    3    3  502    0 -0.13445834994E+04  0.33327142725E+03  0.10952719477E+04  0.17659544928E+04  0.25500000920E-02 0.  1.
       -2    1    3    3    0  502  0.13445834994E+04 -0.33327142725E+03 -0.19198587929E+04  0.23674527273E+04  0.25500000920E-02 0. -1.
</event>
<event>
 5   0  0.2666978E-07  0.4012943E+04  0.7818609E-02  0.8001941E-01
       -2   -1    0    0    0  501  0.00000000000E+00  0.00000000000E+00  0.15333295158E+04  0.15333295158E+04  0.25500000920E-02 0. -1.
        2   -1    0    0  501    0  0.00000000000E+00  0.00000000000E+00 -0.26256116502E+04  0.26256116502E+04  0.25500000920E-02 0.  1.
    10030    2    1    2    0    0  0.00000000000E+00  0.00000000000E+00 -0.10922821343E+04  0.41589411660E+04  0.40129429801E+04 0.  0.
        4    1    3    3  502    0 -0.17384509317E+04 -0.68061353830E+03 -0.13080613242E+04  0.22795772571E+04  0.12699999809E+01 0.  1.
       -4    1    3    3    0  502  0.17384509317E+04  0.68061353830E+03  0.21577918993E+03  0.18793639089E+04  0.12699999809E+01 0. -1.
</event>
<event>
 5   0  0.2704088E-07  0.3895607E+04  0.7818609E-02  0.8025944E-01
        2   -1    0    0  501    0  0.00000000000E+00  0.00000000000E+00  0.25690492684E+04  0.25690492684E+04  0.25500000920E-02 0. -1.
       -2   -1    0    0    0  501  0.00000000000E+00  0.00000000000E+00 -0.14767866222E+04  0.14767866222E+04  0.25500000920E-02 0.  1.
    10030    2    1    2    0    0  0.00000000000E+00  0.00000000000E+00  0.10922626462E+04  0.40458358906E+04  0.38956065465E+04 0.  0.
        5    1    3    3  502    0 -0.13994971838E+04 -0.41846049789E+03  0.18843133867E+04  0.23841897125E+04  0.46999998093E+01 0. -1.
       -5    1    3    3    0  502  0.13994971838E+04  0.41846049789E+03 -0.79205074051E+03  0.16616461781E+04  0.46999998093E+01 0.  1.
</event>
<event>
 5   0  0.8528625E-08  0.3992882E+04  0.7818609E-02  0.8005984E-01
        1   -1    0    0  501    0  0.00000000000E+00  0.00000000000E+00  0.12265321886E+04  0.12265321886E+04  0.50400001928E-02 0. -1.
       -1   -1    0    0    0  501  0.00000000000E+00  0.00000000000E+00 -0.32496310465E+04  0.32496310465E+04  0.50400001928E-02 0.  1.
    10030    2    1    2    0    0  0.00000000000E+00  0.00000000000E+00 -0.20230988579E+04  0.44761632350E+04  0.39928822069E+04 0.  0.
        4    1    3    3  502    0  0.52755482043E+03  0.16439673301E+04 -0.21352906656E+04  0.27459807921E+04  0.12699999809E+01 0.  1.
       -4    1    3    3    0  502 -0.52755482043E+03 -0.16439673301E+04  0.11219180776E+03  0.17301824429E+04  0.12699999809E+01 0. -1.
</event>
<event>
 5   0  0.2661693E-07  0.3975586E+04  0.7818609E-02  0.8009490E-01
       -2   -1    0    0    0  501  0.00000000000E+00  0.00000000000E+00  0.20902776589E+04  0.20902776589E+04  0.25500000920E-02 0.  1.
        2   -1    0    0  501    0  0.00000000000E+00  0.00000000000E+00 -0.18903334554E+04  0.18903334554E+04  0.25500000920E-02 0. -1.
    10030    2    1    2    0    0  0.00000000000E+00  0.00000000000E+00  0.19994420350E+03  0.39806111143E+04  0.39755863918E+04 0.  0.
        1    1    3    3  502    0 -0.58423665467E+02  0.19206197962E+04  0.60966171189E+03  0.20159070239E+04  0.50400001928E-02 0.  1.
       -1    1    3    3    0  502  0.58423665467E+02 -0.19206197962E+04 -0.40971750839E+03  0.19647040904E+04  0.50400001928E-02 0. -1.
</event>
<event>
 5   0  0.8528625E-08  0.3781650E+04  0.7818609E-02  0.8050104E-01
       -3   -1    0    0    0  501  0.00000000000E+00  0.00000000000E+00  0.15310778250E+04  0.15310778284E+04  0.10100000352E+00 0.  1.
        3   -1    0    0  501    0  0.00000000000E+00  0.00000000000E+00 -0.23350993682E+04  0.23350993704E+04  0.10100000352E+00 0. -1.
    10030    2    1    2    0    0  0.00000000000E+00  0.00000000000E+00 -0.80402154314E+03  0.38661771987E+04  0.37816498370E+04 0.  0.
        5    1    3    3  502    0  0.50028405875E+03 -0.21547862181E+03 -0.22531403410E+04  0.23180549308E+04  0.46999998093E+01 0. -1.
       -5    1    3    3    0  502 -0.50028405875E+03  0.21547862181E+03  0.14491187979E+04  0.15481222679E+04  0.46999998093E+01 0.  1.
</event>
<event>
 5   0  0.8528625E-08  0.3946141E+04  0.7818609E-02  0.8015501E-01
        1   -1    0    0  501    0  0.00000000000E+00  0.00000000000E+00  0.15809714028E+04  0.15809714028E+04  0.50400001928E-02 0.  1.
       -1   -1    0    0    0  501  0.00000000000E+00  0.00000000000E+00 -0.24624149093E+04  0.24624149093E+04  0.50400001928E-02 0. -1.
    10030    2    1    2    0    0  0.00000000000E+00  0.00000000000E+00 -0.88144350650E+03  0.40433863122E+04  0.39461411802E+04 0.  0.
        3    1    3    3  502    0 -0.11483729500E+04  0.99771485656E+03  0.84675042020E+03  0.17410289060E+04  0.10100000352E+00 0.  1.
       -3    1    3    3    0  502  0.11483729500E+04 -0.99771485656E+03 -0.17281939267E+04  0.23023574062E+04  0.10100000352E+00 0. -1.
</event>
<event>
 5   0  0.8528625E-08  0.4027687E+04  0.7818609E-02  0.7998984E-01
       -1   -1    0    0    0  501  0.00000000000E+00  0.00000000000E+00  0.23063235817E+04  0.23063235817E+04  0.50400001928E-02 0. -1.
        1   -1    0    0  501    0  0.00000000000E+00  0.00000000000E+00 -0.17584544448E+04  0.17584544448E+04  0.50400001928E-02 0.  1.
    10030    2    1    2    0    0  0.00000000000E+00  0.00000000000E+00  0.54786913688E+03  0.40647780265E+04  0.40276866578E+04 0.  0.
        3    1    3    3  502    0 -0.64360899419E+03 -0.13809583509E+04  0.16029853400E+04  0.22115244775E+04  0.10100000352E+00 0. -1.
       -3    1    3    3    0  502  0.64360899419E+03  0.13809583509E+04 -0.10551162031E+04  0.18532535489E+04  0.10100000352E+00 0.  1.
</event>
<event>
 5   0  0.8583262E-08  0.3957162E+04  0.7818609E-02  0.8013245E-01
        1   -1    0    0  501    0  0.00000000000E+00  0.00000000000E+00  0.14676973790E+04  0.14676973790E+04  0.50400001928E-02 0.  1.
       -1   -1    0    0    0  501  0.00000000000E+00  0.00000000000E+00 -0.26672949368E+04  0.26672949368E+04  0.50400001928E-02 0. -1.
    10030    2    1    2    0    0  0.00000000000E+00  0.00000000000E+00 -0.11995975579E+04  0.41349923158E+04  0.39571615017E+04 0.  0.
        1    1    3    3  502    0 -0.12795234242E+04  0.14333998196E+04 -0.10638554888E+03  0.19243526499E+04  0.50400001928E-02 0.  1.
       -1    1    3    3    0  502  0.12795234242E+04 -0.14333998196E+04 -0.10932120090E+04  0.22106396659E+04  0.50400001928E-02 0. -1.
</event>
<event>
 5   0  0.2839279E-07  0.3957051E+04  0.7818609E-02  0.8013267E-01
        2   -1    0    0  501    0  0.00000000000E+00  0.00000000000E+00  0.18761929907E+04  0.18761929907E+04  0.25500000920E-02 0. -1.
       -2   -1    0    0    0  501  0.00000000000E+00  0.00000000000E+00 -0.20864398202E+04  0.20864398202E+04  0.25500000920E-02 0.  1.
    10030    2    1    2    0    0  0.00000000000E+00  0.00000000000E+00 -0.21024682951E+03  0.39626328109E+04  0.39570513094E+04 0.  0.
        3    1    3    3  502    0 -0.62310559095E+03 -0.15352233070E+04 -0.11880332942E+04  0.20387727431E+04  0.10100000352E+00 0.  1.
       -3    1    3    3    0  502  0.62310559095E+03  0.15352233070E+04  0.97778646470E+03  0.19238600678E+04  0.10100000352E+00 0. -1.
</event>
<event>
 5   0  0.2839279E-07  0.3863690E+04  0.7818609E-02  0.8032624E-01
        2   -1    0    0  501    0  0.00000000000E+00  0.00000000000E+00  0.23640633847E+04  0.23640633847E+04  0.25500000920E-02 0.  1.
       -2   -1    0    0    0  501  0.00000000000E+00  0.00000000000E+00 -0.15786485133E+04  0.15786485133E+04  0.25500000920E-02 0. -1.
    10030    2    1    2    0    0  0.00000000000E+00  0.00000000000E+00  0.78541487142E+03  0.39427118979E+04  0.38636900225E+04 0.  0.
        3    1    3    3  502    0 -0.10931303506E+04  0.59525484243E+03 -0.11149269823E+04  0.16710249780E+04  0.10100000352E+00 0. -1.
       -3    1    3    3    0  502  0.10931303506E+04 -0.59525484243E+03  0.19003418538E+04  0.22716869200E+04  0.10100000352E+00 0.  1.
</event>
<event>
 5   0  0.2704088E-07  0.4124990E+04  0.7818609E-02  0.7979796E-01
        2   -1    0    0  501    0  0.00000000000E+00  0.00000000000E+00  0.17413942760E+04  0.17413942760E+04  0.25500000920E-02 0.  1.
       -2   -1    0    0    0  501  0.00000000000E+00  0.00000000000E+00 -0.24428048992E+04  0.24428048992E+04  0.25500000920E-02 0. -1.
    10030    2    1    2    0    0  0.00000000000E+00  0.00000000000E+00 -0.70141062315E+03  0.41841991752E+04  0.41249904092E+04 0.  0.
        5    1    3    3  502    0 -0.56791553362E+03  0.60167139552E+03 -0.22670897127E+04  0.24133492033E+04  0.46999998093E+01 0. -1.
       -5    1    3    3    0  502  0.56791553362E+03 -0.60167139552E+03  0.15656790896E+04  0.17708499719E+04  0.46999998093E+01 0.  1.
</event>
<event>
 5   0  0.8528625E-08  0.4125383E+04  0.7818609E-02  0.7979720E-01
       -1   -1    0    0    0  501  0.00000000000E+00  0.00000000000E+00  0.25003431082E+04  0.25003431082E+04  0.50400001928E-02 0.  1.
        1   -1    0    0  501    0  0.00000000000E+00  0.00000000000E+00 -0.17016448938E+04  0.17016448938E+04  0.50400001928E-02 0. -1.
    10030    2    1    2    0    0  0.00000000000E+00  0.00000000000E+00  0.79869821447E+03  0.42019880020E+04  0.41253829315E+04 0.  0.
        4    1    3    3  502    0 -0.20533412238E+04 -0.79401306586E+02  0.21663096134E+03  0.20662636170E+04  0.12699999809E+01 0. -1.
       -4    1    3    3    0  502  0.20533412238E+04  0.79401306586E+02  0.58206725313E+03  0.21357243850E+04  0.12699999809E+01 0.  1.
</event>
<event>
 5   0  0.8528625E-08  0.3949613E+04  0.7818609E-02  0.8014789E-01
        1   -1    0    0  501    0  0.00000000000E+00  0.00000000000E+00  0.16317824636E+04  0.16317824636E+04  0.50400001928E-02 0.  1.
       -1   -1    0    0    0  501  0.00000000000E+00  0.00000000000E+00 -0.23899396342E+04  0.23899396342E+04  0.50400001928E-02 0. -1.
    10030    2    1    2    0    0  0.00000000000E+00  0.00000000000E+00 -0.75815717064E+03  0.40217220978E+04  0.39496134414E+04 0.  0.
        4    1    3    3  502    0  0.53370622073E+02 -0.19261746165E+04 -0.81924712748E+03  0.20938396656E+04  0.12699999809E+01 0.  1.
       -4    1    3    3    0  502 -0.53370622073E+02  0.19261746165E+04  0.61089956835E+02  0.19278824322E+04  0.12699999809E+01 0. -1.
</event>
<event>
 5   0  0.2730801E-07  0.3947927E+04  0.7818609E-02  0.8015134E-01
       -2   -1    0    0    0  501  0.00000000000E+00  0.00000000000E+00  0.16532771945E+04  0.16532771945E+04  0.25500000920E-02 0.  1.
        2   -1    0    0  501    0  0.00000000000E+00  0.00000000000E+00 -0.23568534487E+04  0.23568534487E+04  0.25500000920E-02 0. -1.
    10030    2    1    2    0    0  0.00000000000E+00  0.00000000000E+00 -0.70357625412E+03  0.40101306432E+04  0.39479270802E+04 0.  0.
        2    1    3    3  502    0  0.11158453823E+04 -0.93358504109E+03  0.10033385471E+04  0.17673087411E+04  0.25500000920E-02 0.  1.
       -2    1    3    3    0  502 -0.11158453823E+04  0.93358504109E+03 -0.17069148012E+04  0.22428219021E+04  0.25500000920E-02 0. -1.
</event>
<event>
 5   0  0.2839279E-07  0.3977658E+04  0.7818609E-02  0.8009069E-01
       -2   -1    0    0    0  501  0.00000000000E+00  0.00000000000E+00  0.20968240357E+04  0.20968240357E+04  0.25500000920E-02 0.  1.
        2   -1    0    0  501    0  0.00000000000E+00  0.00000000000E+00 -0.18863965148E+04  0.18863965148E+04  0.25500000920E-02 0. -1.
    10030    2    1    2    0    0  0.00000000000E+00  0.00000000000E+00  0.21042752094E+03  0.39832205505E+04  0.39776583831E+04 0.  0.
        3    1    3    3  502    0 -0.10628659329E+04 -0.71490655319E+03  0.16287439161E+04  0.20720960705E+04  0.10100000352E+00 0.  1.
       -3    1    3    3    0  502  0.10628659329E+04  0.71490655319E+03 -0.14183163952E+04  0.19111244800E+04  0.10100000352E+00 0. -1.
</event>
<event>
 5   0  0.8583262E-08  0.4063198E+04  0.7818609E-02  0.7991917E-01
       -1   -1    0    0    0  501  0.00000000000E+00  0.00000000000E+00  0.15507218416E+04  0.15507218416E+04  0.50400001928E-02 0.  1.
        1   -1    0    0  501    0  0.00000000000E+00  0.00000000000E+00 -0.26615955933E+04  0.26615955933E+04  0.50400001928E-02 0. -1.
    10030    2    1    2    0    0  0.00000000000E+00  0.00000000000E+00 -0.11108737517E+04  0.42123174349E+04  0.40631979622E+04 0.  0.
        1    1    3    3  502    0 -0.38129761737E+03 -0.13603702691E+04  0.95807389786E+03  0.17070151540E+04  0.50400001928E-02 0.  1.
       -1    1    3    3    0  502  0.38129761737E+03  0.13603702691E+04 -0.20689476496E+04  0.25053022809E+04  0.50400001928E-02 0. -1.
</event>
<event>
 5   0  0.2704088E-07  0.4080611E+04  0.7818609E-02  0.7988479E-01
        2   -1    0    0  501    0  0.00000000000E+00  0.00000000000E+00  0.18671100592E+04  0.18671100592E+04  0.25500000920E-02 0.  1.
       -2   -1    0    0    0  501  0.00000000000E+00  0.00000000000E+00 -0.22295665435E+04  0.22295665435E+04  0.25500000920E-02 0. -1.
    10030    2    1    2    0    0  0.00000000000E+00  0.00000000000E+00 -0.36245648424E+03  0.40966766027E+04  0.40806107979E+04 0.  0.
        5    1    3    3  502    0 -0.11149822577E+04  0.12976962270E+04  0.93473403978E+03  0.19496027153E+04  0.46999998093E+01 0.  1.
       -5    1    3    3    0  502  0.11149822577E+04 -0.12976962270E+04 -0.12971905240E+04  0.21470738874E+04  0.46999998093E+01 0. -1.
</event>
<event>
 5   0  0.8583262E-08  0.3976945E+04  0.7818609E-02  0.8009214E-01
        1   -1    0    0  501    0  0.00000000000E+00  0.00000000000E+00  0.21785044589E+04  0.21785044590E+04  0.50400001928E-02 0. -1.
       -1   -1    0    0    0  501  0.00000000000E+00  0.00000000000E+00 -0.18150172276E+04  0.18150172276E+04  0.50400001928E-02 0.  1.
    10030    2    1    2    0    0  0.00000000000E+00  0.00000000000E+00  0.36348723137E+03  0.39935216865E+04  0.39769451208E+04 0.  0.
        1    1    3    3  502    0  0.49938232400E+03 -0.18889485638E+04  0.55276131963E+03  0.20305305855E+04  0.50400001928E-02 0.  1.
       -1    1    3    3    0  502 -0.49938232400E+03  0.18889485638E+04 -0.18927408827E+03  0.19629911010E+04  0.50400001928E-02 0. -1.
</event>
<event>
 5   0  0.8528625E-08  0.4021171E+04  0.7818609E-02  0.8000289E-01
        1   -1    0    0  501    0  0.00000000000E+00  0.00000000000E+00  0.15318816390E+04  0.15318816390E+04  0.50400001928E-02 0.  1.
       -1   -1    0    0    0  501  0.00000000000E+00  0.00000000000E+00 -0.26388817049E+04  0.26388817049E+04  0.50400001928E-02 0. -1.
    10030    2    1    2    0    0  0.00000000000E+00  0.00000000000E+00 -0.11070000658E+04  0.41707633439E+04  0.40211711882E+04 0.  0.
        5    1    3    3  502    0 -0.51259616010E+03 -0.19440332252E+04 -0.57456153133E+03  0.20909717949E+04  0.46999998093E+01 0.  1.
       -5    1    3    3    0  502  0.51259616010E+03  0.19440332252E+04 -0.53243853451E+03  0.20797915489E+04  0.46999998093E+01 0. -1.
</event>
<event>
 5   0  0.2730801E-07  0.3774870E+04  0.7818609E-02  0.8051569E-01
        2   -1    0    0  501    0  0.00000000000E+00  0.00000000000E+00  0.14408932893E+04  0.14408932893E+04  0.25500000920E-02 0. -1.
       -2   -1    0    0    0  501  0.00000000000E+00  0.00000000000E+00 -0.24723630125E+04  0.24723630125E+04  0.25500000920E-02 0.  1.
    10030    2    1    2    0    0  0.00000000000E+00  0.00000000000E+00 -0.10314697233E+04  0.39132563018E+04  0.37748702088E+04 0.  0.
        2    1    3    3  502    0  0.16666760464E+04  0.63870836057E+03  0.12048537749E+03  0.17889310047E+04  0.25500000920E-02 0. -1.
       -2    1    3    3    0  502 -0.16666760464E+04 -0.63870836057E+03 -0.11519551008E+04  0.21243252971E+04  0.25500000920E-02 0.  1.
</event>
<event>
 5   0  0.8583262E-08  0.3995709E+04  0.7818609E-02  0.8005413E-01
       -1   -1    0    0    0  501  0.00000000000E+00  0.00000000000E+00  0.21779246329E+04  0.21779246329E+04  0.50400001928E-02 0. -1.
        1   -1    0    0  501    0  0.00000000000E+00  0.00000000000E+00 -0.18326723839E+04  0.18326723839E+04  0.50400001928E-02 0.  1.
    10030    2    1    2    0    0  0.00000000000E+00  0.00000000000E+00  0.34525224897E+03  0.40105970167E+04  0.39957088627E+04 0.  0.
        1    1    3    3  502    0  0.10752739287E+04 -0.16359615609E+04 -0.22740381979E+03  0.19708619301E+04  0.50400001928E-02 0. -1.
       -1    1    3    3    0  502 -0.10752739287E+04  0.16359615609E+04  0.57265606876E+03  0.20397350866E+04  0.50400001928E-02 0.  1.
</event>
<event>
 5   0  0.8528625E-08  0.3912569E+04  0.7818609E-02  0.8022420E-01
       -1   -1    0    0    0  501  0.00000000000E+00  0.00000000000E+00  0.20995357879E+04  0.20995357879E+04  0.50400001928E-02 0. -1.
        1   -1    0    0  501    0  0.00000000000E+00  0.00000000000E+00 -0.18228070967E+04  0.18228070967E+04  0.50400001928E-02 0.  1.
    10030    2    1    2    0    0  0.00000000000E+00  0.00000000000E+00  0.27672869113E+03  0.39223428846E+04  0.39125688410E+04 0.  0.
        2    1    3    3  502    0 -0.18975338367E+04  0.39657531737E+03 -0.12524136616E+03  0.19425735620E+04  0.25500000920E-02 0. -1.
       -2    1    3    3    0  502  0.18975338367E+04 -0.39657531737E+03  0.40197005729E+03  0.19797693226E+04  0.25500000920E-02 0.  1.
</event>
<event>
 5   0  0.2704088E-07  0.4082364E+04  0.7818609E-02  0.7988134E-01
       -2   -1    0    0    0  501  0.00000000000E+00  0.00000000000E+00  0.19036298171E+04  0.19036298171E+04  0.25500000920E-02 0. -1.
        2   -1    0    0  501    0  0.00000000000E+00  0.00000000000E+00 -0.21886734245E+04  0.21886734245E+04  0.25500000920E-02 0.  1.
    10030    2    1    2    0    0  0.00000000000E+00  0.00000000000E+00 -0.28504360740E+03  0.40923032417E+04  0.40823640166E+04 0.  0.
        5    1    3    3  502    0 -0.50018254016E+03  0.19393444001E+04  0.25234410482E+03  0.20186477932E+04  0.46999998093E+01 0.  1.
       -5    1    3    3    0  502  0.50018254016E+03 -0.19393444001E+04 -0.53738771222E+03  0.20736554485E+04  0.46999998093E+01 0. -1.
</event>
<event>
 5   0  0.2666978E-07  0.4084725E+04  0.7818609E-02  0.7987670E-01
       -2   -1    0    0    0  501  0.00000000000E+00  0.00000000000E+00  0.15178188378E+04  0.15178188378E+04  0.25500000920E-02 0. -1.
        2   -1    0    0  501    0  0.00000000000E+00  0.00000000000E+00 -0.27481829713E+04  0.27481829713E+04  0.25500000920E-02 0.  1.
    10030    2    1    2    0    0  0.00000000000E+00  0.00000000000E+00 -0.12303641336E+04  0.42660018091E+04  0.40847246583E+04 0.  0.
        4    1    3    3  502    0 -0.82432126497E+03 -0.17802038946E+04 -0.12083773789E+04  0.23040852756E+04  0.12699999809E+01 0.  1.
       -4    1    3    3    0  502  0.82432126497E+03  0.17802038946E+04 -0.21986754639E+02  0.19619165335E+04  0.12699999809E+01 0. -1.
</event>
<event>
 5   0  0.8528625E-08  0.4038502E+04  0.7818609E-02  0.7996824E-01
       -1   -1    0    0    0  501  0.00000000000E+00  0.00000000000E+00  0.25439154437E+04  0.25439154437E+04  0.50400001928E-02 0. -1.
        1   -1    0    0  501    0  0.00000000000E+00  0.00000000000E+00 -0.16027951625E+04  0.16027951625E+04  0.50400001928E-02 0.  1.
    10030    2    1    2    0    0  0.00000000000E+00  0.00000000000E+00  0.94112028117E+03  0.41467106062E+04  0.40385023793E+04 0.  0.
        2    1    3    3  502    0 -0.34483722670E+03 -0.13956179984E+04  0.19265502790E+04  0.24038008004E+04  0.25500000920E-02 0. -1.
       -2    1    3    3    0  502  0.34483722670E+03  0.13956179984E+04 -0.98542999784E+03  0.17429098058E+04  0.25500000920E-02 0.  1.
</event>
<event>
 5   0  0.8528625E-08  0.4032208E+04  0.7818609E-02  0.7998080E-01
       -1   -1    0    0    0  501  0.00000000000E+00  0.00000000000E+00  0.17638463319E+04  0.17638463319E+04  0.50400001928E-02 0. -1.
        1   -1    0    0  501    0  0.00000000000E+00  0.00000000000E+00 -0.23044386228E+04  0.23044386228E+04  0.50400001928E-02 0.  1.
    10030    2    1    2    0    0  0.00000000000E+00  0.00000000000E+00 -0.54059229088E+03  0.40682849548E+04  0.40322081355E+04 0.  0.
        3    1    3    3  502    0  0.11054545853E+04 -0.13714161552E+04  0.71922514623E+03  0.19026552320E+04  0.10100000352E+00 0. -1.
       -3    1    3    3    0  502 -0.11054545853E+04  0.13714161552E+04 -0.12598174371E+04  0.21656297227E+04  0.10100000352E+00 0.  1.
</event>
<event>
 5   0  0.8528625E-08  0.4018188E+04  0.7818609E-02  0.8000888E-01
        1   -1    0    0  501    0  0.00000000000E+00  0.00000000000E+00  0.23103165385E+04  0.23103165385E+04  0.50400001928E-02 0.  1.
       -1   -1    0    0    0  501  0.00000000000E+00  0.00000000000E+00 -0.17471450785E+04  0.17471450785E+04  0.50400001928E-02 0. -1.
    10030    2    1    2    0    0  0.00000000000E+00  0.00000000000E+00  0.56317146003E+03  0.40574616170E+04  0.40181877358E+04 0.  0.
        2    1    3    3  502    0 -0.17971663183E+04 -0.74286052955E+03 -0.22813478500E+03  0.19579821302E+04  0.25500000920E-02 0.  1.
       -2    1    3    3    0  502  0.17971663183E+04  0.74286052955E+03  0.79130624504E+03  0.20994794868E+04  0.25500000920E-02 0. -1.
</event>
<event>
 5   0  0.2839279E-07  0.3452290E+04  0.7818609E-02  0.8125191E-01
       -2   -1    0    0    0  501  0.00000000000E+00  0.00000000000E+00  0.95153694733E+03  0.95153694733E+03  0.25500000920E-02 0.  1.
        2   -1    0    0  501    0  0.00000000000E+00  0.00000000000E+00 -0.31313301324E+04  0.31313301324E+04  0.25500000920E-02 0. -1.
    10030    2    1    2    0    0  0.00000000000E+00  0.00000000000E+00 -0.21797931851E+04  0.40828670797E+04  0.34522898576E+04 0.  0.
        3    1    3    3  502    0 -0.38060073050E+03 -0.73333338770E+03 -0.28822884374E+04  0.29983697937E+04  0.10100000352E+00 0. -1.
       -3    1    3    3    0  502  0.38060073050E+03  0.73333338770E+03  0.70249525232E+03  0.10844972860E+04  0.10100000352E+00 0.  1.
</event>
<event>
 5   0  0.8528625E-08  0.3958690E+04  0.7818609E-02  0.8012932E-01
       -1   -1    0    0    0  501  0.00000000000E+00  0.00000000000E+00  0.25408833569E+04  0.25408833569E+04  0.50400001928E-02 0. -1.
        1   -1    0    0  501    0  0.00000000000E+00  0.00000000000E+00 -0.15419072502E+04  0.15419072502E+04  0.50400001928E-02 0.  1.
    10030    2    1    2    0    0  0.00000000000E+00  0.00000000000E+00  0.99897610663E+03  0.40827906071E+04  0.39586899196E+04 0.  0.
        4    1    3    3  502    0 -0.18071160009E+03  0.13303754479E+04 -0.10004951852E+04  0.16743798086E+04  0.12699999809E+01 0.  1.
       -4    1    3    3    0  502  0.18071160009E+03 -0.13303754479E+04  0.19994712918E+04  0.24084107986E+04  0.12699999809E+01 0. -1.
</event>
<event>
 5   0  0.8528625E-08  0.3970956E+04  0.7818609E-02  0.8010431E-01
       -1   -1    0    0    0  501  0.00000000000E+00  0.00000000000E+00  0.20902333078E+04  0.20902333078E+04  0.50400001928E-02 0. -1.
        1   -1    0    0  501    0  0.00000000000E+00  0.00000000000E+00 -0.18859729284E+04  0.18859729284E+04  0.50400001928E-02 0.  1.
    10030    2    1    2    0    0  0.00000000000E+00  0.00000000000E+00  0.20426037942E+03  0.39762062362E+04  0.39709562741E+04 0.  0.
        3    1    3    3  502    0  0.16021120059E+04 -0.21887646002E+03  0.12558051808E+04  0.20473681757E+04  0.10100000352E+00 0. -1.
       -3    1    3    3    0  502 -0.16021120059E+04  0.21887646002E+03 -0.10515448014E+04  0.19288380606E+04  0.10100000352E+00 0.  1.
</event>
<event>
 5   0  0.2661693E-07  0.3961938E+04  0.7818609E-02  0.8012269E-01
        2   -1    0    0  501    0  0.00000000000E+00  0.00000000000E+00  0.18054133356E+04  0.18054133356E+04  0.25500000920E-02 0. -1.
       -2   -1    0    0    0  501  0.00000000000E+00  0.00000000000E+00 -0.21735958097E+04  0.21735958097E+04  0.25500000920E-02 0.  1.
    10030    2    1    2    0    0  0.00000000000E+00  0.00000000000E+00 -0.36818247411E+03  0.39790091453E+04  0.39619383443E+04 0.  0.
        1    1    3    3  502    0  0.55827447012E+03  0.14305601324E+04 -0.14409089147E+04  0.21057994152E+04  0.50400001928E-02 0.  1.
       -1    1    3    3    0  502 -0.55827447012E+03 -0.14305601324E+04  0.10727264406E+04  0.18732097301E+04  0.50400001928E-02 0. -1.
</event>
<event>
 5   0  0.8583262E-08  0.3994929E+04  0.7818609E-02  0.8005570E-01
        1   -1    0    0  501    0  0.00000000000E+00  0.00000000000E+00  0.20702487120E+04  0.20702487120E+04  0.50400001928E-02 0. -1.
       -1   -1    0    0    0  501  0.00000000000E+00  0.00000000000E+00 -0.19272392463E+04  0.19272392463E+04  0.50400001928E-02 0.  1.
    10030    2    1    2    0    0  0.00000000000E+00  0.00000000000E+00  0.14300946566E+03  0.39974879583E+04  0.39949290694E+04 0.  0.
        1    1    3    3  502    0 -0.89392084004E+03  0.38679653979E+03  0.18165135339E+04  0.20611713782E+04  0.50400001928E-02 0. -1.
       -1    1    3    3    0  502  0.89392084004E+03 -0.38679653979E+03 -0.16735040683E+04  0.19363165800E+04  0.50400001928E-02 0.  1.
</event>
<event>
 5   0  0.2839279E-07  0.3991559E+04  0.7818609E-02  0.8006252E-01
        2   -1    0    0  501    0  0.00000000000E+00  0.00000000000E+00  0.19289717523E+04  0.19289717523E+04  0.25500000920E-02 0. -1.
       -2   -1    0    0    0  501  0.00000000000E+00  0.00000000000E+00 -0.20649009686E+04  0.20649009686E+04  0.25500000920E-02 0.  1.
    10030    2    1    2    0    0  0.00000000000E+00  0.00000000000E+00 -0.13592921630E+03  0.39938727208E+04  0.39915589133E+04 0.  0.
        3    1    3    3  502    0  0.17188963182E+03  0.66651160820E+03 -0.19423769447E+04  0.20607309322E+04  0.10100000352E+00 0.  1.
       -3    1    3    3    0  502 -0.17188963182E+03 -0.66651160820E+03  0.18064477284E+04  0.19331417886E+04  0.10100000352E+00 0. -1.
</event>
<event>
 5   0  0.2839279E-07  0.3985998E+04  0.7818609E-02  0.8007377E-01
        2   -1    0    0  501    0  0.00000000000E+00  0.00000000000E+00  0.17561184547E+04  0.17561184547E+04  0.25500000920E-02 0. -1.
       -2   -1    0    0    0  501  0.00000000000E+00  0.00000000000E+00 -0.22618324437E+04  0.22618324437E+04  0.25500000920E-02 0.  1.
    10030    2    1    2    0    0  0.00000000000E+00  0.00000000000E+00 -0.50571398902E+03  0.40179508985E+04  0.39859983422E+04 0.  0.
        3    1    3    3  502    0 -0.33985569775E+03  0.14887375537E+04 -0.15438279831E+04  0.21714617774E+04  0.10100000352E+00 0. -1.
       -3    1    3    3    0  502  0.33985569775E+03 -0.14887375537E+04  0.10381139941E+04  0.18464891210E+04  0.10100000352E+00 0.  1.
</event>
<event>
 5   0  0.2666978E-07  0.3992981E+04  0.7818609E-02  0.8005964E-01
        2   -1    0    0  501    0  0.00000000000E+00  0.00000000000E+00  0.21519686635E+04  0.21519686635E+04  0.25500000920E-02 0.  1.
       -2   -1    0    0    0  501  0.00000000000E+00  0.00000000000E+00 -0.18522451153E+04  0.18522451153E+04  0.25500000920E-02 0. -1.
    10030    2    1    2    0    0  0.00000000000E+00  0.00000000000E+00  0.29972354827E+03  0.40042137788E+04  0.39929805636E+04 0.  0.
        4    1    3    3  502    0 -0.18078545346E+04 -0.73333831677E+03  0.57514058418E+03  0.20339398736E+04  0.12699999809E+01 0.  1.
       -4    1    3    3    0  502  0.18078545346E+04  0.73333831677E+03 -0.27541703591E+03  0.19702739052E+04  0.12699999809E+01 0. -1.
</event>
<event>
 5   0  0.8528625E-08  0.4032063E+04  0.7818609E-02  0.7998110E-01
       -1   -1    0    0    0  501  0.00000000000E+00  0.00000000000E+00  0.20215074803E+04  0.20215074803E+04  0.50400001928E-02 0.  1.
        1   -1    0    0  501    0  0.00000000000E+00  0.00000000000E+00 -0.20105700302E+04  0.20105700303E+04  0.50400001928E-02 0. -1.
    10030    2    1    2    0    0  0.00000000000E+00  0.00000000000E+00  0.10937450051E+02  0.40320775106E+04  0.40320626760E+04 0.  0.
        5    1    3    3  502    0 -0.93329560950E+03  0.29319690111E+03  0.17682443810E+04  0.20208204765E+04  0.46999998093E+01 0.  1.
       -5    1    3    3    0  502  0.93329560950E+03 -0.29319690111E+03 -0.17573069309E+04  0.20112570340E+04  0.46999998093E+01 0. -1.
</event>
<event>
 5   0  0.2666978E-07  0.3897416E+04  0.7818609E-02  0.8025567E-01
        2   -1    0    0  501    0  0.00000000000E+00  0.00000000000E+00  0.22438685532E+04  0.22438685532E+04  0.25500000920E-02 0. -1.
       -2   -1    0    0    0  501  0.00000000000E+00  0.00000000000E+00 -0.16923730578E+04  0.16923730578E+04  0.25500000920E-02 0.  1.
    10030    2    1    2    0    0  0.00000000000E+00  0.00000000000E+00  0.55149549538E+03  0.39362416110E+04  0.38974159053E+04 0.  0.
        4    1    3    3  502    0  0.18770511150E+04  0.61990659094E+02 -0.24933274273E+03  0.18945532876E+04  0.12699999809E+01 0.  1.
       -4    1    3    3    0  502 -0.18770511150E+04 -0.61990659094E+02  0.80082823810E+03  0.20416883234E+04  0.12699999809E+01 0. -1.
</event>
<event>
 5   0  0.8528625E-08  0.3825442E+04  0.7818609E-02  0.8040717E-01
       -1   -1    0    0    0  501  0.00000000000E+00  0.00000000000E+00  0.18228118454E+04  0.18228118454E+04  0.50400001928E-02 0.  1.
        1   -1    0    0  501    0  0.00000000000E+00  0.00000000000E+00 -0.20070650968E+04  0.20070650968E+04  0.50400001928E-02 0. -1.
    10030    2    1    2    0    0  0.00000000000E+00  0.00000000000E+00 -0.18425325139E+03  0.38298769423E+04  0.38254422139E+04 0.  0.
        5    1    3    3  502    0 -0.12089310381E+04 -0.14194797206E+04 -0.51928623342E+03  0.19354888825E+04  0.46999998093E+01 0. -1.
       -5    1    3    3    0  502  0.12089310381E+04  0.14194797206E+04  0.33503298203E+03  0.18943880598E+04  0.46999998093E+01 0.  1.
</event>
<event>
 5   0  0.2661693E-07  0.3965906E+04  0.7818609E-02  0.8011460E-01
       -2   -1    0    0    0  501  0.00000000000E+00  0.00000000000E+00  0.23110107457E+04  0.23110107457E+04  0.25500000920E-02 0. -1.
        2   -1    0    0  501    0  0.00000000000E+00  0.00000000000E+00 -0.17014640771E+04  0.17014640771E+04  0.25500000920E-02 0.  1.
    10030    2    1    2    0    0  0.00000000000E+00  0.00000000000E+00  0.60954666855E+03  0.40124748228E+04  0.39659055791E+04 0.  0.
        1    1    3    3  502    0 -0.21109040448E+03  0.18436374297E+04  0.10119397537E+04  0.21136651098E+04  0.50400001928E-02 0.  1.
       -1    1    3    3    0  502  0.21109040448E+03 -0.18436374297E+04 -0.40239308520E+03  0.18988097130E+04  0.50400001928E-02 0. -1.
</event>
<event>
 5   0  0.8528625E-08  0.3992937E+04  0.7818609E-02  0.8005973E-01
        1   -1    0    0  501    0  0.00000000000E+00  0.00000000000E+00  0.19241720699E+04  0.19241720699E+04  0.50400001928E-02 0. -1.
       -1   -1    0    0    0  501  0.00000000000E+00  0.00000000000E+00 -0.20714809245E+04  0.20714809245E+04  0.50400001928E-02 0.  1.
    10030    2    1    2    0    0  0.00000000000E+00  0.00000000000E+00 -0.14730885456E+03  0.39956529944E+04  0.39929366328E+04 0.  0.
        2    1    3    3  502    0  0.12867811661E+04  0.12917699297E+04  0.74017026388E+03  0.19678229951E+04  0.25500000920E-02 0. -1.
       -2    1    3    3    0  502 -0.12867811661E+04 -0.12917699297E+04 -0.88747911844E+03  0.20278299993E+04  0.25500000920E-02 0.  1.
</event>
<event>
 5   0  0.2704088E-07  0.4003913E+04  0.7818609E-02  0.8003758E-01
       -2   -1    0    0    0  501  0.00000000000E+00  0.00000000000E+00  0.22203119391E+04  0.22203119392E+04  0.25500000920E-02 0.  1.
        2   -1    0    0  501    0  0.00000000000E+00  0.00000000000E+00 -0.18050747929E+04  0.18050747929E+04  0.25500000920E-02 0. -1.
    10030    2    1    2    0    0  0.00000000000E+00  0.00000000000E+00  0.41523714624E+03  0.40253867321E+04  0.40039126433E+04 0.  0.
        5    1    3    3  502    0 -0.10884315308E+04 -0.70044158976E+03  0.17430638638E+04  0.21710816063E+04  0.46999998093E+01 0.  1.
       -5    1    3    3    0  502  0.10884315308E+04  0.70044158976E+03 -0.13278267175E+04  0.18543051258E+04  0.46999998093E+01 0. -1.
</event>
<event>
 5   0  0.8528625E-08  0.4006830E+04  0.7818609E-02  0.8003170E-01
        1   -1    0    0  501    0  0.00000000000E+00  0.00000000000E+00  0.13482757414E+04  0.13482757414E+04  0.50400001928E-02 0. -1.
       -1   -1    0    0    0  501  0.00000000000E+00  0.00000000000E+00 -0.29768923131E+04  0.29768923131E+04  0.50400001928E-02 0.  1.
    10030    2    1    2    0    0  0.00000000000E+00  0.00000000000E+00 -0.16286165717E+04  0.43251680545E+04  0.40068300141E+04 0.  0.
        3    1    3    3  502    0  0.17194341940E+04  0.87193923263E+03 -0.22609313518E+03  0.19410950747E+04  0.10100000352E+00 0.  1.
       -3    1    3    3    0  502 -0.17194341940E+04 -0.87193923263E+03 -0.14025234365E+04  0.23840729798E+04  0.10100000352E+00 0. -1.
</event>
<event>
 5   0  0.8528625E-08  0.3930888E+04  0.7818609E-02  0.8018635E-01
        1   -1    0    0  501    0  0.00000000000E+00  0.00000000000E+00  0.30234442974E+04  0.30234442974E+04  0.50400001928E-02 0.  1.
       -1   -1    0    0    0  501  0.00000000000E+00  0.00000000000E+00 -0.12776722919E+04  0.12776722919E+04  0.50400001928E-02 0. -1.
    10030    2    1    2    0    0  0.00000000000E+00  0.00000000000E+00  0.17457720055E+04  0.43011165893E+04  0.39308884517E+04 0.  0.
        3    1    3    3  502    0 -0.15660907316E+04  0.10410304972E+04  0.24758447606E+03  0.18967558511E+04  0.10100000352E+00 0. -1.
       -3    1    3    3    0  502  0.15660907316E+04 -0.10410304972E+04  0.14981875294E+04  0.24043607382E+04  0.10100000352E+00 0.  1.
</event>
<event>
 5   0  0.8528625E-08  0.4028984E+04  0.7818609E-02  0.7998725E-01
       -1   -1    0    0    0  501  0.00000000000E+00  0.00000000000E+00  0.16169159817E+04  0.16169159817E+04  0.50400001928E-02 0.  1.
        1   -1    0    0  501    0  0.00000000000E+00  0.00000000000E+00 -0.25098267330E+04  0.25098267330E+04  0.50400001928E-02 0. -1.
    10030    2    1    2    0    0  0.00000000000E+00  0.00000000000E+00 -0.89291075130E+03  0.41267427147E+04  0.40289844655E+04 0.  0.
        3    1    3    3  502    0  0.66118933514E+03  0.36687698175E+03 -0.23589532471E+04  0.24771819652E+04  0.10100000352E+00 0. -1.
       -3    1    3    3    0  502 -0.66118933514E+03 -0.36687698175E+03  0.14660424958E+04  0.16495607495E+04  0.10100000352E+00 0.  1.
</event>
<event>
 5   0  0.8528625E-08  0.4511104E+04  0.7818609E-02  0.7908696E-01
        1   -1    0    0  501    0  0.00000000000E+00  0.00000000000E+00  0.19449928428E+04  0.19449928428E+04  0.50400001928E-02 0.  1.
       -1   -1    0    0    0  501  0.00000000000E+00  0.00000000000E+00 -0.26156982962E+04  0.26156982962E+04  0.50400001928E-02 0. -1.
    10030    2    1    2    0    0  0.00000000000E+00  0.00000000000E+00 -0.67070545342E+03  0.45606911390E+04  0.45111038405E+04 0.  0.
        2    1    3    3  502    0 -0.21434137821E+04  0.33233574550E+03 -0.96089865311E+03  0.23723397544E+04  0.25500000920E-02 0.  1.
       -2    1    3    3    0  502  0.21434137821E+04 -0.33233574550E+03  0.29019319969E+03  0.21883513845E+04  0.25500000920E-02 0. -1.
</event>
<event>
 5   0  0.8528625E-08  0.3992160E+04  0.7818609E-02  0.8006130E-01
       -1   -1    0    0    0  501  0.00000000000E+00  0.00000000000E+00  0.14067352947E+04  0.14067352947E+04  0.50400001928E-02 0.  1.
        1   -1    0    0  501    0  0.00000000000E+00  0.00000000000E+00 -0.28323281351E+04  0.28323281351E+04  0.50400001928E-02 0. -1.
    10030    2    1    2    0    0  0.00000000000E+00  0.00000000000E+00 -0.14255928404E+04  0.42390634299E+04  0.39921602944E+04 0.  0.
        5    1    3    3  502    0 -0.19354353520E+03  0.19201754882E+04 -0.12540060531E+04  0.23015399794E+04  0.46999998093E+01 0.  1.
       -5    1    3    3    0  502  0.19354353520E+03 -0.19201754882E+04 -0.17158678724E+03  0.19375234505E+04  0.46999998093E+01 0. -1.
</event>
<event>
 5   0  0.2704088E-07  0.3962145E+04  0.7818609E-02  0.8012227E-01
       -2   -1    0    0    0  501  0.00000000000E+00  0.00000000000E+00  0.22848971119E+04  0.22848971119E+04  0.25500000920E-02 0.  1.
        2   -1    0    0  501    0  0.00000000000E+00  0.00000000000E+00 -0.17176479296E+04  0.17176479296E+04  0.25500000920E-02 0. -1.
    10030    2    1    2    0    0  0.00000000000E+00  0.00000000000E+00  0.56724918225E+03  0.40025450415E+04  0.39621452742E+04 0.  0.
        5    1    3    3  502    0 -0.17037994815E+04 -0.88171422543E+03  0.78290497527E+03  0.20720315969E+04  0.46999998093E+01 0.  1.
       -5    1    3    3    0  502  0.17037994815E+04  0.88171422543E+03 -0.21565579301E+03  0.19305134445E+04  0.46999998093E+01 0. -1.
</event>
<event>
 5   0  0.8528625E-08  0.4004509E+04  0.7818609E-02  0.8003638E-01
        3   -1    0    0  501    0  0.00000000000E+00  0.00000000000E+00  0.25111571287E+04  0.25111571307E+04  0.10100000352E+00 0.  1.
       -3   -1    0    0    0  501  0.00000000000E+00  0.00000000000E+00 -0.15964845388E+04  0.15964845419E+04  0.10100000352E+00 0. -1.
    10030    2    1    2    0    0  0.00000000000E+00  0.00000000000E+00  0.91467258992E+03  0.41076416727E+04  0.40045092289E+04 0.  0.
        5    1    3    3  502    0  0.13753929512E+04  0.61264488347E+03  0.18111614574E+04  0.23552850015E+04  0.46999998093E+01 0.  1.
       -5    1    3    3    0  502 -0.13753929512E+04 -0.61264488347E+03 -0.89648886745E+03  0.17523566712E+04  0.46999998093E+01 0. -1.
</event>
<event>
 5   0  0.2661693E-07  0.4027992E+04  0.7818609E-02  0.7998923E-01
        2   -1    0    0  501    0  0.00000000000E+00  0.00000000000E+00  0.21095043501E+04  0.21095043501E+04  0.25500000920E-02 0.  1.
       -2   -1    0    0    0  501  0.00000000000E+00  0.00000000000E+00 -0.19228121361E+04  0.19228121361E+04  0.25500000920E-02 0. -1.
    10030    2    1    2    0    0  0.00000000000E+00  0.00000000000E+00  0.18669221400E+03  0.40323164861E+04  0.40279923363E+04 0.  0.
        1    1    3    3  502    0 -0.11842418421E+04 -0.37754884277E+03  0.16797266666E+04  0.20896060738E+04  0.50400001928E-02 0.  1.
       -1    1    3    3    0  502  0.11842418421E+04  0.37754884277E+03 -0.14930344526E+04  0.19427104123E+04  0.50400001928E-02 0. -1.
</event>
<event>
 5   0  0.8583262E-08  0.3943018E+04  0.7818609E-02  0.8016141E-01
       -1   -1    0    0    0  501  0.00000000000E+00  0.00000000000E+00  0.21128433153E+04  0.21128433153E+04  0.50400001928E-02 0. -1.
        1   -1    0    0  501    0  0.00000000000E+00  0.00000000000E+00 -0.18396285188E+04  0.18396285188E+04  0.50400001928E-02 0.  1.
    10030    2    1    2    0    0  0.00000000000E+00  0.00000000000E+00  0.27321479646E+03  0.39524718341E+04  0.39430175341E+04 0.  0.
        1    1    3    3  502    0  0.42102937980E+03  0.21308582332E+03  0.20554007692E+04  0.21088725967E+04  0.50400001928E-02 0. -1.
       -1    1    3    3    0  502 -0.42102937980E+03 -0.21308582332E+03 -0.17821859728E+04  0.18435992374E+04  0.50400001928E-02 0.  1.
</event>
<event>
 5   0  0.2666978E-07  0.3972207E+04  0.7818609E-02  0.8010177E-01
       -2   -1    0    0    0  501  0.00000000000E+00  0.00000000000E+00  0.15670265586E+04  0.15670265586E+04  0.25500000920E-02 0.  1.
        2   -1    0    0  501    0  0.00000000000E+00  0.00000000000E+00 -0.25172559671E+04  0.25172559671E+04  0.25500000920E-02 0. -1.
    10030    2    1    2    0    0  0.00000000000E+00  0.00000000000E+00 -0.95022940850E+03  0.40842825257E+04  0.39722069207E+04 0.  0.
        4    1    3    3  502    0 -0.31615377289E+03 -0.55844474565E+03 -0.24077189180E+04  0.24917716073E+04  0.12699999809E+01 0. -1.
       -4    1    3    3    0  502  0.31615377289E+03  0.55844474565E+03  0.14574895095E+04  0.15925109184E+04  0.12699999809E+01 0.  1.
</event>
<event>
 5   0  0.2839279E-07  0.4121896E+04  0.7818609E-02  0.7980398E-01
       -2   -1    0    0    0  501  0.00000000000E+00  0.00000000000E+00  0.19317748192E+04  0.19317748192E+04  0.25500000920E-02 0.  1.
        2   -1    0    0  501    0  0.00000000000E+00  0.00000000000E+00 -0.21987583616E+04  0.21987583616E+04  0.25500000920E-02 0. -1.
    10030    2    1    2    0    0  0.00000000000E+00  0.00000000000E+00 -0.26698354246E+03  0.41305331808E+04  0.41218956981E+04 0.  0.
        3    1    3    3  502    0  0.31340387344E+02  0.20508564270E+04 -0.33518878565E+03  0.20783035958E+04  0.10100000352E+00 0. -1.
       -3    1    3    3    0  502 -0.31340387344E+02 -0.20508564270E+04  0.68205243194E+02  0.20522295850E+04  0.10100000352E+00 0.  1.
</event>
<event>
 5   0  0.8528625E-08  0.4017107E+04  0.7818609E-02  0.8001104E-01
        1   -1    0    0  501    0  0.00000000000E+00  0.00000000000E+00  0.20136200003E+04  0.20136200003E+04  0.50400001928E-02 0. -1.
       -1   -1    0    0    0  501  0.00000000000E+00  0.00000000000E+00 -0.20035000851E+04  0.20035000851E+04  0.50400001928E-02 0.  1.
    10030    2    1    2    0    0  0.00000000000E+00  0.00000000000E+00  0.10119915150E+02  0.40171200854E+04  0.40171073384E+04 0.  0.
        3    1    3    3  502    0  0.14063630082E+04 -0.87890223747E+03 -0.11280640103E+04  0.20057054807E+04  0.10100000352E+00 0. -1.
       -3    1    3    3    0  502 -0.14063630082E+04  0.87890223747E+03  0.11381839254E+04  0.20114146047E+04  0.10100000352E+00 0.  1.
</event>
<event>
 5   0  0.8528625E-08  0.4025121E+04  0.7818609E-02  0.7999498E-01
       -1   -1    0    0    0  501  0.00000000000E+00  0.00000000000E+00  0.14218322820E+04  0.14218322821E+04  0.50400001928E-02 0.  1.
        1   -1    0    0  501    0  0.00000000000E+00  0.00000000000E+00 -0.28487190477E+04  0.28487190477E+04  0.50400001928E-02 0. -1.
    10030    2    1    2    0    0  0.00000000000E+00  0.00000000000E+00 -0.14268867656E+04  0.42705513297E+04  0.40251214662E+04 0.  0.
        5    1    3    3  502    0 -0.17330300681E+04 -0.94364649954E+03 -0.29369863419E+03  0.19950295513E+04  0.46999998093E+01 0. -1.
       -5    1    3    3    0  502  0.17330300681E+04  0.94364649954E+03 -0.11331881314E+04  0.22755217784E+04  0.46999998093E+01 0.  1.
</event>
<event>
 5   0  0.8528625E-08  0.4013985E+04  0.7818609E-02  0.8001731E-01
        1   -1    0    0  501    0  0.00000000000E+00  0.00000000000E+00  0.13041512048E+04  0.13041512048E+04  0.50400001928E-02 0. -1.
       -1   -1    0    0    0  501  0.00000000000E+00  0.00000000000E+00 -0.30886137266E+04  0.30886137266E+04  0.50400001928E-02 0.  1.
    10030    2    1    2    0    0  0.00000000000E+00  0.00000000000E+00 -0.17844625218E+04  0.43927649313E+04  0.40139852080E+04 0.  0.
        4    1    3    3  502    0  0.70279729004E+03 -0.13478180292E+04  0.54196329314E+03  0.16137729997E+04  0.12699999809E+01 0. -1.
       -4    1    3    3    0  502 -0.70279729004E+03  0.13478180292E+04 -0.23264258149E+04  0.27789919316E+04  0.12699999809E+01 0.  1.
</event>
<event>
 5   0  0.2839279E-07  0.4123437E+04  0.7818609E-02  0.7980098E-01
        2   -1    0    0  501    0  0.00000000000E+00  0.00000000000E+00  0.23104509673E+04  0.23104509673E+04  0.25500000920E-02 0. -1.
       -2   -1    0    0    0  501  0.00000000000E+00  0.00000000000E+00 -0.18397637409E+04  0.18397637409E+04  0.25500000920E-02 0.  1.
    10030    2    1    2    0    0  0.00000000000E+00  0.00000000000E+00  0.47068722639E+03  0.41502147082E+04  0.41234373596E+04 0.  0.
        3    1    3    3  502    0  0.19673934687E+04 -0.28946274905E+03 -0.31248703487E+03  0.20129763786E+04  0.10100000352E+00 0.  1.
       -3    1    3    3    0  502 -0.19673934687E+04  0.28946274905E+03  0.78317426126E+03  0.21372383296E+04  0.10100000352E+00 0. -1.
</event>
<event>
 5   0  0.2730801E-07  0.4002434E+04  0.7818609E-02  0.8004056E-01
        2   -1    0    0  501    0  0.00000000000E+00  0.00000000000E+00  0.27385928988E+04  0.27385928988E+04  0.25500000920E-02 0.  1.
       -2   -1    0    0    0  501  0.00000000000E+00  0.00000000000E+00 -0.14623823257E+04  0.14623823257E+04  0.25500000920E-02 0. -1.
    10030    2    1    2    0    0  0.00000000000E+00  0.00000000000E+00  0.12762105732E+04  0.42009752245E+04  0.40024341856E+04 0.  0.
        2    1    3    3  502    0  0.82874671731E+03  0.16952493283E+04 -0.61422002221E+02  0.18879788317E+04  0.25500000920E-02 0. -1.
       -2    1    3    3    0  502 -0.82874671731E+03 -0.16952493283E+04  0.13376325754E+04  0.23129963928E+04  0.25500000920E-02 0.  1.
</event>
<event>
 5   0  0.2839279E-07  0.3999004E+04  0.7818609E-02  0.8004747E-01
       -2   -1    0    0    0  501  0.00000000000E+00  0.00000000000E+00  0.13506053006E+04  0.13506053006E+04  0.25500000920E-02 0. -1.
        2   -1    0    0  501    0  0.00000000000E+00  0.00000000000E+00 -0.29601610648E+04  0.29601610648E+04  0.25500000920E-02 0.  1.
    10030    2    1    2    0    0  0.00000000000E+00  0.00000000000E+00 -0.16095557643E+04  0.43107663654E+04  0.39990044885E+04 0.  0.
        3    1    3    3  502    0 -0.24129262542E+03  0.10959492155E+04  0.97913412848E+03  0.14893053635E+04  0.10100000352E+00 0. -1.
       -3    1    3    3    0  502  0.24129262542E+03 -0.10959492155E+04 -0.25886898927E+04  0.28214610019E+04  0.10100000352E+00 0.  1.
</event>
<event>
 5   0  0.2730801E-07  0.2919618E+04  0.7818609E-02  0.8267064E-01
        2   -1    0    0  501    0  0.00000000000E+00  0.00000000000E+00  0.11439381772E+04  0.11439381772E+04  0.25500000920E-02 0.  1.
       -2   -1    0    0    0  501  0.00000000000E+00  0.00000000000E+00 -0.18629004717E+04  0.18629004717E+04  0.25500000920E-02 0. -1.
    10030    2    1    2    0    0  0.00000000000E+00  0.00000000000E+00 -0.71896229454E+03  0.30068386489E+04  0.29196184476E+04 0.  0.
        2    1    3    3  502    0 -0.52039296294E+03 -0.71476256914E+03  0.83683539156E+03  0.12173692286E+04  0.25500000920E-02 0.  1.
       -2    1    3    3    0  502  0.52039296294E+03  0.71476256914E+03 -0.15557976861E+04  0.17894694203E+04  0.25500000920E-02 0. -1.
</event>
<event>
 5   0  0.2839279E-07  0.3126210E+04  0.7818609E-02  0.8208581E-01
        2   -1    0    0  501    0  0.00000000000E+00  0.00000000000E+00  0.94604895721E+03  0.94604895721E+03  0.25500000920E-02 0. -1.
       -2   -1    0    0    0  501  0.00000000000E+00  0.00000000000E+00 -0.25826325079E+04  0.25826325079E+04  0.25500000920E-02 0.  1.
    10030    2    1    2    0    0  0.00000000000E+00  0.00000000000E+00 -0.16365835506E+04  0.35286814651E+04  0.31262097120E+04 0.  0.
        3    1    3    3  502    0  0.31381087592E+03  0.14629872850E+04 -0.13287121048E+04  0.20010709456E+04  0.10100000352E+00 0.  1.
       -3    1    3    3    0  502 -0.31381087592E+03 -0.14629872850E+04 -0.30787144588E+03  0.15276105195E+04  0.10100000352E+00 0. -1.
</event>
<event>
 5   0  0.2704088E-07  0.3220651E+04  0.7818609E-02  0.8183384E-01
       -2   -1    0    0    0  501  0.00000000000E+00  0.00000000000E+00  0.24826703836E+04  0.24826703836E+04  0.25500000920E-02 0. -1.
        2   -1    0    0  501    0  0.00000000000E+00  0.00000000000E+00 -0.10444996368E+04  0.10444996368E+04  0.25500000920E-02 0.  1.
    10030    2    1    2    0    0  0.00000000000E+00  0.00000000000E+00  0.14381707468E+04  0.35271700205E+04  0.32206510610E+04 0.  0.
        5    1    3    3  502    0  0.51278506795E+03  0.66127244539E+03 -0.78768179622E+03  0.11492147210E+04  0.46999998093E+01 0.  1.
       -5    1    3    3    0  502 -0.51278506795E+03 -0.66127244539E+03  0.22258525430E+04  0.23779552994E+04  0.46999998093E+01 0. -1.
</event>
<event>
 5   0  0.2666978E-07  0.3984777E+04  0.7818609E-02  0.8007625E-01
        2   -1    0    0  501    0  0.00000000000E+00  0.00000000000E+00  0.27538896569E+04  0.27538896569E+04  0.25500000920E-02 0. -1.
       -2   -1    0    0    0  501  0.00000000000E+00  0.00000000000E+00 -0.14414565187E+04  0.14414565187E+04  0.25500000920E-02 0.  1.
    10030    2    1    2    0    0  0.00000000000E+00  0.00000000000E+00  0.13124331382E+04  0.41953461756E+04  0.39847771319E+04 0.  0.
        4    1    3    3  502    0  0.11855629651E+04 -0.82397429799E+03  0.21017660643E+04  0.25498853680E+04  0.12699999809E+01 0. -1.
       -4    1    3    3    0  502 -0.11855629651E+04  0.82397429799E+03 -0.78933292614E+03  0.16454608076E+04  0.12699999809E+01 0.  1.
</event>
<event>
 5   0  0.2666978E-07  0.3974604E+04  0.7818609E-02  0.8009689E-01
       -2   -1    0    0    0  501  0.00000000000E+00  0.00000000000E+00  0.28487508684E+04  0.28487508684E+04  0.25500000920E-02 0. -1.
        2   -1    0    0  501    0  0.00000000000E+00  0.00000000000E+00 -0.13863512774E+04  0.13863512774E+04  0.25500000920E-02 0.  1.
    10030    2    1    2    0    0  0.00000000000E+00  0.00000000000E+00  0.14623995911E+04  0.42351021458E+04  0.39746040836E+04 0.  0.
        4    1    3    3  502    0 -0.41023094456E+03  0.12909879168E+04  0.22806103982E+04  0.26525694393E+04  0.12699999809E+01 0. -1.
       -4    1    3    3    0  502  0.41023094456E+03 -0.12909879168E+04 -0.81821080713E+03  0.15825327065E+04  0.12699999809E+01 0.  1.
</event>
<event>
 5   0  0.8583262E-08  0.3428280E+04  0.7818609E-02  0.8131000E-01
       -1   -1    0    0    0  501  0.00000000000E+00  0.00000000000E+00  0.16941452915E+04  0.16941452915E+04  0.50400001928E-02 0. -1.
        1   -1    0    0  501    0  0.00000000000E+00  0.00000000000E+00 -0.17343710788E+04  0.17343710788E+04  0.50400001928E-02 0.  1.
    10030    2    1    2    0    0  0.00000000000E+00  0.00000000000E+00 -0.40225787299E+02  0.34285163703E+04  0.34282803834E+04 0.  0.
        1    1    3    3  502    0  0.37761244651E+03  0.84047572761E+03  0.14254228657E+04  0.16972981337E+04  0.50400001928E-02 0. -1.
       -1    1    3    3    0  502 -0.37761244651E+03 -0.84047572761E+03 -0.14656486530E+04  0.17312182366E+04  0.50400001928E-02 0.  1.
</event>
<event>
 5   0  0.2730801E-07  0.3676718E+04  0.7818609E-02  0.8073141E-01
        2   -1    0    0  501    0  0.00000000000E+00  0.00000000000E+00  0.13028122577E+04  0.13028122577E+04  0.25500000920E-02 0.  1.
       -2   -1    0    0    0  501  0.00000000000E+00  0.00000000000E+00 -0.25940524714E+04  0.25940524714E+04  0.25500000920E-02 0. -1.
    10030    2    1    2    0    0  0.00000000000E+00  0.00000000000E+00 -0.12912402137E+04  0.38968647291E+04  0.36767177519E+04 0.  0.
        2    1    3    3  502    0  0.11161566618E+04 -0.75852711200E+03 -0.19687232824E+04  0.23868473843E+04  0.25500000920E-02 0. -1.
       -2    1    3    3    0  502 -0.11161566618E+04  0.75852711200E+03  0.67748306866E+03  0.15100173448E+04  0.25500000920E-02 0.  1.
</event>
<event>
 5   0  0.8528625E-08  0.3927829E+04  0.7818609E-02  0.8019266E-01
        1   -1    0    0  501    0  0.00000000000E+00  0.00000000000E+00  0.20758879264E+04  0.20758879264E+04  0.50400001928E-02 0. -1.
       -1   -1    0    0    0  501  0.00000000000E+00  0.00000000000E+00 -0.18579807929E+04  0.18579807929E+04  0.50400001928E-02 0.  1.
    10030    2    1    2    0    0  0.00000000000E+00  0.00000000000E+00  0.21790713346E+03  0.39338687193E+04  0.39278288636E+04 0.  0.
        5    1    3    3  502    0  0.49607626059E+02 -0.11387733146E+04 -0.14927780535E+04  0.18782103145E+04  0.46999998093E+01 0.  1.
       -5    1    3    3    0  502 -0.49607626059E+02  0.11387733146E+04  0.17106851869E+04  0.20556584048E+04  0.46999998093E+01 0. -1.
</event>
<event>
 5   0  0.8583262E-08  0.4115441E+04  0.7818609E-02  0.7981655E-01
       -1   -1    0    0    0  501  0.00000000000E+00  0.00000000000E+00  0.26843759442E+04  0.26843759442E+04  0.50400001928E-02 0. -1.
        1   -1    0    0  501    0  0.00000000000E+00  0.00000000000E+00 -0.15773552543E+04  0.15773552543E+04  0.50400001928E-02 0.  1.
    10030    2    1    2    0    0  0.00000000000E+00  0.00000000000E+00  0.11070206899E+04  0.42617311986E+04  0.41154414102E+04 0.  0.
        1    1    3    3  502    0  0.90133691083E+03 -0.28233194081E+03 -0.13396134867E+04  0.16391106874E+04  0.50400001928E-02 0.  1.
       -1    1    3    3    0  502 -0.90133691083E+03  0.28233194081E+03  0.24466341766E+04  0.26226205112E+04  0.50400001928E-02 0. -1.
</event>
<event>
 5   0  0.8528625E-08  0.4035694E+04  0.7818609E-02  0.7997384E-01
        1   -1    0    0  501    0  0.00000000000E+00  0.00000000000E+00  0.18389175847E+04  0.18389175847E+04  0.50400001928E-02 0.  1.
       -1   -1    0    0    0  501  0.00000000000E+00  0.00000000000E+00 -0.22141865085E+04  0.22141865085E+04  0.50400001928E-02 0. -1.
    10030    2    1    2    0    0  0.00000000000E+00  0.00000000000E+00 -0.37526892376E+03  0.40531040932E+04  0.40356939954E+04 0.  0.
        5    1    3    3  502    0  0.33525145904E+03  0.10201559733E+04  0.15281186067E+04  0.18676938498E+04  0.46999998093E+01 0.  1.
       -5    1    3    3    0  502 -0.33525145904E+03 -0.10201559733E+04 -0.19033875304E+04  0.21854102433E+04  0.46999998093E+01 0. -1.
</event>
<event>
 5   0  0.2661693E-07  0.4035524E+04  0.7818609E-02  0.7997418E-01
       -2   -1    0    0    0  501  0.00000000000E+00  0.00000000000E+00  0.19248638525E+04  0.19248638525E+04  0.25500000920E-02 0. -1.
        2   -1    0    0  501    0  0.00000000000E+00  0.00000000000E+00 -0.21151437636E+04  0.21151437636E+04  0.25500000920E-02 0.  1.
    10030    2    1    2    0    0  0.00000000000E+00  0.00000000000E+00 -0.19027991114E+03  0.40400076161E+04  0.40355241411E+04 0.  0.
        1    1    3    3  502    0 -0.28028973687E+03 -0.84978548584E+03  0.17153675794E+04  0.19347308963E+04  0.50400001928E-02 0. -1.
       -1    1    3    3    0  502  0.28028973687E+03  0.84978548584E+03 -0.19056474906E+04  0.21052767198E+04  0.50400001928E-02 0.  1.
</event>
<event>
 5   0  0.2839279E-07  0.3899680E+04  0.7818609E-02  0.8025096E-01
        2   -1    0    0  501    0  0.00000000000E+00  0.00000000000E+00  0.15072827374E+04  0.15072827374E+04  0.25500000920E-02 0.  1.
       -2   -1    0    0    0  501  0.00000000000E+00  0.00000000000E+00 -0.25223379245E+04  0.25223379245E+04  0.25500000920E-02 0. -1.
    10030    2    1    2    0    0  0.00000000000E+00  0.00000000000E+00 -0.10150551872E+04  0.40296206619E+04  0.38996801979E+04 0.  0.
        3    1    3    3  502    0  0.75144162595E+03 -0.10035226338E+04  0.10356027763E+04  0.16260981871E+04  0.10100000352E+00 0.  1.
       -3    1    3    3    0  502 -0.75144162595E+03  0.10035226338E+04 -0.20506579634E+04  0.24035224748E+04  0.10100000352E+00 0. -1.
</event>
<event>
 5   0  0.2704088E-07  0.4004705E+04  0.7818609E-02  0.8003598E-01
        2   -1    0    0  501    0  0.00000000000E+00  0.00000000000E+00  0.25921575723E+04  0.25921575723E+04  0.25500000920E-02 0.  1.
       -2   -1    0    0    0  501  0.00000000000E+00  0.00000000000E+00 -0.15467485114E+04  0.15467485114E+04  0.25500000920E-02 0. -1.
    10030    2    1    2    0    0  0.00000000000E+00  0.00000000000E+00  0.10454090608E+04  0.41389060837E+04  0.40047051659E+04 0.  0.
        5    1    3    3  502    0  0.16809347568E+04  0.87731629780E+03  0.11878297520E+04  0.22374510392E+04  0.46999998093E+01 0.  1.
       -5    1    3    3    0  502 -0.16809347568E+04 -0.87731629780E+03 -0.14242069119E+03  0.19014550445E+04  0.46999998093E+01 0. -1.
</event>
<event>
 5   0  0.8528625E-08  0.3363603E+04  0.7818609E-02  0.8146897E-01
       -1   -1    0    0    0  501  0.00000000000E+00  0.00000000000E+00  0.27523534824E+04  0.27523534824E+04  0.50400001928E-02 0.  1.
        1   -1    0    0  501    0  0.00000000000E+00  0.00000000000E+00 -0.10276502006E+04  0.10276502006E+04  0.50400001928E-02 0. -1.
    10030    2    1    2    0    0  0.00000000000E+00  0.00000000000E+00  0.17247032818E+04  0.37800036830E+04  0.33636031920E+04 0.  0.
        5    1    3    3  502    0 -0.59797025594E+03  0.62998020961E+02  0.26274259974E+04  0.26953527857E+04  0.46999998093E+01 0.  1.
       -5    1    3    3    0  502  0.59797025594E+03 -0.62998020961E+02 -0.90272271561E+03  0.10846508973E+04  0.46999998093E+01 0. -1.
</event>
<event>
 5   0  0.2839279E-07  0.3998915E+04  0.7818609E-02  0.8004766E-01
        2   -1    0    0  501    0  0.00000000000E+00  0.00000000000E+00  0.18776712384E+04  0.18776712384E+04  0.25500000920E-02 0. -1.
       -2   -1    0    0    0  501  0.00000000000E+00  0.00000000000E+00 -0.21291423816E+04  0.21291423816E+04  0.25500000920E-02 0.  1.
    10030    2    1    2    0    0  0.00000000000E+00  0.00000000000E+00 -0.25147114323E+03  0.40068136199E+04  0.39989145589E+04 0.  0.
        3    1    3    3  502    0 -0.13961544322E+04 -0.87799199604E+03  0.10068565779E+04  0.19323243316E+04  0.10100000352E+00 0. -1.
       -3    1    3    3    0  502  0.13961544322E+04  0.87799199604E+03 -0.12583277212E+04  0.20744892884E+04  0.10100000352E+00 0.  1.
</event>
<event>
 5   0  0.2666978E-07  0.4015526E+04  0.7818609E-02  0.8001422E-01
        2   -1    0    0  501    0  0.00000000000E+00  0.00000000000E+00  0.19745235740E+04  0.19745235740E+04  0.25500000920E-02 0.  1.
       -2   -1    0    0    0  501  0.00000000000E+00  0.00000000000E+00 -0.20415616995E+04  0.20415616995E+04  0.25500000920E-02 0. -1.
    10030    2    1    2    0    0  0.00000000000E+00  0.00000000000E+00 -0.67038125498E+02  0.40160852736E+04  0.40155257208E+04 0.  0.
        4    1    3    3  502    0  0.18462811383E+04  0.17662767465E+03 -0.80249466565E+03  0.20208786897E+04  0.12699999809E+01 0. -1.
       -4    1    3    3    0  502 -0.18462811383E+04 -0.17662767465E+03  0.73545654015E+03  0.19952065839E+04  0.12699999809E+01 0.  1.
</event>
<event>
 5   0  0.2704088E-07  0.4007587E+04  0.7818609E-02  0.8003018E-01
        2   -1    0    0  501    0  0.00000000000E+00  0.00000000000E+00  0.24138842046E+04  0.24138842046E+04  0.25500000920E-02 0. -1.
       -2   -1    0    0    0  501  0.00000000000E+00  0.00000000000E+00 -0.16633727374E+04  0.16633727374E+04  0.25500000920E-02 0.  1.
    10030    2    1    2    0    0  0.00000000000E+00  0.00000000000E+00  0.75051146723E+03  0.40772569421E+04  0.40075873926E+04 0.  0.
        5    1    3    3  502    0 -0.42154799041E+03  0.76453562669E+03  0.22102036856E+04  0.23763921929E+04  0.46999998093E+01 0. -1.
       -5    1    3    3    0  502  0.42154799041E+03 -0.76453562669E+03 -0.14596922183E+04  0.17008647492E+04  0.46999998093E+01 0.  1.
</event>
<event>
 5   0  0.8528625E-08  0.3965450E+04  0.7818609E-02  0.8011553E-01
       -1   -1    0    0    0  501  0.00000000000E+00  0.00000000000E+00  0.24357969943E+04  0.24357969943E+04  0.50400001928E-02 0. -1.
        1   -1    0    0  501    0  0.00000000000E+00  0.00000000000E+00 -0.16139268361E+04  0.16139268362E+04  0.50400001928E-02 0.  1.
    10030    2    1    2    0    0  0.00000000000E+00  0.00000000000E+00  0.82187015816E+03  0.40497238305E+04  0.39654498542E+04 0.  0.
        5    1    3    3  502    0  0.18106574273E+04  0.78939906588E+03  0.58647414486E+03  0.20604866457E+04  0.46999998093E+01 0. -1.
       -5    1    3    3    0  502 -0.18106574273E+04 -0.78939906588E+03  0.23539601330E+03  0.19892371848E+04  0.46999998093E+01 0.  1.
</event>
<event>
 5   0  0.2839279E-07  0.4051312E+04  0.7818609E-02  0.7994275E-01
        2   -1    0    0  501    0  0.00000000000E+00  0.00000000000E+00  0.24213943645E+04  0.24213943645E+04  0.25500000920E-02 0.  1.
       -2   -1    0    0    0  501  0.00000000000E+00  0.00000000000E+00 -0.16945943894E+04  0.16945943894E+04  0.25500000920E-02 0. -1.
    10030    2    1    2    0    0  0.00000000000E+00  0.00000000000E+00  0.72679997510E+03  0.41159887538E+04  0.40513115429E+04 0.  0.
        3    1    3    3  502    0 -0.13310368669E+03 -0.15982983672E+04 -0.89369220991E+03  0.18360174396E+04  0.10100000352E+00 0. -1.
       -3    1    3    3    0  502  0.13310368669E+03  0.15982983672E+04  0.16204921850E+04  0.22799713143E+04  0.10100000352E+00 0.  1.
</event>
<event>
 5   0  0.2661693E-07  0.4001998E+04  0.7818609E-02  0.8004144E-01
       -2   -1    0    0    0  501  0.00000000000E+00  0.00000000000E+00  0.25079456167E+04  0.25079456167E+04  0.25500000920E-02 0. -1.
        2   -1    0    0  501    0  0.00000000000E+00  0.00000000000E+00 -0.15965250177E+04  0.15965250177E+04  0.25500000920E-02 0.  1.
    10030    2    1    2    0    0  0.00000000000E+00  0.00000000000E+00  0.91142059897E+03  0.41044706343E+04  0.40019984608E+04 0.  0.
        1    1    3    3  502    0 -0.72433776183E+01 -0.73889736818E+03  0.23628883123E+04  0.24757348331E+04  0.50400001928E-02 0. -1.
       -1    1    3    3    0  502  0.72433776183E+01  0.73889736818E+03 -0.14514677134E+04  0.16287358012E+04  0.50400001928E-02 0.  1.
</event>
<event>
 5   0  0.2666978E-07  0.3975241E+04  0.7818609E-02  0.8009560E-01
        2   -1    0    0  501    0  0.00000000000E+00  0.00000000000E+00  0.15818462872E+04  0.15818462872E+04  0.25500000920E-02 0. -1.
       -2   -1    0    0    0  501  0.00000000000E+00  0.00000000000E+00 -0.24974830924E+04  0.24974830924E+04  0.25500000920E-02 0.  1.
    10030    2    1    2    0    0  0.00000000000E+00  0.00000000000E+00 -0.91563680526E+03  0.40793293796E+04  0.39752405497E+04 0.  0.
        4    1    3    3  502    0 -0.14411707668E+04 -0.61569603380E+03 -0.17123587869E+04  0.23212559129E+04  0.12699999809E+01 0.  1.
       -4    1    3    3    0  502  0.14411707668E+04  0.61569603380E+03  0.79672198166E+03  0.17580734667E+04  0.12699999809E+01 0. -1.
</event>
<event>
 5   0  0.2661693E-07  0.3972207E+04  0.7818609E-02  0.8010177E-01
        2   -1    0    0  501    0  0.00000000000E+00  0.00000000000E+00  0.14252300878E+04  0.14252300878E+04  0.25500000920E-02 0. -1.
       -2   -1    0    0    0  501  0.00000000000E+00  0.00000000000E+00 -0.27676985388E+04  0.27676985388E+04  0.25500000920E-02 0.  1.
    10030    2    1    2    0    0  0.00000000000E+00  0.00000000000E+00 -0.13424684510E+04  0.41929286266E+04  0.39722070598E+04 0.  0.
        1    1    3    3  502    0 -0.90719519199E+03 -0.16701948797E+04 -0.12794944418E+04  0.22912136695E+04  0.50400001928E-02 0.  1.
       -1    1    3    3    0  502  0.90719519199E+03  0.16701948797E+04 -0.62974009138E+02  0.19017149572E+04  0.50400001928E-02 0. -1.
</event>
<event>
 5   0  0.2839279E-07  0.4016356E+04  0.7818609E-02  0.8001255E-01
       -2   -1    0    0    0  501  0.00000000000E+00  0.00000000000E+00  0.21479325071E+04  0.21479325071E+04  0.25500000920E-02 0. -1.
        2   -1    0    0  501    0  0.00000000000E+00  0.00000000000E+00 -0.18775166781E+04  0.18775166781E+04  0.25500000920E-02 0.  1.
    10030    2    1    2    0    0  0.00000000000E+00  0.00000000000E+00  0.27041582903E+03  0.40254491852E+04  0.40163561124E+04 0.  0.
        3    1    3    3  502    0  0.10093553027E+04  0.16783765670E+04 -0.30968111367E+03  0.19828384780E+04  0.10100000352E+00 0. -1.
       -3    1    3    3    0  502 -0.10093553027E+04 -0.16783765670E+04  0.58009694269E+03  0.20426107071E+04  0.10100000352E+00 0.  1.
</event>
<event>
 5   0  0.2730801E-07  0.3900909E+04  0.7818609E-02  0.8024840E-01
        2   -1    0    0  501    0  0.00000000000E+00  0.00000000000E+00  0.13989541654E+04  0.13989541655E+04  0.25500000920E-02 0. -1.
       -2   -1    0    0    0  501  0.00000000000E+00  0.00000000000E+00 -0.27193686301E+04  0.27193686301E+04  0.25500000920E-02 0.  1.
    10030    2    1    2    0    0  0.00000000000E+00  0.00000000000E+00 -0.13204144647E+04  0.41183227956E+04  0.39009086493E+04 0.  0.
        2    1    3    3  502    0 -0.84157200123E+03 -0.11733502956E+04  0.72408448873E+03  0.16153305223E+04  0.25500000920E-02 0. -1.
       -2    1    3    3    0  502  0.84157200123E+03  0.11733502956E+04 -0.20444989534E+04  0.25029922733E+04  0.25500000920E-02 0.  1.
</event>
<event>
 5   0  0.2661693E-07  0.3992842E+04  0.7818609E-02  0.8005992E-01
        2   -1    0    0  501    0  0.00000000000E+00  0.00000000000E+00  0.21889061724E+04  0.21889061724E+04  0.25500000920E-02 0.  1.
       -2   -1    0    0    0  501  0.00000000000E+00  0.00000000000E+00 -0.18208627403E+04  0.18208627403E+04  0.25500000920E-02 0. -1.
    10030    2    1    2    0    0  0.00000000000E+00  0.00000000000E+00  0.36804343204E+03  0.40097689127E+04  0.39928424418E+04 0.  0.
        1    1    3    3  502    0 -0.14766512048E+04 -0.12648376826E+04 -0.27109318364E+03  0.19631109643E+04  0.50400001928E-02 0. -1.
       -1    1    3    3    0  502  0.14766512048E+04  0.12648376826E+04  0.63913661568E+03  0.20466579484E+04  0.50400001928E-02 0.  1.
</event>
<event>
 5   0  0.2730801E-07  0.3901528E+04  0.7818609E-02  0.8024711E-01
       -2   -1    0    0    0  501  0.00000000000E+00  0.00000000000E+00  0.12998378827E+04  0.12998378827E+04  0.25500000920E-02 0. -1.
        2   -1    0    0  501    0  0.00000000000E+00  0.00000000000E+00 -0.29276578804E+04  0.29276578804E+04  0.25500000920E-02 0.  1.
    10030    2    1    2    0    0  0.00000000000E+00  0.00000000000E+00 -0.16278199977E+04  0.42274957631E+04  0.39015282239E+04 0.  0.
        2    1    3    3  502    0  0.18004970735E+03 -0.82209791489E+03 -0.27208380056E+04  0.28480207744E+04  0.25500000920E-02 0.  1.
       -2    1    3    3    0  502 -0.18004970735E+03  0.82209791489E+03  0.10930180079E+04  0.13794749887E+04  0.25500000920E-02 0. -1.
</event>
<event>
 5   0  0.8583262E-08  0.4081380E+04  0.7818609E-02  0.7988328E-01
        1   -1    0    0  501    0  0.00000000000E+00  0.00000000000E+00  0.25128624487E+04  0.25128624487E+04  0.50400001928E-02 0. -1.
       -1   -1    0    0    0  501  0.00000000000E+00  0.00000000000E+00 -0.16572401838E+04  0.16572401838E+04  0.50400001928E-02 0.  1.
    10030    2    1    2    0    0  0.00000000000E+00  0.00000000000E+00  0.85562226489E+03  0.41701026326E+04  0.40813804657E+04 0.  0.
        1    1    3    3  502    0 -0.37988359113E+03 -0.13730198130E+04 -0.10650885843E+04  0.17787379352E+04  0.50400001928E-02 0.  1.
       -1    1    3    3    0  502  0.37988359113E+03  0.13730198130E+04  0.19207108492E+04  0.23913646974E+04  0.50400001928E-02 0. -1.
</event>
<event>
 5   0  0.8528625E-08  0.3962665E+04  0.7818609E-02  0.8012121E-01
        1   -1    0    0  501    0  0.00000000000E+00  0.00000000000E+00  0.21426358243E+04  0.21426358243E+04  0.50400001928E-02 0. -1.
       -1   -1    0    0    0  501  0.00000000000E+00  0.00000000000E+00 -0.18321722983E+04  0.18321722983E+04  0.50400001928E-02 0.  1.
    10030    2    1    2    0    0  0.00000000000E+00  0.00000000000E+00  0.31046352597E+03  0.39748081227E+04  0.39626647614E+04 0.  0.
        2    1    3    3  502    0 -0.39078783429E+03 -0.91363885617E+03 -0.15641467769E+04  0.18531071827E+04  0.25500000920E-02 0.  1.
       -2    1    3    3    0  502  0.39078783429E+03  0.91363885617E+03  0.18746103029E+04  0.21217009399E+04  0.25500000920E-02 0. -1.
</event>
<event>
 5   0  0.8528625E-08  0.3939463E+04  0.7818609E-02  0.8016871E-01
        1   -1    0    0  501    0  0.00000000000E+00  0.00000000000E+00  0.18863605435E+04  0.18863605435E+04  0.50400001928E-02 0. -1.
       -1   -1    0    0    0  501  0.00000000000E+00  0.00000000000E+00 -0.20567875493E+04  0.20567875493E+04  0.50400001928E-02 0.  1.
    10030    2    1    2    0    0  0.00000000000E+00  0.00000000000E+00 -0.17042700574E+03  0.39431480928E+04  0.39394633540E+04 0.  0.
        4    1    3    3  502    0  0.14014630984E+04  0.77486016176E+02  0.12980119122E+04  0.19117895899E+04  0.12699999809E+01 0. -1.
       -4    1    3    3    0  502 -0.14014630984E+04 -0.77486016176E+02 -0.14684389179E+04  0.20313585029E+04  0.12699999809E+01 0.  1.
</event>
<event>
 5   0  0.8528625E-08  0.4007490E+04  0.7818609E-02  0.8003037E-01
        3   -1    0    0  501    0  0.00000000000E+00  0.00000000000E+00  0.22566877016E+04  0.22566877038E+04  0.10100000352E+00 0.  1.
       -3   -1    0    0    0  501  0.00000000000E+00  0.00000000000E+00 -0.17791536370E+04  0.17791536399E+04  0.10100000352E+00 0. -1.
    10030    2    1    2    0    0  0.00000000000E+00  0.00000000000E+00  0.47753406451E+03  0.40358413437E+04  0.40074900585E+04 0.  0.
        3    1    3    3  502    0  0.12394430660E+04  0.13711318162E+04 -0.54051125613E+03  0.19257138935E+04  0.10100000352E+00 0.  1.
       -3    1    3    3    0  502 -0.12394430660E+04 -0.13711318162E+04  0.10180453206E+04  0.21101274503E+04  0.10100000352E+00 0. -1.
</event>
<event>
 5   0  0.2839279E-07  0.3992315E+04  0.7818609E-02  0.8006099E-01
       -2   -1    0    0    0  501  0.00000000000E+00  0.00000000000E+00  0.13588621474E+04  0.13588621474E+04  0.25500000920E-02 0.  1.
        2   -1    0    0  501    0  0.00000000000E+00  0.00000000000E+00 -0.29323394723E+04  0.29323394723E+04  0.25500000920E-02 0. -1.
    10030    2    1    2    0    0  0.00000000000E+00  0.00000000000E+00 -0.15734773249E+04  0.42912016197E+04  0.39923151741E+04 0.  0.
        3    1    3    3  502    0 -0.14143707994E+04  0.13759987139E+04 -0.11106780059E+04  0.22643813419E+04  0.10100000352E+00 0. -1.
       -3    1    3    3    0  502  0.14143707994E+04 -0.13759987139E+04 -0.46279931898E+03  0.20268202778E+04  0.10100000352E+00 0.  1.
</event>
<event>
 5   0  0.2839279E-07  0.3733787E+04  0.7818609E-02  0.8060515E-01
       -2   -1    0    0    0  501  0.00000000000E+00  0.00000000000E+00  0.13721239252E+04  0.13721239252E+04  0.25500000920E-02 0.  1.
        2   -1    0    0  501    0  0.00000000000E+00  0.00000000000E+00 -0.25400706720E+04  0.25400706720E+04  0.25500000920E-02 0. -1.
    10030    2    1    2    0    0  0.00000000000E+00  0.00000000000E+00 -0.11679467468E+04  0.39121945972E+04  0.37337872144E+04 0.  0.
        3    1    3    3  502    0 -0.14226099282E+04  0.17639993929E+03 -0.18370941281E+04  0.23302040237E+04  0.10100000352E+00 0.  1.
       -3    1    3    3    0  502  0.14226099282E+04 -0.17639993929E+03  0.66914738132E+03  0.15819905735E+04  0.10100000352E+00 0. -1.
</event>
<event>
 5   0  0.8528625E-08  0.3838723E+04  0.7818609E-02  0.8037896E-01
        1   -1    0    0  501    0  0.00000000000E+00  0.00000000000E+00  0.19305318026E+04  0.19305318026E+04  0.50400001928E-02 0.  1.
       -1   -1    0    0    0  501  0.00000000000E+00  0.00000000000E+00 -0.19082561198E+04  0.19082561198E+04  0.50400001928E-02 0. -1.
    10030    2    1    2    0    0  0.00000000000E+00  0.00000000000E+00  0.22275682854E+02  0.38387879224E+04  0.38387232913E+04 0.  0.
        3    1    3    3  502    0 -0.46853040945E+03 -0.12199805377E+04 -0.13946154801E+04  0.19112366689E+04  0.10100000352E+00 0. -1.
       -3    1    3    3    0  502  0.46853040945E+03  0.12199805377E+04  0.14168911630E+04  0.19275512535E+04  0.10100000352E+00 0.  1.
</event>
<event>
 5   0  0.8528625E-08  0.3908606E+04  0.7818609E-02  0.8023242E-01
        1   -1    0    0  501    0  0.00000000000E+00  0.00000000000E+00  0.18465443692E+04  0.18465443692E+04  0.50400001928E-02 0. -1.
       -1   -1    0    0    0  501  0.00000000000E+00  0.00000000000E+00 -0.20683496543E+04  0.20683496543E+04  0.50400001928E-02 0.  1.
    10030    2    1    2    0    0  0.00000000000E+00  0.00000000000E+00 -0.22180528519E+03  0.39148940235E+04  0.39086055865E+04 0.  0.
        4    1    3    3  502    0 -0.72213659357E+03 -0.27852789176E+03 -0.19082921310E+04  0.20592813106E+04  0.12699999809E+01 0.  1.
       -4    1    3    3    0  502  0.72213659357E+03  0.27852789176E+03  0.16864868458E+04  0.18556127129E+04  0.12699999809E+01 0. -1.
</event>
<event>
 5   0  0.8528625E-08  0.3725083E+04  0.7818609E-02  0.8062426E-01
       -3   -1    0    0    0  501  0.00000000000E+00  0.00000000000E+00  0.15674204879E+04  0.15674204912E+04  0.10100000352E+00 0. -1.
        3   -1    0    0  501    0  0.00000000000E+00  0.00000000000E+00 -0.22132287229E+04  0.22132287252E+04  0.10100000352E+00 0.  1.
    10030    2    1    2    0    0  0.00000000000E+00  0.00000000000E+00 -0.64580823497E+03  0.37806492164E+04  0.37250825791E+04 0.  0.
        4    1    3    3  502    0 -0.16778479477E+04 -0.72083348881E+03 -0.69481789828E+03  0.19538546975E+04  0.12699999809E+01 0. -1.
       -4    1    3    3    0  502  0.16778479477E+04  0.72083348881E+03  0.49009663306E+02  0.18267945189E+04  0.12699999809E+01 0.  1.
</event>
<event>
 5   0  0.2666978E-07  0.4134371E+04  0.7818609E-02  0.7977975E-01
        2   -1    0    0  501    0  0.00000000000E+00  0.00000000000E+00  0.20574294654E+04  0.20574294654E+04  0.25500000920E-02 0.  1.
       -2   -1    0    0    0  501  0.00000000000E+00  0.00000000000E+00 -0.20769878438E+04  0.20769878438E+04  0.25500000920E-02 0. -1.
    10030    2    1    2    0    0  0.00000000000E+00  0.00000000000E+00 -0.19558378401E+02  0.41344173091E+04  0.41343710472E+04 0.  0.
        4    1    3    3  502    0  0.18294054486E+04  0.71861560269E+03  0.63063542214E+03  0.20641790931E+04  0.12699999809E+01 0.  1.
       -4    1    3    3    0  502 -0.18294054486E+04 -0.71861560269E+03 -0.65019380054E+03  0.20702382160E+04  0.12699999809E+01 0. -1.
</event>
<event>
 5   0  0.2666978E-07  0.3993714E+04  0.7818609E-02  0.8005816E-01
        2   -1    0    0  501    0  0.00000000000E+00  0.00000000000E+00  0.23244912061E+04  0.23244912061E+04  0.25500000920E-02 0. -1.
       -2   -1    0    0    0  501  0.00000000000E+00  0.00000000000E+00 -0.17154028659E+04  0.17154028659E+04  0.25500000920E-02 0.  1.
    10030    2    1    2    0    0  0.00000000000E+00  0.00000000000E+00  0.60908834019E+03  0.40398940720E+04  0.39937144999E+04 0.  0.
        4    1    3    3  502    0  0.14748401561E+04  0.78039420661E+03  0.14141641432E+04  0.21872426570E+04  0.12699999809E+01 0. -1.
       -4    1    3    3    0  502 -0.14748401561E+04 -0.78039420661E+03 -0.80507580302E+03  0.18526514150E+04  0.12699999809E+01 0.  1.
</event>
<event>
 5   0  0.2839279E-07  0.3924243E+04  0.7818609E-02  0.8020006E-01
        2   -1    0    0  501    0  0.00000000000E+00  0.00000000000E+00  0.24620424191E+04  0.24620424191E+04  0.25500000920E-02 0.  1.
       -2   -1    0    0    0  501  0.00000000000E+00  0.00000000000E+00 -0.15637100152E+04  0.15637100152E+04  0.25500000920E-02 0. -1.
    10030    2    1    2    0    0  0.00000000000E+00  0.00000000000E+00  0.89833240391E+03  0.40257524343E+04  0.39242428001E+04 0.  0.
        3    1    3    3  502    0 -0.53361652467E+03 -0.15953586034E+04 -0.58691139383E+03  0.17816791695E+04  0.10100000352E+00 0. -1.
       -3    1    3    3    0  502  0.53361652467E+03  0.15953586034E+04  0.14852437977E+04  0.22440732648E+04  0.10100000352E+00 0.  1.
</event>
<event>
 5   0  0.8583262E-08  0.3427449E+04  0.7818609E-02  0.8131202E-01
       -1   -1    0    0    0  501  0.00000000000E+00  0.00000000000E+00  0.36015005250E+04  0.36015005250E+04  0.50400001928E-02 0. -1.
        1   -1    0    0  501    0  0.00000000000E+00  0.00000000000E+00 -0.81545241815E+03  0.81545241817E+03  0.50400001928E-02 0.  1.
    10030    2    1    2    0    0  0.00000000000E+00  0.00000000000E+00  0.27860481068E+04  0.44169529431E+04  0.34274493794E+04 0.  0.
        1    1    3    3  502    0  0.22620235914E+03  0.16282479228E+04  0.76897729199E+03  0.18148512008E+04  0.50400001928E-02 0.  1.
       -1    1    3    3    0  502 -0.22620235914E+03 -0.16282479228E+04  0.20170708148E+04  0.26021017423E+04  0.50400001928E-02 0. -1.
</event>
<event>
 5   0  0.2666978E-07  0.3978770E+04  0.7818609E-02  0.8008843E-01
       -2   -1    0    0    0  501  0.00000000000E+00  0.00000000000E+00  0.17188754872E+04  0.17188754872E+04  0.25500000920E-02 0.  1.
        2   -1    0    0  501    0  0.00000000000E+00  0.00000000000E+00 -0.23024658833E+04  0.23024658833E+04  0.25500000920E-02 0. -1.
    10030    2    1    2    0    0  0.00000000000E+00  0.00000000000E+00 -0.58359039615E+03  0.40213413705E+04  0.39787697430E+04 0.  0.
        4    1    3    3  502    0 -0.43129304807E+03 -0.88090524860E+03 -0.20411066887E+04  0.22645365702E+04  0.12699999809E+01 0. -1.
       -4    1    3    3    0  502  0.43129304807E+03  0.88090524860E+03  0.14575162925E+04  0.17568048003E+04  0.12699999809E+01 0.  1.
</event>
<event>
 5   0  0.8528625E-08  0.2892446E+04  0.7818609E-02  0.8275129E-01
        1   -1    0    0  501    0  0.00000000000E+00  0.00000000000E+00  0.15555703676E+04  0.15555703676E+04  0.50400001928E-02 0.  1.
       -1   -1    0    0    0  501  0.00000000000E+00  0.00000000000E+00 -0.13445619607E+04  0.13445619607E+04  0.50400001928E-02 0. -1.
    10030    2    1    2    0    0  0.00000000000E+00  0.00000000000E+00  0.21100840686E+03  0.29001323284E+04  0.28924458464E+04 0.  0.
        4    1    3    3  502    0 -0.10637979963E+04  0.67113795966E+03  0.82117042359E+03  0.15021367499E+04  0.12699999809E+01 0.  1.
       -4    1    3    3    0  502  0.10637979963E+04 -0.67113795966E+03 -0.61016201673E+03  0.13979955785E+04  0.12699999809E+01 0. -1.
</event>
<event>
 5   0  0.2661693E-07  0.2946606E+04  0.7818609E-02  0.8259144E-01
        2   -1    0    0  501    0  0.00000000000E+00  0.00000000000E+00  0.11851307254E+04  0.11851307254E+04  0.25500000920E-02 0.  1.
       -2   -1    0    0    0  501  0.00000000000E+00  0.00000000000E+00 -0.18315458742E+04  0.18315458742E+04  0.25500000920E-02 0. -1.
    10030    2    1    2    0    0  0.00000000000E+00  0.00000000000E+00 -0.64641514882E+03  0.30166765997E+04  0.29466057019E+04 0.  0.
        1    1    3    3  502    0 -0.60586088354E+03 -0.51722115207E+03 -0.15920492927E+04  0.17802264128E+04  0.50400001928E-02 0. -1.
       -1    1    3    3    0  502  0.60586088354E+03  0.51722115207E+03  0.94563414393E+03  0.12364501868E+04  0.50400001928E-02 0.  1.
</event>
<event>
 5   0  0.2704088E-07  0.4014251E+04  0.7818609E-02  0.8001678E-01
        2   -1    0    0  501    0  0.00000000000E+00  0.00000000000E+00  0.32549895920E+04  0.32549895920E+04  0.25500000920E-02 0.  1.
       -2   -1    0    0    0  501  0.00000000000E+00  0.00000000000E+00 -0.12376545514E+04  0.12376545514E+04  0.25500000920E-02 0. -1.
    10030    2    1    2    0    0  0.00000000000E+00  0.00000000000E+00  0.20173350407E+04  0.44926441434E+04  0.40142509554E+04 0.  0.
        5    1    3    3  502    0  0.43133361508E+03 -0.11440962152E+01 -0.11851643546E+04  0.12612242600E+04  0.46999998093E+01 0. -1.
       -5    1    3    3    0  502 -0.43133361508E+03  0.11440962152E+01  0.32024993953E+04  0.32314198835E+04  0.46999998093E+01 0.  1.
</event>
<event>
 5   0  0.8583262E-08  0.4002609E+04  0.7818609E-02  0.8004020E-01
        1   -1    0    0  501    0  0.00000000000E+00  0.00000000000E+00  0.20493676540E+04  0.20493676540E+04  0.50400001928E-02 0.  1.
       -1   -1    0    0    0  501  0.00000000000E+00  0.00000000000E+00 -0.19543683828E+04  0.19543683828E+04  0.50400001928E-02 0. -1.
    10030    2    1    2    0    0  0.00000000000E+00  0.00000000000E+00  0.94999271240E+02  0.40037360368E+04  0.40026088231E+04 0.  0.
        1    1    3    3  502    0 -0.56607466225E+03  0.17720057753E+04 -0.69079653707E+03  0.19843499808E+04  0.50400001928E-02 0. -1.
       -1    1    3    3    0  502  0.56607466225E+03 -0.17720057753E+04  0.78579580831E+03  0.20193860560E+04  0.50400001928E-02 0.  1.
</event>
<event>
 5   0  0.8583262E-08  0.2953459E+04  0.7818609E-02  0.8257147E-01
       -1   -1    0    0    0  501  0.00000000000E+00  0.00000000000E+00  0.15869185747E+04  0.15869185747E+04  0.50400001928E-02 0.  1.
        1   -1    0    0  501    0  0.00000000000E+00  0.00000000000E+00 -0.13741918779E+04  0.13741918779E+04  0.50400001928E-02 0. -1.
    10030    2    1    2    0    0  0.00000000000E+00  0.00000000000E+00  0.21272669679E+03  0.29611104525E+04  0.29534594063E+04 0.  0.
        1    1    3    3  502    0  0.81274255294E+03  0.35617467998E+03  0.12898108545E+04  0.15655743037E+04  0.50400001928E-02 0.  1.
       -1    1    3    3    0  502 -0.81274255294E+03 -0.35617467998E+03 -0.10770841577E+04  0.13955361489E+04  0.50400001928E-02 0. -1.
</event>
<event>
 5   0  0.8528625E-08  0.4022165E+04  0.7818609E-02  0.8000090E-01
       -1   -1    0    0    0  501  0.00000000000E+00  0.00000000000E+00  0.22798784779E+04  0.22798784779E+04  0.50400001928E-02 0. -1.
        1   -1    0    0  501    0  0.00000000000E+00  0.00000000000E+00 -0.17739777365E+04  0.17739777365E+04  0.50400001928E-02 0.  1.
    10030    2    1    2    0    0  0.00000000000E+00  0.00000000000E+00  0.50590074139E+03  0.40538562144E+04  0.40221654176E+04 0.  0.
        4    1    3    3  502    0  0.39843545450E+02  0.30523543307E+03 -0.17500924841E+04  0.17769584951E+04  0.12699999809E+01 0.  1.
       -4    1    3    3    0  502 -0.39843545450E+02 -0.30523543307E+03  0.22559932254E+04  0.22768977192E+04  0.12699999809E+01 0. -1.
</event>
<event>
 5   0  0.2666978E-07  0.2979575E+04  0.7818609E-02  0.8249587E-01
       -2   -1    0    0    0  501  0.00000000000E+00  0.00000000000E+00  0.24073335157E+04  0.24073335157E+04  0.25500000920E-02 0. -1.
        2   -1    0    0  501    0  0.00000000000E+00  0.00000000000E+00 -0.92196075333E+03  0.92196075334E+03  0.25500000920E-02 0.  1.
    10030    2    1    2    0    0  0.00000000000E+00  0.00000000000E+00  0.14853727624E+04  0.33292942691E+04  0.29795751521E+04 0.  0.
        4    1    3    3  502    0  0.29422505432E+03 -0.13851604783E+04  0.12598588822E+04  0.18953849079E+04  0.12699999809E+01 0. -1.
       -4    1    3    3    0  502 -0.29422505432E+03  0.13851604783E+04  0.22551388025E+03  0.14339093612E+04  0.12699999809E+01 0.  1.
</event>
<event>
 5   0  0.8583262E-08  0.4001652E+04  0.7818609E-02  0.8004213E-01
       -1   -1    0    0    0  501  0.00000000000E+00  0.00000000000E+00  0.28121113535E+04  0.28121113535E+04  0.50400001928E-02 0. -1.
        1   -1    0    0  501    0  0.00000000000E+00  0.00000000000E+00 -0.14235941862E+04  0.14235941862E+04  0.50400001928E-02 0.  1.
    10030    2    1    2    0    0  0.00000000000E+00  0.00000000000E+00  0.13885171673E+04  0.42357055397E+04  0.40016523457E+04 0.  0.
        1    1    3    3  502    0 -0.10633076658E+04 -0.15648647051E+04  0.13833997514E+04  0.23437618500E+04  0.50400001928E-02 0. -1.
       -1    1    3    3    0  502  0.10633076658E+04  0.15648647051E+04  0.51174159111E+01  0.18919436898E+04  0.50400001928E-02 0.  1.
</event>
<event>
 5   0  0.2661693E-07  0.3457228E+04  0.7818609E-02  0.8124002E-01
        2   -1    0    0  501    0  0.00000000000E+00  0.00000000000E+00  0.18496753962E+04  0.18496753962E+04  0.25500000920E-02 0.  1.
       -2   -1    0    0    0  501  0.00000000000E+00  0.00000000000E+00 -0.16154758252E+04  0.16154758252E+04  0.25500000920E-02 0. -1.
    10030    2    1    2    0    0  0.00000000000E+00  0.00000000000E+00  0.23419957098E+03  0.34651512214E+04  0.34572277258E+04 0.  0.
        1    1    3    3  502    0 -0.13808524409E+04 -0.26585499467E+03 -0.89052688475E+03  0.16644730320E+04  0.50400001928E-02 0. -1.
       -1    1    3    3    0  502  0.13808524409E+04  0.26585499467E+03  0.11247264557E+04  0.18006781894E+04  0.50400001928E-02 0.  1.
</event>
<event>
 5   0  0.8528625E-08  0.4063741E+04  0.7818609E-02  0.7991810E-01
        3   -1    0    0  501    0  0.00000000000E+00  0.00000000000E+00  0.15613322428E+04  0.15613322460E+04  0.10100000352E+00 0.  1.
       -3   -1    0    0    0  501  0.00000000000E+00  0.00000000000E+00 -0.26442153718E+04  0.26442153737E+04  0.10100000352E+00 0. -1.
    10030    2    1    2    0    0  0.00000000000E+00  0.00000000000E+00 -0.10828831290E+04  0.42055476197E+04  0.40637414916E+04 0.  0.
        3    1    3    3  502    0 -0.12355527903E+04  0.35666084587E+03 -0.21694545099E+04  0.25219695750E+04  0.10100000352E+00 0. -1.
       -3    1    3    3    0  502  0.12355527903E+04 -0.35666084587E+03  0.10865713809E+04  0.16835780447E+04  0.10100000352E+00 0.  1.
</event>
<event>
 5   0  0.2839279E-07  0.3983623E+04  0.7818609E-02  0.8007858E-01
       -2   -1    0    0    0  501  0.00000000000E+00  0.00000000000E+00  0.12916060536E+04  0.12916060536E+04  0.25500000920E-02 0. -1.
        2   -1    0    0  501    0  0.00000000000E+00  0.00000000000E+00 -0.30716129124E+04  0.30716129124E+04  0.25500000920E-02 0.  1.
    10030    2    1    2    0    0  0.00000000000E+00  0.00000000000E+00 -0.17800068588E+04  0.43632189660E+04  0.39836233919E+04 0.  0.
        3    1    3    3  502    0  0.16864094233E+04 -0.85490794778E+03 -0.20383350376E+03  0.19016814795E+04  0.10100000352E+00 0. -1.
       -3    1    3    3    0  502 -0.16864094233E+04  0.85490794778E+03 -0.15761733551E+04  0.24615374865E+04  0.10100000352E+00 0.  1.
</event>
<event>
 5   0  0.8583262E-08  0.3917071E+04  0.7818609E-02  0.8021488E-01
        1   -1    0    0  501    0  0.00000000000E+00  0.00000000000E+00  0.18175500636E+04  0.18175500636E+04  0.50400001928E-02 0. -1.
       -1   -1    0    0    0  501  0.00000000000E+00  0.00000000000E+00 -0.21104566520E+04  0.21104566520E+04  0.50400001928E-02 0.  1.
    10030    2    1    2    0    0  0.00000000000E+00  0.00000000000E+00 -0.29290658835E+03  0.39280067156E+04  0.39170706515E+04 0.  0.
        1    1    3    3  502    0  0.95663981810E+03 -0.11033111505E+04  0.11623362739E+04  0.18664085432E+04  0.50400001928E-02 0. -1.
       -1    1    3    3    0  502 -0.95663981810E+03  0.11033111505E+04 -0.14552428623E+04  0.20615981724E+04  0.50400001928E-02 0.  1.
</event>
<event>
 5   0  0.8528625E-08  0.3928740E+04  0.7818609E-02  0.8019078E-01
        3   -1    0    0  501    0  0.00000000000E+00  0.00000000000E+00  0.23505668423E+04  0.23505668445E+04  0.10100000352E+00 0. -1.
       -3   -1    0    0    0  501  0.00000000000E+00  0.00000000000E+00 -0.16416246730E+04  0.16416246761E+04  0.10100000352E+00 0.  1.
    10030    2    1    2    0    0  0.00000000000E+00  0.00000000000E+00  0.70894216935E+03  0.39921915206E+04  0.39287395100E+04 0.  0.
        5    1    3    3  502    0 -0.42592759871E+03 -0.14511663352E+04  0.16282833646E+04  0.22223021525E+04  0.46999998093E+01 0. -1.
       -5    1    3    3    0  502  0.42592759871E+03  0.14511663352E+04 -0.91934119523E+03  0.17698893680E+04  0.46999998093E+01 0.  1.
</event>
<event>
 5   0  0.2704088E-07  0.3919283E+04  0.7818609E-02  0.8021031E-01
       -2   -1    0    0    0  501  0.00000000000E+00  0.00000000000E+00  0.18478489369E+04  0.18478489369E+04  0.25500000920E-02 0. -1.
        2   -1    0    0  501    0  0.00000000000E+00  0.00000000000E+00 -0.20781973600E+04  0.20781973600E+04  0.25500000920E-02 0.  1.
    10030    2    1    2    0    0  0.00000000000E+00  0.00000000000E+00 -0.23034842313E+03  0.39260462968E+04  0.39192829866E+04 0.  0.
        5    1    3    3  502    0  0.82784720911E+03 -0.13073381329E+04 -0.13196253630E+04  0.20336905330E+04  0.46999998093E+01 0.  1.
       -5    1    3    3    0  502 -0.82784720911E+03  0.13073381329E+04  0.10892769399E+04  0.18923557639E+04  0.46999998093E+01 0. -1.
</event>
<event>
 5   0  0.8583262E-08  0.3682327E+04  0.7818609E-02  0.8071890E-01
       -1   -1    0    0    0  501  0.00000000000E+00  0.00000000000E+00  0.15028816595E+04  0.15028816595E+04  0.50400001928E-02 0.  1.
        1   -1    0    0  501    0  0.00000000000E+00  0.00000000000E+00 -0.22555882411E+04  0.22555882411E+04  0.50400001928E-02 0. -1.
    10030    2    1    2    0    0  0.00000000000E+00  0.00000000000E+00 -0.75270658153E+03  0.37584699006E+04  0.36823265466E+04 0.  0.
        1    1    3    3  502    0 -0.16424607356E+04 -0.80822324442E+03 -0.57786967085E+03  0.19195925186E+04  0.50400001928E-02 0.  1.
       -1    1    3    3    0  502  0.16424607356E+04  0.80822324442E+03 -0.17483691068E+03  0.18388773820E+04  0.50400001928E-02 0. -1.
</event>
<event>
 5   0  0.8528625E-08  0.3981433E+04  0.7818609E-02  0.8008303E-01
        3   -1    0    0  501    0  0.00000000000E+00  0.00000000000E+00  0.13458349713E+04  0.13458349751E+04  0.10100000352E+00 0.  1.
       -3   -1    0    0    0  501  0.00000000000E+00  0.00000000000E+00 -0.29446052856E+04  0.29446052874E+04  0.10100000352E+00 0. -1.
    10030    2    1    2    0    0  0.00000000000E+00  0.00000000000E+00 -0.15987703143E+04  0.42904402625E+04  0.39814333007E+04 0.  0.
        2    1    3    3  502    0  0.40293511689E+03 -0.46565249910E+03 -0.28393942609E+04  0.29053999255E+04  0.25500000920E-02 0. -1.
       -2    1    3    3    0  502 -0.40293511689E+03  0.46565249910E+03  0.12406239465E+04  0.13850403370E+04  0.25500000920E-02 0.  1.
</event>
<event>
 5   0  0.8528625E-08  0.3988503E+04  0.7818609E-02  0.8006870E-01
       -1   -1    0    0    0  501  0.00000000000E+00  0.00000000000E+00  0.18735514224E+04  0.18735514224E+04  0.50400001928E-02 0. -1.
        1   -1    0    0  501    0  0.00000000000E+00  0.00000000000E+00 -0.21227274291E+04  0.21227274291E+04  0.50400001928E-02 0.  1.
    10030    2    1    2    0    0  0.00000000000E+00  0.00000000000E+00 -0.24917600673E+03  0.39962788515E+04  0.39885029744E+04 0.  0.
        3    1    3    3  502    0 -0.13079075782E+04 -0.14627004648E+04 -0.48154665485E+03  0.20203965141E+04  0.10100000352E+00 0.  1.
       -3    1    3    3    0  502  0.13079075782E+04  0.14627004648E+04  0.23237064812E+03  0.19758823374E+04  0.10100000352E+00 0. -1.
</event>
<event>
 5   0  0.2666978E-07  0.3831903E+04  0.7818609E-02  0.8039343E-01
        2   -1    0    0  501    0  0.00000000000E+00  0.00000000000E+00  0.26837519722E+04  0.26837519722E+04  0.25500000920E-02 0.  1.
       -2   -1    0    0    0  501  0.00000000000E+00  0.00000000000E+00 -0.13678127190E+04  0.13678127190E+04  0.25500000920E-02 0. -1.
    10030    2    1    2    0    0  0.00000000000E+00  0.00000000000E+00  0.13159392532E+04  0.40515646912E+04  0.38319029644E+04 0.  0.
        4    1    3    3  502    0 -0.15841662108E+04  0.37744127109E+03 -0.40925994972E+03  0.16791485390E+04  0.12699999809E+01 0. -1.
       -4    1    3    3    0  502  0.15841662108E+04 -0.37744127109E+03  0.17251992029E+04  0.23724161522E+04  0.12699999809E+01 0.  1.
</event>
<event>
 5   0  0.8528625E-08  0.3904995E+04  0.7818609E-02  0.8023991E-01
       -1   -1    0    0    0  501  0.00000000000E+00  0.00000000000E+00  0.16554936840E+04  0.16554936840E+04  0.50400001928E-02 0.  1.
        1   -1    0    0  501    0  0.00000000000E+00  0.00000000000E+00 -0.23027847650E+04  0.23027847650E+04  0.50400001928E-02 0. -1.
    10030    2    1    2    0    0  0.00000000000E+00  0.00000000000E+00 -0.64729108101E+03  0.39582784491E+04  0.39049945630E+04 0.  0.
        2    1    3    3  502    0 -0.72527597030E+03  0.21403482356E+02  0.15137555886E+04  0.16786718930E+04  0.25500000920E-02 0.  1.
       -2    1    3    3    0  502  0.72527597030E+03 -0.21403482356E+02 -0.21610466696E+04  0.22796065561E+04  0.25500000920E-02 0. -1.
</event>
<event>
 5   0  0.2661693E-07  0.3776877E+04  0.7818609E-02  0.8051135E-01
        2   -1    0    0  501    0  0.00000000000E+00  0.00000000000E+00  0.19622350633E+04  0.19622350633E+04  0.25500000920E-02 0. -1.
       -2   -1    0    0    0  501  0.00000000000E+00  0.00000000000E+00 -0.18174169444E+04  0.18174169444E+04  0.25500000920E-02 0.  1.
    10030    2    1    2    0    0  0.00000000000E+00  0.00000000000E+00  0.14481811893E+03  0.37796520077E+04  0.37768766212E+04 0.  0.
        1    1    3    3  502    0  0.16797550779E+04 -0.31342222007E+03  0.87698284225E+03  0.19206534085E+04  0.50400001928E-02 0. -1.
       -1    1    3    3    0  502 -0.16797550779E+04  0.31342222007E+03 -0.73216472333E+03  0.18589985992E+04  0.50400001928E-02 0.  1.
</event>
<event>
 5   0  0.2666978E-07  0.3987920E+04  0.7818609E-02  0.8006988E-01
        2   -1    0    0  501    0  0.00000000000E+00  0.00000000000E+00  0.11492219277E+04  0.11492219277E+04  0.25500000920E-02 0. -1.
       -2   -1    0    0    0  501  0.00000000000E+00  0.00000000000E+00 -0.34596237616E+04  0.34596237616E+04  0.25500000920E-02 0.  1.
    10030    2    1    2    0    0  0.00000000000E+00  0.00000000000E+00 -0.23104018339E+04  0.46088456892E+04  0.39879195018E+04 0.  0.
        4    1    3    3  502    0  0.13782189059E+04  0.14033280165E+04 -0.77706030669E+03  0.21148619831E+04  0.12699999809E+01 0. -1.
       -4    1    3    3    0  502 -0.13782189059E+04 -0.14033280165E+04 -0.15333415272E+04  0.24939837061E+04  0.12699999809E+01 0.  1.
</event>
<event>
 5   0  0.2666978E-07  0.2857760E+04  0.7818609E-02  0.8285557E-01
       -2   -1    0    0    0  501  0.00000000000E+00  0.00000000000E+00  0.10815792163E+04  0.10815792163E+04  0.25500000920E-02 0.  1.
        2   -1    0    0  501    0  0.00000000000E+00  0.00000000000E+00 -0.18877014023E+04  0.18877014023E+04  0.25500000920E-02 0. -1.
    10030    2    1    2    0    0  0.00000000000E+00  0.00000000000E+00 -0.80612218605E+03  0.29692806186E+04  0.28577603841E+04 0.  0.
        4    1    3    3  502    0 -0.67546905860E+03 -0.10898020675E+04 -0.10583630152E+04  0.16625465047E+04  0.12699999809E+01 0. -1.
       -4    1    3    3    0  502  0.67546905860E+03  0.10898020675E+04  0.25224082916E+03  0.13067341139E+04  0.12699999809E+01 0.  1.
</event>
<event>
 5   0  0.2730801E-07  0.3907941E+04  0.7818609E-02  0.8023380E-01
       -2   -1    0    0    0  501  0.00000000000E+00  0.00000000000E+00  0.21900566672E+04  0.21900566672E+04  0.25500000920E-02 0. -1.
        2   -1    0    0  501    0  0.00000000000E+00  0.00000000000E+00 -0.17433339255E+04  0.17433339255E+04  0.25500000920E-02 0.  1.
    10030    2    1    2    0    0  0.00000000000E+00  0.00000000000E+00  0.44672274164E+03  0.39333905927E+04  0.39079406785E+04 0.  0.
        2    1    3    3  502    0 -0.12374489983E+03  0.81273336307E+03  0.20075168213E+04  0.21693252655E+04  0.25500000920E-02 0. -1.
       -2    1    3    3    0  502  0.12374489983E+03 -0.81273336307E+03 -0.15607940796E+04  0.17640653272E+04  0.25500000920E-02 0.  1.
</event>
<event>
 5   0  0.2839279E-07  0.3970813E+04  0.7818609E-02  0.8010461E-01
        2   -1    0    0  501    0  0.00000000000E+00  0.00000000000E+00  0.18912778616E+04  0.18912778616E+04  0.25500000920E-02 0. -1.
       -2   -1    0    0    0  501  0.00000000000E+00  0.00000000000E+00 -0.20842194668E+04  0.20842194668E+04  0.25500000920E-02 0.  1.
    10030    2    1    2    0    0  0.00000000000E+00  0.00000000000E+00 -0.19294160522E+03  0.39754973285E+04  0.39708125800E+04 0.  0.
        3    1    3    3  502    0  0.12608641389E+04 -0.59627110806E+03 -0.15111206772E+04  0.20564054372E+04  0.10100000352E+00 0.  1.
       -3    1    3    3    0  502 -0.12608641389E+04  0.59627110806E+03  0.13181790720E+04  0.19190918912E+04  0.10100000352E+00 0. -1.
</event>
<event>
 5   0  0.8528625E-08  0.4063169E+04  0.7818609E-02  0.7991923E-01
        1   -1    0    0  501    0  0.00000000000E+00  0.00000000000E+00  0.21222104631E+04  0.21222104631E+04  0.50400001928E-02 0. -1.
       -1   -1    0    0    0  501  0.00000000000E+00  0.00000000000E+00 -0.19448282484E+04  0.19448282484E+04  0.50400001928E-02 0.  1.
    10030    2    1    2    0    0  0.00000000000E+00  0.00000000000E+00  0.17738221478E+03  0.40670387115E+04  0.40631686442E+04 0.  0.
        3    1    3    3  502    0 -0.10398939006E+04  0.13537030137E+04  0.11913045141E+04  0.20816093844E+04  0.10100000352E+00 0. -1.
       -3    1    3    3    0  502  0.10398939006E+04 -0.13537030137E+04 -0.10139222994E+04  0.19854293271E+04  0.10100000352E+00 0.  1.
</event>
<event>
 5   0  0.8528625E-08  0.4007656E+04  0.7818609E-02  0.8003004E-01
        1   -1    0    0  501    0  0.00000000000E+00  0.00000000000E+00  0.25709778312E+04  0.25709778313E+04  0.50400001928E-02 0.  1.
       -1   -1    0    0    0  501  0.00000000000E+00  0.00000000000E+00 -0.15617894843E+04  0.15617894843E+04  0.50400001928E-02 0. -1.
    10030    2    1    2    0    0  0.00000000000E+00  0.00000000000E+00  0.10091883470E+04  0.41327673155E+04  0.40076557443E+04 0.  0.
        4    1    3    3  502    0  0.13528312189E+04 -0.68936750117E+03  0.18530650594E+04  0.23956693398E+04  0.12699999809E+01 0.  1.
       -4    1    3    3    0  502 -0.13528312189E+04  0.68936750117E+03 -0.84387671241E+03  0.17370979757E+04  0.12699999809E+01 0. -1.
</event>
<event>
 5   0  0.2839279E-07  0.4086713E+04  0.7818609E-02  0.7987279E-01
        2   -1    0    0  501    0  0.00000000000E+00  0.00000000000E+00  0.18569743106E+04  0.18569743106E+04  0.25500000920E-02 0.  1.
       -2   -1    0    0    0  501  0.00000000000E+00  0.00000000000E+00 -0.22484450944E+04  0.22484450944E+04  0.25500000920E-02 0. -1.
    10030    2    1    2    0    0  0.00000000000E+00  0.00000000000E+00 -0.39147078383E+03  0.41054194050E+04  0.40867125072E+04 0.  0.
        3    1    3    3  502    0  0.91097620360E+03  0.18227726041E+04 -0.43625111819E+02  0.20382052817E+04  0.10100000352E+00 0.  1.
       -3    1    3    3    0  502 -0.91097620360E+03 -0.18227726041E+04 -0.34784567201E+03  0.20672141233E+04  0.10100000352E+00 0. -1.
</event>
<event>
 5   0  0.2730801E-07  0.3941313E+04  0.7818609E-02  0.8016491E-01
       -2   -1    0    0    0  501  0.00000000000E+00  0.00000000000E+00  0.17614804609E+04  0.17614804609E+04  0.25500000920E-02 0. -1.
        2   -1    0    0  501    0  0.00000000000E+00  0.00000000000E+00 -0.22046718215E+04  0.22046718215E+04  0.25500000920E-02 0.  1.
    10030    2    1    2    0    0  0.00000000000E+00  0.00000000000E+00 -0.44319136057E+03  0.39661522824E+04  0.39413126423E+04 0.  0.
        2    1    3    3  502    0  0.16023679761E+04 -0.59627597563E+03 -0.12077505317E+04  0.20932724421E+04  0.25500000920E-02 0.  1.
       -2    1    3    3    0  502 -0.16023679761E+04  0.59627597563E+03  0.76455917111E+03  0.18728798403E+04  0.25500000920E-02 0. -1.
</event>
<event>
 5   0  0.8583262E-08  0.3741791E+04  0.7818609E-02  0.8058763E-01
        1   -1    0    0  501    0  0.00000000000E+00  0.00000000000E+00  0.20653510729E+04  0.20653510729E+04  0.50400001928E-02 0.  1.
       -1   -1    0    0    0  501  0.00000000000E+00  0.00000000000E+00 -0.16947484601E+04  0.16947484601E+04  0.50400001928E-02 0. -1.
    10030    2    1    2    0    0  0.00000000000E+00  0.00000000000E+00  0.37060261280E+03  0.37600995330E+04  0.37417913092E+04 0.  0.
        1    1    3    3  502    0 -0.61032444548E+03 -0.17681970638E+04  0.15000444803E+03  0.18765708405E+04  0.50400001928E-02 0. -1.
       -1    1    3    3    0  502  0.61032444548E+03  0.17681970638E+04  0.22059816478E+03  0.18835286925E+04  0.50400001928E-02 0.  1.
</event>
<event>
 5   0  0.2661693E-07  0.3942981E+04  0.7818609E-02  0.8016149E-01
       -2   -1    0    0    0  501  0.00000000000E+00  0.00000000000E+00  0.23161067006E+04  0.23161067006E+04  0.25500000920E-02 0.  1.
        2   -1    0    0  501    0  0.00000000000E+00  0.00000000000E+00 -0.16781500421E+04  0.16781500421E+04  0.25500000920E-02 0. -1.
    10030    2    1    2    0    0  0.00000000000E+00  0.00000000000E+00  0.63795665853E+03  0.39942567427E+04  0.39429808811E+04 0.  0.
        1    1    3    3  502    0 -0.12518766819E+04 -0.62506195206E+02  0.18605007888E+04  0.22433380120E+04  0.50400001928E-02 0.  1.
       -1    1    3    3    0  502  0.12518766819E+04  0.62506195206E+02 -0.12225441302E+04  0.17509187307E+04  0.50400001928E-02 0. -1.
</event>
<event>
 5   0  0.8528625E-08  0.3911268E+04  0.7818609E-02  0.8022690E-01
        1   -1    0    0  501    0  0.00000000000E+00  0.00000000000E+00  0.14807675848E+04  0.14807675848E+04  0.50400001928E-02 0. -1.
       -1   -1    0    0    0  501  0.00000000000E+00  0.00000000000E+00 -0.25827847873E+04  0.25827847873E+04  0.50400001928E-02 0.  1.
    10030    2    1    2    0    0  0.00000000000E+00  0.00000000000E+00 -0.11020172026E+04  0.40635523721E+04  0.39112678208E+04 0.  0.
        2    1    3    3  502    0  0.18577590494E+04  0.58162576794E+03 -0.35678954500E+03  0.19791048479E+04  0.25500000920E-02 0. -1.
       -2    1    3    3    0  502 -0.18577590494E+04 -0.58162576794E+03 -0.74522765757E+03  0.20844475242E+04  0.25500000920E-02 0.  1.
</event>
<event>
 5   0  0.2704088E-07  0.4039392E+04  0.7818609E-02  0.7996647E-01
        2   -1    0    0  501    0  0.00000000000E+00  0.00000000000E+00  0.22366804330E+04  0.22366804330E+04  0.25500000920E-02 0.  1.
       -2   -1    0    0    0  501  0.00000000000E+00  0.00000000000E+00 -0.18237613872E+04  0.18237613872E+04  0.25500000920E-02 0. -1.
    10030    2    1    2    0    0  0.00000000000E+00  0.00000000000E+00  0.41291904578E+03  0.40604418203E+04  0.40393917410E+04 0.  0.
        5    1    3    3  502    0  0.12096426854E+04 -0.14532878288E+04  0.91999549338E+03  0.21027826177E+04  0.46999998093E+01 0.  1.
       -5    1    3    3    0  502 -0.12096426854E+04  0.14532878288E+04 -0.50707644761E+03  0.19576592025E+04  0.46999998093E+01 0. -1.
</event>
<event>
 5   0  0.8528625E-08  0.4011424E+04  0.7818609E-02  0.8002246E-01
        1   -1    0    0  501    0  0.00000000000E+00  0.00000000000E+00  0.21576012257E+04  0.21576012257E+04  0.50400001928E-02 0. -1.
       -1   -1    0    0    0  501  0.00000000000E+00  0.00000000000E+00 -0.18645158002E+04  0.18645158002E+04  0.50400001928E-02 0.  1.
    10030    2    1    2    0    0  0.00000000000E+00  0.00000000000E+00  0.29308542549E+03  0.40221170258E+04  0.40114244730E+04 0.  0.
        2    1    3    3  502    0  0.36606746915E+03  0.16196293666E+04 -0.98147913032E+03  0.19288613119E+04  0.25500000920E-02 0.  1.
       -2    1    3    3    0  502 -0.36606746915E+03 -0.16196293666E+04  0.12745645558E+04  0.20932557140E+04  0.25500000920E-02 0. -1.
</event>
<event>
 5   0  0.8528625E-08  0.4004984E+04  0.7818609E-02  0.8003542E-01
        1   -1    0    0  501    0  0.00000000000E+00  0.00000000000E+00  0.32789953578E+04  0.32789953578E+04  0.50400001928E-02 0.  1.
       -1   -1    0    0    0  501  0.00000000000E+00  0.00000000000E+00 -0.12229279795E+04  0.12229279795E+04  0.50400001928E-02 0. -1.
    10030    2    1    2    0    0  0.00000000000E+00  0.00000000000E+00  0.20560673783E+04  0.45019233373E+04  0.40049844782E+04 0.  0.
        3    1    3    3  502    0  0.43849580055E+02  0.19938460334E+04  0.82498123817E+03  0.21582258557E+04  0.10100000352E+00 0.  1.
       -3    1    3    3    0  502 -0.43849580055E+02 -0.19938460334E+04  0.12310861401E+04  0.23436974816E+04  0.10100000352E+00 0. -1.
</event>
<event>
 5   0  0.8528625E-08  0.4082175E+04  0.7818609E-02  0.7988171E-01
       -3   -1    0    0    0  501  0.00000000000E+00  0.00000000000E+00  0.23682338235E+04  0.23682338257E+04  0.10100000352E+00 0. -1.
        3   -1    0    0  501    0  0.00000000000E+00  0.00000000000E+00 -0.17591325289E+04  0.17591325318E+04  0.10100000352E+00 0.  1.
    10030    2    1    2    0    0  0.00000000000E+00  0.00000000000E+00  0.60910129468E+03  0.41273663575E+04  0.40821745016E+04 0.  0.
        4    1    3    3  502    0  0.13846943081E+04 -0.85596031733E+03 -0.94033512165E+03  0.18799675916E+04  0.12699999809E+01 0.  1.
       -4    1    3    3    0  502 -0.13846943081E+04  0.85596031733E+03  0.15494364163E+04  0.22473987658E+04  0.12699999809E+01 0. -1.
</event>
<event>
 5   0  0.2661693E-07  0.3874162E+04  0.7818609E-02  0.8030425E-01
        2   -1    0    0  501    0  0.00000000000E+00  0.00000000000E+00  0.14323069747E+04  0.14323069748E+04  0.25500000920E-02 0. -1.
       -2   -1    0    0    0  501  0.00000000000E+00  0.00000000000E+00 -0.26197479158E+04  0.26197479158E+04  0.25500000920E-02 0.  1.
    10030    2    1    2    0    0  0.00000000000E+00  0.00000000000E+00 -0.11874409410E+04  0.40520548905E+04  0.38741622123E+04 0.  0.
        1    1    3    3  502    0 -0.14477693770E+04 -0.12854265578E+04 -0.65925209562E+03  0.20452312657E+04  0.50400001928E-02 0. -1.
       -1    1    3    3    0  502  0.14477693770E+04  0.12854265578E+04 -0.52818884539E+03  0.20068236248E+04  0.50400001928E-02 0.  1.
</event>
<event>
 5   0  0.8528625E-08  0.4026252E+04  0.7818609E-02  0.7999271E-01
       -1   -1    0    0    0  501  0.00000000000E+00  0.00000000000E+00  0.16064424736E+04  0.16064424736E+04  0.50400001928E-02 0.  1.
        1   -1    0    0  501    0  0.00000000000E+00  0.00000000000E+00 -0.25227651172E+04  0.25227651172E+04  0.50400001928E-02 0. -1.
    10030    2    1    2    0    0  0.00000000000E+00  0.00000000000E+00 -0.91632264366E+03  0.41292075908E+04  0.40262523692E+04 0.  0.
        3    1    3    3  502    0 -0.35018023910E+03 -0.65121858155E+03  0.14621406293E+04  0.16384648519E+04  0.10100000352E+00 0.  1.
       -3    1    3    3    0  502  0.35018023910E+03  0.65121858155E+03 -0.23784632729E+04  0.24907427390E+04  0.10100000352E+00 0. -1.
</event>
<event>
 5   0  0.2730801E-07  0.4024365E+04  0.7818609E-02  0.7999649E-01
        2   -1    0    0  501    0  0.00000000000E+00  0.00000000000E+00  0.18130886948E+04  0.18130886948E+04  0.25500000920E-02 0.  1.
       -2   -1    0    0    0  501  0.00000000000E+00  0.00000000000E+00 -0.22331389770E+04  0.22331389770E+04  0.25500000920E-02 0. -1.
    10030    2    1    2    0    0  0.00000000000E+00  0.00000000000E+00 -0.42005028220E+03  0.40462276717E+04  0.40243653080E+04 0.  0.
        2    1    3    3  502    0 -0.23136155466E+03 -0.14194553575E+04 -0.16249717491E+04  0.21700034254E+04  0.25500000920E-02 0. -1.
       -2    1    3    3    0  502  0.23136155466E+03  0.14194553575E+04  0.12049214669E+04  0.18762242463E+04  0.25500000920E-02 0.  1.
</event>
<event>
 5   0  0.8528625E-08  0.3469191E+04  0.7818609E-02  0.8121130E-01
       -1   -1    0    0    0  501  0.00000000000E+00  0.00000000000E+00  0.28994597350E+04  0.28994597350E+04  0.50400001928E-02 0.  1.
        1   -1    0    0  501    0  0.00000000000E+00  0.00000000000E+00 -0.10377182764E+04  0.10377182764E+04  0.50400001928E-02 0. -1.
    10030    2    1    2    0    0  0.00000000000E+00  0.00000000000E+00  0.18617414586E+04  0.39371780114E+04  0.34691914670E+04 0.  0.
        4    1    3    3  502    0 -0.12175743001E+04 -0.11808652163E+04  0.51871227324E+03  0.17736949768E+04  0.12699999809E+01 0.  1.
       -4    1    3    3    0  502  0.12175743001E+04  0.11808652163E+04  0.13430291853E+04  0.21634830346E+04  0.12699999809E+01 0. -1.
</event>
<event>
 5   0  0.8528625E-08  0.4022892E+04  0.7818609E-02  0.7999944E-01
       -1   -1    0    0    0  501  0.00000000000E+00  0.00000000000E+00  0.23037787291E+04  0.23037787291E+04  0.50400001928E-02 0. -1.
        1   -1    0    0  501    0  0.00000000000E+00  0.00000000000E+00 -0.17562081691E+04  0.17562081691E+04  0.50400001928E-02 0.  1.
    10030    2    1    2    0    0  0.00000000000E+00  0.00000000000E+00  0.54757056002E+03  0.40599868982E+04  0.40228920064E+04 0.  0.
        5    1    3    3  502    0 -0.15684530326E+04  0.10271658904E+04 -0.46147789932E+03  0.19308284811E+04  0.46999998093E+01 0. -1.
       -5    1    3    3    0  502  0.15684530326E+04 -0.10271658904E+04  0.10090484593E+04  0.21291584171E+04  0.46999998093E+01 0.  1.
</event>
<event>
 5   0  0.2704088E-07  0.3987733E+04  0.7818609E-02  0.8007026E-01
       -2   -1    0    0    0  501  0.00000000000E+00  0.00000000000E+00  0.17167968409E+04  0.17167968409E+04  0.25500000920E-02 0. -1.
        2   -1    0    0  501    0  0.00000000000E+00  0.00000000000E+00 -0.23156519002E+04  0.23156519002E+04  0.25500000920E-02 0.  1.
    10030    2    1    2    0    0  0.00000000000E+00  0.00000000000E+00 -0.59885505926E+03  0.40324487412E+04  0.39877331240E+04 0.  0.
        5    1    3    3  502    0  0.84160470836E+03  0.13654487493E+04 -0.14970785189E+04  0.21940863597E+04  0.46999998093E+01 0.  1.
       -5    1    3    3    0  502 -0.84160470836E+03 -0.13654487493E+04  0.89822345962E+03  0.18383623815E+04  0.46999998093E+01 0. -1.
</event>
<event>
 5   0  0.8528625E-08  0.3917597E+04  0.7818609E-02  0.8021379E-01
        1   -1    0    0  501    0  0.00000000000E+00  0.00000000000E+00  0.19781975737E+04  0.19781975737E+04  0.50400001928E-02 0. -1.
       -1   -1    0    0    0  501  0.00000000000E+00  0.00000000000E+00 -0.19395893808E+04  0.19395893808E+04  0.50400001928E-02 0.  1.
    10030    2    1    2    0    0  0.00000000000E+00  0.00000000000E+00  0.38608192942E+02  0.39177869545E+04  0.39175967158E+04 0.  0.
        5    1    3    3  502    0 -0.44973869541E+03 -0.11891758175E+04 -0.14708907079E+04  0.19442082151E+04  0.46999998093E+01 0.  1.
       -5    1    3    3    0  502  0.44973869541E+03  0.11891758175E+04  0.15094989008E+04  0.19735787394E+04  0.46999998093E+01 0. -1.
</event>
<event>
 5   0  0.8528625E-08  0.3984245E+04  0.7818609E-02  0.8007732E-01
       -1   -1    0    0    0  501  0.00000000000E+00  0.00000000000E+00  0.13835491172E+04  0.13835491172E+04  0.50400001928E-02 0.  1.
        1   -1    0    0  501    0  0.00000000000E+00  0.00000000000E+00 -0.28683847611E+04  0.28683847611E+04  0.50400001928E-02 0. -1.
    10030    2    1    2    0    0  0.00000000000E+00  0.00000000000E+00 -0.14848356439E+04  0.42519338783E+04  0.39842445728E+04 0.  0.
        2    1    3    3  502    0 -0.97786109592E+03  0.15086880609E+04 -0.16580861395E+04  0.24457313087E+04  0.25500000920E-02 0.  1.
       -2    1    3    3    0  502  0.97786109592E+03 -0.15086880609E+04  0.17325049564E+03  0.18062025696E+04  0.25500000920E-02 0. -1.
</event>
<event>
 5   0  0.2661693E-07  0.4114972E+04  0.7818609E-02  0.7981746E-01
       -2   -1    0    0    0  501  0.00000000000E+00  0.00000000000E+00  0.27435373960E+04  0.27435373960E+04  0.25500000920E-02 0. -1.
        2   -1    0    0  501    0  0.00000000000E+00  0.00000000000E+00 -0.15429893470E+04  0.15429893470E+04  0.25500000920E-02 0.  1.
    10030    2    1    2    0    0  0.00000000000E+00  0.00000000000E+00  0.12005480490E+04  0.42865267430E+04  0.41149721628E+04 0.  0.
        1    1    3    3  502    0  0.78946997098E+03 -0.18878610365E+04  0.82361118614E+03  0.22058144787E+04  0.50400001928E-02 0. -1.
       -1    1    3    3    0  502 -0.78946997098E+03  0.18878610365E+04  0.37693686282E+03  0.20807122643E+04  0.50400001928E-02 0.  1.
</event>
<event>
 5   0  0.8528625E-08  0.4076068E+04  0.7818609E-02  0.7989375E-01
       -1   -1    0    0    0  501  0.00000000000E+00  0.00000000000E+00  0.19389057250E+04  0.19389057250E+04  0.50400001928E-02 0. -1.
        1   -1    0    0  501    0  0.00000000000E+00  0.00000000000E+00 -0.21422304929E+04  0.21422304929E+04  0.50400001928E-02 0.  1.
    10030    2    1    2    0    0  0.00000000000E+00  0.00000000000E+00 -0.20332476791E+03  0.40811362179E+04  0.40760681874E+04 0.  0.
        4    1    3    3  502    0 -0.39613567335E+03 -0.19938278548E+04 -0.24781774293E+03  0.20478496607E+04  0.12699999809E+01 0. -1.
       -4    1    3    3    0  502  0.39613567335E+03  0.19938278548E+04  0.44492975024E+02  0.20332865572E+04  0.12699999809E+01 0.  1.
</event>
<event>
 5   0  0.2661693E-07  0.3278755E+04  0.7818609E-02  0.8168322E-01
        2   -1    0    0  501    0  0.00000000000E+00  0.00000000000E+00  0.16581572502E+04  0.16581572502E+04  0.25500000920E-02 0. -1.
       -2   -1    0    0    0  501  0.00000000000E+00  0.00000000000E+00 -0.16208105457E+04  0.16208105457E+04  0.25500000920E-02 0.  1.
    10030    2    1    2    0    0  0.00000000000E+00  0.00000000000E+00  0.37346704489E+02  0.32789677959E+04  0.32787551038E+04 0.  0.
        1    1    3    3  502    0  0.14525024728E+04  0.75444586722E+03  0.11145198287E+03  0.16405406257E+04  0.50400001928E-02 0. -1.
       -1    1    3    3    0  502 -0.14525024728E+04 -0.75444586722E+03 -0.74105278378E+02  0.16384271703E+04  0.50400001928E-02 0.  1.
</event>
<event>
 5   0  0.2661693E-07  0.4006559E+04  0.7818609E-02  0.8003225E-01
       -2   -1    0    0    0  501  0.00000000000E+00  0.00000000000E+00  0.27495951304E+04  0.27495951304E+04  0.25500000920E-02 0. -1.
        2   -1    0    0  501    0  0.00000000000E+00  0.00000000000E+00 -0.14595341307E+04  0.14595341307E+04  0.25500000920E-02 0.  1.
    10030    2    1    2    0    0  0.00000000000E+00  0.00000000000E+00  0.12900609997E+04  0.42091292611E+04  0.40065585923E+04 0.  0.
        1    1    3    3  502    0  0.18583987257E+03  0.33403271545E+03 -0.14208662664E+04  0.14713854901E+04  0.50400001928E-02 0.  1.
       -1    1    3    3    0  502 -0.18583987257E+03 -0.33403271545E+03  0.27109272662E+04  0.27377437710E+04  0.50400001928E-02 0. -1.
</event>
<event>
 5   0  0.8528625E-08  0.3983886E+04  0.7818609E-02  0.8007805E-01
       -1   -1    0    0    0  501  0.00000000000E+00  0.00000000000E+00  0.21311133621E+04  0.21311133621E+04  0.50400001928E-02 0.  1.
        1   -1    0    0  501    0  0.00000000000E+00  0.00000000000E+00 -0.18618607852E+04  0.18618607852E+04  0.50400001928E-02 0. -1.
    10030    2    1    2    0    0  0.00000000000E+00  0.00000000000E+00  0.26925257689E+03  0.39929741473E+04  0.39838857402E+04 0.  0.
        4    1    3    3  502    0  0.15417500911E+04 -0.10067686834E+04  0.89613469484E+03  0.20478367927E+04  0.12699999809E+01 0. -1.
       -4    1    3    3    0  502 -0.15417500911E+04  0.10067686834E+04 -0.62688211795E+03  0.19451373546E+04  0.12699999809E+01 0.  1.
</event>
<event>
 5   0  0.8528625E-08  0.4040485E+04  0.7818609E-02  0.7996429E-01
        1   -1    0    0  501    0  0.00000000000E+00  0.00000000000E+00  0.25248704281E+04  0.25248704281E+04  0.50400001928E-02 0. -1.
       -1   -1    0    0    0  501  0.00000000000E+00  0.00000000000E+00 -0.16164713674E+04  0.16164713674E+04  0.50400001928E-02 0.  1.
    10030    2    1    2    0    0  0.00000000000E+00  0.00000000000E+00  0.90839906069E+03  0.41413417956E+04  0.40404854924E+04 0.  0.
        5    1    3    3  502    0 -0.23434620620E+03 -0.19852198073E+04  0.75362659901E+03  0.21363499171E+04  0.46999998093E+01 0.  1.
       -5    1    3    3    0  502  0.23434620620E+03  0.19852198073E+04  0.15477246168E+03  0.20049918784E+04  0.46999998093E+01 0. -1.
</event>
<event>
 5   0  0.2666978E-07  0.3945655E+04  0.7818609E-02  0.8015600E-01
       -2   -1    0    0    0  501  0.00000000000E+00  0.00000000000E+00  0.21527255976E+04  0.21527255976E+04  0.25500000920E-02 0. -1.
        2   -1    0    0  501    0  0.00000000000E+00  0.00000000000E+00 -0.18079634691E+04  0.18079634691E+04  0.25500000920E-02 0.  1.
    10030    2    1    2    0    0  0.00000000000E+00  0.00000000000E+00  0.34476212850E+03  0.39606890667E+04  0.39456554535E+04 0.  0.
        4    1    3    3  502    0 -0.67020454999E+03 -0.82744638741E+03  0.18394936777E+04  0.21254600128E+04  0.12699999809E+01 0. -1.
       -4    1    3    3    0  502  0.67020454999E+03  0.82744638741E+03 -0.14947315492E+04  0.18352290538E+04  0.12699999809E+01 0.  1.
</event>
<event>
 5   0  0.8528625E-08  0.2929417E+04  0.7818609E-02  0.8264179E-01
       -1   -1    0    0    0  501  0.00000000000E+00  0.00000000000E+00  0.15182143730E+04  0.15182143730E+04  0.50400001928E-02 0.  1.
        1   -1    0    0  501    0  0.00000000000E+00  0.00000000000E+00 -0.14130880501E+04  0.14130880501E+04  0.50400001928E-02 0. -1.
    10030    2    1    2    0    0  0.00000000000E+00  0.00000000000E+00  0.10512632291E+03  0.29313024231E+04  0.29294167256E+04 0.  0.
        4    1    3    3  502    0  0.22154877255E+03  0.45568820038E+03 -0.13225970587E+04  0.14163333602E+04  0.12699999809E+01 0. -1.
       -4    1    3    3    0  502 -0.22154877255E+03 -0.45568820038E+03  0.14277233816E+04  0.15149690630E+04  0.12699999809E+01 0.  1.
</event>
<event>
 5   0  0.8583262E-08  0.4030558E+04  0.7818609E-02  0.7998410E-01
       -1   -1    0    0    0  501  0.00000000000E+00  0.00000000000E+00  0.19557821858E+04  0.19557821858E+04  0.50400001928E-02 0.  1.
        1   -1    0    0  501    0  0.00000000000E+00  0.00000000000E+00 -0.20765855293E+04  0.20765855293E+04  0.50400001928E-02 0. -1.
    10030    2    1    2    0    0  0.00000000000E+00  0.00000000000E+00 -0.12080334344E+03  0.40323677151E+04  0.40305577706E+04 0.  0.
        1    1    3    3  502    0  0.15394937599E+04  0.72956780219E+03 -0.11374717484E+04  0.20484511693E+04  0.50400001928E-02 0.  1.
       -1    1    3    3    0  502 -0.15394937599E+04 -0.72956780219E+03  0.10166684049E+04  0.19839165457E+04  0.50400001928E-02 0. -1.
</event>
<event>
 5   0  0.8528625E-08  0.4018654E+04  0.7818609E-02  0.8000794E-01
        1   -1    0    0  501    0  0.00000000000E+00  0.00000000000E+00  0.29343991318E+04  0.29343991318E+04  0.50400001928E-02 0. -1.
       -1   -1    0    0    0  501  0.00000000000E+00  0.00000000000E+00 -0.13758847461E+04  0.13758847461E+04  0.50400001928E-02 0.  1.
    10030    2    1    2    0    0  0.00000000000E+00  0.00000000000E+00  0.15585143857E+04  0.43102838779E+04  0.40186540057E+04 0.  0.
        5    1    3    3  502    0  0.15891982810E+04  0.36281948535E+01 -0.53952677756E+03  0.16782954370E+04  0.46999998093E+01 0.  1.
       -5    1    3    3    0  502 -0.15891982810E+04 -0.36281948535E+01  0.20980411633E+04  0.26319884409E+04  0.46999998093E+01 0. -1.
</event>
<event>
 5   0  0.2666978E-07  0.3804621E+04  0.7818609E-02  0.8045164E-01
        2   -1    0    0  501    0  0.00000000000E+00  0.00000000000E+00  0.27740979611E+04  0.27740979611E+04  0.25500000920E-02 0. -1.
       -2   -1    0    0    0  501  0.00000000000E+00  0.00000000000E+00 -0.13044907390E+04  0.13044907390E+04  0.25500000920E-02 0.  1.
    10030    2    1    2    0    0  0.00000000000E+00  0.00000000000E+00  0.14696072221E+04  0.40785887000E+04  0.38046209268E+04 0.  0.
        4    1    3    3  502    0  0.97710266961E+03  0.39563919229E+03 -0.96274032774E+03  0.14276310970E+04  0.12699999809E+01 0.  1.
       -4    1    3    3    0  502 -0.97710266961E+03 -0.39563919229E+03  0.24323475498E+04  0.26509576031E+04  0.12699999809E+01 0. -1.
</event>
<event>
 5   0  0.2730801E-07  0.3995180E+04  0.7818609E-02  0.8005520E-01
        2   -1    0    0  501    0  0.00000000000E+00  0.00000000000E+00  0.21506352446E+04  0.21506352446E+04  0.25500000920E-02 0.  1.
       -2   -1    0    0    0  501  0.00000000000E+00  0.00000000000E+00 -0.18554358276E+04  0.18554358276E+04  0.25500000920E-02 0. -1.
    10030    2    1    2    0    0  0.00000000000E+00  0.00000000000E+00  0.29519941699E+03  0.40060710722E+04  0.39951799384E+04 0.  0.
        2    1    3    3  502    0 -0.16115121218E+04  0.16048849627E+03  0.13202482154E+04  0.20894456745E+04  0.25500000920E-02 0.  1.
       -2    1    3    3    0  502  0.16115121218E+04 -0.16048849627E+03 -0.10250487985E+04  0.19166253978E+04  0.25500000920E-02 0. -1.
</event>
<event>
 5   0  0.8528625E-08  0.4115214E+04  0.7818609E-02  0.7981699E-01
        1   -1    0    0  501    0  0.00000000000E+00  0.00000000000E+00  0.21233195885E+04  0.21233195885E+04  0.50400001928E-02 0.  1.
       -1   -1    0    0    0  501  0.00000000000E+00  0.00000000000E+00 -0.19939282535E+04  0.19939282535E+04  0.50400001928E-02 0. -1.
    10030    2    1    2    0    0  0.00000000000E+00  0.00000000000E+00  0.12939133502E+03  0.41172478420E+04  0.41152141712E+04 0.  0.
        5    1    3    3  502    0 -0.18717881049E+04 -0.30206643693E+03 -0.73500527699E+03  0.20334919939E+04  0.46999998093E+01 0. -1.
       -5    1    3    3    0  502  0.18717881049E+04  0.30206643693E+03  0.86439661201E+03  0.20837558482E+04  0.46999998093E+01 0.  1.
</event>
<event>
 5   0  0.8583262E-08  0.3932602E+04  0.7818609E-02  0.8018283E-01
        1   -1    0    0  501    0  0.00000000000E+00  0.00000000000E+00  0.25601596535E+04  0.25601596535E+04  0.50400001928E-02 0.  1.
       -1   -1    0    0    0  501  0.00000000000E+00  0.00000000000E+00 -0.15101944804E+04  0.15101944804E+04  0.50400001928E-02 0. -1.
    10030    2    1    2    0    0  0.00000000000E+00  0.00000000000E+00  0.10499651731E+04  0.40703541339E+04  0.39326016720E+04 0.  0.
        1    1    3    3  502    0  0.12316159807E+04  0.11676667215E+04 -0.50278307453E+03  0.17700605403E+04  0.50400001928E-02 0. -1.
       -1    1    3    3    0  502 -0.12316159807E+04 -0.11676667215E+04  0.15527482476E+04  0.23002935936E+04  0.50400001928E-02 0.  1.
</event>
<event>
 5   0  0.2839279E-07  0.3949792E+04  0.7818609E-02  0.8014752E-01
        2   -1    0    0  501    0  0.00000000000E+00  0.00000000000E+00  0.15187738940E+04  0.15187738940E+04  0.25500000920E-02 0. -1.
       -2   -1    0    0    0  501  0.00000000000E+00  0.00000000000E+00 -0.25680024348E+04  0.25680024348E+04  0.25500000920E-02 0.  1.
    10030    2    1    2    0    0  0.00000000000E+00  0.00000000000E+00 -0.10492285408E+04  0.40867763288E+04  0.39497924288E+04 0.  0.
        3    1    3    3  502    0  0.27964561380E+03 -0.13711013249E+03 -0.25424322552E+04  0.25614376120E+04  0.10100000352E+00 0.  1.
       -3    1    3    3    0  502 -0.27964561380E+03  0.13711013249E+03  0.14932037145E+04  0.15253387167E+04  0.10100000352E+00 0. -1.
</event>
<event>
 5   0  0.2666978E-07  0.3993360E+04  0.7818609E-02  0.8005887E-01
        2   -1    0    0  501    0  0.00000000000E+00  0.00000000000E+00  0.21815647936E+04  0.21815647936E+04  0.25500000920E-02 0.  1.
       -2   -1    0    0    0  501  0.00000000000E+00  0.00000000000E+00 -0.18274639576E+04  0.18274639576E+04  0.25500000920E-02 0. -1.
    10030    2    1    2    0    0  0.00000000000E+00  0.00000000000E+00  0.35410083602E+03  0.40090287512E+04  0.39933600046E+04 0.  0.
        4    1    3    3  502    0  0.21212422475E+02  0.24842769252E+03  0.21658744852E+04  0.21801789339E+04  0.12699999809E+01 0.  1.
       -4    1    3    3    0  502 -0.21212422475E+02 -0.24842769252E+03 -0.18117736492E+04  0.18288498173E+04  0.12699999809E+01 0. -1.
</event>
<event>
 5   0  0.2666978E-07  0.3021770E+04  0.7818609E-02  0.8237542E-01
       -2   -1    0    0    0  501  0.00000000000E+00  0.00000000000E+00  0.15448662976E+04  0.15448662976E+04  0.25500000920E-02 0. -1.
        2   -1    0    0  501    0  0.00000000000E+00  0.00000000000E+00 -0.14776509370E+04  0.14776509370E+04  0.25500000920E-02 0.  1.
    10030    2    1    2    0    0  0.00000000000E+00  0.00000000000E+00  0.67215360580E+02  0.30225172346E+04  0.30217697676E+04 0.  0.
        4    1    3    3  502    0  0.14289128740E+04 -0.45631578666E+03 -0.14742167483E+03  0.15072328492E+04  0.12699999809E+01 0.  1.
       -4    1    3    3    0  502 -0.14289128740E+04  0.45631578666E+03  0.21463703541E+03  0.15152843854E+04  0.12699999809E+01 0. -1.
</event>
<event>
 5   0  0.8528625E-08  0.4009590E+04  0.7818609E-02  0.8002615E-01
       -1   -1    0    0    0  501  0.00000000000E+00  0.00000000000E+00  0.20484712961E+04  0.20484712961E+04  0.50400001928E-02 0.  1.
        1   -1    0    0  501    0  0.00000000000E+00  0.00000000000E+00 -0.19620495939E+04  0.19620495939E+04  0.50400001928E-02 0. -1.
    10030    2    1    2    0    0  0.00000000000E+00  0.00000000000E+00  0.86421702183E+02  0.40105208900E+04  0.40095896421E+04 0.  0.
        3    1    3    3  502    0  0.15415587678E+04 -0.38522596241E+03 -0.11795295271E+04  0.19789119213E+04  0.10100000352E+00 0. -1.
       -3    1    3    3    0  502 -0.15415587678E+04  0.38522596241E+03  0.12659512293E+04  0.20316089687E+04  0.10100000352E+00 0.  1.
</event>
<event>
 5   0  0.8528625E-08  0.3851194E+04  0.7818609E-02  0.8035257E-01
        1   -1    0    0  501    0  0.00000000000E+00  0.00000000000E+00  0.13191443572E+04  0.13191443572E+04  0.50400001928E-02 0. -1.
       -1   -1    0    0    0  501  0.00000000000E+00  0.00000000000E+00 -0.28108557391E+04  0.28108557391E+04  0.50400001928E-02 0.  1.
    10030    2    1    2    0    0  0.00000000000E+00  0.00000000000E+00 -0.14917113819E+04  0.41300000963E+04  0.38511943535E+04 0.  0.
        5    1    3    3  502    0 -0.18146283802E+04 -0.57679958469E+03 -0.43815415149E+03  0.19538615789E+04  0.46999998093E+01 0.  1.
       -5    1    3    3    0  502  0.18146283802E+04  0.57679958469E+03 -0.10535572305E+04  0.21761385174E+04  0.46999998093E+01 0. -1.
</event>
<event>
 5   0  0.8528625E-08  0.3991324E+04  0.7818609E-02  0.8006299E-01
        1   -1    0    0  501    0  0.00000000000E+00  0.00000000000E+00  0.29123148341E+04  0.29123148341E+04  0.50400001928E-02 0. -1.
       -1   -1    0    0    0  501  0.00000000000E+00  0.00000000000E+00 -0.13675264500E+04  0.13675264500E+04  0.50400001928E-02 0.  1.
    10030    2    1    2    0    0  0.00000000000E+00  0.00000000000E+00  0.15447883841E+04  0.42798412842E+04  0.39913243749E+04 0.  0.
        3    1    3    3  502    0 -0.14581429961E+04  0.11256293508E+04  0.15956453098E+04  0.24370692230E+04  0.10100000352E+00 0. -1.
       -3    1    3    3    0  502  0.14581429961E+04 -0.11256293508E+04 -0.50856925704E+02  0.18427720612E+04  0.10100000352E+00 0.  1.
</event>
<event>
 5   0  0.8528625E-08  0.3979241E+04  0.7818609E-02  0.8008747E-01
       -1   -1    0    0    0  501  0.00000000000E+00  0.00000000000E+00  0.15481846111E+04  0.15481846111E+04  0.50400001928E-02 0. -1.
        1   -1    0    0  501    0  0.00000000000E+00  0.00000000000E+00 -0.25569241114E+04  0.25569241114E+04  0.50400001928E-02 0.  1.
    10030    2    1    2    0    0  0.00000000000E+00  0.00000000000E+00 -0.10087395003E+04  0.41051087224E+04  0.39792414156E+04 0.  0.
        2    1    3    3  502    0  0.15132295111E+04 -0.43462505244E+03 -0.17593301051E+04  0.23609330588E+04  0.25500000920E-02 0.  1.
       -2    1    3    3    0  502 -0.15132295111E+04  0.43462505244E+03  0.75059060487E+03  0.17441756636E+04  0.25500000920E-02 0. -1.
</event>
<event>
 5   0  0.2839279E-07  0.3995399E+04  0.7818609E-02  0.8005475E-01
        2   -1    0    0  501    0  0.00000000000E+00  0.00000000000E+00  0.15250352584E+04  0.15250352584E+04  0.25500000920E-02 0. -1.
       -2   -1    0    0    0  501  0.00000000000E+00  0.00000000000E+00 -0.26168594735E+04  0.26168594735E+04  0.25500000920E-02 0.  1.
    10030    2    1    2    0    0  0.00000000000E+00  0.00000000000E+00 -0.10918242152E+04  0.41418947319E+04  0.39953988353E+04 0.  0.
        3    1    3    3  502    0  0.17542532620E+04  0.67595961954E+03 -0.12463157350E+04  0.22555772734E+04  0.10100000352E+00 0.  1.
       -3    1    3    3    0  502 -0.17542532620E+04 -0.67595961954E+03  0.15449151983E+03  0.18863174586E+04  0.10100000352E+00 0. -1.
</event>
<event>
 5   0  0.2839279E-07  0.3989214E+04  0.7818609E-02  0.8006726E-01
        2   -1    0    0  501    0  0.00000000000E+00  0.00000000000E+00  0.21556223773E+04  0.21556223773E+04  0.25500000920E-02 0. -1.
       -2   -1    0    0    0  501  0.00000000000E+00  0.00000000000E+00 -0.18456183354E+04  0.18456183354E+04  0.25500000920E-02 0.  1.
    10030    2    1    2    0    0  0.00000000000E+00  0.00000000000E+00  0.31000404198E+03  0.40012407127E+04  0.39892135484E+04 0.  0.
        3    1    3    3  502    0 -0.19632365527E+03 -0.18171691528E+04 -0.64603552736E+03  0.19385583872E+04  0.10100000352E+00 0.  1.
       -3    1    3    3    0  502  0.19632365527E+03  0.18171691528E+04  0.95603956934E+03  0.20626823255E+04  0.10100000352E+00 0. -1.
</event>
<event>
 5   0  0.8528625E-08  0.3970466E+04  0.7818609E-02  0.8010531E-01
        1   -1    0    0  501    0  0.00000000000E+00  0.00000000000E+00  0.17349216671E+04  0.17349216671E+04  0.50400001928E-02 0.  1.
       -1   -1    0    0    0  501  0.00000000000E+00  0.00000000000E+00 -0.22716583777E+04  0.22716583777E+04  0.50400001928E-02 0. -1.
    10030    2    1    2    0    0  0.00000000000E+00  0.00000000000E+00 -0.53673671064E+03  0.40065800449E+04  0.39704656351E+04 0.  0.
        5    1    3    3  502    0  0.23621315328E+03  0.97587669790E+03 -0.19965447278E+04  0.22348031062E+04  0.46999998093E+01 0. -1.
       -5    1    3    3    0  502 -0.23621315328E+03 -0.97587669790E+03  0.14598080172E+04  0.17717769387E+04  0.46999998093E+01 0.  1.
</event>
<event>
 5   0  0.2730801E-07  0.3920876E+04  0.7818609E-02  0.8020701E-01
        2   -1    0    0  501    0  0.00000000000E+00  0.00000000000E+00  0.21868677683E+04  0.21868677683E+04  0.25500000920E-02 0.  1.
       -2   -1    0    0    0  501  0.00000000000E+00  0.00000000000E+00 -0.17574528187E+04  0.17574528187E+04  0.25500000920E-02 0. -1.
    10030    2    1    2    0    0  0.00000000000E+00  0.00000000000E+00  0.42941494958E+03  0.39443205870E+04  0.39208758836E+04 0.  0.
        2    1    3    3  502    0  0.32798274443E+03 -0.71728046620E+03 -0.15908093007E+04  0.17755951619E+04  0.25500000920E-02 0. -1.
       -2    1    3    3    0  502 -0.32798274443E+03  0.71728046620E+03  0.20202242503E+04  0.21687254251E+04  0.25500000920E-02 0.  1.
</event>
<event>
 5   0  0.2661693E-07  0.3682046E+04  0.7818609E-02  0.8071952E-01
        2   -1    0    0  501    0  0.00000000000E+00  0.00000000000E+00  0.28173756690E+04  0.28173756690E+04  0.25500000920E-02 0.  1.
       -2   -1    0    0    0  501  0.00000000000E+00  0.00000000000E+00 -0.12030221317E+04  0.12030221317E+04  0.25500000920E-02 0. -1.
    10030    2    1    2    0    0  0.00000000000E+00  0.00000000000E+00  0.16143535373E+04  0.40203978007E+04  0.36820457809E+04 0.  0.
        1    1    3    3  502    0  0.17632511011E+04 -0.99553435952E+02  0.23939277268E+03  0.17822104903E+04  0.50400001928E-02 0. -1.
       -1    1    3    3    0  502 -0.17632511011E+04  0.99553435952E+02  0.13749607646E+04  0.22381873104E+04  0.50400001928E-02 0.  1.
</event>
<event>
 5   0  0.2666978E-07  0.4038413E+04  0.7818609E-02  0.7996842E-01
        2   -1    0    0  501    0  0.00000000000E+00  0.00000000000E+00  0.31526994880E+04  0.31526994880E+04  0.25500000920E-02 0.  1.
       -2   -1    0    0    0  501  0.00000000000E+00  0.00000000000E+00 -0.12932395286E+04  0.12932395286E+04  0.25500000920E-02 0. -1.
    10030    2    1    2    0    0  0.00000000000E+00  0.00000000000E+00  0.18594599593E+04  0.44459390166E+04  0.40384133517E+04 0.  0.
        4    1    3    3  502    0 -0.10042061377E+04  0.67044562682E+03 -0.85200288796E+03  0.14777813910E+04  0.12699999809E+01 0. -1.
       -4    1    3    3    0  502  0.10042061377E+04 -0.67044562682E+03  0.27114628473E+04  0.29681576256E+04  0.12699999809E+01 0.  1.
</event>
<event>
 5   0  0.8528625E-08  0.3947416E+04  0.7818609E-02  0.8015239E-01
        1   -1    0    0  501    0  0.00000000000E+00  0.00000000000E+00  0.28066665877E+04  0.28066665877E+04  0.50400001928E-02 0. -1.
       -1   -1    0    0    0  501  0.00000000000E+00  0.00000000000E+00 -0.13879538647E+04  0.13879538647E+04  0.50400001928E-02 0.  1.
    10030    2    1    2    0    0  0.00000000000E+00  0.00000000000E+00  0.14187127230E+04  0.41946204524E+04  0.39474162371E+04 0.  0.
        5    1    3    3  502    0  0.53043395952E+03 -0.37277374998E+03  0.26902833709E+04  0.27673032288E+04  0.46999998093E+01 0. -1.
       -5    1    3    3    0  502 -0.53043395952E+03  0.37277374998E+03 -0.12715706479E+04  0.14273172236E+04  0.46999998093E+01 0.  1.
</event>
<event>
 5   0  0.2661693E-07  0.3985906E+04  0.7818609E-02  0.8007396E-01
        2   -1    0    0  501    0  0.00000000000E+00  0.00000000000E+00  0.21786874483E+04  0.21786874483E+04  0.25500000920E-02 0.  1.
       -2   -1    0    0    0  501  0.00000000000E+00  0.00000000000E+00 -0.18230529293E+04  0.18230529293E+04  0.25500000920E-02 0. -1.
    10030    2    1    2    0    0  0.00000000000E+00  0.00000000000E+00  0.35563451901E+03  0.40017403776E+04  0.39859064388E+04 0.  0.
        1    1    3    3  502    0 -0.17376100211E+04  0.58467434657E+03 -0.60677927454E+03  0.19311431239E+04  0.50400001928E-02 0. -1.
       -1    1    3    3    0  502  0.17376100211E+04 -0.58467434657E+03  0.96241379355E+03  0.20705972537E+04  0.50400001928E-02 0.  1.
</event>
<event>
 5   0  0.2839279E-07  0.4064117E+04  0.7818609E-02  0.7991736E-01
       -2   -1    0    0    0  501  0.00000000000E+00  0.00000000000E+00  0.23359768379E+04  0.23359768379E+04  0.25500000920E-02 0.  1.
        2   -1    0    0  501    0  0.00000000000E+00  0.00000000000E+00 -0.17676812067E+04  0.17676812068E+04  0.25500000920E-02 0. -1.
    10030    2    1    2    0    0  0.00000000000E+00  0.00000000000E+00  0.56829563116E+03  0.41036580447E+04  0.40641172994E+04 0.  0.
        3    1    3    3  502    0 -0.77005070497E+03  0.17068316620E+04 -0.51284134729E+03  0.19414578719E+04  0.10100000352E+00 0. -1.
       -3    1    3    3    0  502  0.77005070497E+03 -0.17068316620E+04  0.10811369785E+04  0.21622001728E+04  0.10100000352E+00 0.  1.
</event>
<event>
 5   0  0.8528625E-08  0.4001096E+04  0.7818609E-02  0.8004326E-01
       -1   -1    0    0    0  501  0.00000000000E+00  0.00000000000E+00  0.14919702714E+04  0.14919702714E+04  0.50400001928E-02 0. -1.
        1   -1    0    0  501    0  0.00000000000E+00  0.00000000000E+00 -0.26824879104E+04  0.26824879104E+04  0.50400001928E-02 0.  1.
    10030    2    1    2    0    0  0.00000000000E+00  0.00000000000E+00 -0.11905176390E+04  0.41744581818E+04  0.40010959577E+04 0.  0.
        4    1    3    3  502    0  0.90346792862E+03 -0.17777412495E+04 -0.42841638918E+03  0.20396471419E+04  0.12699999809E+01 0.  1.
       -4    1    3    3    0  502 -0.90346792862E+03  0.17777412495E+04 -0.76210124979E+03  0.21348110399E+04  0.12699999809E+01 0. -1.
</event>
<event>
 5   0  0.2704088E-07  0.2859497E+04  0.7818609E-02  0.8285031E-01
       -2   -1    0    0    0  501  0.00000000000E+00  0.00000000000E+00  0.11344575294E+04  0.11344575294E+04  0.25500000920E-02 0. -1.
        2   -1    0    0  501    0  0.00000000000E+00  0.00000000000E+00 -0.18019017630E+04  0.18019017630E+04  0.25500000920E-02 0.  1.
    10030    2    1    2    0    0  0.00000000000E+00  0.00000000000E+00 -0.66744423355E+03  0.29363592924E+04  0.28594971742E+04 0.  0.
        5    1    3    3  502    0  0.49969682967E+03  0.25210289841E+03  0.10172807860E+04  0.11610921930E+04  0.46999998093E+01 0. -1.
       -5    1    3    3    0  502 -0.49969682967E+03 -0.25210289841E+03 -0.16847250195E+04  0.17752670995E+04  0.46999998093E+01 0.  1.
</event>
<event>
 5   0  0.2730801E-07  0.3830705E+04  0.7818609E-02  0.8039598E-01
        2   -1    0    0  501    0  0.00000000000E+00  0.00000000000E+00  0.22932656772E+04  0.22932656772E+04  0.25500000920E-02 0.  1.
       -2   -1    0    0    0  501  0.00000000000E+00  0.00000000000E+00 -0.15997164331E+04  0.15997164331E+04  0.25500000920E-02 0. -1.
    10030    2    1    2    0    0  0.00000000000E+00  0.00000000000E+00  0.69354924416E+03  0.38929821103E+04  0.38307047859E+04 0.  0.
        2    1    3    3  502    0  0.15367665559E+04 -0.11002750733E+04  0.31377527504E+02  0.18903018895E+04  0.25500000920E-02 0. -1.
       -2    1    3    3    0  502 -0.15367665559E+04  0.11002750733E+04  0.66217171665E+03  0.20026802208E+04  0.25500000920E-02 0.  1.
</event>
<event>
 5   0  0.2730801E-07  0.2934802E+04  0.7818609E-02  0.8262598E-01
       -2   -1    0    0    0  501  0.00000000000E+00  0.00000000000E+00  0.78023837293E+03  0.78023837293E+03  0.25500000920E-02 0.  1.
        2   -1    0    0  501    0  0.00000000000E+00  0.00000000000E+00 -0.27597536033E+04  0.27597536033E+04  0.25500000920E-02 0. -1.
    10030    2    1    2    0    0  0.00000000000E+00  0.00000000000E+00 -0.19795152304E+04  0.35399919762E+04  0.29348019771E+04 0.  0.
        2    1    3    3  502    0  0.73235702620E+03 -0.11134562662E+04 -0.17305070231E+04  0.21842129538E+04  0.25500000920E-02 0. -1.
       -2    1    3    3    0  502 -0.73235702620E+03  0.11134562662E+04 -0.24900820733E+03  0.13557790225E+04  0.25500000920E-02 0.  1.
</event>
<event>
 5   0  0.8528625E-08  0.3975565E+04  0.7818609E-02  0.8009494E-01
       -1   -1    0    0    0  501  0.00000000000E+00  0.00000000000E+00  0.18141348941E+04  0.18141348941E+04  0.50400001928E-02 0.  1.
        1   -1    0    0  501    0  0.00000000000E+00  0.00000000000E+00 -0.21780512816E+04  0.21780512816E+04  0.50400001928E-02 0. -1.
    10030    2    1    2    0    0  0.00000000000E+00  0.00000000000E+00 -0.36391638742E+03  0.39921861757E+04  0.39755647806E+04 0.  0.
        3    1    3    3  502    0 -0.65374962778E+03 -0.10755192458E+04  0.13630283905E+04  0.18552564856E+04  0.10100000352E+00 0.  1.
       -3    1    3    3    0  502  0.65374962778E+03  0.10755192458E+04 -0.17269447779E+04  0.21369296901E+04  0.10100000352E+00 0. -1.
</event>
<event>
 5   0  0.8528625E-08  0.4019462E+04  0.7818609E-02  0.8000632E-01
        1   -1    0    0  501    0  0.00000000000E+00  0.00000000000E+00  0.21425587281E+04  0.21425587281E+04  0.50400001928E-02 0. -1.
       -1   -1    0    0    0  501  0.00000000000E+00  0.00000000000E+00 -0.18851374638E+04  0.18851374638E+04  0.50400001928E-02 0.  1.
    10030    2    1    2    0    0  0.00000000000E+00  0.00000000000E+00  0.25742126433E+03  0.40276961919E+04  0.40194615196E+04 0.  0.
        2    1    3    3  502    0  0.11796731262E+04 -0.14083047576E+04 -0.68786176924E+03  0.19616586830E+04  0.25500000920E-02 0.  1.
       -2    1    3    3    0  502 -0.11796731262E+04  0.14083047576E+04  0.94528303356E+03  0.20660375090E+04  0.25500000920E-02 0. -1.
</event>
<event>
 5   0  0.2661693E-07  0.3805469E+04  0.7818609E-02  0.8044982E-01
       -2   -1    0    0    0  501  0.00000000000E+00  0.00000000000E+00  0.13974052503E+04  0.13974052503E+04  0.25500000920E-02 0.  1.
        2   -1    0    0  501    0  0.00000000000E+00  0.00000000000E+00 -0.25908013865E+04  0.25908013865E+04  0.25500000920E-02 0. -1.
    10030    2    1    2    0    0  0.00000000000E+00  0.00000000000E+00 -0.11933961362E+04  0.39882066369E+04  0.38054694639E+04 0.  0.
        1    1    3    3  502    0  0.20534821850E+03  0.53632739864E+03  0.13044061862E+04  0.14252334784E+04  0.50400001928E-02 0.  1.
       -1    1    3    3    0  502 -0.20534821850E+03 -0.53632739864E+03 -0.24978023224E+04  0.25629731585E+04  0.50400001928E-02 0. -1.
</event>
<event>
 5   0  0.8528625E-08  0.3988364E+04  0.7818609E-02  0.8006898E-01
        1   -1    0    0  501    0  0.00000000000E+00  0.00000000000E+00  0.22583349935E+04  0.22583349935E+04  0.50400001928E-02 0.  1.
       -1   -1    0    0    0  501  0.00000000000E+00  0.00000000000E+00 -0.17609268793E+04  0.17609268793E+04  0.50400001928E-02 0. -1.
    10030    2    1    2    0    0  0.00000000000E+00  0.00000000000E+00  0.49740811421E+03  0.40192618728E+04  0.39883644731E+04 0.  0.
        2    1    3    3  502    0 -0.30464753651E+03 -0.15851923049E+04 -0.93131462940E+03  0.18635964435E+04  0.25500000920E-02 0. -1.
       -2    1    3    3    0  502  0.30464753651E+03  0.15851923049E+04  0.14287227436E+04  0.21556654293E+04  0.25500000920E-02 0.  1.
</event>
<event>
 5   0  0.8528625E-08  0.3982947E+04  0.7818609E-02  0.8007996E-01
       -1   -1    0    0    0  501  0.00000000000E+00  0.00000000000E+00  0.17507199488E+04  0.17507199488E+04  0.50400001928E-02 0. -1.
        1   -1    0    0  501    0  0.00000000000E+00  0.00000000000E+00 -0.22653343372E+04  0.22653343372E+04  0.50400001928E-02 0.  1.
    10030    2    1    2    0    0  0.00000000000E+00  0.00000000000E+00 -0.51461438842E+03  0.40160542860E+04  0.39829466554E+04 0.  0.
        5    1    3    3  502    0 -0.11239871847E+04 -0.15230787019E+04 -0.88118126041E+03  0.20879699297E+04  0.46999998093E+01 0.  1.
       -5    1    3    3    0  502  0.11239871847E+04  0.15230787019E+04  0.36656687199E+03  0.19280843563E+04  0.46999998093E+01 0. -1.
</event>
<event>
 5   0  0.2704088E-07  0.3852267E+04  0.7818609E-02  0.8035031E-01
        2   -1    0    0  501    0  0.00000000000E+00  0.00000000000E+00  0.25049265761E+04  0.25049265761E+04  0.25500000920E-02 0.  1.
       -2   -1    0    0    0  501  0.00000000000E+00  0.00000000000E+00 -0.14810778161E+04  0.14810778161E+04  0.25500000920E-02 0. -1.
    10030    2    1    2    0    0  0.00000000000E+00  0.00000000000E+00  0.10238487601E+04  0.39860043922E+04  0.38522674791E+04 0.  0.
        5    1    3    3  502    0  0.18209123544E+04 -0.32842839869E+03 -0.41800778209E+02  0.18507718418E+04  0.46999998093E+01 0. -1.
       -5    1    3    3    0  502 -0.18209123544E+04  0.32842839869E+03  0.10656495383E+04  0.21352325503E+04  0.46999998093E+01 0.  1.
</event>
<event>
 5   0  0.8528625E-08  0.4005390E+04  0.7818609E-02  0.8003460E-01
        1   -1    0    0  501    0  0.00000000000E+00  0.00000000000E+00  0.25603961243E+04  0.25603961243E+04  0.50400001928E-02 0. -1.
       -1   -1    0    0    0  501  0.00000000000E+00  0.00000000000E+00 -0.15664716641E+04  0.15664716641E+04  0.50400001928E-02 0.  1.
    10030    2    1    2    0    0  0.00000000000E+00  0.00000000000E+00  0.99392446024E+03  0.41268677884E+04  0.40053903567E+04 0.  0.
        2    1    3    3  502    0 -0.13581213350E+04  0.35168068177E+03  0.19695085967E+04  0.24180853945E+04  0.25500000920E-02 0. -1.
       -2    1    3    3    0  502  0.13581213350E+04 -0.35168068177E+03 -0.97558413645E+03  0.17087823939E+04  0.25500000920E-02 0.  1.
</event>
<event>
 5   0  0.8528625E-08  0.3977089E+04  0.7818609E-02  0.8009184E-01
        1   -1    0    0  501    0  0.00000000000E+00  0.00000000000E+00  0.23882594589E+04  0.23882594589E+04  0.50400001928E-02 0.  1.
       -1   -1    0    0    0  501  0.00000000000E+00  0.00000000000E+00 -0.16557283213E+04  0.16557283213E+04  0.50400001928E-02 0. -1.
    10030    2    1    2    0    0  0.00000000000E+00  0.00000000000E+00  0.73253113753E+03  0.40439877802E+04  0.39770887970E+04 0.  0.
        3    1    3    3  502    0  0.14796664659E+04  0.36199873638E+03 -0.93345807926E+03  0.17865609229E+04  0.10100000352E+00 0. -1.
       -3    1    3    3    0  502 -0.14796664659E+04 -0.36199873638E+03  0.16659892168E+04  0.22574268573E+04  0.10100000352E+00 0.  1.
</event>
<event>
 5   0  0.8528625E-08  0.3883951E+04  0.7818609E-02  0.8028375E-01
        1   -1    0    0  501    0  0.00000000000E+00  0.00000000000E+00  0.24646990266E+04  0.24646990266E+04  0.50400001928E-02 0.  1.
       -1   -1    0    0    0  501  0.00000000000E+00  0.00000000000E+00 -0.15301134275E+04  0.15301134276E+04  0.50400001928E-02 0. -1.
    10030    2    1    2    0    0  0.00000000000E+00  0.00000000000E+00  0.93458559909E+03  0.39948124542E+04  0.38839511200E+04 0.  0.
        5    1    3    3  502    0  0.40040889761E+03 -0.10820310448E+04 -0.11393857291E+04  0.16215240969E+04  0.46999998093E+01 0. -1.
       -5    1    3    3    0  502 -0.40040889761E+03  0.10820310448E+04  0.20739713281E+04  0.23732883573E+04  0.46999998093E+01 0.  1.
</event>
<event>
 5   0  0.2730801E-07  0.3067396E+04  0.7818609E-02  0.8224743E-01
       -2   -1    0    0    0  501  0.00000000000E+00  0.00000000000E+00  0.86829939567E+03  0.86829939568E+03  0.25500000920E-02 0. -1.
        2   -1    0    0  501    0  0.00000000000E+00  0.00000000000E+00 -0.27090073755E+04  0.27090073755E+04  0.25500000920E-02 0.  1.
    10030    2    1    2    0    0  0.00000000000E+00  0.00000000000E+00 -0.18407079799E+04  0.35773067712E+04  0.30673959425E+04 0.  0.
        2    1    3    3  502    0  0.15994667639E+03  0.75977980517E+03 -0.24628660572E+04  0.25823550312E+04  0.25500000920E-02 0.  1.
       -2    1    3    3    0  502 -0.15994667639E+03 -0.75977980517E+03  0.62215807736E+03  0.99495173996E+03  0.25500000920E-02 0. -1.
</event>
<event>
 5   0  0.2661693E-07  0.3945387E+04  0.7818609E-02  0.8015655E-01
       -2   -1    0    0    0  501  0.00000000000E+00  0.00000000000E+00  0.15011385007E+04  0.15011385007E+04  0.25500000920E-02 0. -1.
        2   -1    0    0  501    0  0.00000000000E+00  0.00000000000E+00 -0.25923793955E+04  0.25923793955E+04  0.25500000920E-02 0.  1.
    10030    2    1    2    0    0  0.00000000000E+00  0.00000000000E+00 -0.10912408948E+04  0.40935178962E+04  0.39453874431E+04 0.  0.
        1    1    3    3  502    0  0.85746625775E+03 -0.16402953219E+04 -0.12536668756E+04  0.22355083899E+04  0.50400001928E-02 0.  1.
       -1    1    3    3    0  502 -0.85746625775E+03  0.16402953219E+04  0.16242598077E+03  0.18580095063E+04  0.50400001928E-02 0. -1.
</event>
<event>
 5   0  0.8528625E-08  0.4106779E+04  0.7818609E-02  0.7983346E-01
       -1   -1    0    0    0  501  0.00000000000E+00  0.00000000000E+00  0.22628914620E+04  0.22628914620E+04  0.50400001928E-02 0.  1.
        1   -1    0    0  501    0  0.00000000000E+00  0.00000000000E+00 -0.18632833071E+04  0.18632833072E+04  0.50400001928E-02 0. -1.
    10030    2    1    2    0    0  0.00000000000E+00  0.00000000000E+00  0.39960815490E+03  0.41261747692E+04  0.41067787314E+04 0.  0.
        3    1    3    3  502    0  0.71096374819E+03  0.38002443072E+03 -0.16976384846E+04  0.18793255316E+04  0.10100000352E+00 0. -1.
       -3    1    3    3    0  502 -0.71096374819E+03 -0.38002443072E+03  0.20972466395E+04  0.22468492376E+04  0.10100000352E+00 0.  1.
</event>
<event>
 5   0  0.2661693E-07  0.3918414E+04  0.7818609E-02  0.8021210E-01
        2   -1    0    0  501    0  0.00000000000E+00  0.00000000000E+00  0.17631669152E+04  0.17631669152E+04  0.25500000920E-02 0.  1.
       -2   -1    0    0    0  501  0.00000000000E+00  0.00000000000E+00 -0.21770435642E+04  0.21770435642E+04  0.25500000920E-02 0. -1.
    10030    2    1    2    0    0  0.00000000000E+00  0.00000000000E+00 -0.41387664902E+03  0.39402104794E+04  0.39184135490E+04 0.  0.
        1    1    3    3  502    0 -0.11199935867E+04  0.92011599892E+02  0.14068690051E+04  0.18005921710E+04  0.50400001928E-02 0.  1.
       -1    1    3    3    0  502  0.11199935867E+04 -0.92011599892E+02 -0.18207456541E+04  0.21396183084E+04  0.50400001928E-02 0. -1.
</event>
<event>
 5   0  0.2661693E-07  0.3869638E+04  0.7818609E-02  0.8031374E-01
       -2   -1    0    0    0  501  0.00000000000E+00  0.00000000000E+00  0.22956813923E+04  0.22956813923E+04  0.25500000920E-02 0. -1.
        2   -1    0    0  501    0  0.00000000000E+00  0.00000000000E+00 -0.16306813160E+04  0.16306813160E+04  0.25500000920E-02 0.  1.
    10030    2    1    2    0    0  0.00000000000E+00  0.00000000000E+00  0.66500007637E+03  0.39263627083E+04  0.38696380988E+04 0.  0.
        1    1    3    3  502    0  0.72438203007E+03  0.13158345461E+04 -0.90495744576E+03  0.17535956937E+04  0.50400001928E-02 0.  1.
       -1    1    3    3    0  502 -0.72438203007E+03 -0.13158345461E+04  0.15699575221E+04  0.21727670146E+04  0.50400001928E-02 0. -1.
</event>
<event>
 5   0  0.2704088E-07  0.4049277E+04  0.7818609E-02  0.7994679E-01
        2   -1    0    0  501    0  0.00000000000E+00  0.00000000000E+00  0.20068012375E+04  0.20068012375E+04  0.25500000920E-02 0.  1.
       -2   -1    0    0    0  501  0.00000000000E+00  0.00000000000E+00 -0.20426348062E+04  0.20426348062E+04  0.25500000920E-02 0. -1.
    10030    2    1    2    0    0  0.00000000000E+00  0.00000000000E+00 -0.35833568726E+02  0.40494360437E+04  0.40492774944E+04 0.  0.
        5    1    3    3  502    0 -0.10891572089E+04  0.12411794566E+04 -0.11894361262E+04  0.20350848281E+04  0.46999998093E+01 0. -1.
       -5    1    3    3    0  502  0.10891572089E+04 -0.12411794566E+04  0.11536025574E+04  0.20143512156E+04  0.46999998093E+01 0.  1.
</event>
<event>
 5   0  0.2661693E-07  0.3462705E+04  0.7818609E-02  0.8122686E-01
       -2   -1    0    0    0  501  0.00000000000E+00  0.00000000000E+00  0.13467010846E+04  0.13467010846E+04  0.25500000920E-02 0.  1.
        2   -1    0    0  501    0  0.00000000000E+00  0.00000000000E+00 -0.22258701550E+04  0.22258701550E+04  0.25500000920E-02 0. -1.
    10030    2    1    2    0    0  0.00000000000E+00  0.00000000000E+00 -0.87916907033E+03  0.35725712396E+04  0.34627051575E+04 0.  0.
        1    1    3    3  502    0  0.15801046735E+04  0.25875575452E+03  0.24002337234E+03  0.16190418583E+04  0.50400001928E-02 0.  1.
       -1    1    3    3    0  502 -0.15801046735E+04 -0.25875575452E+03 -0.11191924427E+04  0.19535293813E+04  0.50400001928E-02 0. -1.
</event>
<event>
 5   0  0.8583262E-08  0.4045548E+04  0.7818609E-02  0.7995421E-01
        1   -1    0    0  501    0  0.00000000000E+00  0.00000000000E+00  0.20209893546E+04  0.20209893546E+04  0.50400001928E-02 0.  1.
       -1   -1    0    0    0  501  0.00000000000E+00  0.00000000000E+00 -0.20245603064E+04  0.20245603065E+04  0.50400001928E-02 0. -1.
    10030    2    1    2    0    0  0.00000000000E+00  0.00000000000E+00 -0.35709518619E+01  0.40455496610E+04  0.40455480850E+04 0.  0.
        1    1    3    3  502    0  0.43648405013E+03 -0.19089148139E+04  0.50530518130E+03  0.20223272285E+04  0.50400001928E-02 0.  1.
       -1    1    3    3    0  502 -0.43648405013E+03  0.19089148139E+04 -0.50887613316E+03  0.20232224326E+04  0.50400001928E-02 0. -1.
</event>
<event>
 5   0  0.8583262E-08  0.3731652E+04  0.7818609E-02  0.8060983E-01
       -1   -1    0    0    0  501  0.00000000000E+00  0.00000000000E+00  0.16671656657E+04  0.16671656657E+04  0.50400001928E-02 0. -1.
        1   -1    0    0  501    0  0.00000000000E+00  0.00000000000E+00 -0.20881589156E+04  0.20881589156E+04  0.50400001928E-02 0.  1.
    10030    2    1    2    0    0  0.00000000000E+00  0.00000000000E+00 -0.42099324992E+03  0.37553245814E+04  0.37316520999E+04 0.  0.
        1    1    3    3  502    0 -0.63540121438E+03 -0.94833751671E+03 -0.16957413215E+04  0.20441666708E+04  0.50400001928E-02 0.  1.
       -1    1    3    3    0  502  0.63540121438E+03  0.94833751671E+03  0.12747480715E+04  0.17111579105E+04  0.50400001928E-02 0. -1.
</event>
<event>
 5   0  0.8528625E-08  0.3934372E+04  0.7818609E-02  0.8017918E-01
       -1   -1    0    0    0  501  0.00000000000E+00  0.00000000000E+00  0.18598531714E+04  0.18598531714E+04  0.50400001928E-02 0. -1.
        1   -1    0    0  501    0  0.00000000000E+00  0.00000000000E+00 -0.20807127233E+04  0.20807127233E+04  0.50400001928E-02 0.  1.
    10030    2    1    2    0    0  0.00000000000E+00  0.00000000000E+00 -0.22085955195E+03  0.39405658947E+04  0.39343716943E+04 0.  0.
        3    1    3    3  502    0  0.12012584098E+04 -0.59895369285E+03  0.13299069160E+04  0.18895554262E+04  0.10100000352E+00 0. -1.
       -3    1    3    3    0  502 -0.12012584098E+04  0.59895369285E+03 -0.15507664680E+04  0.20510104685E+04  0.10100000352E+00 0.  1.
</event>
<event>
 5   0  0.2704088E-07  0.3850562E+04  0.7818609E-02  0.8035391E-01
        2   -1    0    0  501    0  0.00000000000E+00  0.00000000000E+00  0.17355061134E+04  0.17355061134E+04  0.25500000920E-02 0. -1.
       -2   -1    0    0    0  501  0.00000000000E+00  0.00000000000E+00 -0.21358076860E+04  0.21358076861E+04  0.25500000920E-02 0.  1.
    10030    2    1    2    0    0  0.00000000000E+00  0.00000000000E+00 -0.40030157262E+03  0.38713137995E+04  0.38505621908E+04 0.  0.
        5    1    3    3  502    0 -0.13114301884E+04 -0.47230426590E+03  0.11350745436E+04  0.17975919360E+04  0.46999998093E+01 0. -1.
       -5    1    3    3    0  502  0.13114301884E+04  0.47230426590E+03 -0.15353761163E+04  0.20737218635E+04  0.46999998093E+01 0.  1.
</event>
<event>
 5   0  0.2661693E-07  0.3999019E+04  0.7818609E-02  0.8004745E-01
        2   -1    0    0  501    0  0.00000000000E+00  0.00000000000E+00  0.22079359084E+04  0.22079359084E+04  0.25500000920E-02 0. -1.
       -2   -1    0    0    0  501  0.00000000000E+00  0.00000000000E+00 -0.18107578518E+04  0.18107578518E+04  0.25500000920E-02 0.  1.
    10030    2    1    2    0    0  0.00000000000E+00  0.00000000000E+00  0.39717805656E+03  0.40186937601E+04  0.39990185207E+04 0.  0.
        1    1    3    3  502    0 -0.83675610344E+03 -0.18930613974E+03  0.20135868894E+04  0.21887278845E+04  0.50400001928E-02 0. -1.
       -1    1    3    3    0  502  0.83675610344E+03  0.18930613974E+03 -0.16164088328E+04  0.18299658757E+04  0.50400001928E-02 0.  1.
</event>
<event>
 5   0  0.8528625E-08  0.4008913E+04  0.7818609E-02  0.8002751E-01
       -1   -1    0    0    0  501  0.00000000000E+00  0.00000000000E+00  0.20584639556E+04  0.20584639556E+04  0.50400001928E-02 0.  1.
        1   -1    0    0  501    0  0.00000000000E+00  0.00000000000E+00 -0.19518655487E+04  0.19518655487E+04  0.50400001928E-02 0. -1.
    10030    2    1    2    0    0  0.00000000000E+00  0.00000000000E+00  0.10659840692E+03  0.40103295043E+04  0.40089125100E+04 0.  0.
        5    1    3    3  502    0 -0.18421345522E+04  0.39900232764E+02 -0.73613817823E+03  0.19841807489E+04  0.46999998093E+01 0. -1.
       -5    1    3    3    0  502  0.18421345522E+04 -0.39900232764E+02  0.84273658516E+03  0.20261487554E+04  0.46999998093E+01 0.  1.
</event>
<event>
 5   0  0.8528625E-08  0.3965970E+04  0.7818609E-02  0.8011447E-01
        1   -1    0    0  501    0  0.00000000000E+00  0.00000000000E+00  0.17891218278E+04  0.17891218278E+04  0.50400001928E-02 0. -1.
       -1   -1    0    0    0  501  0.00000000000E+00  0.00000000000E+00 -0.21978539860E+04  0.21978539860E+04  0.50400001928E-02 0.  1.
    10030    2    1    2    0    0  0.00000000000E+00  0.00000000000E+00 -0.40873215815E+03  0.39869758138E+04  0.39659695111E+04 0.  0.
        5    1    3    3  502    0  0.67842274236E+03 -0.14055147321E+04  0.10254192477E+04  0.18674142024E+04  0.46999998093E+01 0. -1.
       -5    1    3    3    0  502 -0.67842274236E+03  0.14055147321E+04 -0.14341514059E+04  0.21195616114E+04  0.46999998093E+01 0.  1.
</event>
<event>
 5   0  0.2661693E-07  0.2865223E+04  0.7818609E-02  0.8283300E-01
       -2   -1    0    0    0  501  0.00000000000E+00  0.00000000000E+00  0.10488514196E+04  0.10488514196E+04  0.25500000920E-02 0. -1.
        2   -1    0    0  501    0  0.00000000000E+00  0.00000000000E+00 -0.19567845178E+04  0.19567845178E+04  0.25500000920E-02 0.  1.
    10030    2    1    2    0    0  0.00000000000E+00  0.00000000000E+00 -0.90793309822E+03  0.30056359375E+04  0.28652233556E+04 0.  0.
        1    1    3    3  502    0  0.44607054728E+03 -0.24464596967E+03  0.95089688228E+03  0.10784412197E+04  0.50400001928E-02 0. -1.
       -1    1    3    3    0  502 -0.44607054728E+03  0.24464596967E+03 -0.18588299805E+04  0.19271947177E+04  0.50400001928E-02 0.  1.
</event>
<event>
 5   0  0.8528625E-08  0.3976189E+04  0.7818609E-02  0.8009367E-01
       -1   -1    0    0    0  501  0.00000000000E+00  0.00000000000E+00  0.21369171542E+04  0.21369171542E+04  0.50400001928E-02 0. -1.
        1   -1    0    0  501    0  0.00000000000E+00  0.00000000000E+00 -0.18496363669E+04  0.18496363669E+04  0.50400001928E-02 0.  1.
    10030    2    1    2    0    0  0.00000000000E+00  0.00000000000E+00  0.28728078731E+03  0.39865535211E+04  0.39761889701E+04 0.  0.
        3    1    3    3  502    0 -0.75837637935E+01 -0.17250358867E+04 -0.84722382116E+03  0.19218726642E+04  0.10100000352E+00 0.  1.
       -3    1    3    3    0  502  0.75837637935E+01  0.17250358867E+04  0.11345046085E+04  0.20646808569E+04  0.10100000352E+00 0. -1.
</event>
<event>
 5   0  0.8528625E-08  0.3956114E+04  0.7818609E-02  0.8013459E-01
        1   -1    0    0  501    0  0.00000000000E+00  0.00000000000E+00  0.18306814841E+04  0.18306814841E+04  0.50400001928E-02 0. -1.
       -1   -1    0    0    0  501  0.00000000000E+00  0.00000000000E+00 -0.21372967683E+04  0.21372967683E+04  0.50400001928E-02 0.  1.
    10030    2    1    2    0    0  0.00000000000E+00  0.00000000000E+00 -0.30661528422E+03  0.39679782524E+04  0.39561140629E+04 0.  0.
        2    1    3    3  502    0 -0.17183206274E+04 -0.68799782069E+03 -0.85306949627E+03  0.20380614185E+04  0.25500000920E-02 0.  1.
       -2    1    3    3    0  502  0.17183206274E+04  0.68799782069E+03  0.54645421204E+03  0.19299168339E+04  0.25500000920E-02 0. -1.
</event>
<event>
 5   0  0.8528625E-08  0.3984704E+04  0.7818609E-02  0.8007639E-01
        1   -1    0    0  501    0  0.00000000000E+00  0.00000000000E+00  0.13471122716E+04  0.13471122716E+04  0.50400001928E-02 0.  1.
       -1   -1    0    0    0  501  0.00000000000E+00  0.00000000000E+00 -0.29466479993E+04  0.29466479993E+04  0.50400001928E-02 0. -1.
    10030    2    1    2    0    0  0.00000000000E+00  0.00000000000E+00 -0.15995357277E+04  0.42937602709E+04  0.39847035924E+04 0.  0.
        4    1    3    3  502    0  0.53974294919E+03 -0.58311756921E+03 -0.27685263932E+04  0.28802931367E+04  0.12699999809E+01 0. -1.
       -4    1    3    3    0  502 -0.53974294919E+03  0.58311756921E+03  0.11689906654E+04  0.14134671342E+04  0.12699999809E+01 0.  1.
</event>
<event>
 5   0  0.8528625E-08  0.4017461E+04  0.7818609E-02  0.8001033E-01
        1   -1    0    0  501    0  0.00000000000E+00  0.00000000000E+00  0.20234129697E+04  0.20234129697E+04  0.50400001928E-02 0. -1.
       -1   -1    0    0    0  501  0.00000000000E+00  0.00000000000E+00 -0.19941543496E+04  0.19941543496E+04  0.50400001928E-02 0.  1.
    10030    2    1    2    0    0  0.00000000000E+00  0.00000000000E+00  0.29258620064E+02  0.40175673194E+04  0.40174607775E+04 0.  0.
        4    1    3    3  502    0  0.67200924299E+03 -0.14916892986E+04 -0.11508469093E+04  0.20002958801E+04  0.12699999809E+01 0.  1.
       -4    1    3    3    0  502 -0.67200924299E+03  0.14916892986E+04  0.11801055294E+04  0.20172714393E+04  0.12699999809E+01 0. -1.
</event>
<event>
 5   0  0.8583262E-08  0.3940623E+04  0.7818609E-02  0.8016633E-01
        1   -1    0    0  501    0  0.00000000000E+00  0.00000000000E+00  0.19567691821E+04  0.19567691822E+04  0.50400001928E-02 0. -1.
       -1   -1    0    0    0  501  0.00000000000E+00  0.00000000000E+00 -0.19839478064E+04  0.19839478064E+04  0.50400001928E-02 0.  1.
    10030    2    1    2    0    0  0.00000000000E+00  0.00000000000E+00 -0.27178624213E+02  0.39407169885E+04  0.39406232636E+04 0.  0.
        1    1    3    3  502    0 -0.17640462061E+04 -0.29882689721E+03  0.81164022439E+03  0.19646669910E+04  0.50400001928E-02 0. -1.
       -1    1    3    3    0  502  0.17640462061E+04  0.29882689721E+03 -0.83881884861E+03  0.19760499975E+04  0.50400001928E-02 0.  1.
</event>
<event>
 5   0  0.8528625E-08  0.3393317E+04  0.7818609E-02  0.8139548E-01
       -1   -1    0    0    0  501  0.00000000000E+00  0.00000000000E+00  0.12891160469E+04  0.12891160470E+04  0.50400001928E-02 0. -1.
        1   -1    0    0  501    0  0.00000000000E+00  0.00000000000E+00 -0.22330424530E+04  0.22330424530E+04  0.50400001928E-02 0.  1.
    10030    2    1    2    0    0  0.00000000000E+00  0.00000000000E+00 -0.94392640607E+03  0.35221585000E+04  0.33933174680E+04 0.  0.
        3    1    3    3  502    0 -0.10537366605E+04  0.74624552502E+03 -0.16143930342E+04  0.20672465292E+04  0.10100000352E+00 0.  1.
       -3    1    3    3    0  502  0.10537366605E+04 -0.74624552502E+03  0.67046662815E+03  0.14549119708E+04  0.10100000352E+00 0. -1.
</event>
<event>
 5   0  0.8528625E-08  0.3941638E+04  0.7818609E-02  0.8016425E-01
        1   -1    0    0  501    0  0.00000000000E+00  0.00000000000E+00  0.29105866594E+04  0.29105866594E+04  0.50400001928E-02 0. -1.
       -1   -1    0    0    0  501  0.00000000000E+00  0.00000000000E+00 -0.13344826407E+04  0.13344826407E+04  0.50400001928E-02 0.  1.
    10030    2    1    2    0    0  0.00000000000E+00  0.00000000000E+00  0.15761040187E+04  0.42450693001E+04  0.39416379191E+04 0.  0.
        4    1    3    3  502    0 -0.12894041384E+04  0.14904891069E+04  0.79044777455E+03  0.21234241468E+04  0.12699999809E+01 0.  1.
       -4    1    3    3    0  502  0.12894041384E+04 -0.14904891069E+04  0.78565624411E+03  0.21216451533E+04  0.12699999809E+01 0. -1.
</event>
<event>
 5   0  0.2839279E-07  0.4197799E+04  0.7818609E-02  0.7965791E-01
        2   -1    0    0  501    0  0.00000000000E+00  0.00000000000E+00  0.17142104049E+04  0.17142104049E+04  0.25500000920E-02 0. -1.
       -2   -1    0    0    0  501  0.00000000000E+00  0.00000000000E+00 -0.25699173138E+04  0.25699173138E+04  0.25500000920E-02 0.  1.
    10030    2    1    2    0    0  0.00000000000E+00  0.00000000000E+00 -0.85570690898E+03  0.42841277187E+04  0.41977989466E+04 0.  0.
        3    1    3    3  502    0 -0.11648050694E+04  0.17459788000E+04 -0.41469770141E+03  0.21394361438E+04  0.10100000352E+00 0.  1.
       -3    1    3    3    0  502  0.11648050694E+04 -0.17459788000E+04 -0.44100920757E+03  0.21446915748E+04  0.10100000352E+00 0. -1.
</event>
<event>
 5   0  0.8528625E-08  0.4019707E+04  0.7818609E-02  0.8000583E-01
       -1   -1    0    0    0  501  0.00000000000E+00  0.00000000000E+00  0.18500829417E+04  0.18500829417E+04  0.50400001928E-02 0.  1.
        1   -1    0    0  501    0  0.00000000000E+00  0.00000000000E+00 -0.21834220979E+04  0.21834220979E+04  0.50400001928E-02 0. -1.
    10030    2    1    2    0    0  0.00000000000E+00  0.00000000000E+00 -0.33333915625E+03  0.40335050396E+04  0.40197074410E+04 0.  0.
        2    1    3    3  502    0  0.14090495378E+04 -0.55449365438E+03  0.11594674077E+04  0.19071571729E+04  0.25500000920E-02 0. -1.
       -2    1    3    3    0  502 -0.14090495378E+04  0.55449365438E+03 -0.14928065639E+04  0.21263478667E+04  0.25500000920E-02 0.  1.
</event>
<event>
 5   0  0.8528625E-08  0.3959421E+04  0.7818609E-02  0.8012783E-01
        1   -1    0    0  501    0  0.00000000000E+00  0.00000000000E+00  0.19795474303E+04  0.19795474303E+04  0.50400001928E-02 0.  1.
       -1   -1    0    0    0  501  0.00000000000E+00  0.00000000000E+00 -0.19798733409E+04  0.19798733409E+04  0.50400001928E-02 0. -1.
    10030    2    1    2    0    0  0.00000000000E+00  0.00000000000E+00 -0.32591055755E+00  0.39594207712E+04  0.39594207578E+04 0.  0.
        3    1    3    3  502    0 -0.17281510892E+04  0.95884480953E+03  0.11543816136E+03  0.19797008702E+04  0.10100000352E+00 0. -1.
       -3    1    3    3    0  502  0.17281510892E+04 -0.95884480953E+03 -0.11576407191E+03  0.19797199010E+04  0.10100000352E+00 0.  1.
</event>
<event>
 5   0  0.8528625E-08  0.4028844E+04  0.7818609E-02  0.7998753E-01
        1   -1    0    0  501    0  0.00000000000E+00  0.00000000000E+00  0.15247460656E+04  0.15247460656E+04  0.50400001928E-02 0. -1.
       -1   -1    0    0    0  501  0.00000000000E+00  0.00000000000E+00 -0.26613587071E+04  0.26613587071E+04  0.50400001928E-02 0.  1.
    10030    2    1    2    0    0  0.00000000000E+00  0.00000000000E+00 -0.11366126416E+04  0.41861047727E+04  0.40288441111E+04 0.  0.
        2    1    3    3  502    0 -0.98645780136E+03  0.11885030009E+04  0.77532850234E+03  0.17282281862E+04  0.25500000920E-02 0. -1.
       -2    1    3    3    0  502  0.98645780136E+03 -0.11885030009E+04 -0.19119411439E+04  0.24578765865E+04  0.25500000920E-02 0.  1.
</event>
<event>
 5   0  0.2661693E-07  0.3999885E+04  0.7818609E-02  0.8004570E-01
       -2   -1    0    0    0  501  0.00000000000E+00  0.00000000000E+00  0.15905129482E+04  0.15905129482E+04  0.25500000920E-02 0. -1.
        2   -1    0    0  501    0  0.00000000000E+00  0.00000000000E+00 -0.25147669784E+04  0.25147669784E+04  0.25500000920E-02 0.  1.
    10030    2    1    2    0    0  0.00000000000E+00  0.00000000000E+00 -0.92425403020E+03  0.41052799267E+04  0.39998847188E+04 0.  0.
        1    1    3    3  502    0 -0.86853077017E+03 -0.17949684302E+04 -0.61950384595E+03  0.20880714498E+04  0.50400001928E-02 0. -1.
       -1    1    3    3    0  502  0.86853077017E+03  0.17949684302E+04 -0.30475018425E+03  0.20172084769E+04  0.50400001928E-02 0.  1.
</event>
<event>
 5   0  0.8583262E-08  0.3949435E+04  0.7818609E-02  0.8014826E-01
        1   -1    0    0  501    0  0.00000000000E+00  0.00000000000E+00  0.24398845325E+04  0.24398845325E+04  0.50400001928E-02 0.  1.
       -1   -1    0    0    0  501  0.00000000000E+00  0.00000000000E+00 -0.15982350077E+04  0.15982350077E+04  0.50400001928E-02 0. -1.
    10030    2    1    2    0    0  0.00000000000E+00  0.00000000000E+00  0.84164952480E+03  0.40381195402E+04  0.39494348328E+04 0.  0.
        1    1    3    3  502    0  0.11374423506E+02 -0.43659916082E+03  0.23898832820E+04  0.24294629666E+04  0.50400001928E-02 0.  1.
       -1    1    3    3    0  502 -0.11374423506E+02  0.43659916082E+03 -0.15482337572E+04  0.16086565736E+04  0.50400001928E-02 0. -1.
</event>
<event>
 5   0  0.2730801E-07  0.4199896E+04  0.7818609E-02  0.7965392E-01
       -2   -1    0    0    0  501  0.00000000000E+00  0.00000000000E+00  0.15145745999E+04  0.15145745999E+04  0.25500000920E-02 0. -1.
        2   -1    0    0  501    0  0.00000000000E+00  0.00000000000E+00 -0.29115651650E+04  0.29115651650E+04  0.25500000920E-02 0.  1.
    10030    2    1    2    0    0  0.00000000000E+00  0.00000000000E+00 -0.13969905651E+04  0.44261397649E+04  0.41998964962E+04 0.  0.
        2    1    3    3  502    0  0.20293700968E+04 -0.37385320659E+03 -0.11089273613E+04  0.23426115987E+04  0.25500000920E-02 0. -1.
       -2    1    3    3    0  502 -0.20293700968E+04  0.37385320659E+03 -0.28806320373E+03  0.20835281661E+04  0.25500000920E-02 0.  1.
</event>
<event>
 5   0  0.8583262E-08  0.4004619E+04  0.7818609E-02  0.8003615E-01
       -1   -1    0    0    0  501  0.00000000000E+00  0.00000000000E+00  0.24865704738E+04  0.24865704738E+04  0.50400001928E-02 0. -1.
        1   -1    0    0  501    0  0.00000000000E+00  0.00000000000E+00 -0.16123587459E+04  0.16123587459E+04  0.50400001928E-02 0.  1.
    10030    2    1    2    0    0  0.00000000000E+00  0.00000000000E+00  0.87421172793E+03  0.40989292197E+04  0.40046191583E+04 0.  0.
        1    1    3    3  502    0 -0.65720947302E+03 -0.63260696649E+02  0.23719456001E+04  0.24621235015E+04  0.50400001928E-02 0. -1.
       -1    1    3    3    0  502  0.65720947302E+03  0.63260696649E+02 -0.14977338721E+04  0.16368057181E+04  0.50400001928E-02 0.  1.
</event>
<event>
 5   0  0.8528625E-08  0.4019133E+04  0.7818609E-02  0.8000698E-01
        1   -1    0    0  501    0  0.00000000000E+00  0.00000000000E+00  0.25175098368E+04  0.25175098368E+04  0.50400001928E-02 0.  1.
       -1   -1    0    0    0  501  0.00000000000E+00  0.00000000000E+00 -0.16041079055E+04  0.16041079056E+04  0.50400001928E-02 0. -1.
    10030    2    1    2    0    0  0.00000000000E+00  0.00000000000E+00  0.91340193130E+03  0.41216177424E+04  0.40191329570E+04 0.  0.
        3    1    3    3  502    0 -0.23109892741E+03  0.57665525869E+03  0.24165637181E+04  0.24951389171E+04  0.10100000352E+00 0.  1.
       -3    1    3    3    0  502  0.23109892741E+03 -0.57665525869E+03 -0.15031617868E+04  0.16264788253E+04  0.10100000352E+00 0. -1.
</event>
<event>
 5   0  0.2839279E-07  0.3564230E+04  0.7818609E-02  0.8098735E-01
        2   -1    0    0  501    0  0.00000000000E+00  0.00000000000E+00  0.14736368420E+04  0.14736368420E+04  0.25500000920E-02 0.  1.
       -2   -1    0    0    0  501  0.00000000000E+00  0.00000000000E+00 -0.21551672214E+04  0.21551672214E+04  0.25500000920E-02 0. -1.
    10030    2    1    2    0    0  0.00000000000E+00  0.00000000000E+00 -0.68153037939E+03  0.36288040634E+04  0.35642299691E+04 0.  0.
        3    1    3    3  502    0  0.12827130926E+03 -0.25454012173E+03 -0.21318095798E+04  0.21507803925E+04  0.10100000352E+00 0. -1.
       -3    1    3    3    0  502 -0.12827130926E+03  0.25454012173E+03  0.14502792004E+04  0.14780236709E+04  0.10100000352E+00 0.  1.
</event>
<event>
 5   0  0.2666978E-07  0.3991316E+04  0.7818609E-02  0.8006301E-01
       -2   -1    0    0    0  501  0.00000000000E+00  0.00000000000E+00  0.26023367748E+04  0.26023367748E+04  0.25500000920E-02 0. -1.
        2   -1    0    0  501    0  0.00000000000E+00  0.00000000000E+00 -0.15304131797E+04  0.15304131797E+04  0.25500000920E-02 0.  1.
    10030    2    1    2    0    0  0.00000000000E+00  0.00000000000E+00  0.10719235951E+04  0.41327499545E+04  0.39913158222E+04 0.  0.
        4    1    3    3  502    0 -0.18886048868E+04  0.47420360092E+03  0.83497336649E+02  0.19490179300E+04  0.12699999809E+01 0.  1.
       -4    1    3    3    0  502  0.18886048868E+04 -0.47420360092E+03  0.98842625844E+03  0.21837320245E+04  0.12699999809E+01 0. -1.
</event>
<event>
 5   0  0.8583262E-08  0.3978466E+04  0.7818609E-02  0.8008905E-01
       -1   -1    0    0    0  501  0.00000000000E+00  0.00000000000E+00  0.14837804946E+04  0.14837804946E+04  0.50400001928E-02 0. -1.
        1   -1    0    0  501    0  0.00000000000E+00  0.00000000000E+00 -0.26668693529E+04  0.26668693529E+04  0.50400001928E-02 0.  1.
    10030    2    1    2    0    0  0.00000000000E+00  0.00000000000E+00 -0.11830888583E+04  0.41506498475E+04  0.39784664018E+04 0.  0.
        1    1    3    3  502    0  0.10751539675E+03 -0.53640566162E+02 -0.26630800926E+04  0.26657892734E+04  0.50400001928E-02 0.  1.
       -1    1    3    3    0  502 -0.10751539675E+03  0.53640566162E+02  0.14799912343E+04  0.14848605741E+04  0.50400001928E-02 0. -1.
</event>
<event>
 5   0  0.8528625E-08  0.3831763E+04  0.7818609E-02  0.8039373E-01
       -1   -1    0    0    0  501  0.00000000000E+00  0.00000000000E+00  0.19839411352E+04  0.19839411352E+04  0.50400001928E-02 0.  1.
        1   -1    0    0  501    0  0.00000000000E+00  0.00000000000E+00 -0.18501567959E+04  0.18501567959E+04  0.50400001928E-02 0. -1.
    10030    2    1    2    0    0  0.00000000000E+00  0.00000000000E+00  0.13378433928E+03  0.38340979311E+04  0.38317631315E+04 0.  0.
        5    1    3    3  502    0  0.12617553981E+04 -0.14102176410E+04  0.36680735979E+03  0.19275139970E+04  0.46999998093E+01 0.  1.
       -5    1    3    3    0  502 -0.12617553981E+04  0.14102176410E+04 -0.23302302051E+03  0.19065839341E+04  0.46999998093E+01 0. -1.
</event>
<event>
 5   0  0.2839279E-07  0.4088099E+04  0.7818609E-02  0.7987006E-01
        2   -1    0    0  501    0  0.00000000000E+00  0.00000000000E+00  0.20745721469E+04  0.20745721469E+04  0.25500000920E-02 0.  1.
       -2   -1    0    0    0  501  0.00000000000E+00  0.00000000000E+00 -0.20139762226E+04  0.20139762226E+04  0.25500000920E-02 0. -1.
    10030    2    1    2    0    0  0.00000000000E+00  0.00000000000E+00  0.60595924235E+02  0.40885483695E+04  0.40880993021E+04 0.  0.
        3    1    3    3  502    0 -0.55591792306E+03  0.38440618184E+03  0.19595837671E+04  0.20728679168E+04  0.10100000352E+00 0.  1.
       -3    1    3    3    0  502  0.55591792306E+03 -0.38440618184E+03 -0.18989878429E+04  0.20156804527E+04  0.10100000352E+00 0. -1.
</event>
<event>
 5   0  0.8528625E-08  0.3047938E+04  0.7818609E-02  0.8230173E-01
        1   -1    0    0  501    0  0.00000000000E+00  0.00000000000E+00  0.73494190647E+03  0.73494190649E+03  0.50400001928E-02 0.  1.
       -1   -1    0    0    0  501  0.00000000000E+00  0.00000000000E+00 -0.31600891150E+04  0.31600891150E+04  0.50400001928E-02 0. -1.
    10030    2    1    2    0    0  0.00000000000E+00  0.00000000000E+00 -0.24251472085E+04  0.38950310215E+04  0.30479382663E+04 0.  0.
        4    1    3    3  502    0 -0.53477861585E+03 -0.71870666803E+03  0.36293149945E+03  0.96656522223E+03  0.12699999809E+01 0.  1.
       -4    1    3    3    0  502  0.53477861585E+03  0.71870666803E+03 -0.27880787080E+04  0.29284657993E+04  0.12699999809E+01 0. -1.
</event>
<event>
 5   0  0.2839279E-07  0.3942898E+04  0.7818609E-02  0.8016166E-01
        2   -1    0    0  501    0  0.00000000000E+00  0.00000000000E+00  0.11991460374E+04  0.11991460374E+04  0.25500000920E-02 0. -1.
       -2   -1    0    0    0  501  0.00000000000E+00  0.00000000000E+00 -0.32411498338E+04  0.32411498338E+04  0.25500000920E-02 0.  1.
    10030    2    1    2    0    0  0.00000000000E+00  0.00000000000E+00 -0.20420037964E+04  0.44402958712E+04  0.39428984161E+04 0.  0.
        3    1    3    3  502    0  0.11623392718E+03  0.18720018191E+04 -0.17048179172E+04  0.25346213282E+04  0.10100000352E+00 0.  1.
       -3    1    3    3    0  502 -0.11623392718E+03 -0.18720018191E+04 -0.33718587920E+03  0.19056745430E+04  0.10100000352E+00 0. -1.
</event>
<event>
 5   0  0.8528625E-08  0.4010454E+04  0.7818609E-02  0.8002441E-01
        3   -1    0    0  501    0  0.00000000000E+00  0.00000000000E+00  0.15666279958E+04  0.15666279990E+04  0.10100000352E+00 0.  1.
       -3   -1    0    0    0  501  0.00000000000E+00  0.00000000000E+00 -0.25666180407E+04  0.25666180427E+04  0.10100000352E+00 0. -1.
    10030    2    1    2    0    0  0.00000000000E+00  0.00000000000E+00 -0.99999004493E+03  0.41332460417E+04  0.40104541827E+04 0.  0.
        5    1    3    3  502    0  0.57905069017E+03  0.16374695515E+04  0.53284015923E+03  0.18167407517E+04  0.46999998093E+01 0.  1.
       -5    1    3    3    0  502 -0.57905069017E+03 -0.16374695515E+04 -0.15328302042E+04  0.23165052900E+04  0.46999998093E+01 0. -1.
</event>
<event>
 5   0  0.8528625E-08  0.3929521E+04  0.7818609E-02  0.8018917E-01
       -1   -1    0    0    0  501  0.00000000000E+00  0.00000000000E+00  0.20954682097E+04  0.20954682097E+04  0.50400001928E-02 0. -1.
        1   -1    0    0  501    0  0.00000000000E+00  0.00000000000E+00 -0.18422062617E+04  0.18422062617E+04  0.50400001928E-02 0.  1.
    10030    2    1    2    0    0  0.00000000000E+00  0.00000000000E+00  0.25326194805E+03  0.39376744714E+04  0.39295214249E+04 0.  0.
        2    1    3    3  502    0 -0.11423645847E+04 -0.21161639744E+03  0.17143761721E+04  0.20709572674E+04  0.25500000920E-02 0. -1.
       -2    1    3    3    0  502  0.11423645847E+04  0.21161639744E+03 -0.14611142241E+04  0.18667172040E+04  0.25500000920E-02 0.  1.
</event>
<event>
 5   0  0.2704088E-07  0.3931359E+04  0.7818609E-02  0.8018539E-01
        2   -1    0    0  501    0  0.00000000000E+00  0.00000000000E+00  0.19773244997E+04  0.19773244997E+04  0.25500000920E-02 0.  1.
       -2   -1    0    0    0  501  0.00000000000E+00  0.00000000000E+00 -0.19541026551E+04  0.19541026551E+04  0.25500000920E-02 0. -1.
    10030    2    1    2    0    0  0.00000000000E+00  0.00000000000E+00  0.23221844636E+02  0.39314271548E+04  0.39313585718E+04 0.  0.
        5    1    3    3  502    0 -0.89663487388E+03 -0.11098658906E+04 -0.13404912768E+04  0.19577270865E+04  0.46999998093E+01 0. -1.
       -5    1    3    3    0  502  0.89663487388E+03  0.11098658906E+04  0.13637131214E+04  0.19737000683E+04  0.46999998093E+01 0.  1.
</event>
<event>
 5   0  0.8583262E-08  0.4068374E+04  0.7818609E-02  0.7990894E-01
       -1   -1    0    0    0  501  0.00000000000E+00  0.00000000000E+00  0.13756461184E+04  0.13756461184E+04  0.50400001928E-02 0.  1.
        1   -1    0    0  501    0  0.00000000000E+00  0.00000000000E+00 -0.30079800489E+04  0.30079800489E+04  0.50400001928E-02 0. -1.
    10030    2    1    2    0    0  0.00000000000E+00  0.00000000000E+00 -0.16323339305E+04  0.43836261673E+04  0.40683736694E+04 0.  0.
        1    1    3    3  502    0 -0.10583953532E+04  0.54282252064E+03  0.96187172368E+03  0.15297235781E+04  0.50400001928E-02 0.  1.
       -1    1    3    3    0  502  0.10583953532E+04 -0.54282252064E+03 -0.25942056542E+04  0.28539025892E+04  0.50400001928E-02 0. -1.
</event>
<event>
 5   0  0.8583262E-08  0.3963023E+04  0.7818609E-02  0.8012048E-01
        1   -1    0    0  501    0  0.00000000000E+00  0.00000000000E+00  0.15777122967E+04  0.15777122967E+04  0.50400001928E-02 0. -1.
       -1   -1    0    0    0  501  0.00000000000E+00  0.00000000000E+00 -0.24886587750E+04  0.24886587750E+04  0.50400001928E-02 0.  1.
    10030    2    1    2    0    0  0.00000000000E+00  0.00000000000E+00 -0.91094647827E+03  0.40663710717E+04  0.39630228623E+04 0.  0.
        1    1    3    3  502    0  0.74813248133E+03  0.57772407096E+03  0.13314706845E+04  0.16328752235E+04  0.50400001928E-02 0. -1.
       -1    1    3    3    0  502 -0.74813248133E+03 -0.57772407096E+03 -0.22424171627E+04  0.24334958483E+04  0.50400001928E-02 0.  1.
</event>
<event>
 5   0  0.2839279E-07  0.3837569E+04  0.7818609E-02  0.8038140E-01
       -2   -1    0    0    0  501  0.00000000000E+00  0.00000000000E+00  0.15099500158E+04  0.15099500158E+04  0.25500000920E-02 0.  1.
        2   -1    0    0  501    0  0.00000000000E+00  0.00000000000E+00 -0.24383146017E+04  0.24383146017E+04  0.25500000920E-02 0. -1.
    10030    2    1    2    0    0  0.00000000000E+00  0.00000000000E+00 -0.92836458593E+03  0.39482646175E+04  0.38375685903E+04 0.  0.
        3    1    3    3  502    0  0.61795918985E+03  0.52195218545E+03 -0.22543216243E+04  0.23950519076E+04  0.10100000352E+00 0. -1.
       -3    1    3    3    0  502 -0.61795918985E+03 -0.52195218545E+03  0.13259570384E+04  0.15532127098E+04  0.10100000352E+00 0.  1.
</event>
<event>
 5   0  0.8528625E-08  0.3966057E+04  0.7818609E-02  0.8011429E-01
       -1   -1    0    0    0  501  0.00000000000E+00  0.00000000000E+00  0.17204806753E+04  0.17204806753E+04  0.50400001928E-02 0. -1.
        1   -1    0    0  501    0  0.00000000000E+00  0.00000000000E+00 -0.22856416839E+04  0.22856416839E+04  0.50400001928E-02 0.  1.
    10030    2    1    2    0    0  0.00000000000E+00  0.00000000000E+00 -0.56516100862E+03  0.40061223592E+04  0.39660571594E+04 0.  0.
        4    1    3    3  502    0 -0.14079676163E+04 -0.12662726740E+03 -0.16873101293E+04  0.22012324636E+04  0.12699999809E+01 0.  1.
       -4    1    3    3    0  502  0.14079676163E+04  0.12662726740E+03  0.11221491207E+04  0.18048898956E+04  0.12699999809E+01 0. -1.
</event>
<event>
 5   0  0.8583262E-08  0.4046115E+04  0.7818609E-02  0.7995308E-01
       -1   -1    0    0    0  501  0.00000000000E+00  0.00000000000E+00  0.22332172783E+04  0.22332172783E+04  0.50400001928E-02 0.  1.
        1   -1    0    0  501    0  0.00000000000E+00  0.00000000000E+00 -0.18326750923E+04  0.18326750923E+04  0.50400001928E-02 0. -1.
    10030    2    1    2    0    0  0.00000000000E+00  0.00000000000E+00  0.40054218594E+03  0.40658923706E+04  0.40461150165E+04 0.  0.
        1    1    3    3  502    0  0.10232075263E+04  0.80053055118E+03  0.17586443306E+04  0.21864657983E+04  0.50400001928E-02 0.  1.
       -1    1    3    3    0  502 -0.10232075263E+04 -0.80053055118E+03 -0.13581021447E+04  0.18794265723E+04  0.50400001928E-02 0. -1.
</event>
<event>
 5   0  0.2704088E-07  0.3959827E+04  0.7818609E-02  0.8012700E-01
       -2   -1    0    0    0  501  0.00000000000E+00  0.00000000000E+00  0.21215537762E+04  0.21215537762E+04  0.25500000920E-02 0.  1.
        2   -1    0    0  501    0  0.00000000000E+00  0.00000000000E+00 -0.18477295227E+04  0.18477295227E+04  0.25500000920E-02 0. -1.
    10030    2    1    2    0    0  0.00000000000E+00  0.00000000000E+00  0.27382425353E+03  0.39692832989E+04  0.39598270398E+04 0.  0.
        5    1    3    3  502    0 -0.33041323684E+03 -0.10670247805E+04 -0.15017150943E+04  0.18715996109E+04  0.46999998093E+01 0. -1.
       -5    1    3    3    0  502  0.33041323684E+03  0.10670247805E+04  0.17755393478E+04  0.20976836880E+04  0.46999998093E+01 0.  1.
</event>
<event>
 5   0  0.8528625E-08  0.4121292E+04  0.7818609E-02  0.7980515E-01
       -1   -1    0    0    0  501  0.00000000000E+00  0.00000000000E+00  0.17722796623E+04  0.17722796623E+04  0.50400001928E-02 0.  1.
        1   -1    0    0  501    0  0.00000000000E+00  0.00000000000E+00 -0.23959322937E+04  0.23959322937E+04  0.50400001928E-02 0. -1.
    10030    2    1    2    0    0  0.00000000000E+00  0.00000000000E+00 -0.62365263144E+03  0.41682119560E+04  0.41212920675E+04 0.  0.
        5    1    3    3  502    0  0.76039164060E+03  0.15018995489E+04 -0.15137762628E+04  0.22639431013E+04  0.46999998093E+01 0. -1.
       -5    1    3    3    0  502 -0.76039164060E+03 -0.15018995489E+04  0.89012363139E+03  0.19042688547E+04  0.46999998093E+01 0.  1.
</event>
<event>
 5   0  0.2839279E-07  0.3224993E+04  0.7818609E-02  0.8182248E-01
        2   -1    0    0  501    0  0.00000000000E+00  0.00000000000E+00  0.27829206027E+04  0.27829206027E+04  0.25500000920E-02 0. -1.
       -2   -1    0    0    0  501  0.00000000000E+00  0.00000000000E+00 -0.93432251749E+03  0.93432251750E+03  0.25500000920E-02 0.  1.
    10030    2    1    2    0    0  0.00000000000E+00  0.00000000000E+00  0.18485980852E+04  0.37172431202E+04  0.32249932611E+04 0.  0.
        3    1    3    3  502    0  0.49929297604E+03 -0.10727452335E+04 -0.33838695691E+03  0.12306833690E+04  0.10100000352E+00 0.  1.
       -3    1    3    3    0  502 -0.49929297604E+03  0.10727452335E+04  0.21869850421E+04  0.24865597512E+04  0.10100000352E+00 0. -1.
</event>
<event>
 5   0  0.8528625E-08  0.3960289E+04  0.7818609E-02  0.8012606E-01
       -1   -1    0    0    0  501  0.00000000000E+00  0.00000000000E+00  0.13616949426E+04  0.13616949426E+04  0.50400001928E-02 0.  1.
        1   -1    0    0  501    0  0.00000000000E+00  0.00000000000E+00 -0.28794785528E+04  0.28794785528E+04  0.50400001928E-02 0. -1.
    10030    2    1    2    0    0  0.00000000000E+00  0.00000000000E+00 -0.15177836103E+04  0.42411734954E+04  0.39602885666E+04 0.  0.
        2    1    3    3  502    0  0.61285403346E+03 -0.16876788356E+04  0.13526448107E+03  0.18005961230E+04  0.25500000920E-02 0.  1.
       -2    1    3    3    0  502 -0.61285403346E+03  0.16876788356E+04 -0.16530480913E+04  0.24405773724E+04  0.25500000920E-02 0. -1.
</event>
<event>
 5   0  0.8528625E-08  0.3016158E+04  0.7818609E-02  0.8239132E-01
        1   -1    0    0  501    0  0.00000000000E+00  0.00000000000E+00  0.22958278046E+04  0.22958278046E+04  0.50400001928E-02 0. -1.
       -1   -1    0    0    0  501  0.00000000000E+00  0.00000000000E+00 -0.99062383318E+03  0.99062383319E+03  0.50400001928E-02 0.  1.
    10030    2    1    2    0    0  0.00000000000E+00  0.00000000000E+00  0.13052039714E+04  0.32864516378E+04  0.30161576485E+04 0.  0.
        4    1    3    3  502    0  0.79538026183E+03 -0.68191864779E+03 -0.52934557710E+03  0.11738190474E+04  0.12699999809E+01 0.  1.
       -4    1    3    3    0  502 -0.79538026183E+03  0.68191864779E+03  0.18345495485E+04  0.21126325904E+04  0.12699999809E+01 0. -1.
</event>
<event>
 5   0  0.8583262E-08  0.4034837E+04  0.7818609E-02  0.7997556E-01
        1   -1    0    0  501    0  0.00000000000E+00  0.00000000000E+00  0.29113289156E+04  0.29113289156E+04  0.50400001928E-02 0. -1.
       -1   -1    0    0    0  501  0.00000000000E+00  0.00000000000E+00 -0.13979790957E+04  0.13979790957E+04  0.50400001928E-02 0.  1.
    10030    2    1    2    0    0  0.00000000000E+00  0.00000000000E+00  0.15133498198E+04  0.43093080113E+04  0.40348367822E+04 0.  0.
        1    1    3    3  502    0 -0.11958266617E+04 -0.55322155663E+03  0.23883161925E+04  0.27276564539E+04  0.50400001928E-02 0. -1.
       -1    1    3    3    0  502  0.11958266617E+04  0.55322155663E+03 -0.87496637263E+03  0.15816515573E+04  0.50400001928E-02 0.  1.
</event>
<event>
 5   0  0.8528625E-08  0.3982823E+04  0.7818609E-02  0.8008021E-01
        1   -1    0    0  501    0  0.00000000000E+00  0.00000000000E+00  0.19590578358E+04  0.19590578358E+04  0.50400001928E-02 0.  1.
       -1   -1    0    0    0  501  0.00000000000E+00  0.00000000000E+00 -0.20242997271E+04  0.20242997271E+04  0.50400001928E-02 0. -1.
    10030    2    1    2    0    0  0.00000000000E+00  0.00000000000E+00 -0.65241891310E+02  0.39833575629E+04  0.39828232411E+04 0.  0.
        4    1    3    3  502    0  0.28713601448E+03  0.15095234279E+04  0.12342812314E+04  0.19709286748E+04  0.12699999809E+01 0.  1.
       -4    1    3    3    0  502 -0.28713601448E+03 -0.15095234279E+04 -0.12995231227E+04  0.20124288881E+04  0.12699999809E+01 0. -1.
</event>
<event>
 5   0  0.2730801E-07  0.3923434E+04  0.7818609E-02  0.8020173E-01
        2   -1    0    0  501    0  0.00000000000E+00  0.00000000000E+00  0.19154336113E+04  0.19154336113E+04  0.25500000920E-02 0. -1.
       -2   -1    0    0    0  501  0.00000000000E+00  0.00000000000E+00 -0.20091184827E+04  0.20091184827E+04  0.25500000920E-02 0.  1.
    10030    2    1    2    0    0  0.00000000000E+00  0.00000000000E+00 -0.93684871397E+02  0.39245520940E+04  0.39234337363E+04 0.  0.
        2    1    3    3  502    0 -0.13240042093E+04  0.10988419967E+04  0.89570647158E+03  0.19397760085E+04  0.25500000920E-02 0. -1.
       -2    1    3    3    0  502  0.13240042093E+04 -0.10988419967E+04 -0.98939134298E+03  0.19847760855E+04  0.25500000920E-02 0.  1.
</event>
<event>
 5   0  0.2661693E-07  0.3999829E+04  0.7818609E-02  0.8004581E-01
        2   -1    0    0  501    0  0.00000000000E+00  0.00000000000E+00  0.18311757334E+04  0.18311757334E+04  0.25500000920E-02 0.  1.
       -2   -1    0    0    0  501  0.00000000000E+00  0.00000000000E+00 -0.21842019343E+04  0.21842019343E+04  0.25500000920E-02 0. -1.
    10030    2    1    2    0    0  0.00000000000E+00  0.00000000000E+00 -0.35302620086E+03  0.40153776677E+04  0.39998287858E+04 0.  0.
        1    1    3    3  502    0 -0.21326009508E+03  0.19687211044E+04  0.10442281427E+03  0.19829893543E+04  0.50400001928E-02 0. -1.
       -1    1    3    3    0  502  0.21326009508E+03 -0.19687211044E+04 -0.45744901514E+03  0.20323883134E+04  0.50400001928E-02 0.  1.
</event>
<event>
 5   0  0.2839279E-07  0.4106718E+04  0.7818609E-02  0.7983358E-01
       -2   -1    0    0    0  501  0.00000000000E+00  0.00000000000E+00  0.23458112946E+04  0.23458112946E+04  0.25500000920E-02 0.  1.
        2   -1    0    0  501    0  0.00000000000E+00  0.00000000000E+00 -0.17973665269E+04  0.17973665269E+04  0.25500000920E-02 0. -1.
    10030    2    1    2    0    0  0.00000000000E+00  0.00000000000E+00  0.54844476766E+03  0.41431778215E+04  0.41067177645E+04 0.  0.
        3    1    3    3  502    0 -0.13095635865E+04 -0.30352245787E+02  0.18695278921E+04  0.22827642444E+04  0.10100000352E+00 0.  1.
       -3    1    3    3    0  502  0.13095635865E+04  0.30352245787E+02 -0.13210831244E+04  0.18604135771E+04  0.10100000352E+00 0. -1.
</event>
<event>
 5   0  0.2661693E-07  0.4052962E+04  0.7818609E-02  0.7993947E-01
       -2   -1    0    0    0  501  0.00000000000E+00  0.00000000000E+00  0.23741245539E+04  0.23741245539E+04  0.25500000920E-02 0.  1.
        2   -1    0    0  501    0  0.00000000000E+00  0.00000000000E+00 -0.17297428070E+04  0.17297428070E+04  0.25500000920E-02 0. -1.
    10030    2    1    2    0    0  0.00000000000E+00  0.00000000000E+00  0.64438174690E+03  0.41038673610E+04  0.40529618159E+04 0.  0.
        1    1    3    3  502    0  0.17446097620E+04  0.95633715685E+02 -0.71725807647E+03  0.18887213076E+04  0.50400001928E-02 0.  1.
       -1    1    3    3    0  502 -0.17446097620E+04 -0.95633715685E+02  0.13616398234E+04  0.22151460534E+04  0.50400001928E-02 0. -1.
</event>
<event>
 5   0  0.2666978E-07  0.3893784E+04  0.7818609E-02  0.8026323E-01
       -2   -1    0    0    0  501  0.00000000000E+00  0.00000000000E+00  0.18050253582E+04  0.18050253582E+04  0.25500000920E-02 0.  1.
        2   -1    0    0  501    0  0.00000000000E+00  0.00000000000E+00 -0.20999090150E+04  0.20999090150E+04  0.25500000920E-02 0. -1.
    10030    2    1    2    0    0  0.00000000000E+00  0.00000000000E+00 -0.29488365678E+03  0.39049343731E+04  0.38937842888E+04 0.  0.
        4    1    3    3  502    0 -0.13662880780E+03 -0.18265751751E+04  0.51425291959E+03  0.19024988777E+04  0.12699999809E+01 0.  1.
       -4    1    3    3    0  502  0.13662880780E+03  0.18265751751E+04 -0.80913657637E+03  0.20024354955E+04  0.12699999809E+01 0. -1.
</event>
<event>
 5   0  0.8528625E-08  0.3928885E+04  0.7818609E-02  0.8019048E-01
        1   -1    0    0  501    0  0.00000000000E+00  0.00000000000E+00  0.14408785860E+04  0.14408785860E+04  0.50400001928E-02 0. -1.
       -1   -1    0    0    0  501  0.00000000000E+00  0.00000000000E+00 -0.26782512335E+04  0.26782512335E+04  0.50400001928E-02 0.  1.
    10030    2    1    2    0    0  0.00000000000E+00  0.00000000000E+00 -0.12373726475E+04  0.41191298195E+04  0.39288852620E+04 0.  0.
        3    1    3    3  502    0 -0.33264954465E+02  0.18919054881E+04 -0.65280450765E+02  0.18933236598E+04  0.10100000352E+00 0.  1.
       -3    1    3    3    0  502  0.33264954465E+02 -0.18919054881E+04 -0.11720921967E+04  0.22258061598E+04  0.10100000352E+00 0. -1.
</event>
<event>
 5   0  0.8583262E-08  0.4008218E+04  0.7818609E-02  0.8002891E-01
        1   -1    0    0  501    0  0.00000000000E+00  0.00000000000E+00  0.23780276386E+04  0.23780276386E+04  0.50400001928E-02 0.  1.
       -1   -1    0    0    0  501  0.00000000000E+00  0.00000000000E+00 -0.16889850637E+04  0.16889850637E+04  0.50400001928E-02 0. -1.
    10030    2    1    2    0    0  0.00000000000E+00  0.00000000000E+00  0.68904257493E+03  0.40670127023E+04  0.40082181391E+04 0.  0.
        1    1    3    3  502    0 -0.18027993136E+03  0.11317569626E+04  0.20127419950E+04  0.23161401111E+04  0.50400001928E-02 0.  1.
       -1    1    3    3    0  502  0.18027993136E+03 -0.11317569626E+04 -0.13236994200E+04  0.17508725912E+04  0.50400001928E-02 0. -1.
</event>
<event>
 5   0  0.8583262E-08  0.4129224E+04  0.7818609E-02  0.7978974E-01
        1   -1    0    0  501    0  0.00000000000E+00  0.00000000000E+00  0.17906448764E+04  0.17906448764E+04  0.50400001928E-02 0. -1.
       -1   -1    0    0    0  501  0.00000000000E+00  0.00000000000E+00 -0.23804957058E+04  0.23804957058E+04  0.50400001928E-02 0.  1.
    10030    2    1    2    0    0  0.00000000000E+00  0.00000000000E+00 -0.58985082942E+03  0.41711405822E+04  0.41292238684E+04 0.  0.
        1    1    3    3  502    0  0.14866280534E+03  0.71237667856E+03  0.16567958517E+04  0.18095727827E+04  0.50400001928E-02 0. -1.
       -1    1    3    3    0  502 -0.14866280534E+03 -0.71237667856E+03 -0.22466466811E+04  0.23615677995E+04  0.50400001928E-02 0.  1.
</event>
<event>
 5   0  0.8528625E-08  0.3999573E+04  0.7818609E-02  0.8004633E-01
       -1   -1    0    0    0  501  0.00000000000E+00  0.00000000000E+00  0.21939302282E+04  0.21939302282E+04  0.50400001928E-02 0.  1.
        1   -1    0    0  501    0  0.00000000000E+00  0.00000000000E+00 -0.18228231119E+04  0.18228231119E+04  0.50400001928E-02 0. -1.
    10030    2    1    2    0    0  0.00000000000E+00  0.00000000000E+00  0.37110711624E+03  0.40167533401E+04  0.39995733402E+04 0.  0.
        4    1    3    3  502    0 -0.18785625689E+04 -0.26505137536E+02 -0.50255028014E+03  0.19448028806E+04  0.12699999809E+01 0. -1.
       -4    1    3    3    0  502  0.18785625689E+04  0.26505137536E+02  0.87365739638E+03  0.20719504595E+04  0.12699999809E+01 0.  1.
</event>
<event>
 5   0  0.8528625E-08  0.3988052E+04  0.7818609E-02  0.8006961E-01
        1   -1    0    0  501    0  0.00000000000E+00  0.00000000000E+00  0.15872391345E+04  0.15872391345E+04  0.50400001928E-02 0. -1.
       -1   -1    0    0    0  501  0.00000000000E+00  0.00000000000E+00 -0.25050665689E+04  0.25050665689E+04  0.50400001928E-02 0.  1.
    10030    2    1    2    0    0  0.00000000000E+00  0.00000000000E+00 -0.91782743438E+03  0.40923057034E+04  0.39880520020E+04 0.  0.
        3    1    3    3  502    0 -0.74650339615E+03 -0.15656361105E+04  0.55049659644E+03  0.18197610458E+04  0.10100000352E+00 0. -1.
       -3    1    3    3    0  502  0.74650339615E+03  0.15656361105E+04 -0.14683240308E+04  0.22725446576E+04  0.10100000352E+00 0.  1.
</event>
<event>
 5   0  0.2666978E-07  0.4009646E+04  0.7818609E-02  0.8002604E-01
        2   -1    0    0  501    0  0.00000000000E+00  0.00000000000E+00  0.33012998516E+04  0.33012998516E+04  0.25500000920E-02 0. -1.
       -2   -1    0    0    0  501  0.00000000000E+00  0.00000000000E+00 -0.12174945022E+04  0.12174945022E+04  0.25500000920E-02 0.  1.
    10030    2    1    2    0    0  0.00000000000E+00  0.00000000000E+00  0.20838053495E+04  0.45187943538E+04  0.40096455800E+04 0.  0.
        4    1    3    3  502    0 -0.10709159622E+04  0.11280325986E+04  0.24674308458E+04  0.29167679259E+04  0.12699999809E+01 0. -1.
       -4    1    3    3    0  502  0.10709159622E+04 -0.11280325986E+04 -0.38362549635E+03  0.16020264280E+04  0.12699999809E+01 0.  1.
</event>
<event>
 5   0  0.8528625E-08  0.3941770E+04  0.7818609E-02  0.8016397E-01
        1   -1    0    0  501    0  0.00000000000E+00  0.00000000000E+00  0.12279288431E+04  0.12279288431E+04  0.50400001928E-02 0.  1.
       -1   -1    0    0    0  501  0.00000000000E+00  0.00000000000E+00 -0.31633659567E+04  0.31633659567E+04  0.50400001928E-02 0. -1.
    10030    2    1    2    0    0  0.00000000000E+00  0.00000000000E+00 -0.19354371136E+04  0.43912947998E+04  0.39417703127E+04 0.  0.
        2    1    3    3  502    0  0.87192260348E+03 -0.11138927411E+04  0.56115128497E+03  0.15218070935E+04  0.25500000920E-02 0.  1.
       -2    1    3    3    0  502 -0.87192260348E+03  0.11138927411E+04 -0.24965883986E+04  0.28694877064E+04  0.25500000920E-02 0. -1.
</event>
<event>
 5   0  0.8528625E-08  0.3623938E+04  0.7818609E-02  0.8085030E-01
       -1   -1    0    0    0  501  0.00000000000E+00  0.00000000000E+00  0.14396916512E+04  0.14396916512E+04  0.50400001928E-02 0. -1.
        1   -1    0    0  501    0  0.00000000000E+00  0.00000000000E+00 -0.22805101635E+04  0.22805101635E+04  0.50400001928E-02 0.  1.
    10030    2    1    2    0    0  0.00000000000E+00  0.00000000000E+00 -0.84081851239E+03  0.37202018147E+04  0.36239378818E+04 0.  0.
        3    1    3    3  502    0 -0.15602271668E+04 -0.85942451796E+03 -0.76136449514E+03  0.19371616398E+04  0.10100000352E+00 0.  1.
       -3    1    3    3    0  502  0.15602271668E+04  0.85942451796E+03 -0.79454017246E+02  0.17830401749E+04  0.10100000352E+00 0. -1.
</event>
<event>
 5   0  0.2704088E-07  0.4114026E+04  0.7818609E-02  0.7981931E-01
        2   -1    0    0  501    0  0.00000000000E+00  0.00000000000E+00  0.30266681505E+04  0.30266681505E+04  0.25500000920E-02 0. -1.
       -2   -1    0    0    0  501  0.00000000000E+00  0.00000000000E+00 -0.13980064863E+04  0.13980064863E+04  0.25500000920E-02 0.  1.
    10030    2    1    2    0    0  0.00000000000E+00  0.00000000000E+00  0.16286616641E+04  0.44246746368E+04  0.41140256228E+04 0.  0.
        5    1    3    3  502    0 -0.79174322650E+03  0.13703930653E+04  0.22274888867E+04  0.27325012938E+04  0.46999998093E+01 0. -1.
       -5    1    3    3    0  502  0.79174322650E+03 -0.13703930653E+04 -0.59882722262E+03  0.16921733430E+04  0.46999998093E+01 0.  1.
</event>
<event>
 5   0  0.8528625E-08  0.3853616E+04  0.7818609E-02  0.8034746E-01
       -1   -1    0    0    0  501  0.00000000000E+00  0.00000000000E+00  0.28170440859E+04  0.28170440859E+04  0.50400001928E-02 0. -1.
        1   -1    0    0  501    0  0.00000000000E+00  0.00000000000E+00 -0.13179024693E+04  0.13179024693E+04  0.50400001928E-02 0.  1.
    10030    2    1    2    0    0  0.00000000000E+00  0.00000000000E+00  0.14991416166E+04  0.41349465552E+04  0.38536161495E+04 0.  0.
        2    1    3    3  502    0 -0.35303896459E+03 -0.18916922937E+04  0.85389591962E+03  0.21052967691E+04  0.25500000920E-02 0. -1.
       -2    1    3    3    0  502  0.35303896459E+03  0.18916922937E+04  0.64524569697E+03  0.20296497860E+04  0.25500000920E-02 0.  1.
</event>
<event>
 5   0  0.8528625E-08  0.3331792E+04  0.7818609E-02  0.8154853E-01
        1   -1    0    0  501    0  0.00000000000E+00  0.00000000000E+00  0.23575186559E+04  0.23575186559E+04  0.50400001928E-02 0.  1.
       -1   -1    0    0    0  501  0.00000000000E+00  0.00000000000E+00 -0.11771738395E+04  0.11771738395E+04  0.50400001928E-02 0. -1.
    10030    2    1    2    0    0  0.00000000000E+00  0.00000000000E+00  0.11803448164E+04  0.35346924954E+04  0.33317918830E+04 0.  0.
        5    1    3    3  502    0 -0.19702155019E+02 -0.10182467550E+03 -0.11737384363E+04  0.11783210285E+04  0.46999998093E+01 0. -1.
       -5    1    3    3    0  502  0.19702155019E+02  0.10182467550E+03  0.23540832527E+04  0.23563714669E+04  0.46999998093E+01 0.  1.
</event>
<event>
 5   0  0.8528625E-08  0.4011672E+04  0.7818609E-02  0.8002196E-01
        1   -1    0    0  501    0  0.00000000000E+00  0.00000000000E+00  0.22682388531E+04  0.22682388531E+04  0.50400001928E-02 0.  1.
       -1   -1    0    0    0  501  0.00000000000E+00  0.00000000000E+00 -0.17737894720E+04  0.17737894720E+04  0.50400001928E-02 0. -1.
    10030    2    1    2    0    0  0.00000000000E+00  0.00000000000E+00  0.49444938107E+03  0.40420283251E+04  0.40116720692E+04 0.  0.
        5    1    3    3  502    0 -0.53397482057E+03  0.82488396162E+03 -0.15146621049E+04  0.18054877571E+04  0.46999998093E+01 0. -1.
       -5    1    3    3    0  502  0.53397482057E+03 -0.82488396162E+03  0.20091114860E+04  0.22365405680E+04  0.46999998093E+01 0.  1.
</event>
<event>
 5   0  0.2730801E-07  0.3996216E+04  0.7818609E-02  0.8005310E-01
       -2   -1    0    0    0  501  0.00000000000E+00  0.00000000000E+00  0.17446815544E+04  0.17446815544E+04  0.25500000920E-02 0.  1.
        2   -1    0    0  501    0  0.00000000000E+00  0.00000000000E+00 -0.22883465240E+04  0.22883465240E+04  0.25500000920E-02 0. -1.
    10030    2    1    2    0    0  0.00000000000E+00  0.00000000000E+00 -0.54366496962E+03  0.40330280784E+04  0.39962161956E+04 0.  0.
        2    1    3    3  502    0  0.98683750260E+03  0.45924680022E+03  0.14192160842E+04  0.17885553315E+04  0.25500000920E-02 0.  1.
       -2    1    3    3    0  502 -0.98683750260E+03 -0.45924680022E+03 -0.19628810539E+04  0.22444727469E+04  0.25500000920E-02 0. -1.
</event>
<event>
 5   0  0.2730801E-07  0.3143984E+04  0.7818609E-02  0.8203769E-01
        2   -1    0    0  501    0  0.00000000000E+00  0.00000000000E+00  0.20654335093E+04  0.20654335093E+04  0.25500000920E-02 0.  1.
       -2   -1    0    0    0  501  0.00000000000E+00  0.00000000000E+00 -0.11964362667E+04  0.11964362667E+04  0.25500000920E-02 0. -1.
    10030    2    1    2    0    0  0.00000000000E+00  0.00000000000E+00  0.86899724261E+03  0.32618697760E+04  0.31439844510E+04 0.  0.
        2    1    3    3  502    0  0.78127366299E+03  0.13558534339E+04  0.27910795335E+03  0.15895371403E+04  0.25500000920E-02 0.  1.
       -2    1    3    3    0  502 -0.78127366299E+03 -0.13558534339E+04  0.58988928926E+03  0.16723326357E+04  0.25500000920E-02 0. -1.
</event>
<event>
 5   0  0.2704088E-07  0.3650120E+04  0.7818609E-02  0.8079107E-01
       -2   -1    0    0    0  501  0.00000000000E+00  0.00000000000E+00  0.25099961204E+04  0.25099961204E+04  0.25500000920E-02 0.  1.
        2   -1    0    0  501    0  0.00000000000E+00  0.00000000000E+00 -0.13270313420E+04  0.13270313420E+04  0.25500000920E-02 0. -1.
    10030    2    1    2    0    0  0.00000000000E+00  0.00000000000E+00  0.11829647784E+04  0.38370274624E+04  0.36501197351E+04 0.  0.
        5    1    3    3  502    0  0.14516654978E+04 -0.30542927856E+03  0.17090293163E+04  0.22630561318E+04  0.46999998093E+01 0.  1.
       -5    1    3    3    0  502 -0.14516654978E+04  0.30542927856E+03 -0.52606453796E+03  0.15739713306E+04  0.46999998093E+01 0. -1.
</event>
<event>
 5   0  0.2666978E-07  0.3983468E+04  0.7818609E-02  0.8007890E-01
        2   -1    0    0  501    0  0.00000000000E+00  0.00000000000E+00  0.13963517245E+04  0.13963517245E+04  0.25500000920E-02 0.  1.
       -2   -1    0    0    0  501  0.00000000000E+00  0.00000000000E+00 -0.28409773334E+04  0.28409773334E+04  0.25500000920E-02 0. -1.
    10030    2    1    2    0    0  0.00000000000E+00  0.00000000000E+00 -0.14446256089E+04  0.42373290580E+04  0.39834676346E+04 0.  0.
        4    1    3    3  502    0  0.76522337452E+03 -0.11408677375E+04 -0.22563911154E+04  0.26416753180E+04  0.12699999809E+01 0. -1.
       -4    1    3    3    0  502 -0.76522337452E+03  0.11408677375E+04  0.81176550648E+03  0.15956537399E+04  0.12699999809E+01 0.  1.
</event>
<event>
 5   0  0.8583262E-08  0.4196109E+04  0.7818609E-02  0.7966113E-01
       -1   -1    0    0    0  501  0.00000000000E+00  0.00000000000E+00  0.15526547827E+04  0.15526547827E+04  0.50400001928E-02 0. -1.
        1   -1    0    0  501    0  0.00000000000E+00  0.00000000000E+00 -0.28350369406E+04  0.28350369406E+04  0.50400001928E-02 0.  1.
    10030    2    1    2    0    0  0.00000000000E+00  0.00000000000E+00 -0.12823821579E+04  0.43876917233E+04  0.41961094671E+04 0.  0.
        1    1    3    3  502    0 -0.32200388608E+03 -0.61489096643E+02  0.15257087630E+04  0.15605302436E+04  0.50400001928E-02 0. -1.
       -1    1    3    3    0  502  0.32200388608E+03  0.61489096643E+02 -0.28080909210E+04  0.28271614797E+04  0.50400001928E-02 0.  1.
</event>
<event>
 5   0  0.2666978E-07  0.4017969E+04  0.7818609E-02  0.8000931E-01
        2   -1    0    0  501    0  0.00000000000E+00  0.00000000000E+00  0.15444144557E+04  0.15444144557E+04  0.25500000920E-02 0. -1.
       -2   -1    0    0    0  501  0.00000000000E+00  0.00000000000E+00 -0.26133006269E+04  0.26133006269E+04  0.25500000920E-02 0.  1.
    10030    2    1    2    0    0  0.00000000000E+00  0.00000000000E+00 -0.10688861712E+04  0.41577150826E+04  0.40179692708E+04 0.  0.
        4    1    3    3  502    0  0.36952390270E+03  0.11674488147E+04  0.11135992833E+04  0.16551705732E+04  0.12699999809E+01 0. -1.
       -4    1    3    3    0  502 -0.36952390270E+03 -0.11674488147E+04 -0.21824854545E+04  0.25025445095E+04  0.12699999809E+01 0.  1.
</event>
<event>
 5   0  0.8528625E-08  0.4067432E+04  0.7818609E-02  0.7991080E-01
        1   -1    0    0  501    0  0.00000000000E+00  0.00000000000E+00  0.22568927658E+04  0.22568927658E+04  0.50400001928E-02 0.  1.
       -1   -1    0    0    0  501  0.00000000000E+00  0.00000000000E+00 -0.18326082888E+04  0.18326082889E+04  0.50400001928E-02 0. -1.
    10030    2    1    2    0    0  0.00000000000E+00  0.00000000000E+00  0.42428447698E+03  0.40895010547E+04  0.40674318137E+04 0.  0.
        4    1    3    3  502    0  0.12907010812E+04  0.16717334457E+03 -0.13590725217E+04  0.18817374791E+04  0.12699999809E+01 0. -1.
       -4    1    3    3    0  502 -0.12907010812E+04 -0.16717334457E+03  0.17833569987E+04  0.22077635756E+04  0.12699999809E+01 0.  1.
</event>
<event>
 5   0  0.2661693E-07  0.3989081E+04  0.7818609E-02  0.8006753E-01
       -2   -1    0    0    0  501  0.00000000000E+00  0.00000000000E+00  0.18408306490E+04  0.18408306490E+04  0.25500000920E-02 0. -1.
        2   -1    0    0  501    0  0.00000000000E+00  0.00000000000E+00 -0.21610847056E+04  0.21610847056E+04  0.25500000920E-02 0.  1.
    10030    2    1    2    0    0  0.00000000000E+00  0.00000000000E+00 -0.32025405660E+03  0.40019153547E+04  0.39890805764E+04 0.  0.
        1    1    3    3  502    0  0.13192357773E+04 -0.11573009823E+04  0.79079527549E+03  0.19248599345E+04  0.50400001928E-02 0. -1.
       -1    1    3    3    0  502 -0.13192357773E+04  0.11573009823E+04 -0.11110493321E+04  0.20770554201E+04  0.50400001928E-02 0.  1.
</event>
<event>
 5   0  0.8528625E-08  0.4013220E+04  0.7818609E-02  0.8001885E-01
        1   -1    0    0  501    0  0.00000000000E+00  0.00000000000E+00  0.17970894642E+04  0.17970894642E+04  0.50400001928E-02 0. -1.
       -1   -1    0    0    0  501  0.00000000000E+00  0.00000000000E+00 -0.22405586974E+04  0.22405586974E+04  0.50400001928E-02 0.  1.
    10030    2    1    2    0    0  0.00000000000E+00  0.00000000000E+00 -0.44346923324E+03  0.40376481616E+04  0.40132203673E+04 0.  0.
        3    1    3    3  502    0  0.14380681430E+04 -0.60257274529E+02 -0.16283913479E+04  0.21733221839E+04  0.10100000352E+00 0.  1.
       -3    1    3    3    0  502 -0.14380681430E+04  0.60257274529E+02  0.11849221146E+04  0.18643259777E+04  0.10100000352E+00 0. -1.
</event>
<event>
 5   0  0.2839279E-07  0.3976714E+04  0.7818609E-02  0.8009261E-01
       -2   -1    0    0    0  501  0.00000000000E+00  0.00000000000E+00  0.16694906362E+04  0.16694906362E+04  0.25500000920E-02 0.  1.
        2   -1    0    0  501    0  0.00000000000E+00  0.00000000000E+00 -0.23681261873E+04  0.23681261873E+04  0.25500000920E-02 0. -1.
    10030    2    1    2    0    0  0.00000000000E+00  0.00000000000E+00 -0.69863555109E+03  0.40376168235E+04  0.39767144705E+04 0.  0.
        3    1    3    3  502    0 -0.12840924612E+03 -0.11776620633E+04 -0.19707050414E+04  0.22993597457E+04  0.10100000352E+00 0. -1.
       -3    1    3    3    0  502  0.12840924612E+03  0.11776620633E+04  0.12720694904E+04  0.17382570777E+04  0.10100000352E+00 0.  1.
</event>
<event>
 5   0  0.8528625E-08  0.3962549E+04  0.7818609E-02  0.8012144E-01
       -1   -1    0    0    0  501  0.00000000000E+00  0.00000000000E+00  0.14555939904E+04  0.14555939905E+04  0.50400001928E-02 0. -1.
        1   -1    0    0  501    0  0.00000000000E+00  0.00000000000E+00 -0.26968022970E+04  0.26968022970E+04  0.50400001928E-02 0.  1.
    10030    2    1    2    0    0  0.00000000000E+00  0.00000000000E+00 -0.12412083065E+04  0.41523962874E+04  0.39625492890E+04 0.  0.
        5    1    3    3  502    0  0.55491961161E+03 -0.18854137677E+04 -0.35819461232E+03  0.19977603263E+04  0.46999998093E+01 0. -1.
       -5    1    3    3    0  502 -0.55491961161E+03  0.18854137677E+04 -0.88301369420E+03  0.21546359612E+04  0.46999998093E+01 0.  1.
</event>
<event>
 5   0  0.2661693E-07  0.4524713E+04  0.7818609E-02  0.7906325E-01
       -2   -1    0    0    0  501  0.00000000000E+00  0.00000000000E+00  0.34123332818E+04  0.34123332818E+04  0.25500000920E-02 0. -1.
        2   -1    0    0  501    0  0.00000000000E+00  0.00000000000E+00 -0.14999287975E+04  0.14999287975E+04  0.25500000920E-02 0.  1.
    10030    2    1    2    0    0  0.00000000000E+00  0.00000000000E+00  0.19124044843E+04  0.49122620792E+04  0.45247130101E+04 0.  0.
        1    1    3    3  502    0 -0.68961455431E+03 -0.26476020864E+03  0.32777181174E+04  0.33599259306E+04  0.50400001928E-02 0. -1.
       -1    1    3    3    0  502  0.68961455431E+03  0.26476020864E+03 -0.13653136331E+04  0.15523361487E+04  0.50400001928E-02 0.  1.
</event>
<event>
 5   0  0.2839279E-07  0.3980666E+04  0.7818609E-02  0.8008458E-01
        2   -1    0    0  501    0  0.00000000000E+00  0.00000000000E+00  0.26242399336E+04  0.26242399336E+04  0.25500000920E-02 0. -1.
       -2   -1    0    0    0  501  0.00000000000E+00  0.00000000000E+00 -0.15095519012E+04  0.15095519012E+04  0.25500000920E-02 0.  1.
    10030    2    1    2    0    0  0.00000000000E+00  0.00000000000E+00  0.11146880324E+04  0.41337918349E+04  0.39806664674E+04 0.  0.
        3    1    3    3  502    0 -0.11492877411E+04  0.98839739508E+03  0.18967794729E+04  0.24280782734E+04  0.10100000352E+00 0. -1.
       -3    1    3    3    0  502  0.11492877411E+04 -0.98839739508E+03 -0.78209144053E+03  0.17057135615E+04  0.10100000352E+00 0.  1.
</event>
<event>
 5   0  0.8528625E-08  0.4044728E+04  0.7818609E-02  0.7995584E-01
        1   -1    0    0  501    0  0.00000000000E+00  0.00000000000E+00  0.17215766180E+04  0.17215766180E+04  0.50400001928E-02 0.  1.
       -1   -1    0    0    0  501  0.00000000000E+00  0.00000000000E+00 -0.23757034092E+04  0.23757034092E+04  0.50400001928E-02 0. -1.
    10030    2    1    2    0    0  0.00000000000E+00  0.00000000000E+00 -0.65412679118E+03  0.40972800272E+04  0.40447276499E+04 0.  0.
        4    1    3    3  502    0  0.24645159299E+03 -0.20036814730E+04 -0.44894286849E+03  0.20680979535E+04  0.12699999809E+01 0. -1.
       -4    1    3    3    0  502 -0.24645159299E+03  0.20036814730E+04 -0.20518392269E+03  0.20291820737E+04  0.12699999809E+01 0.  1.
</event>
<event>
 5   0  0.8528625E-08  0.3968681E+04  0.7818609E-02  0.8010894E-01
       -1   -1    0    0    0  501  0.00000000000E+00  0.00000000000E+00  0.15776321771E+04  0.15776321771E+04  0.50400001928E-02 0.  1.
        1   -1    0    0  501    0  0.00000000000E+00  0.00000000000E+00 -0.24958975010E+04  0.24958975010E+04  0.50400001928E-02 0. -1.
    10030    2    1    2    0    0  0.00000000000E+00  0.00000000000E+00 -0.91826532387E+03  0.40735296781E+04  0.39686814981E+04 0.  0.
        2    1    3    3  502    0  0.29637481421E+03  0.14797303730E+04  0.86338257343E+03  0.17386401224E+04  0.25500000920E-02 0.  1.
       -2    1    3    3    0  502 -0.29637481421E+03 -0.14797303730E+04 -0.17816478973E+04  0.23348895557E+04  0.25500000920E-02 0. -1.
</event>
<event>
 5   0  0.2666978E-07  0.4468597E+04  0.7818609E-02  0.7916158E-01
        2   -1    0    0  501    0  0.00000000000E+00  0.00000000000E+00  0.31618954302E+04  0.31618954302E+04  0.25500000920E-02 0. -1.
       -2   -1    0    0    0  501  0.00000000000E+00  0.00000000000E+00 -0.15788283359E+04  0.15788283359E+04  0.25500000920E-02 0.  1.
    10030    2    1    2    0    0  0.00000000000E+00  0.00000000000E+00  0.15830670943E+04  0.47407237661E+04  0.44685971402E+04 0.  0.
        4    1    3    3  502    0  0.81579242771E+03 -0.18626909879E+04 -0.19055822395E+03  0.20424125565E+04  0.12699999809E+01 0.  1.
       -4    1    3    3    0  502 -0.81579242771E+03  0.18626909879E+04  0.17736253182E+04  0.26983112096E+04  0.12699999809E+01 0. -1.
</event>
<event>
 5   0  0.2661693E-07  0.4010773E+04  0.7818609E-02  0.8002377E-01
        2   -1    0    0  501    0  0.00000000000E+00  0.00000000000E+00  0.25635578400E+04  0.25635578400E+04  0.25500000920E-02 0. -1.
       -2   -1    0    0    0  501  0.00000000000E+00  0.00000000000E+00 -0.15687474851E+04  0.15687474851E+04  0.25500000920E-02 0.  1.
    10030    2    1    2    0    0  0.00000000000E+00  0.00000000000E+00  0.99481035494E+03  0.41323053252E+04  0.40107729502E+04 0.  0.
        1    1    3    3  502    0 -0.10160593830E+04  0.10290642868E+04 -0.93401879706E+03  0.17215519421E+04  0.50400001928E-02 0.  1.
       -1    1    3    3    0  502  0.10160593830E+04 -0.10290642868E+04  0.19288291520E+04  0.24107533830E+04  0.50400001928E-02 0. -1.
</event>
<event>
 5   0  0.8583262E-08  0.4108110E+04  0.7818609E-02  0.7983085E-01
        1   -1    0    0  501    0  0.00000000000E+00  0.00000000000E+00  0.18905336177E+04  0.18905336177E+04  0.50400001928E-02 0. -1.
       -1   -1    0    0    0  501  0.00000000000E+00  0.00000000000E+00 -0.22317206794E+04  0.22317206794E+04  0.50400001928E-02 0.  1.
    10030    2    1    2    0    0  0.00000000000E+00  0.00000000000E+00 -0.34118706173E+03  0.41222542971E+04  0.41081104998E+04 0.  0.
        1    1    3    3  502    0  0.78465560250E+03 -0.81271906602E+03  0.15508145193E+04  0.19186511846E+04  0.50400001928E-02 0. -1.
       -1    1    3    3    0  502 -0.78465560250E+03  0.81271906602E+03 -0.18920015810E+04  0.22036031125E+04  0.50400001928E-02 0.  1.
</event>
<event>
 5   0  0.2704088E-07  0.3982650E+04  0.7818609E-02  0.8008056E-01
        2   -1    0    0  501    0  0.00000000000E+00  0.00000000000E+00  0.16716238643E+04  0.16716238644E+04  0.25500000920E-02 0.  1.
       -2   -1    0    0    0  501  0.00000000000E+00  0.00000000000E+00 -0.23721693062E+04  0.23721693062E+04  0.25500000920E-02 0. -1.
    10030    2    1    2    0    0  0.00000000000E+00  0.00000000000E+00 -0.70054544184E+03  0.40437931705E+04  0.39826497825E+04 0.  0.
        5    1    3    3  502    0 -0.11024264825E+03 -0.18067013132E+04 -0.11930945467E+04  0.21679067701E+04  0.46999998093E+01 0. -1.
       -5    1    3    3    0  502  0.11024264825E+03  0.18067013132E+04  0.49254910489E+03  0.18758864004E+04  0.46999998093E+01 0.  1.
</event>
<event>
 5   0  0.8528625E-08  0.3935770E+04  0.7818609E-02  0.8017631E-01
       -1   -1    0    0    0  501  0.00000000000E+00  0.00000000000E+00  0.17610799607E+04  0.17610799607E+04  0.50400001928E-02 0. -1.
        1   -1    0    0  501    0  0.00000000000E+00  0.00000000000E+00 -0.21989750971E+04  0.21989750971E+04  0.50400001928E-02 0.  1.
    10030    2    1    2    0    0  0.00000000000E+00  0.00000000000E+00 -0.43789513645E+03  0.39600550578E+04  0.39357697990E+04 0.  0.
        4    1    3    3  502    0 -0.14521165638E+04  0.82819108976E+03 -0.12636346567E+04  0.20955469822E+04  0.12699999809E+01 0.  1.
       -4    1    3    3    0  502  0.14521165638E+04 -0.82819108976E+03  0.82573952026E+03  0.18645080757E+04  0.12699999809E+01 0. -1.
</event>
<event>
 5   0  0.8528625E-08  0.3260278E+04  0.7818609E-02  0.8173077E-01
        1   -1    0    0  501    0  0.00000000000E+00  0.00000000000E+00  0.20702134257E+04  0.20702134257E+04  0.50400001928E-02 0.  1.
       -1   -1    0    0    0  501  0.00000000000E+00  0.00000000000E+00 -0.12836133940E+04  0.12836133940E+04  0.50400001928E-02 0. -1.
    10030    2    1    2    0    0  0.00000000000E+00  0.00000000000E+00  0.78660003171E+03  0.33538268198E+04  0.32602783205E+04 0.  0.
        5    1    3    3  502    0  0.23066802608E+03  0.15316009556E+04  0.91613779626E+03  0.17995387679E+04  0.46999998093E+01 0.  1.
       -5    1    3    3    0  502 -0.23066802608E+03 -0.15316009556E+04 -0.12953776455E+03  0.15542880518E+04  0.46999998093E+01 0. -1.
</event>
<event>
 5   0  0.8528625E-08  0.4019450E+04  0.7818609E-02  0.8000634E-01
        1   -1    0    0  501    0  0.00000000000E+00  0.00000000000E+00  0.13667266070E+04  0.13667266070E+04  0.50400001928E-02 0. -1.
       -1   -1    0    0    0  501  0.00000000000E+00  0.00000000000E+00 -0.29552317147E+04  0.29552317147E+04  0.50400001928E-02 0.  1.
    10030    2    1    2    0    0  0.00000000000E+00  0.00000000000E+00 -0.15885051077E+04  0.43219583216E+04  0.40194496211E+04 0.  0.
        2    1    3    3  502    0 -0.21588248721E+03 -0.17329360403E+04 -0.18637571437E+04  0.25540679824E+04  0.25500000920E-02 0.  1.
       -2    1    3    3    0  502  0.21588248721E+03  0.17329360403E+04  0.27525203602E+03  0.17678903392E+04  0.25500000920E-02 0. -1.
</event>
<event>
 5   0  0.2666978E-07  0.3938001E+04  0.7818609E-02  0.8017172E-01
        2   -1    0    0  501    0  0.00000000000E+00  0.00000000000E+00  0.36555002154E+04  0.36555002154E+04  0.25500000920E-02 0.  1.
       -2   -1    0    0    0  501  0.00000000000E+00  0.00000000000E+00 -0.10605832293E+04  0.10605832293E+04  0.25500000920E-02 0. -1.
    10030    2    1    2    0    0  0.00000000000E+00  0.00000000000E+00  0.25949169860E+04  0.47160834447E+04  0.39380006213E+04 0.  0.
        4    1    3    3  502    0  0.10427037313E+04 -0.11568947262E+04  0.27401979477E+04  0.31518760896E+04  0.12699999809E+01 0.  1.
       -4    1    3    3    0  502 -0.10427037313E+04  0.11568947262E+04 -0.14528096170E+03  0.15642073551E+04  0.12699999809E+01 0. -1.
</event>
<event>
 5   0  0.8583262E-08  0.4022485E+04  0.7818609E-02  0.8000026E-01
       -1   -1    0    0    0  501  0.00000000000E+00  0.00000000000E+00  0.24722535499E+04  0.24722535499E+04  0.50400001928E-02 0.  1.
        1   -1    0    0  501    0  0.00000000000E+00  0.00000000000E+00 -0.16361979438E+04  0.16361979438E+04  0.50400001928E-02 0. -1.
    10030    2    1    2    0    0  0.00000000000E+00  0.00000000000E+00  0.83605560613E+03  0.41084514937E+04  0.40224848912E+04 0.  0.
        1    1    3    3  502    0 -0.10807101436E+04  0.16868203309E+04  0.60016137613E+03  0.20912892962E+04  0.50400001928E-02 0.  1.
       -1    1    3    3    0  502  0.10807101436E+04 -0.16868203309E+04  0.23589423000E+03  0.20171621975E+04  0.50400001928E-02 0. -1.
</event>
<event>
 5   0  0.8528625E-08  0.4001548E+04  0.7818609E-02  0.8004234E-01
       -1   -1    0    0    0  501  0.00000000000E+00  0.00000000000E+00  0.17947232349E+04  0.17947232349E+04  0.50400001928E-02 0.  1.
        1   -1    0    0  501    0  0.00000000000E+00  0.00000000000E+00 -0.22304812907E+04  0.22304812907E+04  0.50400001928E-02 0. -1.
    10030    2    1    2    0    0  0.00000000000E+00  0.00000000000E+00 -0.43575805584E+03  0.40252045256E+04  0.40015479991E+04 0.  0.
        3    1    3    3  502    0 -0.61812855195E+03 -0.66008491407E+03  0.15774134059E+04  0.18182486254E+04  0.10100000352E+00 0.  1.
       -3    1    3    3    0  502  0.61812855195E+03  0.66008491407E+03 -0.20131714618E+04  0.22069559001E+04  0.10100000352E+00 0. -1.
</event>
<event>
 5   0  0.2730801E-07  0.3976675E+04  0.7818609E-02  0.8009269E-01
       -2   -1    0    0    0  501  0.00000000000E+00  0.00000000000E+00  0.18244607538E+04  0.18244607539E+04  0.25500000920E-02 0.  1.
        2   -1    0    0  501    0  0.00000000000E+00  0.00000000000E+00 -0.21669340902E+04  0.21669340902E+04  0.25500000920E-02 0. -1.
    10030    2    1    2    0    0  0.00000000000E+00  0.00000000000E+00 -0.34247333632E+03  0.39913948440E+04  0.39766750954E+04 0.  0.
        2    1    3    3  502    0  0.19835199706E+03  0.26555942652E+03  0.17965356849E+04  0.18268568063E+04  0.25500000920E-02 0.  1.
       -2    1    3    3    0  502 -0.19835199706E+03 -0.26555942652E+03 -0.21390090212E+04  0.21645380377E+04  0.25500000920E-02 0. -1.
</event>
<event>
 5   0  0.2666978E-07  0.3480218E+04  0.7818609E-02  0.8118494E-01
        2   -1    0    0  501    0  0.00000000000E+00  0.00000000000E+00  0.20453285840E+04  0.20453285840E+04  0.25500000920E-02 0. -1.
       -2   -1    0    0    0  501  0.00000000000E+00  0.00000000000E+00 -0.14804365038E+04  0.14804365038E+04  0.25500000920E-02 0.  1.
    10030    2    1    2    0    0  0.00000000000E+00  0.00000000000E+00  0.56489208022E+03  0.35257650878E+04  0.34802178656E+04 0.  0.
        4    1    3    3  502    0 -0.11373896503E+04 -0.13092266740E+04  0.42660302624E+03  0.17859791308E+04  0.12699999809E+01 0.  1.
       -4    1    3    3    0  502  0.11373896503E+04  0.13092266740E+04  0.13828905398E+03  0.17397859570E+04  0.12699999809E+01 0. -1.
</event>
<event>
 5   0  0.8528625E-08  0.3779242E+04  0.7818609E-02  0.8050624E-01
       -1   -1    0    0    0  501  0.00000000000E+00  0.00000000000E+00  0.34057999130E+04  0.34057999130E+04  0.50400001928E-02 0.  1.
        1   -1    0    0  501    0  0.00000000000E+00  0.00000000000E+00 -0.10484080833E+04  0.10484080833E+04  0.50400001928E-02 0. -1.
    10030    2    1    2    0    0  0.00000000000E+00  0.00000000000E+00  0.23573918298E+04  0.44542079963E+04  0.37792423361E+04 0.  0.
        5    1    3    3  502    0  0.17078604959E+04 -0.67671122966E+03  0.65701409742E+03  0.19510036330E+04  0.46999998093E+01 0.  1.
       -5    1    3    3    0  502 -0.17078604959E+04  0.67671122966E+03  0.17003777323E+04  0.25032043633E+04  0.46999998093E+01 0. -1.
</event>
<event>
 5   0  0.2666978E-07  0.3986826E+04  0.7818609E-02  0.8007209E-01
        2   -1    0    0  501    0  0.00000000000E+00  0.00000000000E+00  0.26316506983E+04  0.26316506983E+04  0.25500000920E-02 0.  1.
       -2   -1    0    0    0  501  0.00000000000E+00  0.00000000000E+00 -0.15099632523E+04  0.15099632523E+04  0.25500000920E-02 0. -1.
    10030    2    1    2    0    0  0.00000000000E+00  0.00000000000E+00  0.11216874460E+04  0.41416139506E+04  0.39868262301E+04 0.  0.
        4    1    3    3  502    0 -0.17925654412E+03 -0.66958669046E+03 -0.13807348274E+04  0.15449626278E+04  0.12699999809E+01 0. -1.
       -4    1    3    3    0  502  0.17925654412E+03  0.66958669046E+03  0.25024222734E+04  0.25966513228E+04  0.12699999809E+01 0.  1.
</event>
<event>
 5   0  0.8528625E-08  0.4068620E+04  0.7818609E-02  0.7990845E-01
        1   -1    0    0  501    0  0.00000000000E+00  0.00000000000E+00  0.21370800495E+04  0.21370800495E+04  0.50400001928E-02 0.  1.
       -1   -1    0    0    0  501  0.00000000000E+00  0.00000000000E+00 -0.19364822157E+04  0.19364822157E+04  0.50400001928E-02 0. -1.
    10030    2    1    2    0    0  0.00000000000E+00  0.00000000000E+00  0.20059783378E+03  0.40735622652E+04  0.40686201638E+04 0.  0.
        2    1    3    3  502    0  0.19066014547E+04  0.11152928391E+03  0.80175654417E+03  0.20713235972E+04  0.25500000920E-02 0.  1.
       -2    1    3    3    0  502 -0.19066014547E+04 -0.11152928391E+03 -0.60115871039E+03  0.20022386679E+04  0.25500000920E-02 0. -1.
</event>
<event>
 5   0  0.2704088E-07  0.3985048E+04  0.7818609E-02  0.8007570E-01
       -2   -1    0    0    0  501  0.00000000000E+00  0.00000000000E+00  0.30294918119E+04  0.30294918119E+04  0.25500000920E-02 0. -1.
        2   -1    0    0  501    0  0.00000000000E+00  0.00000000000E+00 -0.13105007253E+04  0.13105007253E+04  0.25500000920E-02 0.  1.
    10030    2    1    2    0    0  0.00000000000E+00  0.00000000000E+00  0.17189910866E+04  0.43399925373E+04  0.39850476619E+04 0.  0.
        5    1    3    3  502    0 -0.17068225114E+04  0.31139389736E+03  0.19265165172E+04  0.25926236183E+04  0.46999998093E+01 0. -1.
       -5    1    3    3    0  502  0.17068225114E+04 -0.31139389736E+03 -0.20752543061E+03  0.17473689190E+04  0.46999998093E+01 0.  1.
</event>
<event>
 5   0  0.8528625E-08  0.3967598E+04  0.7818609E-02  0.8011115E-01
       -1   -1    0    0    0  501  0.00000000000E+00  0.00000000000E+00  0.12213896873E+04  0.12213896873E+04  0.50400001928E-02 0. -1.
        1   -1    0    0  501    0  0.00000000000E+00  0.00000000000E+00 -0.32221156468E+04  0.32221156468E+04  0.50400001928E-02 0.  1.
    10030    2    1    2    0    0  0.00000000000E+00  0.00000000000E+00 -0.20007259595E+04  0.44435053341E+04  0.39675981764E+04 0.  0.
        4    1    3    3  502    0 -0.38273632836E+03  0.10372712724E+03 -0.31772761968E+04  0.32019263042E+04  0.12699999809E+01 0.  1.
       -4    1    3    3    0  502  0.38273632836E+03 -0.10372712724E+03  0.11765502372E+04  0.12415790299E+04  0.12699999809E+01 0. -1.
</event>
<event>
 5   0  0.2839279E-07  0.4088853E+04  0.7818609E-02  0.7986858E-01
        2   -1    0    0  501    0  0.00000000000E+00  0.00000000000E+00  0.22952379766E+04  0.22952379766E+04  0.25500000920E-02 0. -1.
       -2   -1    0    0    0  501  0.00000000000E+00  0.00000000000E+00 -0.18210227361E+04  0.18210227361E+04  0.25500000920E-02 0.  1.
    10030    2    1    2    0    0  0.00000000000E+00  0.00000000000E+00  0.47421524049E+03  0.41162607127E+04  0.40888534041E+04 0.  0.
        3    1    3    3  502    0 -0.75959847849E+02 -0.17918614713E+03  0.22858910388E+04  0.22941611594E+04  0.10100000352E+00 0. -1.
       -3    1    3    3    0  502  0.75959847849E+02  0.17918614713E+03 -0.18116757983E+04  0.18220995533E+04  0.10100000352E+00 0.  1.
</event>
<event>
 5   0  0.8528625E-08  0.3991222E+04  0.7818609E-02  0.8006320E-01
        1   -1    0    0  501    0  0.00000000000E+00  0.00000000000E+00  0.26458203650E+04  0.26458203650E+04  0.50400001928E-02 0.  1.
       -1   -1    0    0    0  501  0.00000000000E+00  0.00000000000E+00 -0.15051901958E+04  0.15051901958E+04  0.50400001928E-02 0. -1.
    10030    2    1    2    0    0  0.00000000000E+00  0.00000000000E+00  0.11406301692E+04  0.41510105608E+04  0.39912218046E+04 0.  0.
        2    1    3    3  502    0 -0.15411210417E+04  0.80160068995E+03  0.15919054347E+04  0.23562216883E+04  0.25500000920E-02 0.  1.
       -2    1    3    3    0  502  0.15411210417E+04 -0.80160068995E+03 -0.45127526557E+03  0.17947888725E+04  0.25500000920E-02 0. -1.
</event>
<event>
 5   0  0.2730801E-07  0.4011220E+04  0.7818609E-02  0.8002287E-01
       -2   -1    0    0    0  501  0.00000000000E+00  0.00000000000E+00  0.17815530628E+04  0.17815530628E+04  0.25500000920E-02 0.  1.
        2   -1    0    0  501    0  0.00000000000E+00  0.00000000000E+00 -0.22578456817E+04  0.22578456817E+04  0.25500000920E-02 0. -1.
    10030    2    1    2    0    0  0.00000000000E+00  0.00000000000E+00 -0.47629261885E+03  0.40393987445E+04  0.40112202082E+04 0.  0.
        2    1    3    3  502    0  0.13521596418E+04 -0.12484310418E+04  0.56467182956E+03  0.19250376718E+04  0.25500000920E-02 0.  1.
       -2    1    3    3    0  502 -0.13521596418E+04  0.12484310418E+04 -0.10409644484E+04  0.21143610727E+04  0.25500000920E-02 0. -1.
</event>
<event>
 5   0  0.2666978E-07  0.4034373E+04  0.7818609E-02  0.7997648E-01
       -2   -1    0    0    0  501  0.00000000000E+00  0.00000000000E+00  0.16294534151E+04  0.16294534151E+04  0.25500000920E-02 0. -1.
        2   -1    0    0  501    0  0.00000000000E+00  0.00000000000E+00 -0.24971820206E+04  0.24971820206E+04  0.25500000920E-02 0.  1.
    10030    2    1    2    0    0  0.00000000000E+00  0.00000000000E+00 -0.86772860547E+03  0.41266354357E+04  0.40343731963E+04 0.  0.
        4    1    3    3  502    0  0.14040835976E+04 -0.13615764225E+04 -0.93881265155E+03  0.21694957734E+04  0.12699999809E+01 0. -1.
       -4    1    3    3    0  502 -0.14040835976E+04  0.13615764225E+04  0.71084046087E+02  0.19571396623E+04  0.12699999809E+01 0.  1.
</event>
<event>
 5   0  0.2704088E-07  0.4100420E+04  0.7818609E-02  0.7984590E-01
       -2   -1    0    0    0  501  0.00000000000E+00  0.00000000000E+00  0.17091974296E+04  0.17091974296E+04  0.25500000920E-02 0.  1.
        2   -1    0    0  501    0  0.00000000000E+00  0.00000000000E+00 -0.24592595736E+04  0.24592595736E+04  0.25500000920E-02 0. -1.
    10030    2    1    2    0    0  0.00000000000E+00  0.00000000000E+00 -0.75006214402E+03  0.41684570031E+04  0.41004195599E+04 0.  0.
        5    1    3    3  502    0 -0.88122065583E+03 -0.47375697842E+03  0.14441709140E+04  0.17568856644E+04  0.46999998093E+01 0.  1.
       -5    1    3    3    0  502  0.88122065583E+03  0.47375697842E+03 -0.21942330580E+04  0.24115713387E+04  0.46999998093E+01 0. -1.
</event>
<event>
 5   0  0.8583262E-08  0.4090221E+04  0.7818609E-02  0.7986589E-01
       -1   -1    0    0    0  501  0.00000000000E+00  0.00000000000E+00  0.17342992983E+04  0.17342992983E+04  0.50400001928E-02 0. -1.
        1   -1    0    0  501    0  0.00000000000E+00  0.00000000000E+00 -0.24116233983E+04  0.24116233983E+04  0.50400001928E-02 0.  1.
    10030    2    1    2    0    0  0.00000000000E+00  0.00000000000E+00 -0.67732410005E+03  0.41459226966E+04  0.40902209072E+04 0.  0.
        1    1    3    3  502    0  0.14926168403E+04  0.72255634653E+03 -0.15518255492E+04  0.22711572471E+04  0.50400001928E-02 0.  1.
       -1    1    3    3    0  502 -0.14926168403E+04 -0.72255634653E+03  0.87450144916E+03  0.18747654495E+04  0.50400001928E-02 0. -1.
</event>
<event>
 5   0  0.8528625E-08  0.3878321E+04  0.7818609E-02  0.8029553E-01
        1   -1    0    0  501    0  0.00000000000E+00  0.00000000000E+00  0.21241018691E+04  0.21241018691E+04  0.50400001928E-02 0. -1.
       -1   -1    0    0    0  501  0.00000000000E+00  0.00000000000E+00 -0.17703216370E+04  0.17703216370E+04  0.50400001928E-02 0.  1.
    10030    2    1    2    0    0  0.00000000000E+00  0.00000000000E+00  0.35378023202E+03  0.38944235061E+04  0.38783210275E+04 0.  0.
        2    1    3    3  502    0 -0.17595501542E+04  0.81216866776E+03  0.24579577860E+03  0.19534713346E+04  0.25500000920E-02 0.  1.
       -2    1    3    3    0  502  0.17595501542E+04 -0.81216866776E+03  0.10798445342E+03  0.19409521716E+04  0.25500000920E-02 0. -1.
</event>
<event>
 5   0  0.2704088E-07  0.4129665E+04  0.7818609E-02  0.7978888E-01
        2   -1    0    0  501    0  0.00000000000E+00  0.00000000000E+00  0.21740304008E+04  0.21740304008E+04  0.25500000920E-02 0.  1.
       -2   -1    0    0    0  501  0.00000000000E+00  0.00000000000E+00 -0.19611194802E+04  0.19611194802E+04  0.25500000920E-02 0. -1.
    10030    2    1    2    0    0  0.00000000000E+00  0.00000000000E+00  0.21291092062E+03  0.41351498810E+04  0.41296650564E+04 0.  0.
        5    1    3    3  502    0  0.17725160762E+04 -0.10307714294E+04  0.35010619201E+03  0.20801200484E+04  0.46999998093E+01 0. -1.
       -5    1    3    3    0  502 -0.17725160762E+04  0.10307714294E+04 -0.13719527139E+03  0.20550298326E+04  0.46999998093E+01 0.  1.
</event>
<event>
 5   0  0.8528625E-08  0.4239747E+04  0.7818609E-02  0.7957854E-01
        1   -1    0    0  501    0  0.00000000000E+00  0.00000000000E+00  0.30728563205E+04  0.30728563205E+04  0.50400001928E-02 0.  1.
       -1   -1    0    0    0  501  0.00000000000E+00  0.00000000000E+00 -0.14624382808E+04  0.14624382808E+04  0.50400001928E-02 0. -1.
    10030    2    1    2    0    0  0.00000000000E+00  0.00000000000E+00  0.16104180397E+04  0.45352946013E+04  0.42397465559E+04 0.  0.
        3    1    3    3  502    0  0.12900049510E+04 -0.13389809311E+04 -0.28404671490E+03  0.18808682181E+04  0.10100000352E+00 0. -1.
       -3    1    3    3    0  502 -0.12900049510E+04  0.13389809311E+04  0.18944647547E+04  0.26544263832E+04  0.10100000352E+00 0.  1.
</event>
<event>
 5   0  0.2661693E-07  0.4305321E+04  0.7818609E-02  0.7945635E-01
       -2   -1    0    0    0  501  0.00000000000E+00  0.00000000000E+00  0.26727594990E+04  0.26727594990E+04  0.25500000920E-02 0.  1.
        2   -1    0    0  501    0  0.00000000000E+00  0.00000000000E+00 -0.17337690954E+04  0.17337690954E+04  0.25500000920E-02 0. -1.
    10030    2    1    2    0    0  0.00000000000E+00  0.00000000000E+00  0.93899040365E+03  0.44065285944E+04  0.43053212743E+04 0.  0.
        1    1    3    3  502    0  0.15331855438E+04  0.43623436513E+03 -0.10112302819E+04  0.18877354200E+04  0.50400001928E-02 0. -1.
       -1    1    3    3    0  502 -0.15331855438E+04 -0.43623436513E+03  0.19502206855E+04  0.25187931744E+04  0.50400001928E-02 0.  1.
</event>
<event>
 5   0  0.8583262E-08  0.2974120E+04  0.7818609E-02  0.8251160E-01
       -1   -1    0    0    0  501  0.00000000000E+00  0.00000000000E+00  0.11787154355E+04  0.11787154355E+04  0.50400001928E-02 0.  1.
        1   -1    0    0  501    0  0.00000000000E+00  0.00000000000E+00 -0.18760657413E+04  0.18760657413E+04  0.50400001928E-02 0. -1.
    10030    2    1    2    0    0  0.00000000000E+00  0.00000000000E+00 -0.69735030583E+03  0.30547811768E+04  0.29741201370E+04 0.  0.
        1    1    3    3  502    0 -0.10193629531E+04 -0.82415897749E+03  0.37251357919E+03  0.13627564776E+04  0.50400001928E-02 0.  1.
       -1    1    3    3    0  502  0.10193629531E+04  0.82415897749E+03 -0.10698638850E+04  0.16920246993E+04  0.50400001928E-02 0. -1.
</event>
<event>
 5   0  0.2661693E-07  0.4029026E+04  0.7818609E-02  0.7998717E-01
        2   -1    0    0  501    0  0.00000000000E+00  0.00000000000E+00  0.22823202494E+04  0.22823202494E+04  0.25500000920E-02 0.  1.
       -2   -1    0    0    0  501  0.00000000000E+00  0.00000000000E+00 -0.17781304285E+04  0.17781304285E+04  0.25500000920E-02 0. -1.
    10030    2    1    2    0    0  0.00000000000E+00  0.00000000000E+00  0.50418982090E+03  0.40604506779E+04  0.40290262262E+04 0.  0.
        1    1    3    3  502    0  0.16335471907E+04  0.86044644867E+03  0.10642453728E+04  0.21310707939E+04  0.50400001928E-02 0.  1.
       -1    1    3    3    0  502 -0.16335471907E+04 -0.86044644867E+03 -0.56005555188E+03  0.19293798839E+04  0.50400001928E-02 0. -1.
</event>
<event>
 5   0  0.2661693E-07  0.3970862E+04  0.7818609E-02  0.8010450E-01
       -2   -1    0    0    0  501  0.00000000000E+00  0.00000000000E+00  0.13654686676E+04  0.13654686676E+04  0.25500000920E-02 0. -1.
        2   -1    0    0  501    0  0.00000000000E+00  0.00000000000E+00 -0.28868744846E+04  0.28868744846E+04  0.25500000920E-02 0.  1.
    10030    2    1    2    0    0  0.00000000000E+00  0.00000000000E+00 -0.15214058170E+04  0.42523431521E+04  0.39708622015E+04 0.  0.
        1    1    3    3  502    0  0.17192822635E+04 -0.13285860321E+03 -0.18145085173E+04  0.25032027624E+04  0.50400001928E-02 0.  1.
       -1    1    3    3    0  502 -0.17192822635E+04  0.13285860321E+03  0.29310270031E+03  0.17491403898E+04  0.50400001928E-02 0. -1.
</event>
<event>
 5   0  0.2704088E-07  0.4036228E+04  0.7818609E-02  0.7997278E-01
        2   -1    0    0  501    0  0.00000000000E+00  0.00000000000E+00  0.17630209630E+04  0.17630209630E+04  0.25500000920E-02 0.  1.
       -2   -1    0    0    0  501  0.00000000000E+00  0.00000000000E+00 -0.23101172358E+04  0.23101172358E+04  0.25500000920E-02 0. -1.
    10030    2    1    2    0    0  0.00000000000E+00  0.00000000000E+00 -0.54709627276E+03  0.40731381988E+04  0.40362284939E+04 0.  0.
        5    1    3    3  502    0  0.14809499092E+04 -0.12166867557E+04 -0.91116761360E+03  0.21222129500E+04  0.46999998093E+01 0. -1.
       -5    1    3    3    0  502 -0.14809499092E+04  0.12166867557E+04  0.36407134085E+03  0.19509252488E+04  0.46999998093E+01 0.  1.
</event>
<event>
 5   0  0.2839279E-07  0.3034772E+04  0.7818609E-02  0.8233871E-01
       -2   -1    0    0    0  501  0.00000000000E+00  0.00000000000E+00  0.16007387921E+04  0.16007387921E+04  0.25500000920E-02 0.  1.
        2   -1    0    0  501    0  0.00000000000E+00  0.00000000000E+00 -0.14383733284E+04  0.14383733284E+04  0.25500000920E-02 0. -1.
    10030    2    1    2    0    0  0.00000000000E+00  0.00000000000E+00  0.16236546370E+03  0.30391121205E+04  0.30347718097E+04 0.  0.
        3    1    3    3  502    0  0.26704755691E+03  0.13384620756E+04 -0.58283786991E+03  0.14840805632E+04  0.10100000352E+00 0. -1.
       -3    1    3    3    0  502 -0.26704755691E+03 -0.13384620756E+04  0.74520333362E+03  0.15550315572E+04  0.10100000352E+00 0.  1.
</event>
<event>
 5   0  0.8528625E-08  0.4051562E+04  0.7818609E-02  0.7994225E-01
        1   -1    0    0  501    0  0.00000000000E+00  0.00000000000E+00  0.18154161735E+04  0.18154161736E+04  0.50400001928E-02 0. -1.
       -1   -1    0    0    0  501  0.00000000000E+00  0.00000000000E+00 -0.22605225858E+04  0.22605225859E+04  0.50400001928E-02 0.  1.
    10030    2    1    2    0    0  0.00000000000E+00  0.00000000000E+00 -0.44510641230E+03  0.40759387594E+04  0.40515622977E+04 0.  0.
        4    1    3    3  502    0 -0.11923526246E+04  0.56173881851E+02  0.14240372666E+04  0.18581560849E+04  0.12699999809E+01 0. -1.
       -4    1    3    3    0  502  0.11923526246E+04 -0.56173881851E+02 -0.18691436789E+04  0.22177826745E+04  0.12699999809E+01 0.  1.
</event>
<event>
 5   0  0.8528625E-08  0.2941462E+04  0.7818609E-02  0.8260647E-01
       -1   -1    0    0    0  501  0.00000000000E+00  0.00000000000E+00  0.10772233450E+04  0.10772233450E+04  0.50400001928E-02 0. -1.
        1   -1    0    0  501    0  0.00000000000E+00  0.00000000000E+00 -0.20079868937E+04  0.20079868937E+04  0.50400001928E-02 0.  1.
    10030    2    1    2    0    0  0.00000000000E+00  0.00000000000E+00 -0.93076354868E+03  0.30852102386E+04  0.29414624650E+04 0.  0.
        3    1    3    3  502    0 -0.11912678051E+04  0.21209188225E+03  0.41150598969E+03  0.12780606948E+04  0.10100000352E+00 0. -1.
       -3    1    3    3    0  502  0.11912678051E+04 -0.21209188225E+03 -0.13422695384E+04  0.18071495438E+04  0.10100000352E+00 0.  1.
</event>
<event>
 5   0  0.8528625E-08  0.4010479E+04  0.7818609E-02  0.8002436E-01
        1   -1    0    0  501    0  0.00000000000E+00  0.00000000000E+00  0.18315226850E+04  0.18315226850E+04  0.50400001928E-02 0. -1.
       -1   -1    0    0    0  501  0.00000000000E+00  0.00000000000E+00 -0.21954332947E+04  0.21954332947E+04  0.50400001928E-02 0.  1.
    10030    2    1    2    0    0  0.00000000000E+00  0.00000000000E+00 -0.36391060969E+03  0.40269559797E+04  0.40104792146E+04 0.  0.
        2    1    3    3  502    0 -0.11678814230E+04 -0.37447512516E+03 -0.17749179439E+04  0.21574318866E+04  0.25500000920E-02 0.  1.
       -2    1    3    3    0  502  0.11678814230E+04  0.37447512516E+03  0.14110073342E+04  0.18695240931E+04  0.25500000920E-02 0. -1.
</event>
<event>
 5   0  0.8583262E-08  0.4008152E+04  0.7818609E-02  0.8002904E-01
        1   -1    0    0  501    0  0.00000000000E+00  0.00000000000E+00  0.29572695092E+04  0.29572695092E+04  0.50400001928E-02 0. -1.
       -1   -1    0    0    0  501  0.00000000000E+00  0.00000000000E+00 -0.13581179250E+04  0.13581179250E+04  0.50400001928E-02 0.  1.
    10030    2    1    2    0    0  0.00000000000E+00  0.00000000000E+00  0.15991515842E+04  0.43153874342E+04  0.40081520578E+04 0.  0.
        1    1    3    3  502    0 -0.33877728326E+03  0.16334338123E+04  0.19953121606E+04  0.26007973172E+04  0.50400001928E-02 0. -1.
       -1    1    3    3    0  502  0.33877728326E+03 -0.16334338123E+04 -0.39616057646E+03  0.17145901170E+04  0.50400001928E-02 0.  1.
</event>
<event>
 5   0  0.2666978E-07  0.3818908E+04  0.7818609E-02  0.8042109E-01
       -2   -1    0    0    0  501  0.00000000000E+00  0.00000000000E+00  0.14932925068E+04  0.14932925068E+04  0.25500000920E-02 0.  1.
        2   -1    0    0  501    0  0.00000000000E+00  0.00000000000E+00 -0.24415943832E+04  0.24415943832E+04  0.25500000920E-02 0. -1.
    10030    2    1    2    0    0  0.00000000000E+00  0.00000000000E+00 -0.94830187644E+03  0.39348868901E+04  0.38189080100E+04 0.  0.
        4    1    3    3  502    0 -0.94152874934E+03  0.92706135016E+02 -0.21831183694E+04  0.23793020491E+04  0.12699999809E+01 0. -1.
       -4    1    3    3    0  502  0.94152874934E+03 -0.92706135016E+02  0.12348164929E+04  0.15555848409E+04  0.12699999809E+01 0.  1.
</event>
<event>
 5   0  0.8528625E-08  0.3625439E+04  0.7818609E-02  0.8084689E-01
       -1   -1    0    0    0  501  0.00000000000E+00  0.00000000000E+00  0.14093849766E+04  0.14093849766E+04  0.50400001928E-02 0. -1.
        1   -1    0    0  501    0  0.00000000000E+00  0.00000000000E+00 -0.23314794795E+04  0.23314794795E+04  0.50400001928E-02 0.  1.
    10030    2    1    2    0    0  0.00000000000E+00  0.00000000000E+00 -0.92209450290E+03  0.37408644560E+04  0.36254390915E+04 0.  0.
        3    1    3    3  502    0  0.17439908126E+04 -0.49439837705E+03 -0.45661737362E+03  0.18693402970E+04  0.10100000352E+00 0. -1.
       -3    1    3    3    0  502 -0.17439908126E+04  0.49439837705E+03 -0.46547712929E+03  0.18715241590E+04  0.10100000352E+00 0.  1.
</event>
<event>
 5   0  0.2730801E-07  0.4036126E+04  0.7818609E-02  0.7997298E-01
       -2   -1    0    0    0  501  0.00000000000E+00  0.00000000000E+00  0.25999274674E+04  0.25999274674E+04  0.25500000920E-02 0. -1.
        2   -1    0    0  501    0  0.00000000000E+00  0.00000000000E+00 -0.15664200474E+04  0.15664200474E+04  0.25500000920E-02 0.  1.
    10030    2    1    2    0    0  0.00000000000E+00  0.00000000000E+00  0.10335074200E+04  0.41663475148E+04  0.40361261163E+04 0.  0.
        2    1    3    3  502    0 -0.13213836273E+03 -0.59273256689E+03  0.25033687091E+04  0.25759750264E+04  0.25500000920E-02 0. -1.
       -2    1    3    3    0  502  0.13213836273E+03  0.59273256689E+03 -0.14698612891E+04  0.15903724884E+04  0.25500000920E-02 0.  1.
</event>
<event>
 5   0  0.8528625E-08  0.3987739E+04  0.7818609E-02  0.8007025E-01
       -1   -1    0    0    0  501  0.00000000000E+00  0.00000000000E+00  0.26604911795E+04  0.26604911795E+04  0.50400001928E-02 0. -1.
        1   -1    0    0  501    0  0.00000000000E+00  0.00000000000E+00 -0.14942788593E+04  0.14942788593E+04  0.50400001928E-02 0.  1.
    10030    2    1    2    0    0  0.00000000000E+00  0.00000000000E+00  0.11662123202E+04  0.41547700388E+04  0.39877390711E+04 0.  0.
        5    1    3    3  502    0  0.18928305747E+04 -0.58453948283E+03  0.34781596676E+03  0.20113408534E+04  0.46999998093E+01 0.  1.
       -5    1    3    3    0  502 -0.18928305747E+04  0.58453948283E+03  0.81839635341E+03  0.21434291854E+04  0.46999998093E+01 0. -1.
</event>
<event>
 5   0  0.2666978E-07  0.3360200E+04  0.7818609E-02  0.8147744E-01
        2   -1    0    0  501    0  0.00000000000E+00  0.00000000000E+00  0.16320186801E+04  0.16320186801E+04  0.25500000920E-02 0. -1.
       -2   -1    0    0    0  501  0.00000000000E+00  0.00000000000E+00 -0.17295981737E+04  0.17295981737E+04  0.25500000920E-02 0.  1.
    10030    2    1    2    0    0  0.00000000000E+00  0.00000000000E+00 -0.97579493559E+02  0.33616168537E+04  0.33602003086E+04 0.  0.
        4    1    3    3  502    0 -0.16519270139E+04  0.17822560000E+03  0.20052946166E+03  0.16735713017E+04  0.12699999809E+01 0. -1.
       -4    1    3    3    0  502  0.16519270139E+04 -0.17822560000E+03 -0.29810895522E+03  0.16880455521E+04  0.12699999809E+01 0.  1.
</event>
<event>
 5   0  0.2661693E-07  0.3738693E+04  0.7818609E-02  0.8059441E-01
        2   -1    0    0  501    0  0.00000000000E+00  0.00000000000E+00  0.20717350662E+04  0.20717350663E+04  0.25500000920E-02 0. -1.
       -2   -1    0    0    0  501  0.00000000000E+00  0.00000000000E+00 -0.16867296057E+04  0.16867296057E+04  0.25500000920E-02 0.  1.
    10030    2    1    2    0    0  0.00000000000E+00  0.00000000000E+00  0.38500546051E+03  0.37584646720E+04  0.37386932859E+04 0.  0.
        1    1    3    3  502    0  0.25931614931E+03 -0.59723182165E+03 -0.15690556267E+04  0.16987837631E+04  0.50400001928E-02 0.  1.
       -1    1    3    3    0  502 -0.25931614931E+03  0.59723182165E+03  0.19540610872E+04  0.20596809089E+04  0.50400001928E-02 0. -1.
</event>
<event>
 5   0  0.2661693E-07  0.3968006E+04  0.7818609E-02  0.8011032E-01
        2   -1    0    0  501    0  0.00000000000E+00  0.00000000000E+00  0.23013476199E+04  0.23013476199E+04  0.25500000920E-02 0. -1.
       -2   -1    0    0    0  501  0.00000000000E+00  0.00000000000E+00 -0.17104190182E+04  0.17104190182E+04  0.25500000920E-02 0.  1.
    10030    2    1    2    0    0  0.00000000000E+00  0.00000000000E+00  0.59092860172E+03  0.40117666380E+04  0.39680064196E+04 0.  0.
        1    1    3    3  502    0 -0.17851356376E+04 -0.74052742137E+03 -0.15801160741E+03  0.19390868404E+04  0.50400001928E-02 0.  1.
       -1    1    3    3    0  502  0.17851356376E+04  0.74052742137E+03  0.74894020913E+03  0.20726797976E+04  0.50400001928E-02 0. -1.
</event>
<event>
 5   0  0.8528625E-08  0.3992516E+04  0.7818609E-02  0.8006058E-01
        1   -1    0    0  501    0  0.00000000000E+00  0.00000000000E+00  0.25835184712E+04  0.25835184712E+04  0.50400001928E-02 0. -1.
       -1   -1    0    0    0  501  0.00000000000E+00  0.00000000000E+00 -0.15424880241E+04  0.15424880241E+04  0.50400001928E-02 0.  1.
    10030    2    1    2    0    0  0.00000000000E+00  0.00000000000E+00  0.10410304471E+04  0.41260064953E+04  0.39925161499E+04 0.  0.
        4    1    3    3  502    0 -0.11414735667E+03  0.77388810628E+03 -0.13774953342E+04  0.15841172396E+04  0.12699999809E+01 0.  1.
       -4    1    3    3    0  502  0.11414735667E+03 -0.77388810628E+03  0.24185257813E+04  0.25418892557E+04  0.12699999809E+01 0. -1.
</event>
<event>
 5   0  0.2666978E-07  0.3989425E+04  0.7818609E-02  0.8006683E-01
       -2   -1    0    0    0  501  0.00000000000E+00  0.00000000000E+00  0.18769042661E+04  0.18769042661E+04  0.25500000920E-02 0. -1.
        2   -1    0    0  501    0  0.00000000000E+00  0.00000000000E+00 -0.21199156125E+04  0.21199156125E+04  0.25500000920E-02 0.  1.
    10030    2    1    2    0    0  0.00000000000E+00  0.00000000000E+00 -0.24301134634E+03  0.39968198786E+04  0.39894253506E+04 0.  0.
        4    1    3    3  502    0  0.10584186259E+04  0.79129037025E+03  0.13754145811E+04  0.19073954284E+04  0.12699999809E+01 0. -1.
       -4    1    3    3    0  502 -0.10584186259E+04 -0.79129037025E+03 -0.16184259274E+04  0.20894244502E+04  0.12699999809E+01 0.  1.
</event>
<event>
 5   0  0.2666978E-07  0.4049877E+04  0.7818609E-02  0.7994560E-01
       -2   -1    0    0    0  501  0.00000000000E+00  0.00000000000E+00  0.24001343036E+04  0.24001343036E+04  0.25500000920E-02 0. -1.
        2   -1    0    0  501    0  0.00000000000E+00  0.00000000000E+00 -0.17083945537E+04  0.17083945537E+04  0.25500000920E-02 0.  1.
    10030    2    1    2    0    0  0.00000000000E+00  0.00000000000E+00  0.69173974989E+03  0.41085288573E+04  0.40498772191E+04 0.  0.
        4    1    3    3  502    0  0.19544332881E+03  0.20116075119E+04  0.47262692618E+03  0.20756061044E+04  0.12699999809E+01 0. -1.
       -4    1    3    3    0  502 -0.19544332881E+03 -0.20116075119E+04  0.21911282371E+03  0.20329227528E+04  0.12699999809E+01 0.  1.
</event>
<event>
 5   0  0.8528625E-08  0.3978552E+04  0.7818609E-02  0.8008887E-01
       -1   -1    0    0    0  501  0.00000000000E+00  0.00000000000E+00  0.22790837712E+04  0.22790837712E+04  0.50400001928E-02 0.  1.
        1   -1    0    0  501    0  0.00000000000E+00  0.00000000000E+00 -0.17363200818E+04  0.17363200819E+04  0.50400001928E-02 0. -1.
    10030    2    1    2    0    0  0.00000000000E+00  0.00000000000E+00  0.54276368936E+03  0.40154038531E+04  0.39785519578E+04 0.  0.
        2    1    3    3  502    0  0.11411347024E+04 -0.37929437291E+03  0.18707260224E+04  0.22238858966E+04  0.25500000920E-02 0.  1.
       -2    1    3    3    0  502 -0.11411347024E+04  0.37929437291E+03 -0.13279623331E+04  0.17915179564E+04  0.25500000920E-02 0. -1.
</event>
<event>
 5   0  0.2666978E-07  0.4003918E+04  0.7818609E-02  0.8003757E-01
        2   -1    0    0  501    0  0.00000000000E+00  0.00000000000E+00  0.24181368286E+04  0.24181368286E+04  0.25500000920E-02 0. -1.
       -2   -1    0    0    0  501  0.00000000000E+00  0.00000000000E+00 -0.16574084951E+04  0.16574084951E+04  0.25500000920E-02 0.  1.
    10030    2    1    2    0    0  0.00000000000E+00  0.00000000000E+00  0.76072833345E+03  0.40755453237E+04  0.40039183419E+04 0.  0.
        4    1    3    3  502    0 -0.91311839575E+03  0.17794492608E+04  0.29154475580E+03  0.20211939130E+04  0.12699999809E+01 0.  1.
       -4    1    3    3    0  502  0.91311839575E+03 -0.17794492608E+04  0.46918357765E+03  0.20543514107E+04  0.12699999809E+01 0. -1.
</event>
<event>
 5   0  0.8528625E-08  0.3084716E+04  0.7818609E-02  0.8219945E-01
       -1   -1    0    0    0  501  0.00000000000E+00  0.00000000000E+00  0.86488998744E+03  0.86488998746E+03  0.50400001928E-02 0.  1.
        1   -1    0    0  501    0  0.00000000000E+00  0.00000000000E+00 -0.27504864856E+04  0.27504864856E+04  0.50400001928E-02 0. -1.
    10030    2    1    2    0    0  0.00000000000E+00  0.00000000000E+00 -0.18855964981E+04  0.36153764730E+04  0.30847160142E+04 0.  0.
        5    1    3    3  502    0 -0.15595486666E+03 -0.15159535154E+04 -0.12211622820E+04  0.19528687591E+04  0.46999998093E+01 0. -1.
       -5    1    3    3    0  502  0.15595486666E+03  0.15159535154E+04 -0.66443421616E+03  0.16625077139E+04  0.46999998093E+01 0.  1.
</event>
<event>
 5   0  0.8528625E-08  0.4068082E+04  0.7818609E-02  0.7990951E-01
        1   -1    0    0  501    0  0.00000000000E+00  0.00000000000E+00  0.17104582662E+04  0.17104582662E+04  0.50400001928E-02 0.  1.
       -1   -1    0    0    0  501  0.00000000000E+00  0.00000000000E+00 -0.24188392746E+04  0.24188392746E+04  0.50400001928E-02 0. -1.
    10030    2    1    2    0    0  0.00000000000E+00  0.00000000000E+00 -0.70838100833E+03  0.41292975408E+04  0.40680824140E+04 0.  0.
        5    1    3    3  502    0  0.17648894560E+04 -0.28091291017E+03 -0.13401747438E+04  0.22337943703E+04  0.46999998093E+01 0. -1.
       -5    1    3    3    0  502 -0.17648894560E+04  0.28091291017E+03  0.63179373547E+03  0.18955031705E+04  0.46999998093E+01 0.  1.
</event>
<event>
 5   0  0.8528625E-08  0.4028953E+04  0.7818609E-02  0.7998731E-01
        1   -1    0    0  501    0  0.00000000000E+00  0.00000000000E+00  0.14327236574E+04  0.14327236574E+04  0.50400001928E-02 0.  1.
       -1   -1    0    0    0  501  0.00000000000E+00  0.00000000000E+00 -0.28324486867E+04  0.28324486867E+04  0.50400001928E-02 0. -1.
    10030    2    1    2    0    0  0.00000000000E+00  0.00000000000E+00 -0.13997250293E+04  0.42651723442E+04  0.40289533340E+04 0.  0.
        5    1    3    3  502    0  0.10525103042E+04  0.13108101012E+04  0.47521389698E+03  0.17469548934E+04  0.46999998093E+01 0.  1.
       -5    1    3    3    0  502 -0.10525103042E+04 -0.13108101012E+04 -0.18749389263E+04  0.25182174507E+04  0.46999998093E+01 0. -1.
</event>
<event>
 5   0  0.8528625E-08  0.4010738E+04  0.7818609E-02  0.8002384E-01
       -1   -1    0    0    0  501  0.00000000000E+00  0.00000000000E+00  0.14667254834E+04  0.14667254834E+04  0.50400001928E-02 0.  1.
        1   -1    0    0  501    0  0.00000000000E+00  0.00000000000E+00 -0.27418255769E+04  0.27418255769E+04  0.50400001928E-02 0. -1.
    10030    2    1    2    0    0  0.00000000000E+00  0.00000000000E+00 -0.12751000935E+04  0.42085510604E+04  0.40107383085E+04 0.  0.
        2    1    3    3  502    0 -0.87988725399E+03  0.12688541735E+04  0.70513490961E+03  0.16974709818E+04  0.25500000920E-02 0.  1.
       -2    1    3    3    0  502  0.87988725399E+03 -0.12688541735E+04 -0.19802350031E+04  0.25110800786E+04  0.25500000920E-02 0. -1.
</event>
<event>
 5   0  0.2839279E-07  0.3762403E+04  0.7818609E-02  0.8054272E-01
        2   -1    0    0  501    0  0.00000000000E+00  0.00000000000E+00  0.19278702535E+04  0.19278702535E+04  0.25500000920E-02 0. -1.
       -2   -1    0    0    0  501  0.00000000000E+00  0.00000000000E+00 -0.18356620467E+04  0.18356620467E+04  0.25500000920E-02 0.  1.
    10030    2    1    2    0    0  0.00000000000E+00  0.00000000000E+00  0.92208206808E+02  0.37635323003E+04  0.37624025598E+04 0.  0.
        3    1    3    3  502    0  0.18279193789E+04  0.39408974876E+03  0.25188962153E+03  0.18868079864E+04  0.10100000352E+00 0. -1.
       -3    1    3    3    0  502 -0.18279193789E+04 -0.39408974876E+03 -0.15968141472E+03  0.18767243139E+04  0.10100000352E+00 0.  1.
</event>
<event>
 5   0  0.2704088E-07  0.4086633E+04  0.7818609E-02  0.7987294E-01
        2   -1    0    0  501    0  0.00000000000E+00  0.00000000000E+00  0.26577444230E+04  0.26577444230E+04  0.25500000920E-02 0. -1.
       -2   -1    0    0    0  501  0.00000000000E+00  0.00000000000E+00 -0.15709347245E+04  0.15709347245E+04  0.25500000920E-02 0.  1.
    10030    2    1    2    0    0  0.00000000000E+00  0.00000000000E+00  0.10868096985E+04  0.42286791475E+04  0.40866333346E+04 0.  0.
        5    1    3    3  502    0 -0.68761122784E+02  0.53594032094E+03 -0.14956633333E+04  0.15902801691E+04  0.46999998093E+01 0.  1.
       -5    1    3    3    0  502  0.68761122784E+02 -0.53594032094E+03  0.25824730318E+04  0.26383989784E+04  0.46999998093E+01 0. -1.
</event>
<event>
 5   0  0.2730801E-07  0.3983529E+04  0.7818609E-02  0.8007878E-01
       -2   -1    0    0    0  501  0.00000000000E+00  0.00000000000E+00  0.25341077484E+04  0.25341077484E+04  0.25500000920E-02 0. -1.
        2   -1    0    0  501    0  0.00000000000E+00  0.00000000000E+00 -0.15654919258E+04  0.15654919258E+04  0.25500000920E-02 0.  1.
    10030    2    1    2    0    0  0.00000000000E+00  0.00000000000E+00  0.96861582257E+03  0.40995996742E+04  0.39835286966E+04 0.  0.
        2    1    3    3  502    0  0.14819640206E+04 -0.13307261997E+04  0.47535722538E+03  0.20476850511E+04  0.25500000920E-02 0.  1.
       -2    1    3    3    0  502 -0.14819640206E+04  0.13307261997E+04  0.49325859720E+03  0.20519146231E+04  0.25500000920E-02 0. -1.
</event>
<event>
 5   0  0.8528625E-08  0.4037437E+04  0.7818609E-02  0.7997037E-01
       -1   -1    0    0    0  501  0.00000000000E+00  0.00000000000E+00  0.14308425801E+04  0.14308425801E+04  0.50400001928E-02 0.  1.
        1   -1    0    0  501    0  0.00000000000E+00  0.00000000000E+00 -0.28481294678E+04  0.28481294678E+04  0.50400001928E-02 0. -1.
    10030    2    1    2    0    0  0.00000000000E+00  0.00000000000E+00 -0.14172868878E+04  0.42789720479E+04  0.40374372645E+04 0.  0.
        4    1    3    3  502    0 -0.87222648977E+03 -0.17155572961E+04 -0.13544470637E+04  0.23533899691E+04  0.12699999809E+01 0. -1.
       -4    1    3    3    0  502  0.87222648977E+03  0.17155572961E+04 -0.62839824054E+02  0.19255820787E+04  0.12699999809E+01 0.  1.
</event>
<event>
 5   0  0.2661693E-07  0.4072662E+04  0.7818609E-02  0.7990047E-01
        2   -1    0    0  501    0  0.00000000000E+00  0.00000000000E+00  0.30871552409E+04  0.30871552409E+04  0.25500000920E-02 0. -1.
       -2   -1    0    0    0  501  0.00000000000E+00  0.00000000000E+00 -0.13431927474E+04  0.13431927474E+04  0.25500000920E-02 0.  1.
    10030    2    1    2    0    0  0.00000000000E+00  0.00000000000E+00  0.17439624936E+04  0.44303479883E+04  0.40726622888E+04 0.  0.
        1    1    3    3  502    0 -0.14207626719E+04 -0.69280969910E+03 -0.52454870937E+03  0.16654438440E+04  0.50400001928E-02 0.  1.
       -1    1    3    3    0  502  0.14207626719E+04  0.69280969910E+03  0.22685112029E+04  0.27649041443E+04  0.50400001928E-02 0. -1.
</event>
<event>
 5   0  0.8528625E-08  0.3641705E+04  0.7818609E-02  0.8081005E-01
       -1   -1    0    0    0  501  0.00000000000E+00  0.00000000000E+00  0.11316985641E+04  0.11316985641E+04  0.50400001928E-02 0.  1.
        1   -1    0    0  501    0  0.00000000000E+00  0.00000000000E+00 -0.29296706751E+04  0.29296706751E+04  0.50400001928E-02 0. -1.
    10030    2    1    2    0    0  0.00000000000E+00  0.00000000000E+00 -0.17979721111E+04  0.40613692392E+04  0.36417051480E+04 0.  0.
        2    1    3    3  502    0  0.23756467300E+03  0.14024654996E+04 -0.21667121966E+04  0.25919082149E+04  0.25500000920E-02 0. -1.
       -2    1    3    3    0  502 -0.23756467300E+03 -0.14024654996E+04  0.36874008554E+03  0.14694610243E+04  0.25500000920E-02 0.  1.
</event>
<event>
 5   0  0.8583262E-08  0.3968535E+04  0.7818609E-02  0.8010924E-01
        1   -1    0    0  501    0  0.00000000000E+00  0.00000000000E+00  0.12893982370E+04  0.12893982370E+04  0.50400001928E-02 0. -1.
       -1   -1    0    0    0  501  0.00000000000E+00  0.00000000000E+00 -0.30536085261E+04  0.30536085261E+04  0.50400001928E-02 0.  1.
    10030    2    1    2    0    0  0.00000000000E+00  0.00000000000E+00 -0.17642102891E+04  0.43430067632E+04  0.39685349690E+04 0.  0.
        1    1    3    3  502    0  0.58189878625E+03  0.13414415019E+04 -0.23500358707E+04  0.27678042008E+04  0.50400001928E-02 0.  1.
       -1    1    3    3    0  502 -0.58189878625E+03 -0.13414415019E+04  0.58582558154E+03  0.15752025624E+04  0.50400001928E-02 0. -1.
</event>
<event>
 5   0  0.8528625E-08  0.4139860E+04  0.7818609E-02  0.7976912E-01
       -1   -1    0    0    0  501  0.00000000000E+00  0.00000000000E+00  0.26628902756E+04  0.26628902756E+04  0.50400001928E-02 0.  1.
        1   -1    0    0  501    0  0.00000000000E+00  0.00000000000E+00 -0.16090077203E+04  0.16090077203E+04  0.50400001928E-02 0. -1.
    10030    2    1    2    0    0  0.00000000000E+00  0.00000000000E+00  0.10538825553E+04  0.42718979960E+04  0.41398603899E+04 0.  0.
        3    1    3    3  502    0  0.13064539073E+04 -0.65250445815E+03  0.20407083314E+04  0.25093972152E+04  0.10100000352E+00 0.  1.
       -3    1    3    3    0  502 -0.13064539073E+04  0.65250445815E+03 -0.98682577606E+03  0.17625007808E+04  0.10100000352E+00 0. -1.
</event>
<event>
 5   0  0.8528625E-08  0.3997716E+04  0.7818609E-02  0.8005007E-01
       -1   -1    0    0    0  501  0.00000000000E+00  0.00000000000E+00  0.24014635227E+04  0.24014635227E+04  0.50400001928E-02 0. -1.
        1   -1    0    0  501    0  0.00000000000E+00  0.00000000000E+00 -0.16637496005E+04  0.16637496005E+04  0.50400001928E-02 0.  1.
    10030    2    1    2    0    0  0.00000000000E+00  0.00000000000E+00  0.73771392224E+03  0.40652131232E+04  0.39977163363E+04 0.  0.
        2    1    3    3  502    0 -0.75972413861E+03  0.16085207868E+04 -0.55807830419E+03  0.18643956881E+04  0.25500000920E-02 0.  1.
       -2    1    3    3    0  502  0.75972413861E+03 -0.16085207868E+04  0.12957922264E+04  0.22008174350E+04  0.25500000920E-02 0. -1.
</event>
<event>
 5   0  0.8528625E-08  0.3763247E+04  0.7818609E-02  0.8054088E-01
       -1   -1    0    0    0  501  0.00000000000E+00  0.00000000000E+00  0.13122465777E+04  0.13122465777E+04  0.50400001928E-02 0.  1.
        1   -1    0    0  501    0  0.00000000000E+00  0.00000000000E+00 -0.26980496759E+04  0.26980496759E+04  0.50400001928E-02 0. -1.
    10030    2    1    2    0    0  0.00000000000E+00  0.00000000000E+00 -0.13858030983E+04  0.40102962536E+04  0.37632467119E+04 0.  0.
        3    1    3    3  502    0 -0.55770099795E+03 -0.17117037501E+04 -0.10966362674E+03  0.18036036850E+04  0.10100000352E+00 0. -1.
       -3    1    3    3    0  502  0.55770099795E+03  0.17117037501E+04 -0.12761394715E+04  0.22066925686E+04  0.10100000352E+00 0.  1.
</event>
<event>
 5   0  0.8583262E-08  0.3904370E+04  0.7818609E-02  0.8024121E-01
        1   -1    0    0  501    0  0.00000000000E+00  0.00000000000E+00  0.22840112183E+04  0.22840112183E+04  0.50400001928E-02 0.  1.
       -1   -1    0    0    0  501  0.00000000000E+00  0.00000000000E+00 -0.16685673011E+04  0.16685673011E+04  0.50400001928E-02 0. -1.
    10030    2    1    2    0    0  0.00000000000E+00  0.00000000000E+00  0.61544391720E+03  0.39525785194E+04  0.39043700820E+04 0.  0.
        1    1    3    3  502    0 -0.17651673265E+04  0.61653357639E+03  0.87598803134E+03  0.20647722326E+04  0.50400001928E-02 0. -1.
       -1    1    3    3    0  502  0.17651673265E+04 -0.61653357639E+03 -0.26054411414E+03  0.18878062869E+04  0.50400001928E-02 0.  1.
</event>
<event>
 5   0  0.8528625E-08  0.4006292E+04  0.7818609E-02  0.8003278E-01
        1   -1    0    0  501    0  0.00000000000E+00  0.00000000000E+00  0.15690657947E+04  0.15690657947E+04  0.50400001928E-02 0. -1.
       -1   -1    0    0    0  501  0.00000000000E+00  0.00000000000E+00 -0.25573142592E+04  0.25573142592E+04  0.50400001928E-02 0.  1.
    10030    2    1    2    0    0  0.00000000000E+00  0.00000000000E+00 -0.98824846449E+03  0.41263800538E+04  0.40062922162E+04 0.  0.
        2    1    3    3  502    0  0.11626171327E+04  0.16243792147E+04 -0.34028895192E+03  0.20263472064E+04  0.25500000920E-02 0.  1.
       -2    1    3    3    0  502 -0.11626171327E+04 -0.16243792147E+04 -0.64795951257E+03  0.21000328474E+04  0.25500000920E-02 0. -1.
</event>
<event>
 5   0  0.2730801E-07  0.3940425E+04  0.7818609E-02  0.8016674E-01
        2   -1    0    0  501    0  0.00000000000E+00  0.00000000000E+00  0.13741608685E+04  0.13741608685E+04  0.25500000920E-02 0. -1.
       -2   -1    0    0    0  501  0.00000000000E+00  0.00000000000E+00 -0.28248058281E+04  0.28248058281E+04  0.25500000920E-02 0.  1.
    10030    2    1    2    0    0  0.00000000000E+00  0.00000000000E+00 -0.14506449597E+04  0.41989666966E+04  0.39404251700E+04 0.  0.
        2    1    3    3  502    0  0.11278663328E+04  0.15210133925E+04 -0.14539673430E+03  0.18991325428E+04  0.25500000920E-02 0. -1.
       -2    1    3    3    0  502 -0.11278663328E+04 -0.15210133925E+04 -0.13052482253E+04  0.22998341537E+04  0.25500000920E-02 0.  1.
</event>
<event>
 5   0  0.8528625E-08  0.3870646E+04  0.7818609E-02  0.8031162E-01
        1   -1    0    0  501    0  0.00000000000E+00  0.00000000000E+00  0.12968344302E+04  0.12968344302E+04  0.50400001928E-02 0.  1.
       -1   -1    0    0    0  501  0.00000000000E+00  0.00000000000E+00 -0.28881668698E+04  0.28881668698E+04  0.50400001928E-02 0. -1.
    10030    2    1    2    0    0  0.00000000000E+00  0.00000000000E+00 -0.15913324396E+04  0.41850012999E+04  0.38706455466E+04 0.  0.
        2    1    3    3  502    0  0.97437050807E+03 -0.16764206666E+03  0.10031760285E+04  0.14084970336E+04  0.25500000920E-02 0.  1.
       -2    1    3    3    0  502 -0.97437050807E+03  0.16764206666E+03 -0.25945084682E+04  0.27765042663E+04  0.25500000920E-02 0. -1.
</event>
<event>
 5   0  0.8528625E-08  0.3983315E+04  0.7818609E-02  0.8007921E-01
       -1   -1    0    0    0  501  0.00000000000E+00  0.00000000000E+00  0.29238327081E+04  0.29238327081E+04  0.50400001928E-02 0. -1.
        1   -1    0    0  501    0  0.00000000000E+00  0.00000000000E+00 -0.13566778980E+04  0.13566778980E+04  0.50400001928E-02 0.  1.
    10030    2    1    2    0    0  0.00000000000E+00  0.00000000000E+00  0.15671548101E+04  0.42805106061E+04  0.39833148068E+04 0.  0.
        5    1    3    3  502    0 -0.14959647267E+04  0.64767577719E+03 -0.44603339558E+03  0.16900775887E+04  0.46999998093E+01 0.  1.
       -5    1    3    3    0  502  0.14959647267E+04 -0.64767577719E+03  0.20131882057E+04  0.25904330174E+04  0.46999998093E+01 0. -1.
</event>
<event>
 5   0  0.2839279E-07  0.4022648E+04  0.7818609E-02  0.7999993E-01
       -2   -1    0    0    0  501  0.00000000000E+00  0.00000000000E+00  0.14017229433E+04  0.14017229433E+04  0.25500000920E-02 0. -1.
        2   -1    0    0  501    0  0.00000000000E+00  0.00000000000E+00 -0.28860372973E+04  0.28860372973E+04  0.25500000920E-02 0.  1.
    10030    2    1    2    0    0  0.00000000000E+00  0.00000000000E+00 -0.14843143540E+04  0.42877602406E+04  0.40226482297E+04 0.  0.
        3    1    3    3  502    0 -0.45948660529E+02 -0.92805427780E+03 -0.26435440017E+04  0.28020922399E+04  0.10100000352E+00 0.  1.
       -3    1    3    3    0  502  0.45948660529E+02  0.92805427780E+03  0.11592296477E+04  0.14856680007E+04  0.10100000352E+00 0. -1.
</event>
<event>
 5   0  0.2839279E-07  0.4036219E+04  0.7818609E-02  0.7997280E-01
       -2   -1    0    0    0  501  0.00000000000E+00  0.00000000000E+00  0.16314142112E+04  0.16314142112E+04  0.25500000920E-02 0.  1.
        2   -1    0    0  501    0  0.00000000000E+00  0.00000000000E+00 -0.24964630323E+04  0.24964630323E+04  0.25500000920E-02 0. -1.
    10030    2    1    2    0    0  0.00000000000E+00  0.00000000000E+00 -0.86504882112E+03  0.41278772435E+04  0.40362186604E+04 0.  0.
        3    1    3    3  502    0  0.11554930931E+04 -0.12521020279E+04 -0.15386784160E+04  0.22957471669E+04  0.10100000352E+00 0. -1.
       -3    1    3    3    0  502 -0.11554930931E+04  0.12521020279E+04  0.67362959492E+03  0.18321300766E+04  0.10100000352E+00 0.  1.
</event>
<event>
 5   0  0.2666978E-07  0.4104355E+04  0.7818609E-02  0.7983819E-01
        2   -1    0    0  501    0  0.00000000000E+00  0.00000000000E+00  0.22666052907E+04  0.22666052907E+04  0.25500000920E-02 0.  1.
       -2   -1    0    0    0  501  0.00000000000E+00  0.00000000000E+00 -0.18580356215E+04  0.18580356215E+04  0.25500000920E-02 0. -1.
    10030    2    1    2    0    0  0.00000000000E+00  0.00000000000E+00  0.40856966913E+03  0.41246409122E+04  0.41043554281E+04 0.  0.
        4    1    3    3  502    0 -0.83031574453E+03 -0.18765366879E+04  0.22925882306E+03  0.20647942749E+04  0.12699999809E+01 0. -1.
       -4    1    3    3    0  502  0.83031574453E+03  0.18765366879E+04  0.17931084607E+03  0.20598466373E+04  0.12699999809E+01 0.  1.
</event>
<event>
 5   0  0.2839279E-07  0.3145114E+04  0.7818609E-02  0.8203465E-01
       -2   -1    0    0    0  501  0.00000000000E+00  0.00000000000E+00  0.11862874407E+04  0.11862874407E+04  0.25500000920E-02 0. -1.
        2   -1    0    0  501    0  0.00000000000E+00  0.00000000000E+00 -0.20846009978E+04  0.20846009978E+04  0.25500000920E-02 0.  1.
    10030    2    1    2    0    0  0.00000000000E+00  0.00000000000E+00 -0.89831355706E+03  0.32708884385E+04  0.31451142953E+04 0.  0.
        3    1    3    3  502    0  0.51574747867E+03 -0.11543951531E+04  0.52328274847E+03  0.13683743919E+04  0.10100000352E+00 0. -1.
       -3    1    3    3    0  502 -0.51574747867E+03  0.11543951531E+04 -0.14215963055E+04  0.19025140466E+04  0.10100000352E+00 0.  1.
</event>
<event>
 5   0  0.2661693E-07  0.3797569E+04  0.7818609E-02  0.8046677E-01
        2   -1    0    0  501    0  0.00000000000E+00  0.00000000000E+00  0.23422192843E+04  0.23422192843E+04  0.25500000920E-02 0. -1.
       -2   -1    0    0    0  501  0.00000000000E+00  0.00000000000E+00 -0.15393016743E+04  0.15393016743E+04  0.25500000920E-02 0.  1.
    10030    2    1    2    0    0  0.00000000000E+00  0.00000000000E+00  0.80291761002E+03  0.38815209586E+04  0.37975687306E+04 0.  0.
        1    1    3    3  502    0  0.10034765812E+04 -0.12188660537E+03  0.20443379191E+04  0.22806006054E+04  0.50400001928E-02 0. -1.
       -1    1    3    3    0  502 -0.10034765812E+04  0.12188660537E+03 -0.12414203091E+04  0.16009203533E+04  0.50400001928E-02 0.  1.
</event>
<event>
 5   0  0.2839279E-07  0.3956709E+04  0.7818609E-02  0.8013337E-01
        2   -1    0    0  501    0  0.00000000000E+00  0.00000000000E+00  0.20938905790E+04  0.20938905790E+04  0.25500000920E-02 0.  1.
       -2   -1    0    0    0  501  0.00000000000E+00  0.00000000000E+00 -0.18691933905E+04  0.18691933905E+04  0.25500000920E-02 0. -1.
    10030    2    1    2    0    0  0.00000000000E+00  0.00000000000E+00  0.22469718848E+03  0.39630839696E+04  0.39567089511E+04 0.  0.
        3    1    3    3  502    0  0.17546713326E+04 -0.46930103055E+03  0.89768553069E+03  0.20260686723E+04  0.10100000352E+00 0.  1.
       -3    1    3    3    0  502 -0.17546713326E+04  0.46930103055E+03 -0.67298834221E+03  0.19370152972E+04  0.10100000352E+00 0. -1.
</event>
<event>
 5   0  0.2704088E-07  0.4022183E+04  0.7818609E-02  0.8000086E-01
       -2   -1    0    0    0  501  0.00000000000E+00  0.00000000000E+00  0.28096460612E+04  0.28096460612E+04  0.25500000920E-02 0. -1.
        2   -1    0    0  501    0  0.00000000000E+00  0.00000000000E+00 -0.14395015192E+04  0.14395015192E+04  0.25500000920E-02 0.  1.
    10030    2    1    2    0    0  0.00000000000E+00  0.00000000000E+00  0.13701445421E+04  0.42491475804E+04  0.40221833740E+04 0.  0.
        5    1    3    3  502    0  0.41231160528E+03 -0.12620652608E+04  0.22808236646E+04  0.26391264201E+04  0.46999998093E+01 0. -1.
       -5    1    3    3    0  502 -0.41231160528E+03  0.12620652608E+04 -0.91067912254E+03  0.16100211603E+04  0.46999998093E+01 0.  1.
</event>
<event>
 5   0  0.8528625E-08  0.4026278E+04  0.7818609E-02  0.7999266E-01
        1   -1    0    0  501    0  0.00000000000E+00  0.00000000000E+00  0.23117161357E+04  0.23117161358E+04  0.50400001928E-02 0.  1.
       -1   -1    0    0    0  501  0.00000000000E+00  0.00000000000E+00 -0.17531252430E+04  0.17531252430E+04  0.50400001928E-02 0. -1.
    10030    2    1    2    0    0  0.00000000000E+00  0.00000000000E+00  0.55859089277E+03  0.40648413787E+04  0.40262776418E+04 0.  0.
        5    1    3    3  502    0 -0.10071708511E+04  0.11935815318E+04 -0.10031769610E+04  0.18561832079E+04  0.46999998093E+01 0. -1.
       -5    1    3    3    0  502  0.10071708511E+04 -0.11935815318E+04  0.15617678538E+04  0.22086581708E+04  0.46999998093E+01 0.  1.
</event>
<event>
 5   0  0.8583262E-08  0.3366070E+04  0.7818609E-02  0.8146284E-01
       -1   -1    0    0    0  501  0.00000000000E+00  0.00000000000E+00  0.14536299719E+04  0.14536299719E+04  0.50400001928E-02 0.  1.
        1   -1    0    0  501    0  0.00000000000E+00  0.00000000000E+00 -0.19486432879E+04  0.19486432879E+04  0.50400001928E-02 0. -1.
    10030    2    1    2    0    0  0.00000000000E+00  0.00000000000E+00 -0.49501331592E+03  0.34022732598E+04  0.33660696890E+04 0.  0.
        1    1    3    3  502    0  0.78104417183E+03  0.90847973651E+03 -0.14422695545E+04  0.18749685058E+04  0.50400001928E-02 0. -1.
       -1    1    3    3    0  502 -0.78104417183E+03 -0.90847973651E+03  0.94725623857E+03  0.15273047540E+04  0.50400001928E-02 0.  1.
</event>
<event>
 5   0  0.8528625E-08  0.3991374E+04  0.7818609E-02  0.8006289E-01
       -1   -1    0    0    0  501  0.00000000000E+00  0.00000000000E+00  0.20475995286E+04  0.20475995286E+04  0.50400001928E-02 0.  1.
        1   -1    0    0  501    0  0.00000000000E+00  0.00000000000E+00 -0.19450905018E+04  0.19450905018E+04  0.50400001928E-02 0. -1.
    10030    2    1    2    0    0  0.00000000000E+00  0.00000000000E+00  0.10250902681E+03  0.39926900304E+04  0.39913738961E+04 0.  0.
        3    1    3    3  502    0 -0.97564408730E+03 -0.17097120201E+04  0.37964588404E+03  0.20047761931E+04  0.10100000352E+00 0.  1.
       -3    1    3    3    0  502  0.97564408730E+03  0.17097120201E+04 -0.27713685723E+03  0.19879138373E+04  0.10100000352E+00 0. -1.
</event>
<event>
 5   0  0.8583262E-08  0.3979207E+04  0.7818609E-02  0.8008754E-01
       -1   -1    0    0    0  501  0.00000000000E+00  0.00000000000E+00  0.17479983471E+04  0.17479983472E+04  0.50400001928E-02 0.  1.
        1   -1    0    0  501    0  0.00000000000E+00  0.00000000000E+00 -0.22646027583E+04  0.22646027584E+04  0.50400001928E-02 0. -1.
    10030    2    1    2    0    0  0.00000000000E+00  0.00000000000E+00 -0.51660441120E+03  0.40126011055E+04  0.39792068951E+04 0.  0.
        1    1    3    3  502    0  0.61595406791E+03  0.17142240248E+04 -0.10653678359E+04  0.21102066361E+04  0.50400001928E-02 0. -1.
       -1    1    3    3    0  502 -0.61595406791E+03 -0.17142240248E+04  0.54876342466E+03  0.19023944695E+04  0.50400001928E-02 0.  1.
</event>
<event>
 5   0  0.8528625E-08  0.4071467E+04  0.7818609E-02  0.7990283E-01
        1   -1    0    0  501    0  0.00000000000E+00  0.00000000000E+00  0.18944138183E+04  0.18944138183E+04  0.50400001928E-02 0. -1.
       -1   -1    0    0    0  501  0.00000000000E+00  0.00000000000E+00 -0.21875950857E+04  0.21875950857E+04  0.50400001928E-02 0.  1.
    10030    2    1    2    0    0  0.00000000000E+00  0.00000000000E+00 -0.29318126732E+03  0.40820089040E+04  0.40714667427E+04 0.  0.
        4    1    3    3  502    0 -0.19986899138E+04  0.15239016431E+03 -0.50279158842E+03  0.20665877983E+04  0.12699999809E+01 0.  1.
       -4    1    3    3    0  502  0.19986899138E+04 -0.15239016431E+03  0.20961032110E+03  0.20154211057E+04  0.12699999809E+01 0. -1.
</event>
<event>
 5   0  0.2666978E-07  0.3924592E+04  0.7818609E-02  0.8019934E-01
        2   -1    0    0  501    0  0.00000000000E+00  0.00000000000E+00  0.20427666722E+04  0.20427666722E+04  0.25500000920E-02 0.  1.
       -2   -1    0    0    0  501  0.00000000000E+00  0.00000000000E+00 -0.18849948881E+04  0.18849948881E+04  0.25500000920E-02 0. -1.
    10030    2    1    2    0    0  0.00000000000E+00  0.00000000000E+00  0.15777178409E+03  0.39277615604E+04  0.39245915634E+04 0.  0.
        4    1    3    3  502    0 -0.93783360658E+03  0.10938826095E+04  0.14120624939E+04  0.20174323127E+04  0.12699999809E+01 0.  1.
       -4    1    3    3    0  502  0.93783360658E+03 -0.10938826095E+04 -0.12542907098E+04  0.19103292477E+04  0.12699999809E+01 0. -1.
</event>
<event>
 5   0  0.2704088E-07  0.4009134E+04  0.7818609E-02  0.8002706E-01
       -2   -1    0    0    0  501  0.00000000000E+00  0.00000000000E+00  0.14270246741E+04  0.14270246741E+04  0.25500000920E-02 0. -1.
        2   -1    0    0  501    0  0.00000000000E+00  0.00000000000E+00 -0.28158510352E+04  0.28158510352E+04  0.25500000920E-02 0.  1.
    10030    2    1    2    0    0  0.00000000000E+00  0.00000000000E+00 -0.13888263611E+04  0.42428757093E+04  0.40091340241E+04 0.  0.
        5    1    3    3  502    0  0.15651829765E+04 -0.56519245677E+03 -0.18771702987E+04  0.25085913744E+04  0.46999998093E+01 0.  1.
       -5    1    3    3    0  502 -0.15651829765E+04  0.56519245677E+03  0.48834393762E+03  0.17342843350E+04  0.46999998093E+01 0. -1.
</event>
<event>
 5   0  0.8583262E-08  0.3994726E+04  0.7818609E-02  0.8005611E-01
       -1   -1    0    0    0  501  0.00000000000E+00  0.00000000000E+00  0.19205970132E+04  0.19205970132E+04  0.50400001928E-02 0. -1.
        1   -1    0    0  501    0  0.00000000000E+00  0.00000000000E+00 -0.20771977121E+04  0.20771977121E+04  0.50400001928E-02 0.  1.
    10030    2    1    2    0    0  0.00000000000E+00  0.00000000000E+00 -0.15660069888E+03  0.39977947253E+04  0.39947263844E+04 0.  0.
        1    1    3    3  502    0  0.12180953600E+04  0.91593917581E+02 -0.16598033707E+04  0.20608476366E+04  0.50400001928E-02 0.  1.
       -1    1    3    3    0  502 -0.12180953600E+04 -0.91593917581E+02  0.15032026718E+04  0.19369470887E+04  0.50400001928E-02 0. -1.
</event>
<event>
 5   0  0.2839279E-07  0.3937291E+04  0.7818609E-02  0.8017318E-01
        2   -1    0    0  501    0  0.00000000000E+00  0.00000000000E+00  0.30361795263E+04  0.30361795263E+04  0.25500000920E-02 0. -1.
       -2   -1    0    0    0  501  0.00000000000E+00  0.00000000000E+00 -0.12764613810E+04  0.12764613810E+04  0.25500000920E-02 0.  1.
    10030    2    1    2    0    0  0.00000000000E+00  0.00000000000E+00  0.17597181453E+04  0.43126409073E+04  0.39372914097E+04 0.  0.
        3    1    3    3  502    0  0.18251354439E+04  0.29679637119E+03  0.13991520427E+03  0.18543957909E+04  0.10100000352E+00 0.  1.
       -3    1    3    3    0  502 -0.18251354439E+04 -0.29679637119E+03  0.16198029410E+04  0.24582451164E+04  0.10100000352E+00 0. -1.
</event>
<event>
 5   0  0.2661693E-07  0.3949577E+04  0.7818609E-02  0.8014796E-01
       -2   -1    0    0    0  501  0.00000000000E+00  0.00000000000E+00  0.18321672324E+04  0.18321672324E+04  0.25500000920E-02 0.  1.
        2   -1    0    0  501    0  0.00000000000E+00  0.00000000000E+00 -0.21285117204E+04  0.21285117204E+04  0.25500000920E-02 0. -1.
    10030    2    1    2    0    0  0.00000000000E+00  0.00000000000E+00 -0.29634448807E+03  0.39606789528E+04  0.39495769029E+04 0.  0.
        1    1    3    3  502    0  0.67572536748E+03 -0.14988651301E+03  0.17065451557E+04  0.18415664820E+04  0.50400001928E-02 0.  1.
       -1    1    3    3    0  502 -0.67572536748E+03  0.14988651301E+03 -0.20028896438E+04  0.21191124709E+04  0.50400001928E-02 0. -1.
</event>
<event>
 5   0  0.2730801E-07  0.3723984E+04  0.7818609E-02  0.8062667E-01
        2   -1    0    0  501    0  0.00000000000E+00  0.00000000000E+00  0.20739940929E+04  0.20739940929E+04  0.25500000920E-02 0. -1.
       -2   -1    0    0    0  501  0.00000000000E+00  0.00000000000E+00 -0.16716607588E+04  0.16716607588E+04  0.25500000920E-02 0.  1.
    10030    2    1    2    0    0  0.00000000000E+00  0.00000000000E+00  0.40233333414E+03  0.37456548518E+04  0.37239841778E+04 0.  0.
        2    1    3    3  502    0 -0.18520953384E+03 -0.14667876861E+04  0.13396748732E+04  0.19951184059E+04  0.25500000920E-02 0.  1.
       -2    1    3    3    0  502  0.18520953384E+03  0.14667876861E+04 -0.93734153901E+03  0.17505364459E+04  0.25500000920E-02 0. -1.
</event>
<event>
 5   0  0.8528625E-08  0.3981037E+04  0.7818609E-02  0.8008383E-01
        1   -1    0    0  501    0  0.00000000000E+00  0.00000000000E+00  0.28590412327E+04  0.28590412327E+04  0.50400001928E-02 0. -1.
       -1   -1    0    0    0  501  0.00000000000E+00  0.00000000000E+00 -0.13858367991E+04  0.13858367991E+04  0.50400001928E-02 0.  1.
    10030    2    1    2    0    0  0.00000000000E+00  0.00000000000E+00  0.14732044337E+04  0.42448780318E+04  0.39810373273E+04 0.  0.
        2    1    3    3  502    0  0.16614013897E+04 -0.23216916343E+03  0.18790630499E+04  0.25189352997E+04  0.25500000920E-02 0. -1.
       -2    1    3    3    0  502 -0.16614013897E+04  0.23216916343E+03 -0.40585861625E+03  0.17259427322E+04  0.25500000920E-02 0.  1.
</event>
<event>
 5   0  0.8528625E-08  0.4056226E+04  0.7818609E-02  0.7993299E-01
       -1   -1    0    0    0  501  0.00000000000E+00  0.00000000000E+00  0.28756192079E+04  0.28756192079E+04  0.50400001928E-02 0.  1.
        1   -1    0    0  501    0  0.00000000000E+00  0.00000000000E+00 -0.14303852571E+04  0.14303852571E+04  0.50400001928E-02 0. -1.
    10030    2    1    2    0    0  0.00000000000E+00  0.00000000000E+00  0.14452339508E+04  0.43060044650E+04  0.40562264829E+04 0.  0.
        4    1    3    3  502    0 -0.14343781980E+04 -0.13964835799E+04  0.37758831086E+03  0.20371994868E+04  0.12699999809E+01 0. -1.
       -4    1    3    3    0  502  0.14343781980E+04  0.13964835799E+04  0.10676456399E+04  0.22688049782E+04  0.12699999809E+01 0.  1.
</event>
<event>
 5   0  0.2704088E-07  0.3976825E+04  0.7818609E-02  0.8009238E-01
       -2   -1    0    0    0  501  0.00000000000E+00  0.00000000000E+00  0.16896049852E+04  0.16896049852E+04  0.25500000920E-02 0.  1.
        2   -1    0    0  501    0  0.00000000000E+00  0.00000000000E+00 -0.23400639550E+04  0.23400639550E+04  0.25500000920E-02 0. -1.
    10030    2    1    2    0    0  0.00000000000E+00  0.00000000000E+00 -0.65045896976E+03  0.40296689402E+04  0.39768247254E+04 0.  0.
        5    1    3    3  502    0  0.44785021498E+03 -0.10566337776E+04  0.13201446550E+04  0.17492423374E+04  0.46999998093E+01 0.  1.
       -5    1    3    3    0  502 -0.44785021498E+03  0.10566337776E+04 -0.19706036247E+04  0.22804266028E+04  0.46999998093E+01 0. -1.
</event>
<event>
 5   0  0.8528625E-08  0.3981772E+04  0.7818609E-02  0.8008234E-01
        1   -1    0    0  501    0  0.00000000000E+00  0.00000000000E+00  0.18497510749E+04  0.18497510749E+04  0.50400001928E-02 0. -1.
       -1   -1    0    0    0  501  0.00000000000E+00  0.00000000000E+00 -0.21427894738E+04  0.21427894738E+04  0.50400001928E-02 0.  1.
    10030    2    1    2    0    0  0.00000000000E+00  0.00000000000E+00 -0.29303839892E+03  0.39925405487E+04  0.39817720338E+04 0.  0.
        2    1    3    3  502    0 -0.12862992741E+04  0.12052194196E+03  0.13723499461E+04  0.18847906344E+04  0.25500000920E-02 0. -1.
       -2    1    3    3    0  502  0.12862992741E+04 -0.12052194196E+03 -0.16653883451E+04  0.21077499142E+04  0.25500000920E-02 0.  1.
</event>
<event>
 5   0  0.8528625E-08  0.4137577E+04  0.7818609E-02  0.7977354E-01
       -1   -1    0    0    0  501  0.00000000000E+00  0.00000000000E+00  0.15263571533E+04  0.15263571533E+04  0.50400001928E-02 0.  1.
        1   -1    0    0  501    0  0.00000000000E+00  0.00000000000E+00 -0.28039867248E+04  0.28039867248E+04  0.50400001928E-02 0. -1.
    10030    2    1    2    0    0  0.00000000000E+00  0.00000000000E+00 -0.12776295715E+04  0.43303438781E+04  0.41375766798E+04 0.  0.
        5    1    3    3  502    0  0.21195725618E+03  0.18232309408E+04  0.35998806649E+03  0.18704840122E+04  0.46999998093E+01 0.  1.
       -5    1    3    3    0  502 -0.21195725618E+03 -0.18232309408E+04 -0.16376176380E+04  0.24598598659E+04  0.46999998093E+01 0. -1.
</event>
<event>
 5   0  0.8528625E-08  0.4010592E+04  0.7818609E-02  0.8002413E-01
        1   -1    0    0  501    0  0.00000000000E+00  0.00000000000E+00  0.13438764189E+04  0.13438764189E+04  0.50400001928E-02 0.  1.
       -1   -1    0    0    0  501  0.00000000000E+00  0.00000000000E+00 -0.29922483084E+04  0.29922483084E+04  0.50400001928E-02 0. -1.
    10030    2    1    2    0    0  0.00000000000E+00  0.00000000000E+00 -0.16483718894E+04  0.43361247273E+04  0.40105919470E+04 0.  0.
        4    1    3    3  502    0  0.14405177608E+04  0.92664440799E+02  0.68074909545E+03  0.15959633648E+04  0.12699999809E+01 0.  1.
       -4    1    3    3    0  502 -0.14405177608E+04 -0.92664440799E+02 -0.23291209849E+04  0.27401613626E+04  0.12699999809E+01 0. -1.
</event>
<event>
 5   0  0.8528625E-08  0.4009441E+04  0.7818609E-02  0.8002645E-01
        1   -1    0    0  501    0  0.00000000000E+00  0.00000000000E+00  0.15392273336E+04  0.15392273336E+04  0.50400001928E-02 0.  1.
       -1   -1    0    0    0  501  0.00000000000E+00  0.00000000000E+00 -0.26109880208E+04  0.26109880208E+04  0.50400001928E-02 0. -1.
    10030    2    1    2    0    0  0.00000000000E+00  0.00000000000E+00 -0.10717606872E+04  0.41502153544E+04  0.40094409233E+04 0.  0.
        3    1    3    3  502    0  0.72446811278E+03 -0.25845650627E+03 -0.24521636930E+04  0.25699728792E+04  0.10100000352E+00 0. -1.
       -3    1    3    3    0  502 -0.72446811278E+03  0.25845650627E+03  0.13804030058E+04  0.15802424753E+04  0.10100000352E+00 0.  1.
</event>
<event>
 5   0  0.8528625E-08  0.4009211E+04  0.7818609E-02  0.8002691E-01
       -1   -1    0    0    0  501  0.00000000000E+00  0.00000000000E+00  0.21824256504E+04  0.21824256504E+04  0.50400001928E-02 0.  1.
        1   -1    0    0  501    0  0.00000000000E+00  0.00000000000E+00 -0.18412740834E+04  0.18412740835E+04  0.50400001928E-02 0. -1.
    10030    2    1    2    0    0  0.00000000000E+00  0.00000000000E+00  0.34115156699E+03  0.40236997339E+04  0.40092112886E+04 0.  0.
        5    1    3    3  502    0 -0.18073329522E+04  0.60175661004E+03 -0.45606694111E+03  0.19587196232E+04  0.46999998093E+01 0. -1.
       -5    1    3    3    0  502  0.18073329522E+04 -0.60175661004E+03  0.79721850810E+03  0.20649801106E+04  0.46999998093E+01 0.  1.
</event>
<event>
 5   0  0.8583262E-08  0.4005005E+04  0.7818609E-02  0.8003538E-01
        1   -1    0    0  501    0  0.00000000000E+00  0.00000000000E+00  0.16877106774E+04  0.16877106774E+04  0.50400001928E-02 0.  1.
       -1   -1    0    0    0  501  0.00000000000E+00  0.00000000000E+00 -0.23760088668E+04  0.23760088669E+04  0.50400001928E-02 0. -1.
    10030    2    1    2    0    0  0.00000000000E+00  0.00000000000E+00 -0.68829818948E+03  0.40637195442E+04  0.40050046363E+04 0.  0.
        1    1    3    3  502    0 -0.13715654864E+02  0.93837413674E+02  0.16854308920E+04  0.16880968192E+04  0.50400001928E-02 0.  1.
       -1    1    3    3    0  502  0.13715654864E+02 -0.93837413674E+02 -0.23737290815E+04  0.23756227250E+04  0.50400001928E-02 0. -1.
</event>
<event>
 5   0  0.2661693E-07  0.2997463E+04  0.7818609E-02  0.8244456E-01
       -2   -1    0    0    0  501  0.00000000000E+00  0.00000000000E+00  0.13123253703E+04  0.13123253703E+04  0.25500000920E-02 0. -1.
        2   -1    0    0  501    0  0.00000000000E+00  0.00000000000E+00 -0.17116157378E+04  0.17116157378E+04  0.25500000920E-02 0.  1.
    10030    2    1    2    0    0  0.00000000000E+00  0.00000000000E+00 -0.39929036747E+03  0.30239411081E+04  0.29974634322E+04 0.  0.
        1    1    3    3  502    0  0.79588436871E+03 -0.25868374677E+03  0.10546586971E+04  0.13463484603E+04  0.50400001928E-02 0. -1.
       -1    1    3    3    0  502 -0.79588436871E+03  0.25868374677E+03 -0.14539490646E+04  0.16775926477E+04  0.50400001928E-02 0.  1.
</event>
<event>
 5   0  0.8583262E-08  0.3886862E+04  0.7818609E-02  0.8027767E-01
        1   -1    0    0  501    0  0.00000000000E+00  0.00000000000E+00  0.17956824886E+04  0.17956824886E+04  0.50400001928E-02 0. -1.
       -1   -1    0    0    0  501  0.00000000000E+00  0.00000000000E+00 -0.21033365260E+04  0.21033365260E+04  0.50400001928E-02 0.  1.
    10030    2    1    2    0    0  0.00000000000E+00  0.00000000000E+00 -0.30765403739E+03  0.38990190147E+04  0.38868622654E+04 0.  0.
        1    1    3    3  502    0  0.71092452737E+03  0.16200141274E+04 -0.96074648701E+03  0.20131798899E+04  0.50400001928E-02 0.  1.
       -1    1    3    3    0  502 -0.71092452737E+03 -0.16200141274E+04  0.65309244962E+03  0.18858391248E+04  0.50400001928E-02 0. -1.
</event>
<event>
 5   0  0.2666978E-07  0.3882629E+04  0.7818609E-02  0.8028652E-01
       -2   -1    0    0    0  501  0.00000000000E+00  0.00000000000E+00  0.21871450989E+04  0.21871450989E+04  0.25500000920E-02 0. -1.
        2   -1    0    0  501    0  0.00000000000E+00  0.00000000000E+00 -0.17231146155E+04  0.17231146155E+04  0.25500000920E-02 0.  1.
    10030    2    1    2    0    0  0.00000000000E+00  0.00000000000E+00  0.46403048348E+03  0.39102597144E+04  0.38826288446E+04 0.  0.
        4    1    3    3  502    0 -0.13497618155E+04 -0.72353077816E+03 -0.96951586701E+03  0.18125441718E+04  0.12699999809E+01 0.  1.
       -4    1    3    3    0  502  0.13497618155E+04  0.72353077816E+03  0.14335463505E+04  0.20977155426E+04  0.12699999809E+01 0. -1.
</event>
<event>
 5   0  0.2704088E-07  0.4021915E+04  0.7818609E-02  0.8000140E-01
        2   -1    0    0  501    0  0.00000000000E+00  0.00000000000E+00  0.25990156863E+04  0.25990156863E+04  0.25500000920E-02 0. -1.
       -2   -1    0    0    0  501  0.00000000000E+00  0.00000000000E+00 -0.15559548495E+04  0.15559548495E+04  0.25500000920E-02 0.  1.
    10030    2    1    2    0    0  0.00000000000E+00  0.00000000000E+00  0.10430608368E+04  0.41549705357E+04  0.40219154943E+04 0.  0.
        5    1    3    3  502    0  0.10654541518E+04  0.36685532552E+03  0.22422110025E+04  0.25094436932E+04  0.46999998093E+01 0. -1.
       -5    1    3    3    0  502 -0.10654541518E+04 -0.36685532552E+03 -0.11991501657E+04  0.16455268425E+04  0.46999998093E+01 0.  1.
</event>
<event>
 5   0  0.8528625E-08  0.3786845E+04  0.7818609E-02  0.8048984E-01
        1   -1    0    0  501    0  0.00000000000E+00  0.00000000000E+00  0.18041999084E+04  0.18041999084E+04  0.50400001928E-02 0.  1.
       -1   -1    0    0    0  501  0.00000000000E+00  0.00000000000E+00 -0.19870573108E+04  0.19870573108E+04  0.50400001928E-02 0. -1.
    10030    2    1    2    0    0  0.00000000000E+00  0.00000000000E+00 -0.18285740243E+03  0.37912572192E+04  0.37868449232E+04 0.  0.
        2    1    3    3  502    0  0.13634114019E+04 -0.12006440091E+04  0.44268323132E+03  0.18698676773E+04  0.25500000920E-02 0.  1.
       -2    1    3    3    0  502 -0.13634114019E+04  0.12006440091E+04 -0.62554063375E+03  0.19213895419E+04  0.25500000920E-02 0. -1.
</event>
<event>
 5   0  0.8583262E-08  0.3973710E+04  0.7818609E-02  0.8009871E-01
       -1   -1    0    0    0  501  0.00000000000E+00  0.00000000000E+00  0.17712789345E+04  0.17712789346E+04  0.50400001928E-02 0. -1.
        1   -1    0    0  501    0  0.00000000000E+00  0.00000000000E+00 -0.22286685113E+04  0.22286685113E+04  0.50400001928E-02 0.  1.
    10030    2    1    2    0    0  0.00000000000E+00  0.00000000000E+00 -0.45738957676E+03  0.39999474459E+04  0.39737104002E+04 0.  0.
        1    1    3    3  502    0  0.52492611056E+03 -0.12460171573E+04 -0.16941531819E+04  0.21675472732E+04  0.50400001928E-02 0.  1.
       -1    1    3    3    0  502 -0.52492611056E+03  0.12460171573E+04  0.12367636051E+04  0.18324001727E+04  0.50400001928E-02 0. -1.
</event>
<event>
 5   0  0.2730801E-07  0.4053931E+04  0.7818609E-02  0.7993755E-01
       -2   -1    0    0    0  501  0.00000000000E+00  0.00000000000E+00  0.18718559016E+04  0.18718559016E+04  0.25500000920E-02 0. -1.
        2   -1    0    0  501    0  0.00000000000E+00  0.00000000000E+00 -0.21949277200E+04  0.21949277200E+04  0.25500000920E-02 0.  1.
    10030    2    1    2    0    0  0.00000000000E+00  0.00000000000E+00 -0.32307181840E+03  0.40667836216E+04  0.40539306389E+04 0.  0.
        2    1    3    3  502    0  0.81454898093E+03 -0.18491566104E+04 -0.32241329068E+03  0.20461721682E+04  0.25500000920E-02 0. -1.
       -2    1    3    3    0  502 -0.81454898093E+03  0.18491566104E+04 -0.65852771945E+00  0.20206114534E+04  0.25500000920E-02 0.  1.
</event>
<event>
 5   0  0.8528625E-08  0.3992603E+04  0.7818609E-02  0.8006040E-01
       -1   -1    0    0    0  501  0.00000000000E+00  0.00000000000E+00  0.21013249088E+04  0.21013249088E+04  0.50400001928E-02 0.  1.
        1   -1    0    0  501    0  0.00000000000E+00  0.00000000000E+00 -0.18965274096E+04  0.18965274096E+04  0.50400001928E-02 0. -1.
    10030    2    1    2    0    0  0.00000000000E+00  0.00000000000E+00  0.20479749913E+03  0.39978523184E+04  0.39926033041E+04 0.  0.
        3    1    3    3  502    0  0.13250498022E+04 -0.14678988682E+04  0.37613739950E+03  0.20129489361E+04  0.10100000352E+00 0. -1.
       -3    1    3    3    0  502 -0.13250498022E+04  0.14678988682E+04 -0.17133990037E+03  0.19849033824E+04  0.10100000352E+00 0.  1.
</event>
<event>
 5   0  0.8528625E-08  0.3970271E+04  0.7818609E-02  0.8010571E-01
       -1   -1    0    0    0  501  0.00000000000E+00  0.00000000000E+00  0.15900594319E+04  0.15900594319E+04  0.50400001928E-02 0.  1.
        1   -1    0    0  501    0  0.00000000000E+00  0.00000000000E+00 -0.24783748957E+04  0.24783748957E+04  0.50400001928E-02 0. -1.
    10030    2    1    2    0    0  0.00000000000E+00  0.00000000000E+00 -0.88831546376E+03  0.40684343276E+04  0.39702712143E+04 0.  0.
        3    1    3    3  502    0  0.55354636921E+03  0.18985113914E+04 -0.26665756857E+03  0.19954611886E+04  0.10100000352E+00 0.  1.
       -3    1    3    3    0  502 -0.55354636921E+03 -0.18985113914E+04 -0.62165789518E+03  0.20729731390E+04  0.10100000352E+00 0. -1.
</event>
<event>
 5   0  0.2730801E-07  0.3988182E+04  0.7818609E-02  0.8006935E-01
       -2   -1    0    0    0  501  0.00000000000E+00  0.00000000000E+00  0.22467267848E+04  0.22467267848E+04  0.25500000920E-02 0. -1.
        2   -1    0    0  501    0  0.00000000000E+00  0.00000000000E+00 -0.17698630680E+04  0.17698630680E+04  0.25500000920E-02 0.  1.
    10030    2    1    2    0    0  0.00000000000E+00  0.00000000000E+00  0.47686371684E+03  0.40165898528E+04  0.39881819218E+04 0.  0.
        2    1    3    3  502    0 -0.14162078151E+04  0.83303217479E+02  0.16497755488E+04  0.21758546282E+04  0.25500000920E-02 0. -1.
       -2    1    3    3    0  502  0.14162078151E+04 -0.83303217479E+02 -0.11729118320E+04  0.18407352246E+04  0.25500000920E-02 0.  1.
</event>
<event>
 5   0  0.8528625E-08  0.3978657E+04  0.7818609E-02  0.8008866E-01
       -1   -1    0    0    0  501  0.00000000000E+00  0.00000000000E+00  0.18426337947E+04  0.18426337947E+04  0.50400001928E-02 0.  1.
        1   -1    0    0  501    0  0.00000000000E+00  0.00000000000E+00 -0.21477019328E+04  0.21477019328E+04  0.50400001928E-02 0. -1.
    10030    2    1    2    0    0  0.00000000000E+00  0.00000000000E+00 -0.30506813809E+03  0.39903357275E+04  0.39786571415E+04 0.  0.
        5    1    3    3  502    0  0.15712079512E+04 -0.89302001127E+03  0.68130691700E+03  0.19314192635E+04  0.46999998093E+01 0.  1.
       -5    1    3    3    0  502 -0.15712079512E+04  0.89302001127E+03 -0.98637505509E+03  0.20589164640E+04  0.46999998093E+01 0. -1.
</event>
<event>
 5   0  0.2839279E-07  0.3955687E+04  0.7818609E-02  0.8013546E-01
        2   -1    0    0  501    0  0.00000000000E+00  0.00000000000E+00  0.16920296103E+04  0.16920296103E+04  0.25500000920E-02 0.  1.
       -2   -1    0    0    0  501  0.00000000000E+00  0.00000000000E+00 -0.23119366800E+04  0.23119366800E+04  0.25500000920E-02 0. -1.
    10030    2    1    2    0    0  0.00000000000E+00  0.00000000000E+00 -0.61990706969E+03  0.40039662904E+04  0.39556872070E+04 0.  0.
        3    1    3    3  502    0 -0.56959581966E+02  0.42127850910E+03 -0.22651461697E+04  0.23046924212E+04  0.10100000352E+00 0. -1.
       -3    1    3    3    0  502  0.56959581966E+02 -0.42127850910E+03  0.16452391000E+04  0.16992738692E+04  0.10100000352E+00 0.  1.
</event>
<event>
 5   0  0.2839279E-07  0.2868864E+04  0.7818609E-02  0.8282202E-01
        2   -1    0    0  501    0  0.00000000000E+00  0.00000000000E+00  0.20925077384E+04  0.20925077384E+04  0.25500000920E-02 0. -1.
       -2   -1    0    0    0  501  0.00000000000E+00  0.00000000000E+00 -0.98331544833E+03  0.98331544833E+03  0.25500000920E-02 0.  1.
    10030    2    1    2    0    0  0.00000000000E+00  0.00000000000E+00  0.11091922900E+04  0.30758231867E+04  0.28688640155E+04 0.  0.
        3    1    3    3  502    0  0.28209968293E+02  0.10288961681E+04  0.16257555500E+04  0.19241892437E+04  0.10100000352E+00 0. -1.
       -3    1    3    3    0  502 -0.28209968293E+02 -0.10288961681E+04 -0.51656325994E+03  0.11516339430E+04  0.10100000352E+00 0.  1.
</event>
<event>
 5   0  0.2730801E-07  0.3969861E+04  0.7818609E-02  0.8010654E-01
        2   -1    0    0  501    0  0.00000000000E+00  0.00000000000E+00  0.18305150567E+04  0.18305150567E+04  0.25500000920E-02 0.  1.
       -2   -1    0    0    0  501  0.00000000000E+00  0.00000000000E+00 -0.21523714789E+04  0.21523714789E+04  0.25500000920E-02 0. -1.
    10030    2    1    2    0    0  0.00000000000E+00  0.00000000000E+00 -0.32185642225E+03  0.39828865356E+04  0.39698606524E+04 0.  0.
        2    1    3    3  502    0 -0.11599771335E+04 -0.10341528313E+04  0.10780039772E+04  0.18913253563E+04  0.25500000920E-02 0.  1.
       -2    1    3    3    0  502  0.11599771335E+04  0.10341528313E+04 -0.13998603995E+04  0.20915611793E+04  0.25500000920E-02 0. -1.
</event>
<event>
 5   0  0.8528625E-08  0.3946624E+04  0.7818609E-02  0.8015402E-01
       -1   -1    0    0    0  501  0.00000000000E+00  0.00000000000E+00  0.14756880256E+04  0.14756880256E+04  0.50400001928E-02 0.  1.
        1   -1    0    0  501    0  0.00000000000E+00  0.00000000000E+00 -0.26387415216E+04  0.26387415216E+04  0.50400001928E-02 0. -1.
    10030    2    1    2    0    0  0.00000000000E+00  0.00000000000E+00 -0.11630534960E+04  0.41144295472E+04  0.39466235017E+04 0.  0.
        4    1    3    3  502    0 -0.68969029214E+03  0.11860379961E+04 -0.20601400849E+04  0.24751843587E+04  0.12699999809E+01 0. -1.
       -4    1    3    3    0  502  0.68969029214E+03 -0.11860379961E+04  0.89708658883E+03  0.16392451885E+04  0.12699999809E+01 0.  1.
</event>
<event>
 5   0  0.2661693E-07  0.3990738E+04  0.7818609E-02  0.8006418E-01
       -2   -1    0    0    0  501  0.00000000000E+00  0.00000000000E+00  0.16328898852E+04  0.16328898852E+04  0.25500000920E-02 0. -1.
        2   -1    0    0  501    0  0.00000000000E+00  0.00000000000E+00 -0.24383130846E+04  0.24383130846E+04  0.25500000920E-02 0.  1.
    10030    2    1    2    0    0  0.00000000000E+00  0.00000000000E+00 -0.80542319935E+03  0.40712029698E+04  0.39907376625E+04 0.  0.
        1    1    3    3  502    0 -0.68258977809E+03  0.11737450244E+03 -0.23117501485E+04  0.24132746068E+04  0.50400001928E-02 0.  1.
       -1    1    3    3    0  502  0.68258977809E+03 -0.11737450244E+03  0.15063269491E+04  0.16579283630E+04  0.50400001928E-02 0. -1.
</event>
<event>
 5   0  0.2730801E-07  0.3927766E+04  0.7818609E-02  0.8019279E-01
       -2   -1    0    0    0  501  0.00000000000E+00  0.00000000000E+00  0.13898859296E+04  0.13898859296E+04  0.25500000920E-02 0.  1.
        2   -1    0    0  501    0  0.00000000000E+00  0.00000000000E+00 -0.27749298278E+04  0.27749298278E+04  0.25500000920E-02 0. -1.
    10030    2    1    2    0    0  0.00000000000E+00  0.00000000000E+00 -0.13850438982E+04  0.41648157574E+04  0.39277657380E+04 0.  0.
        2    1    3    3  502    0 -0.54859007304E+03 -0.76865361991E+03  0.11333347982E+04  0.14752041284E+04  0.25500000920E-02 0.  1.
       -2    1    3    3    0  502  0.54859007304E+03  0.76865361991E+03 -0.25183786965E+04  0.26896116289E+04  0.25500000920E-02 0. -1.
</event>
<event>
 5   0  0.2661693E-07  0.3845991E+04  0.7818609E-02  0.8036357E-01
       -2   -1    0    0    0  501  0.00000000000E+00  0.00000000000E+00  0.14336186678E+04  0.14336186678E+04  0.25500000920E-02 0.  1.
        2   -1    0    0  501    0  0.00000000000E+00  0.00000000000E+00 -0.25794242774E+04  0.25794242774E+04  0.25500000920E-02 0. -1.
    10030    2    1    2    0    0  0.00000000000E+00  0.00000000000E+00 -0.11458056096E+04  0.40130429452E+04  0.38459905337E+04 0.  0.
        1    1    3    3  502    0 -0.94141255593E+03  0.12725718339E+04  0.56640934168E+03  0.16812246178E+04  0.50400001928E-02 0.  1.
       -1    1    3    3    0  502  0.94141255593E+03 -0.12725718339E+04 -0.17122149513E+04  0.23318183275E+04  0.50400001928E-02 0. -1.
</event>
<event>
 5   0  0.2839279E-07  0.3368986E+04  0.7818609E-02  0.8145560E-01
        2   -1    0    0  501    0  0.00000000000E+00  0.00000000000E+00  0.21004810361E+04  0.21004810361E+04  0.25500000920E-02 0. -1.
       -2   -1    0    0    0  501  0.00000000000E+00  0.00000000000E+00 -0.13508888771E+04  0.13508888771E+04  0.25500000920E-02 0.  1.
    10030    2    1    2    0    0  0.00000000000E+00  0.00000000000E+00  0.74959215908E+03  0.34513699132E+04  0.33689858819E+04 0.  0.
        3    1    3    3  502    0 -0.22683418208E+03 -0.16190837145E+04 -0.40872930982E+02  0.16354071136E+04  0.10100000352E+00 0.  1.
       -3    1    3    3    0  502  0.22683418208E+03  0.16190837145E+04  0.79046509006E+03  0.18159627996E+04  0.10100000352E+00 0. -1.
</event>
<event>
 5   0  0.8528625E-08  0.3939057E+04  0.7818609E-02  0.8016955E-01
        1   -1    0    0  501    0  0.00000000000E+00  0.00000000000E+00  0.25137076182E+04  0.25137076182E+04  0.50400001928E-02 0. -1.
       -1   -1    0    0    0  501  0.00000000000E+00  0.00000000000E+00 -0.15431555741E+04  0.15431555741E+04  0.50400001928E-02 0.  1.
    10030    2    1    2    0    0  0.00000000000E+00  0.00000000000E+00  0.97055204407E+03  0.40568631924E+04  0.39390567007E+04 0.  0.
        2    1    3    3  502    0 -0.67793827797E+03 -0.11364572796E+04 -0.10170853104E+04  0.16690110801E+04  0.25500000920E-02 0.  1.
       -2    1    3    3    0  502  0.67793827797E+03  0.11364572796E+04  0.19876373544E+04  0.23878521122E+04  0.25500000920E-02 0. -1.
</event>
<event>
 5   0  0.2661693E-07  0.4035407E+04  0.7818609E-02  0.7997442E-01
        2   -1    0    0  501    0  0.00000000000E+00  0.00000000000E+00  0.15797019116E+04  0.15797019116E+04  0.25500000920E-02 0. -1.
       -2   -1    0    0    0  501  0.00000000000E+00  0.00000000000E+00 -0.25771489112E+04  0.25771489112E+04  0.25500000920E-02 0.  1.
    10030    2    1    2    0    0  0.00000000000E+00  0.00000000000E+00 -0.99744699968E+03  0.41568508228E+04  0.40354068253E+04 0.  0.
        1    1    3    3  502    0  0.17254686503E+04  0.74818503551E+03 -0.12515416679E+04  0.22590660586E+04  0.50400001928E-02 0.  1.
       -1    1    3    3    0  502 -0.17254686503E+04 -0.74818503551E+03  0.25409466824E+03  0.18977847642E+04  0.50400001928E-02 0. -1.
</event>
<event>
 5   0  0.2666978E-07  0.3513742E+04  0.7818609E-02  0.8110541E-01
        2   -1    0    0  501    0  0.00000000000E+00  0.00000000000E+00  0.18872855690E+04  0.18872855690E+04  0.25500000920E-02 0.  1.
       -2   -1    0    0    0  501  0.00000000000E+00  0.00000000000E+00 -0.16354681121E+04  0.16354681121E+04  0.25500000920E-02 0. -1.
    10030    2    1    2    0    0  0.00000000000E+00  0.00000000000E+00  0.25181745682E+03  0.35227536811E+04  0.35137418041E+04 0.  0.
        4    1    3    3  502    0 -0.46220699469E+02  0.15706749908E+04  0.91369593538E+03  0.18176903353E+04  0.12699999809E+01 0. -1.
       -4    1    3    3    0  502  0.46220699469E+02 -0.15706749908E+04 -0.66187847856E+03  0.17050633458E+04  0.12699999809E+01 0.  1.
</event>
<event>
 5   0  0.8583262E-08  0.4062246E+04  0.7818609E-02  0.7992106E-01
        1   -1    0    0  501    0  0.00000000000E+00  0.00000000000E+00  0.16968318788E+04  0.16968318788E+04  0.50400001928E-02 0. -1.
       -1   -1    0    0    0  501  0.00000000000E+00  0.00000000000E+00 -0.24312729882E+04  0.24312729882E+04  0.50400001928E-02 0.  1.
    10030    2    1    2    0    0  0.00000000000E+00  0.00000000000E+00 -0.73444110938E+03  0.41281048670E+04  0.40622464290E+04 0.  0.
        1    1    3    3  502    0  0.12507112383E+04 -0.82060460043E+03 -0.17634648489E+04  0.23124616289E+04  0.50400001928E-02 0.  1.
       -1    1    3    3    0  502 -0.12507112383E+04  0.82060460043E+03  0.10290237395E+04  0.18156432381E+04  0.50400001928E-02 0. -1.
</event>
<event>
 5   0  0.8528625E-08  0.3937300E+04  0.7818609E-02  0.8017316E-01
        1   -1    0    0  501    0  0.00000000000E+00  0.00000000000E+00  0.15846320553E+04  0.15846320553E+04  0.50400001928E-02 0. -1.
       -1   -1    0    0    0  501  0.00000000000E+00  0.00000000000E+00 -0.24457307007E+04  0.24457307007E+04  0.50400001928E-02 0.  1.
    10030    2    1    2    0    0  0.00000000000E+00  0.00000000000E+00 -0.86109864538E+03  0.40303627559E+04  0.39373002257E+04 0.  0.
        2    1    3    3  502    0  0.62453709160E+02  0.86819988433E+01  0.15835981334E+04  0.15848529557E+04  0.25500000920E-02 0. -1.
       -2    1    3    3    0  502 -0.62453709160E+02 -0.86819988433E+01 -0.24446967788E+04  0.24455098003E+04  0.25500000920E-02 0.  1.
</event>
<event>
 5   0  0.8528625E-08  0.3992012E+04  0.7818609E-02  0.8006160E-01
       -1   -1    0    0    0  501  0.00000000000E+00  0.00000000000E+00  0.20823168028E+04  0.20823168028E+04  0.50400001928E-02 0.  1.
        1   -1    0    0  501    0  0.00000000000E+00  0.00000000000E+00 -0.19132730765E+04  0.19132730765E+04  0.50400001928E-02 0. -1.
    10030    2    1    2    0    0  0.00000000000E+00  0.00000000000E+00  0.16904372629E+03  0.39955898793E+04  0.39920123624E+04 0.  0.
        5    1    3    3  502    0  0.11483098847E+04  0.15372565331E+04  0.63478299562E+03  0.20210751548E+04  0.46999998093E+01 0.  1.
       -5    1    3    3    0  502 -0.11483098847E+04 -0.15372565331E+04 -0.46573926933E+03  0.19745147244E+04  0.46999998093E+01 0. -1.
</event>
<event>
 5   0  0.8528625E-08  0.4076211E+04  0.7818609E-02  0.7989346E-01
        1   -1    0    0  501    0  0.00000000000E+00  0.00000000000E+00  0.23333268901E+04  0.23333268901E+04  0.50400001928E-02 0. -1.
       -1   -1    0    0    0  501  0.00000000000E+00  0.00000000000E+00 -0.17802363006E+04  0.17802363006E+04  0.50400001928E-02 0.  1.
    10030    2    1    2    0    0  0.00000000000E+00  0.00000000000E+00  0.55309058943E+03  0.41135631907E+04  0.40762106084E+04 0.  0.
        3    1    3    3  502    0 -0.51642959020E+03  0.11080792724E+04 -0.13691446036E+04  0.18355097797E+04  0.10100000352E+00 0.  1.
       -3    1    3    3    0  502  0.51642959020E+03 -0.11080792724E+04  0.19222351931E+04  0.22780534110E+04  0.10100000352E+00 0. -1.
</event>
<event>
 5   0  0.2666978E-07  0.4301989E+04  0.7818609E-02  0.7946250E-01
       -2   -1    0    0    0  501  0.00000000000E+00  0.00000000000E+00  0.20202850362E+04  0.20202850362E+04  0.25500000920E-02 0. -1.
        2   -1    0    0  501    0  0.00000000000E+00  0.00000000000E+00 -0.22901602427E+04  0.22901602427E+04  0.25500000920E-02 0.  1.
    10030    2    1    2    0    0  0.00000000000E+00  0.00000000000E+00 -0.26987520659E+03  0.43104452789E+04  0.43019885954E+04 0.  0.
        4    1    3    3  502    0  0.14075202071E+03  0.21956576738E+03  0.20043835654E+04  0.20212806207E+04  0.12699999809E+01 0. -1.
       -4    1    3    3    0  502 -0.14075202071E+03 -0.21956576738E+03 -0.22742587720E+04  0.22891646582E+04  0.12699999809E+01 0.  1.
</event>
<event>
 5   0  0.8583262E-08  0.4152079E+04  0.7818609E-02  0.7974551E-01
        1   -1    0    0  501    0  0.00000000000E+00  0.00000000000E+00  0.29682318840E+04  0.29682318840E+04  0.50400001928E-02 0.  1.
       -1   -1    0    0    0  501  0.00000000000E+00  0.00000000000E+00 -0.14520228739E+04  0.14520228739E+04  0.50400001928E-02 0. -1.
    10030    2    1    2    0    0  0.00000000000E+00  0.00000000000E+00  0.15162090101E+04  0.44202547579E+04  0.41520792818E+04 0.  0.
        1    1    3    3  502    0  0.53457935988E+03 -0.36637723444E+03  0.28577826879E+04  0.29303462698E+04  0.50400001928E-02 0.  1.
       -1    1    3    3    0  502 -0.53457935988E+03  0.36637723444E+03 -0.13415736778E+04  0.14899084881E+04  0.50400001928E-02 0. -1.
</event>
<event>
 5   0  0.2704088E-07  0.3038015E+04  0.7818609E-02  0.8232958E-01
       -2   -1    0    0    0  501  0.00000000000E+00  0.00000000000E+00  0.10083135168E+04  0.10083135168E+04  0.25500000920E-02 0. -1.
        2   -1    0    0  501    0  0.00000000000E+00  0.00000000000E+00 -0.22883591657E+04  0.22883591657E+04  0.25500000920E-02 0.  1.
    10030    2    1    2    0    0  0.00000000000E+00  0.00000000000E+00 -0.12800456490E+04  0.32966726825E+04  0.30380147979E+04 0.  0.
        5    1    3    3  502    0  0.28508555515E+03  0.12932312624E+04  0.16739787107E+03  0.13348277076E+04  0.46999998093E+01 0. -1.
       -5    1    3    3    0  502 -0.28508555515E+03 -0.12932312624E+04 -0.14474435200E+04  0.19618449749E+04  0.46999998093E+01 0.  1.
</event>
<event>
 5   0  0.2704088E-07  0.4177698E+04  0.7818609E-02  0.7969628E-01
       -2   -1    0    0    0  501  0.00000000000E+00  0.00000000000E+00  0.25945366598E+04  0.25945366598E+04  0.25500000920E-02 0. -1.
        2   -1    0    0  501    0  0.00000000000E+00  0.00000000000E+00 -0.16817219369E+04  0.16817219369E+04  0.25500000920E-02 0.  1.
    10030    2    1    2    0    0  0.00000000000E+00  0.00000000000E+00  0.91281472290E+03  0.42762585968E+04  0.41776975559E+04 0.  0.
        5    1    3    3  502    0  0.41319092226E+03 -0.14242236050E+04 -0.10493964333E+04  0.18166988137E+04  0.46999998093E+01 0.  1.
       -5    1    3    3    0  502 -0.41319092226E+03  0.14242236050E+04  0.19622111562E+04  0.24595597831E+04  0.46999998093E+01 0. -1.
</event>
<event>
 5   0  0.2704088E-07  0.4042665E+04  0.7818609E-02  0.7995995E-01
        2   -1    0    0  501    0  0.00000000000E+00  0.00000000000E+00  0.17555376284E+04  0.17555376284E+04  0.25500000920E-02 0.  1.
       -2   -1    0    0    0  501  0.00000000000E+00  0.00000000000E+00 -0.23273692219E+04  0.23273692219E+04  0.25500000920E-02 0. -1.
    10030    2    1    2    0    0  0.00000000000E+00  0.00000000000E+00 -0.57183159350E+03  0.40829068504E+04  0.40426645888E+04 0.  0.
        5    1    3    3  502    0 -0.71645023409E+03  0.14434646265E+04  0.94642353499E+03  0.18688581176E+04  0.46999998093E+01 0.  1.
       -5    1    3    3    0  502  0.71645023409E+03 -0.14434646265E+04 -0.15182551285E+04  0.22140487328E+04  0.46999998093E+01 0. -1.
</event>
<event>
 5   0  0.2730801E-07  0.4056921E+04  0.7818609E-02  0.7993161E-01
        2   -1    0    0  501    0  0.00000000000E+00  0.00000000000E+00  0.18212517397E+04  0.18212517397E+04  0.25500000920E-02 0.  1.
       -2   -1    0    0    0  501  0.00000000000E+00  0.00000000000E+00 -0.22592444709E+04  0.22592444709E+04  0.25500000920E-02 0. -1.
    10030    2    1    2    0    0  0.00000000000E+00  0.00000000000E+00 -0.43799273119E+03  0.40804962106E+04  0.40569214550E+04 0.  0.
        2    1    3    3  502    0 -0.19173728545E+04 -0.60053026578E+03  0.61366408686E+02  0.20101544964E+04  0.25500000920E-02 0. -1.
       -2    1    3    3    0  502  0.19173728545E+04  0.60053026578E+03 -0.49935913987E+03  0.20703417143E+04  0.25500000920E-02 0.  1.
</event>
<event>
 5   0  0.8528625E-08  0.4190342E+04  0.7818609E-02  0.7967212E-01
       -1   -1    0    0    0  501  0.00000000000E+00  0.00000000000E+00  0.29765442116E+04  0.29765442117E+04  0.50400001928E-02 0.  1.
        1   -1    0    0  501    0  0.00000000000E+00  0.00000000000E+00 -0.14747781203E+04  0.14747781203E+04  0.50400001928E-02 0. -1.
    10030    2    1    2    0    0  0.00000000000E+00  0.00000000000E+00  0.15017660914E+04  0.44513223319E+04  0.41903423618E+04 0.  0.
        4    1    3    3  502    0  0.39284229427E+03 -0.58992346405E+01  0.29370622959E+04  0.29632239895E+04  0.12699999809E+01 0.  1.
       -4    1    3    3    0  502 -0.39284229427E+03  0.58992346405E+01 -0.14352962045E+04  0.14880983424E+04  0.12699999809E+01 0. -1.
</event>
<event>
 5   0  0.2661693E-07  0.3994750E+04  0.7818609E-02  0.8005606E-01
        2   -1    0    0  501    0  0.00000000000E+00  0.00000000000E+00  0.20153124457E+04  0.20153124457E+04  0.25500000920E-02 0. -1.
       -2   -1    0    0    0  501  0.00000000000E+00  0.00000000000E+00 -0.19795974567E+04  0.19795974567E+04  0.25500000920E-02 0.  1.
    10030    2    1    2    0    0  0.00000000000E+00  0.00000000000E+00  0.35714988965E+02  0.39949099025E+04  0.39947502511E+04 0.  0.
        1    1    3    3  502    0  0.13223517683E+04 -0.13214597833E+04 -0.68547512343E+03  0.19911670706E+04  0.50400001928E-02 0.  1.
       -1    1    3    3    0  502 -0.13223517683E+04  0.13214597833E+04  0.72119011240E+03  0.20037428319E+04  0.50400001928E-02 0. -1.
</event>
<event>
 5   0  0.2704088E-07  0.3982250E+04  0.7818609E-02  0.8008137E-01
        2   -1    0    0  501    0  0.00000000000E+00  0.00000000000E+00  0.26439315427E+04  0.26439315427E+04  0.25500000920E-02 0. -1.
       -2   -1    0    0    0  501  0.00000000000E+00  0.00000000000E+00 -0.14995012875E+04  0.14995012875E+04  0.25500000920E-02 0.  1.
    10030    2    1    2    0    0  0.00000000000E+00  0.00000000000E+00  0.11444302552E+04  0.41434328301E+04  0.39822499933E+04 0.  0.
        5    1    3    3  502    0  0.86646046519E+03  0.13793973149E+04  0.17635779831E+04  0.24007748921E+04  0.46999998093E+01 0. -1.
       -5    1    3    3    0  502 -0.86646046519E+03 -0.13793973149E+04 -0.61914772792E+03  0.17426579380E+04  0.46999998093E+01 0.  1.
</event>
<event>
 5   0  0.2666978E-07  0.3994020E+04  0.7818609E-02  0.8005754E-01
        2   -1    0    0  501    0  0.00000000000E+00  0.00000000000E+00  0.14477842019E+04  0.14477842019E+04  0.25500000920E-02 0.  1.
       -2   -1    0    0    0  501  0.00000000000E+00  0.00000000000E+00 -0.27545886552E+04  0.27545886552E+04  0.25500000920E-02 0. -1.
    10030    2    1    2    0    0  0.00000000000E+00  0.00000000000E+00 -0.13068044533E+04  0.42023728571E+04  0.39940204995E+04 0.  0.
        4    1    3    3  502    0  0.13176811719E+03 -0.29278266141E+02  0.14429784756E+04  0.14492786301E+04  0.12699999809E+01 0.  1.
       -4    1    3    3    0  502 -0.13176811719E+03  0.29278266141E+02 -0.27497829289E+04  0.27530942270E+04  0.12699999809E+01 0. -1.
</event>
<event>
 5   0  0.2839279E-07  0.3923788E+04  0.7818609E-02  0.8020100E-01
       -2   -1    0    0    0  501  0.00000000000E+00  0.00000000000E+00  0.22616280024E+04  0.22616280024E+04  0.25500000920E-02 0.  1.
        2   -1    0    0  501    0  0.00000000000E+00  0.00000000000E+00 -0.17018837719E+04  0.17018837719E+04  0.25500000920E-02 0. -1.
    10030    2    1    2    0    0  0.00000000000E+00  0.00000000000E+00  0.55974423042E+03  0.39635117743E+04  0.39237879634E+04 0.  0.
        3    1    3    3  502    0  0.13092754335E+04  0.12638473794E+04  0.10204490281E+04  0.20863433535E+04  0.10100000352E+00 0.  1.
       -3    1    3    3    0  502 -0.13092754335E+04 -0.12638473794E+04 -0.46070479773E+03  0.18771684208E+04  0.10100000352E+00 0. -1.
</event>
<event>
 5   0  0.2704088E-07  0.3235141E+04  0.7818609E-02  0.8179598E-01
       -2   -1    0    0    0  501  0.00000000000E+00  0.00000000000E+00  0.23628543172E+04  0.23628543172E+04  0.25500000920E-02 0. -1.
        2   -1    0    0  501    0  0.00000000000E+00  0.00000000000E+00 -0.11073616937E+04  0.11073616937E+04  0.25500000920E-02 0.  1.
    10030    2    1    2    0    0  0.00000000000E+00  0.00000000000E+00  0.12554926235E+04  0.34702160109E+04  0.32351410224E+04 0.  0.
        5    1    3    3  502    0  0.44298477799E+03  0.15554146192E+04  0.66101819328E+03  0.17471454699E+04  0.46999998093E+01 0.  1.
       -5    1    3    3    0  502 -0.44298477799E+03 -0.15554146192E+04  0.59447443023E+03  0.17230705410E+04  0.46999998093E+01 0. -1.
</event>
<event>
 5   0  0.8528625E-08  0.4116244E+04  0.7818609E-02  0.7981498E-01
       -1   -1    0    0    0  501  0.00000000000E+00  0.00000000000E+00  0.18434124957E+04  0.18434124957E+04  0.50400001928E-02 0.  1.
        1   -1    0    0  501    0  0.00000000000E+00  0.00000000000E+00 -0.22978398069E+04  0.22978398069E+04  0.50400001928E-02 0. -1.
    10030    2    1    2    0    0  0.00000000000E+00  0.00000000000E+00 -0.45442731121E+03  0.41412523026E+04  0.41162442169E+04 0.  0.
        4    1    3    3  502    0  0.15077012760E+04 -0.13908676652E+04 -0.39612950296E+03  0.20891616012E+04  0.12699999809E+01 0. -1.
       -4    1    3    3    0  502 -0.15077012760E+04  0.13908676652E+04 -0.58297808245E+02  0.20520907015E+04  0.12699999809E+01 0.  1.
</event>
<event>
 5   0  0.8528625E-08  0.3370773E+04  0.7818609E-02  0.8145117E-01
        1   -1    0    0  501    0  0.00000000000E+00  0.00000000000E+00  0.17082208752E+04  0.17082208752E+04  0.50400001928E-02 0.  1.
       -1   -1    0    0    0  501  0.00000000000E+00  0.00000000000E+00 -0.16628570180E+04  0.16628570180E+04  0.50400001928E-02 0. -1.
    10030    2    1    2    0    0  0.00000000000E+00  0.00000000000E+00  0.45363857227E+02  0.33710778932E+04  0.33707726536E+04 0.  0.
        3    1    3    3  502    0  0.78940190862E+03  0.88545969622E+03  0.12200091251E+04  0.17016511165E+04  0.10100000352E+00 0.  1.
       -3    1    3    3    0  502 -0.78940190862E+03 -0.88545969622E+03 -0.11746452679E+04  0.16694267766E+04  0.10100000352E+00 0. -1.
</event>
<event>
 5   0  0.8528625E-08  0.3646208E+04  0.7818609E-02  0.8079988E-01
        1   -1    0    0  501    0  0.00000000000E+00  0.00000000000E+00  0.20003060361E+04  0.20003060361E+04  0.50400001928E-02 0.  1.
       -1   -1    0    0    0  501  0.00000000000E+00  0.00000000000E+00 -0.16615996287E+04  0.16615996287E+04  0.50400001928E-02 0. -1.
    10030    2    1    2    0    0  0.00000000000E+00  0.00000000000E+00  0.33870640740E+03  0.36619056647E+04  0.36462077652E+04 0.  0.
        5    1    3    3  502    0  0.13681031622E+04 -0.10780713164E+04 -0.37124077708E+03  0.17809508220E+04  0.46999998093E+01 0. -1.
       -5    1    3    3    0  502 -0.13681031622E+04  0.10780713164E+04  0.70994718448E+03  0.18809548428E+04  0.46999998093E+01 0.  1.
</event>
<event>
 5   0  0.2661693E-07  0.3108091E+04  0.7818609E-02  0.8213521E-01
        2   -1    0    0  501    0  0.00000000000E+00  0.00000000000E+00  0.26202542450E+04  0.26202542450E+04  0.25500000920E-02 0. -1.
       -2   -1    0    0    0  501  0.00000000000E+00  0.00000000000E+00 -0.92168826889E+03  0.92168826889E+03  0.25500000920E-02 0.  1.
    10030    2    1    2    0    0  0.00000000000E+00  0.00000000000E+00  0.16985659761E+04  0.35419425139E+04  0.31080911178E+04 0.  0.
        1    1    3    3  502    0  0.48667092480E+03  0.43861364848E+03 -0.75661694541E+03  0.10008495011E+04  0.50400001928E-02 0.  1.
       -1    1    3    3    0  502 -0.48667092480E+03 -0.43861364848E+03  0.24551829216E+04  0.25410930129E+04  0.50400001928E-02 0. -1.
</event>
<event>
 5   0  0.2704088E-07  0.2864039E+04  0.7818609E-02  0.8283658E-01
       -2   -1    0    0    0  501  0.00000000000E+00  0.00000000000E+00  0.15866701898E+04  0.15866701898E+04  0.25500000920E-02 0.  1.
        2   -1    0    0  501    0  0.00000000000E+00  0.00000000000E+00 -0.12924422745E+04  0.12924422745E+04  0.25500000920E-02 0. -1.
    10030    2    1    2    0    0  0.00000000000E+00  0.00000000000E+00  0.29422791524E+03  0.28791124643E+04  0.28640388468E+04 0.  0.
        5    1    3    3  502    0 -0.15910787077E+03  0.85678893963E+03  0.12894285455E+04  0.15562938879E+04  0.46999998093E+01 0.  1.
       -5    1    3    3    0  502  0.15910787077E+03 -0.85678893963E+03 -0.99520063024E+03  0.13228185764E+04  0.46999998093E+01 0. -1.
</event>
<event>
 5   0  0.8528625E-08  0.3900974E+04  0.7818609E-02  0.8024827E-01
        3   -1    0    0  501    0  0.00000000000E+00  0.00000000000E+00  0.16997031385E+04  0.16997031415E+04  0.10100000352E+00 0.  1.
       -3   -1    0    0    0  501  0.00000000000E+00  0.00000000000E+00 -0.22382734969E+04  0.22382734992E+04  0.10100000352E+00 0. -1.
    10030    2    1    2    0    0  0.00000000000E+00  0.00000000000E+00 -0.53857035841E+03  0.39379766407E+04  0.39009744926E+04 0.  0.
        2    1    3    3  502    0 -0.35090828151E+03  0.19030664336E+04 -0.51573615035E+03  0.20026937483E+04  0.25500000920E-02 0. -1.
       -2    1    3    3    0  502  0.35090828151E+03 -0.19030664336E+04 -0.22834208060E+02  0.19352828924E+04  0.25500000920E-02 0.  1.
</event>
<event>
 5   0  0.8583262E-08  0.3994784E+04  0.7818609E-02  0.8005600E-01
        1   -1    0    0  501    0  0.00000000000E+00  0.00000000000E+00  0.30531054665E+04  0.30531054665E+04  0.50400001928E-02 0.  1.
       -1   -1    0    0    0  501  0.00000000000E+00  0.00000000000E+00 -0.13067269662E+04  0.13067269662E+04  0.50400001928E-02 0. -1.
    10030    2    1    2    0    0  0.00000000000E+00  0.00000000000E+00  0.17463785003E+04  0.43598324326E+04  0.39947842212E+04 0.  0.
        1    1    3    3  502    0 -0.16969319094E+04 -0.20629151298E+03 -0.25439354938E+03  0.17282506102E+04  0.50400001928E-02 0. -1.
       -1    1    3    3    0  502  0.16969319094E+04  0.20629151298E+03  0.20007720497E+04  0.26315818225E+04  0.50400001928E-02 0.  1.
</event>
<event>
 5   0  0.2666978E-07  0.4014112E+04  0.7818609E-02  0.8001706E-01
       -2   -1    0    0    0  501  0.00000000000E+00  0.00000000000E+00  0.15514325396E+04  0.15514325396E+04  0.25500000920E-02 0.  1.
        2   -1    0    0  501    0  0.00000000000E+00  0.00000000000E+00 -0.25964862401E+04  0.25964862401E+04  0.25500000920E-02 0. -1.
    10030    2    1    2    0    0  0.00000000000E+00  0.00000000000E+00 -0.10450537005E+04  0.41479187797E+04  0.40141117281E+04 0.  0.
        4    1    3    3  502    0 -0.13617745990E+04  0.28399310690E+03  0.97248646161E+03  0.16972959890E+04  0.12699999809E+01 0.  1.
       -4    1    3    3    0  502  0.13617745990E+04 -0.28399310690E+03 -0.20175401621E+04  0.24506227907E+04  0.12699999809E+01 0. -1.
</event>
<event>
 5   0  0.8583262E-08  0.3066133E+04  0.7818609E-02  0.8225094E-01
        1   -1    0    0  501    0  0.00000000000E+00  0.00000000000E+00  0.23103314588E+04  0.23103314588E+04  0.50400001928E-02 0.  1.
       -1   -1    0    0    0  501  0.00000000000E+00  0.00000000000E+00 -0.10172966859E+04  0.10172966859E+04  0.50400001928E-02 0. -1.
    10030    2    1    2    0    0  0.00000000000E+00  0.00000000000E+00  0.12930347729E+04  0.33276281447E+04  0.30661327671E+04 0.  0.
        1    1    3    3  502    0  0.63242871670E+03 -0.11729942081E+04 -0.17601919633E+03  0.13441965078E+04  0.50400001928E-02 0. -1.
       -1    1    3    3    0  502 -0.63242871670E+03  0.11729942081E+04  0.14690539692E+04  0.19834316369E+04  0.50400001928E-02 0.  1.
</event>
<event>
 5   0  0.2666978E-07  0.4081322E+04  0.7818609E-02  0.7988339E-01
        2   -1    0    0  501    0  0.00000000000E+00  0.00000000000E+00  0.19758414811E+04  0.19758414811E+04  0.25500000920E-02 0.  1.
       -2   -1    0    0    0  501  0.00000000000E+00  0.00000000000E+00 -0.21076065341E+04  0.21076065341E+04  0.25500000920E-02 0. -1.
    10030    2    1    2    0    0  0.00000000000E+00  0.00000000000E+00 -0.13176505304E+03  0.40834480152E+04  0.40813215585E+04 0.  0.
        4    1    3    3  502    0  0.41586022157E+03 -0.89977685970E+03 -0.18505598289E+04  0.20993121289E+04  0.12699999809E+01 0. -1.
       -4    1    3    3    0  502 -0.41586022157E+03  0.89977685970E+03  0.17187947759E+04  0.19841358864E+04  0.12699999809E+01 0.  1.
</event>
<event>
 5   0  0.2661693E-07  0.4048288E+04  0.7818609E-02  0.7994876E-01
       -2   -1    0    0    0  501  0.00000000000E+00  0.00000000000E+00  0.18161276039E+04  0.18161276039E+04  0.25500000920E-02 0. -1.
        2   -1    0    0  501    0  0.00000000000E+00  0.00000000000E+00 -0.22559858085E+04  0.22559858085E+04  0.25500000920E-02 0.  1.
    10030    2    1    2    0    0  0.00000000000E+00  0.00000000000E+00 -0.43985820461E+03  0.40721134125E+04  0.40482875891E+04 0.  0.
        1    1    3    3  502    0  0.99312012733E+03  0.17618976369E+04 -0.30156852851E+03  0.20448751668E+04  0.50400001928E-02 0.  1.
       -1    1    3    3    0  502 -0.99312012733E+03 -0.17618976369E+04 -0.13828967610E+03  0.20272382457E+04  0.50400001928E-02 0. -1.
</event>
<event>
 5   0  0.8528625E-08  0.3966844E+04  0.7818609E-02  0.8011269E-01
        1   -1    0    0  501    0  0.00000000000E+00  0.00000000000E+00  0.31124361955E+04  0.31124361955E+04  0.50400001928E-02 0.  1.
       -1   -1    0    0    0  501  0.00000000000E+00  0.00000000000E+00 -0.12639497411E+04  0.12639497411E+04  0.50400001928E-02 0. -1.
    10030    2    1    2    0    0  0.00000000000E+00  0.00000000000E+00  0.18484864543E+04  0.43763859366E+04  0.39668440471E+04 0.  0.
        2    1    3    3  502    0 -0.14039062575E+04 -0.99266947749E+03  0.20150679183E+04  0.26489326505E+04  0.25500000920E-02 0.  1.
       -2    1    3    3    0  502  0.14039062575E+04  0.99266947749E+03 -0.16658146391E+03  0.17274532861E+04  0.25500000920E-02 0. -1.
</event>
<event>
 5   0  0.8583262E-08  0.3939784E+04  0.7818609E-02  0.8016805E-01
        1   -1    0    0  501    0  0.00000000000E+00  0.00000000000E+00  0.20181215897E+04  0.20181215897E+04  0.50400001928E-02 0.  1.
       -1   -1    0    0    0  501  0.00000000000E+00  0.00000000000E+00 -0.19228147406E+04  0.19228147406E+04  0.50400001928E-02 0. -1.
    10030    2    1    2    0    0  0.00000000000E+00  0.00000000000E+00  0.95306849097E+02  0.39409363303E+04  0.39397837204E+04 0.  0.
        1    1    3    3  502    0  0.22863103530E+02 -0.79918504178E+03 -0.17532217146E+04  0.19269161458E+04  0.50400001928E-02 0. -1.
       -1    1    3    3    0  502 -0.22863103530E+02  0.79918504178E+03  0.18485285637E+04  0.20140201844E+04  0.50400001928E-02 0.  1.
</event>
<event>
 5   0  0.2666978E-07  0.3723579E+04  0.7818609E-02  0.8062757E-01
        2   -1    0    0  501    0  0.00000000000E+00  0.00000000000E+00  0.14814823963E+04  0.14814823963E+04  0.25500000920E-02 0. -1.
       -2   -1    0    0    0  501  0.00000000000E+00  0.00000000000E+00 -0.23397235802E+04  0.23397235802E+04  0.25500000920E-02 0.  1.
    10030    2    1    2    0    0  0.00000000000E+00  0.00000000000E+00 -0.85824118385E+03  0.38212059765E+04  0.37235785456E+04 0.  0.
        4    1    3    3  502    0  0.12619518392E+04 -0.13595913178E+04 -0.26606258457E+03  0.18739802314E+04  0.12699999809E+01 0. -1.
       -4    1    3    3    0  502 -0.12619518392E+04  0.13595913178E+04 -0.59217859928E+03  0.19472257451E+04  0.12699999809E+01 0.  1.
</event>
<event>
 5   0  0.8528625E-08  0.3962512E+04  0.7818609E-02  0.8012152E-01
        1   -1    0    0  501    0  0.00000000000E+00  0.00000000000E+00  0.23322789301E+04  0.23322789301E+04  0.50400001928E-02 0. -1.
       -1   -1    0    0    0  501  0.00000000000E+00  0.00000000000E+00 -0.16830643858E+04  0.16830643858E+04  0.50400001928E-02 0.  1.
    10030    2    1    2    0    0  0.00000000000E+00  0.00000000000E+00  0.64921454425E+03  0.40153433159E+04  0.39625121350E+04 0.  0.
        4    1    3    3  502    0 -0.14237260900E+04  0.12897372485E+04 -0.16657784952E+03  0.19282551549E+04  0.12699999809E+01 0.  1.
       -4    1    3    3    0  502  0.14237260900E+04 -0.12897372485E+04  0.81579239376E+03  0.20870881610E+04  0.12699999809E+01 0. -1.
</event>
<event>
 5   0  0.2666978E-07  0.3974354E+04  0.7818609E-02  0.8009740E-01
        2   -1    0    0  501    0  0.00000000000E+00  0.00000000000E+00  0.25065298710E+04  0.25065298710E+04  0.25500000920E-02 0. -1.
       -2   -1    0    0    0  501  0.00000000000E+00  0.00000000000E+00 -0.15754340541E+04  0.15754340541E+04  0.25500000920E-02 0.  1.
    10030    2    1    2    0    0  0.00000000000E+00  0.00000000000E+00  0.93109581688E+03  0.40819639252E+04  0.39743540439E+04 0.  0.
        4    1    3    3  502    0  0.10597999230E+04 -0.45443626839E+03  0.21277564399E+04  0.24201316657E+04  0.12699999809E+01 0. -1.
       -4    1    3    3    0  502 -0.10597999230E+04  0.45443626839E+03 -0.11966606231E+04  0.16618322594E+04  0.12699999809E+01 0.  1.
</event>
<event>
 5   0  0.8528625E-08  0.4027926E+04  0.7818609E-02  0.7998937E-01
        1   -1    0    0  501    0  0.00000000000E+00  0.00000000000E+00  0.18911164502E+04  0.18911164502E+04  0.50400001928E-02 0. -1.
       -1   -1    0    0    0  501  0.00000000000E+00  0.00000000000E+00 -0.21447896849E+04  0.21447896849E+04  0.50400001928E-02 0.  1.
    10030    2    1    2    0    0  0.00000000000E+00  0.00000000000E+00 -0.25367323469E+03  0.40359061351E+04  0.40279260446E+04 0.  0.
        2    1    3    3  502    0 -0.38258919469E+03  0.82367292423E+03  0.16742884613E+04  0.19047449776E+04  0.25500000920E-02 0. -1.
       -2    1    3    3    0  502  0.38258919469E+03 -0.82367292423E+03 -0.19279616960E+04  0.21311611575E+04  0.25500000920E-02 0.  1.
</event>
<event>
 5   0  0.2661693E-07  0.3463983E+04  0.7818609E-02  0.8122379E-01
       -2   -1    0    0    0  501  0.00000000000E+00  0.00000000000E+00  0.15831904906E+04  0.15831904906E+04  0.25500000920E-02 0.  1.
        2   -1    0    0  501    0  0.00000000000E+00  0.00000000000E+00 -0.18947775594E+04  0.18947775594E+04  0.25500000920E-02 0. -1.
    10030    2    1    2    0    0  0.00000000000E+00  0.00000000000E+00 -0.31158706885E+03  0.34779680500E+04  0.34639825715E+04 0.  0.
        1    1    3    3  502    0 -0.12961733736E+04 -0.19912501316E+03  0.98017955592E+03  0.16372135313E+04  0.50400001928E-02 0.  1.
       -1    1    3    3    0  502  0.12961733736E+04  0.19912501316E+03 -0.12917666248E+04  0.18407545187E+04  0.50400001928E-02 0. -1.
</event>
<event>
 5   0  0.8528625E-08  0.3952329E+04  0.7818609E-02  0.8014233E-01
       -1   -1    0    0    0  501  0.00000000000E+00  0.00000000000E+00  0.19429519125E+04  0.19429519125E+04  0.50400001928E-02 0. -1.
        1   -1    0    0  501    0  0.00000000000E+00  0.00000000000E+00 -0.20099446981E+04  0.20099446981E+04  0.50400001928E-02 0.  1.
    10030    2    1    2    0    0  0.00000000000E+00  0.00000000000E+00 -0.66992785553E+02  0.39528966106E+04  0.39523288807E+04 0.  0.
        3    1    3    3  502    0 -0.19564138499E+04 -0.27355149194E+03 -0.86798647762E+02  0.19773516597E+04  0.10100000352E+00 0.  1.
       -3    1    3    3    0  502  0.19564138499E+04  0.27355149194E+03  0.19805862209E+02  0.19755449509E+04  0.10100000352E+00 0. -1.
</event>
<event>
 5   0  0.8583262E-08  0.3882058E+04  0.7818609E-02  0.8028771E-01
        1   -1    0    0  501    0  0.00000000000E+00  0.00000000000E+00  0.13299704108E+04  0.13299704108E+04  0.50400001928E-02 0. -1.
       -1   -1    0    0    0  501  0.00000000000E+00  0.00000000000E+00 -0.28328397042E+04  0.28328397042E+04  0.50400001928E-02 0.  1.
    10030    2    1    2    0    0  0.00000000000E+00  0.00000000000E+00 -0.15028692933E+04  0.41628101150E+04  0.38820576942E+04 0.  0.
        1    1    3    3  502    0 -0.13954578579E+04 -0.96184125599E+03  0.26311416912E+03  0.17151298204E+04  0.50400001928E-02 0. -1.
       -1    1    3    3    0  502  0.13954578579E+04  0.96184125599E+03 -0.17659834625E+04  0.24476802946E+04  0.50400001928E-02 0.  1.
</event>
<event>
 5   0  0.8528625E-08  0.3904985E+04  0.7818609E-02  0.8023993E-01
        1   -1    0    0  501    0  0.00000000000E+00  0.00000000000E+00  0.14134808107E+04  0.14134808107E+04  0.50400001928E-02 0.  1.
       -1   -1    0    0    0  501  0.00000000000E+00  0.00000000000E+00 -0.26970490086E+04  0.26970490086E+04  0.50400001928E-02 0. -1.
    10030    2    1    2    0    0  0.00000000000E+00  0.00000000000E+00 -0.12835681979E+04  0.41105298194E+04  0.39049850291E+04 0.  0.
        3    1    3    3  502    0  0.10599776529E+04 -0.13461862716E+04 -0.16272547929E+04  0.23629913825E+04  0.10100000352E+00 0. -1.
       -3    1    3    3    0  502 -0.10599776529E+04  0.13461862716E+04  0.34368659496E+03  0.17475384369E+04  0.10100000352E+00 0.  1.
</event>
<event>
 5   0  0.2839279E-07  0.3201228E+04  0.7818609E-02  0.8188493E-01
        2   -1    0    0  501    0  0.00000000000E+00  0.00000000000E+00  0.26257692921E+04  0.26257692921E+04  0.25500000920E-02 0.  1.
       -2   -1    0    0    0  501  0.00000000000E+00  0.00000000000E+00 -0.97570060576E+03  0.97570060577E+03  0.25500000920E-02 0. -1.
    10030    2    1    2    0    0  0.00000000000E+00  0.00000000000E+00  0.16500686864E+04  0.36014698979E+04  0.32012276951E+04 0.  0.
        3    1    3    3  502    0  0.13824467481E+04 -0.78569641749E+03  0.61916101110E+03  0.17064109234E+04  0.10100000352E+00 0. -1.
       -3    1    3    3    0  502 -0.13824467481E+04  0.78569641749E+03  0.10309076753E+04  0.18950589745E+04  0.10100000352E+00 0.  1.
</event>
<event>
 5   0  0.2730801E-07  0.4021940E+04  0.7818609E-02  0.8000135E-01
        2   -1    0    0  501    0  0.00000000000E+00  0.00000000000E+00  0.21337954048E+04  0.21337954048E+04  0.25500000920E-02 0.  1.
       -2   -1    0    0    0  501  0.00000000000E+00  0.00000000000E+00 -0.18952148027E+04  0.18952148027E+04  0.25500000920E-02 0. -1.
    10030    2    1    2    0    0  0.00000000000E+00  0.00000000000E+00  0.23858060210E+03  0.40290102074E+04  0.40219401472E+04 0.  0.
        2    1    3    3  502    0 -0.21794062769E+03  0.28229419120E+03  0.21018631575E+04  0.21319045148E+04  0.25500000920E-02 0.  1.
       -2    1    3    3    0  502  0.21794062769E+03 -0.28229419120E+03 -0.18632825554E+04  0.18971056926E+04  0.25500000920E-02 0. -1.
</event>
<event>
 5   0  0.8528625E-08  0.3995494E+04  0.7818609E-02  0.8005456E-01
        1   -1    0    0  501    0  0.00000000000E+00  0.00000000000E+00  0.21007051741E+04  0.21007051741E+04  0.50400001928E-02 0.  1.
       -1   -1    0    0    0  501  0.00000000000E+00  0.00000000000E+00 -0.18998349745E+04  0.18998349745E+04  0.50400001928E-02 0. -1.
    10030    2    1    2    0    0  0.00000000000E+00  0.00000000000E+00  0.20087019961E+03  0.40005401485E+04  0.39954940424E+04 0.  0.
        4    1    3    3  502    0 -0.17715513304E+04 -0.64989377794E+03 -0.55631669989E+03  0.19672940610E+04  0.12699999809E+01 0.  1.
       -4    1    3    3    0  502  0.17715513304E+04  0.64989377794E+03  0.75718689950E+03  0.20332460876E+04  0.12699999809E+01 0. -1.
</event>
<event>
 5   0  0.2661693E-07  0.4124424E+04  0.7818609E-02  0.7979906E-01
        2   -1    0    0  501    0  0.00000000000E+00  0.00000000000E+00  0.13097997935E+04  0.13097997935E+04  0.25500000920E-02 0. -1.
       -2   -1    0    0    0  501  0.00000000000E+00  0.00000000000E+00 -0.32468460412E+04  0.32468460412E+04  0.25500000920E-02 0.  1.
    10030    2    1    2    0    0  0.00000000000E+00  0.00000000000E+00 -0.19370462477E+04  0.45566458347E+04  0.41244239716E+04 0.  0.
        1    1    3    3  502    0  0.15607919706E+04  0.34584444043E+03 -0.24077451494E+04  0.28901412867E+04  0.50400001928E-02 0.  1.
       -1    1    3    3    0  502 -0.15607919706E+04 -0.34584444043E+03  0.47069890171E+03  0.16665045481E+04  0.50400001928E-02 0. -1.
</event>
<event>
 5   0  0.2704088E-07  0.4041406E+04  0.7818609E-02  0.7996245E-01
        2   -1    0    0  501    0  0.00000000000E+00  0.00000000000E+00  0.12311436354E+04  0.12311436354E+04  0.25500000920E-02 0. -1.
       -2   -1    0    0    0  501  0.00000000000E+00  0.00000000000E+00 -0.33166244389E+04  0.33166244389E+04  0.25500000920E-02 0.  1.
    10030    2    1    2    0    0  0.00000000000E+00  0.00000000000E+00 -0.20854808034E+04  0.45477680743E+04  0.40414062251E+04 0.  0.
        5    1    3    3  502    0 -0.16370858591E+04 -0.46483421233E+03 -0.22687929760E+04  0.28361178771E+04  0.46999998093E+01 0.  1.
       -5    1    3    3    0  502  0.16370858591E+04  0.46483421233E+03  0.18331217254E+03  0.17116501972E+04  0.46999998093E+01 0. -1.
</event>
<event>
 5   0  0.8528625E-08  0.3962599E+04  0.7818609E-02  0.8012134E-01
        1   -1    0    0  501    0  0.00000000000E+00  0.00000000000E+00  0.25459872715E+04  0.25459872715E+04  0.50400001928E-02 0. -1.
       -1   -1    0    0    0  501  0.00000000000E+00  0.00000000000E+00 -0.15418571567E+04  0.15418571567E+04  0.50400001928E-02 0.  1.
    10030    2    1    2    0    0  0.00000000000E+00  0.00000000000E+00  0.10041301149E+04  0.40878444282E+04  0.39625994981E+04 0.  0.
        4    1    3    3  502    0 -0.89570865558E+03  0.17666448604E+04  0.45346965375E+03  0.20319853342E+04  0.12699999809E+01 0.  1.
       -4    1    3    3    0  502  0.89570865558E+03 -0.17666448604E+04  0.55066046110E+03  0.20558590941E+04  0.12699999809E+01 0. -1.
</event>
<event>
 5   0  0.2661693E-07  0.3981131E+04  0.7818609E-02  0.8008364E-01
       -2   -1    0    0    0  501  0.00000000000E+00  0.00000000000E+00  0.14776438489E+04  0.14776438489E+04  0.25500000920E-02 0.  1.
        2   -1    0    0  501    0  0.00000000000E+00  0.00000000000E+00 -0.26815332400E+04  0.26815332400E+04  0.25500000920E-02 0. -1.
    10030    2    1    2    0    0  0.00000000000E+00  0.00000000000E+00 -0.12038893911E+04  0.41591770889E+04  0.39811310441E+04 0.  0.
        1    1    3    3  502    0 -0.93759339279E+03 -0.11537349988E+04 -0.19848373636E+04  0.24798720084E+04  0.50400001928E-02 0. -1.
       -1    1    3    3    0  502  0.93759339279E+03  0.11537349988E+04  0.78094797249E+03  0.16793050805E+04  0.50400001928E-02 0.  1.
</event>
<event>
 5   0  0.8583262E-08  0.4045519E+04  0.7818609E-02  0.7995426E-01
       -1   -1    0    0    0  501  0.00000000000E+00  0.00000000000E+00  0.14686236220E+04  0.14686236220E+04  0.50400001928E-02 0.  1.
        1   -1    0    0  501    0  0.00000000000E+00  0.00000000000E+00 -0.27859802254E+04  0.27859802254E+04  0.50400001928E-02 0. -1.
    10030    2    1    2    0    0  0.00000000000E+00  0.00000000000E+00 -0.13173566034E+04  0.42546038475E+04  0.40455191852E+04 0.  0.
        1    1    3    3  502    0 -0.35018824212E+03 -0.32666052170E+03 -0.27255010137E+04  0.27672539957E+04  0.50400001928E-02 0. -1.
       -1    1    3    3    0  502  0.35018824212E+03  0.32666052170E+03  0.14081444102E+04  0.14873498517E+04  0.50400001928E-02 0.  1.
</event>
<event>
 5   0  0.2661693E-07  0.3487072E+04  0.7818609E-02  0.8116861E-01
       -2   -1    0    0    0  501  0.00000000000E+00  0.00000000000E+00  0.15296515262E+04  0.15296515262E+04  0.25500000920E-02 0. -1.
        2   -1    0    0  501    0  0.00000000000E+00  0.00000000000E+00 -0.19873269398E+04  0.19873269398E+04  0.25500000920E-02 0.  1.
    10030    2    1    2    0    0  0.00000000000E+00  0.00000000000E+00 -0.45767541360E+03  0.35169784659E+04  0.34870719444E+04 0.  0.
        1    1    3    3  502    0  0.13383521321E+04 -0.11165061042E+04 -0.27555315834E+03  0.17645684609E+04  0.50400001928E-02 0. -1.
       -1    1    3    3    0  502 -0.13383521321E+04  0.11165061042E+04 -0.18212225527E+03  0.17524100051E+04  0.50400001928E-02 0.  1.
</event>
<event>
 5   0  0.8528625E-08  0.3439096E+04  0.7818609E-02  0.8128377E-01
        1   -1    0    0  501    0  0.00000000000E+00  0.00000000000E+00  0.17998511349E+04  0.17998511349E+04  0.50400001928E-02 0.  1.
       -1   -1    0    0    0  501  0.00000000000E+00  0.00000000000E+00 -0.16428277366E+04  0.16428277366E+04  0.50400001928E-02 0. -1.
    10030    2    1    2    0    0  0.00000000000E+00  0.00000000000E+00  0.15702339834E+03  0.34426788715E+04  0.34390960243E+04 0.  0.
        4    1    3    3  502    0  0.13199391270E+04 -0.67946857880E+03 -0.79010589165E+03  0.16817210772E+04  0.12699999809E+01 0. -1.
       -4    1    3    3    0  502 -0.13199391270E+04  0.67946857880E+03  0.94712928999E+03  0.17609577943E+04  0.12699999809E+01 0.  1.
</event>
<event>
 5   0  0.2730801E-07  0.3987484E+04  0.7818609E-02  0.8007076E-01
       -2   -1    0    0    0  501  0.00000000000E+00  0.00000000000E+00  0.14021594357E+04  0.14021594357E+04  0.25500000920E-02 0. -1.
        2   -1    0    0  501    0  0.00000000000E+00  0.00000000000E+00 -0.28349182420E+04  0.28349182420E+04  0.25500000920E-02 0.  1.
    10030    2    1    2    0    0  0.00000000000E+00  0.00000000000E+00 -0.14327588063E+04  0.42370776777E+04  0.39874841003E+04 0.  0.
        2    1    3    3  502    0 -0.18187931545E+04  0.65189756948E+03 -0.12391373106E+04  0.22953083136E+04  0.25500000920E-02 0.  1.
       -2    1    3    3    0  502  0.18187931545E+04 -0.65189756948E+03 -0.19362149563E+03  0.19417693641E+04  0.25500000920E-02 0. -1.
</event>
<event>
 5   0  0.2730801E-07  0.4047688E+04  0.7818609E-02  0.7994995E-01
        2   -1    0    0  501    0  0.00000000000E+00  0.00000000000E+00  0.24383430962E+04  0.24383430962E+04  0.25500000920E-02 0. -1.
       -2   -1    0    0    0  501  0.00000000000E+00  0.00000000000E+00 -0.16798066187E+04  0.16798066187E+04  0.25500000920E-02 0.  1.
    10030    2    1    2    0    0  0.00000000000E+00  0.00000000000E+00  0.75853647750E+03  0.41181497149E+04  0.40476881657E+04 0.  0.
        2    1    3    3  502    0 -0.18980516978E+04 -0.68921995429E+03  0.24155886810E+03  0.20337096842E+04  0.25500000920E-02 0. -1.
       -2    1    3    3    0  502  0.18980516978E+04  0.68921995429E+03  0.51697760941E+03  0.20844400307E+04  0.25500000920E-02 0.  1.
</event>
<event>
 5   0  0.8528625E-08  0.3368851E+04  0.7818609E-02  0.8145594E-01
        1   -1    0    0  501    0  0.00000000000E+00  0.00000000000E+00  0.17784756564E+04  0.17784756564E+04  0.50400001928E-02 0.  1.
       -1   -1    0    0    0  501  0.00000000000E+00  0.00000000000E+00 -0.15953492311E+04  0.15953492311E+04  0.50400001928E-02 0. -1.
    10030    2    1    2    0    0  0.00000000000E+00  0.00000000000E+00  0.18312642530E+03  0.33738248875E+04  0.33688513003E+04 0.  0.
        4    1    3    3  502    0  0.13012403447E+04  0.10202166388E+04  0.41331581043E+03  0.17043767180E+04  0.12699999809E+01 0.  1.
       -4    1    3    3    0  502 -0.13012403447E+04 -0.10202166388E+04 -0.23018938513E+03  0.16694481695E+04  0.12699999809E+01 0. -1.
</event>
<event>
 5   0  0.8528625E-08  0.4015983E+04  0.7818609E-02  0.8001330E-01
        1   -1    0    0  501    0  0.00000000000E+00  0.00000000000E+00  0.14046697395E+04  0.14046697395E+04  0.50400001928E-02 0.  1.
       -1   -1    0    0    0  501  0.00000000000E+00  0.00000000000E+00 -0.28704473427E+04  0.28704473427E+04  0.50400001928E-02 0. -1.
    10030    2    1    2    0    0  0.00000000000E+00  0.00000000000E+00 -0.14657776032E+04  0.42751170823E+04  0.40159833273E+04 0.  0.
        5    1    3    3  502    0 -0.49870602048E+03  0.13257522341E+04 -0.22479902725E+04  0.26570301158E+04  0.46999998093E+01 0. -1.
       -5    1    3    3    0  502  0.49870602048E+03 -0.13257522341E+04  0.78221266928E+03  0.16180869665E+04  0.46999998093E+01 0.  1.
</event>
<event>
 5   0  0.8528625E-08  0.4008927E+04  0.7818609E-02  0.8002748E-01
       -1   -1    0    0    0  501  0.00000000000E+00  0.00000000000E+00  0.14629563727E+04  0.14629563727E+04  0.50400001928E-02 0.  1.
        1   -1    0    0  501    0  0.00000000000E+00  0.00000000000E+00 -0.27464068018E+04  0.27464068018E+04  0.50400001928E-02 0. -1.
    10030    2    1    2    0    0  0.00000000000E+00  0.00000000000E+00 -0.12834504291E+04  0.42093631745E+04  0.40089267056E+04 0.  0.
        2    1    3    3  502    0 -0.73973760776E+03 -0.96405280411E+03  0.10321117549E+04  0.15943224931E+04  0.25500000920E-02 0.  1.
       -2    1    3    3    0  502  0.73973760776E+03  0.96405280411E+03 -0.23155621840E+04  0.26150406814E+04  0.25500000920E-02 0. -1.
</event>
<event>
 5   0  0.2839279E-07  0.3920191E+04  0.7818609E-02  0.8020843E-01
        2   -1    0    0  501    0  0.00000000000E+00  0.00000000000E+00  0.26298102274E+04  0.26298102274E+04  0.25500000920E-02 0.  1.
       -2   -1    0    0    0  501  0.00000000000E+00  0.00000000000E+00 -0.14609325074E+04  0.14609325074E+04  0.25500000920E-02 0. -1.
    10030    2    1    2    0    0  0.00000000000E+00  0.00000000000E+00  0.11688777200E+04  0.40907427349E+04  0.39201914492E+04 0.  0.
        3    1    3    3  502    0  0.16474843664E+04  0.10616476251E+04  0.55733135805E+03  0.20376257435E+04  0.10100000352E+00 0. -1.
       -3    1    3    3    0  502 -0.16474843664E+04 -0.10616476251E+04  0.61154636195E+03  0.20531169914E+04  0.10100000352E+00 0.  1.
</event>
<event>
 5   0  0.8528625E-08  0.3932762E+04  0.7818609E-02  0.8018250E-01
       -1   -1    0    0    0  501  0.00000000000E+00  0.00000000000E+00  0.15758097072E+04  0.15758097072E+04  0.50400001928E-02 0.  1.
        1   -1    0    0  501    0  0.00000000000E+00  0.00000000000E+00 -0.24537568416E+04  0.24537568416E+04  0.50400001928E-02 0. -1.
    10030    2    1    2    0    0  0.00000000000E+00  0.00000000000E+00 -0.87794713440E+03  0.40295665488E+04  0.39327618031E+04 0.  0.
        2    1    3    3  502    0 -0.19214847314E+04 -0.34770193462E+03 -0.67630774911E+03  0.20664927728E+04  0.25500000920E-02 0. -1.
       -2    1    3    3    0  502  0.19214847314E+04  0.34770193462E+03 -0.20163938530E+03  0.19630737760E+04  0.25500000920E-02 0.  1.
</event>
<event>
 5   0  0.8583262E-08  0.4070611E+04  0.7818609E-02  0.7990452E-01
       -1   -1    0    0    0  501  0.00000000000E+00  0.00000000000E+00  0.27539329945E+04  0.27539329945E+04  0.50400001928E-02 0. -1.
        1   -1    0    0  501    0  0.00000000000E+00  0.00000000000E+00 -0.15042011183E+04  0.15042011183E+04  0.50400001928E-02 0.  1.
    10030    2    1    2    0    0  0.00000000000E+00  0.00000000000E+00  0.12497318762E+04  0.42581341128E+04  0.40706113006E+04 0.  0.
        1    1    3    3  502    0  0.69839531255E+03  0.10522378761E+04  0.22944855028E+04  0.26190884451E+04  0.50400001928E-02 0. -1.
       -1    1    3    3    0  502 -0.69839531255E+03 -0.10522378761E+04 -0.10447536266E+04  0.16390456677E+04  0.50400001928E-02 0.  1.
</event>
<event>
 5   0  0.2661693E-07  0.3770448E+04  0.7818609E-02  0.8052527E-01
        2   -1    0    0  501    0  0.00000000000E+00  0.00000000000E+00  0.17851678618E+04  0.17851678618E+04  0.25500000920E-02 0. -1.
       -2   -1    0    0    0  501  0.00000000000E+00  0.00000000000E+00 -0.19908876889E+04  0.19908876889E+04  0.25500000920E-02 0.  1.
    10030    2    1    2    0    0  0.00000000000E+00  0.00000000000E+00 -0.20571982715E+03  0.37760555507E+04  0.37704475696E+04 0.  0.
        1    1    3    3  502    0  0.36212674827E+03 -0.13149450671E+03  0.17453230969E+04  0.17873386080E+04  0.50400001928E-02 0. -1.
       -1    1    3    3    0  502 -0.36212674827E+03  0.13149450671E+03 -0.19510429240E+04  0.19887169428E+04  0.50400001928E-02 0.  1.
</event>
<event>
 5   0  0.8528625E-08  0.3952643E+04  0.7818609E-02  0.8014169E-01
        3   -1    0    0  501    0  0.00000000000E+00  0.00000000000E+00  0.30937354128E+04  0.30937354145E+04  0.10100000352E+00 0.  1.
       -3   -1    0    0    0  501  0.00000000000E+00  0.00000000000E+00 -0.12625020434E+04  0.12625020475E+04  0.10100000352E+00 0. -1.
    10030    2    1    2    0    0  0.00000000000E+00  0.00000000000E+00  0.18312333694E+04  0.43562374620E+04  0.39526433145E+04 0.  0.
        5    1    3    3  502    0 -0.49611175766E+03  0.14044758578E+03 -0.11870623734E+04  0.12942146532E+04  0.46999998093E+01 0. -1.
       -5    1    3    3    0  502  0.49611175766E+03 -0.14044758578E+03  0.30182957427E+04  0.30620228087E+04  0.46999998093E+01 0.  1.
</event>
<event>
 5   0  0.8528625E-08  0.3117579E+04  0.7818609E-02  0.8210930E-01
       -1   -1    0    0    0  501  0.00000000000E+00  0.00000000000E+00  0.19910057257E+04  0.19910057257E+04  0.50400001928E-02 0.  1.
        1   -1    0    0  501    0  0.00000000000E+00  0.00000000000E+00 -0.12204010443E+04  0.12204010443E+04  0.50400001928E-02 0. -1.
    10030    2    1    2    0    0  0.00000000000E+00  0.00000000000E+00  0.77060468142E+03  0.32114067700E+04  0.31175794885E+04 0.  0.
        5    1    3    3  502    0 -0.12070841541E+04 -0.33105032045E+03  0.13423259642E+04  0.18353494365E+04  0.46999998093E+01 0.  1.
       -5    1    3    3    0  502  0.12070841541E+04  0.33105032045E+03 -0.57172128280E+03  0.13760573335E+04  0.46999998093E+01 0. -1.
</event>
<event>
 5   0  0.2730801E-07  0.3975245E+04  0.7818609E-02  0.8009559E-01
        2   -1    0    0  501    0  0.00000000000E+00  0.00000000000E+00  0.14912932631E+04  0.14912932631E+04  0.25500000920E-02 0.  1.
       -2   -1    0    0    0  501  0.00000000000E+00  0.00000000000E+00 -0.26491395585E+04  0.26491395585E+04  0.25500000920E-02 0. -1.
    10030    2    1    2    0    0  0.00000000000E+00  0.00000000000E+00 -0.11578462955E+04  0.41404328216E+04  0.39752453895E+04 0.  0.
        2    1    3    3  502    0 -0.40968107901E+03 -0.76910962955E+03  0.12817237678E+04  0.15498980694E+04  0.25500000920E-02 0.  1.
       -2    1    3    3    0  502  0.40968107901E+03  0.76910962955E+03 -0.24395700632E+04  0.25905347522E+04  0.25500000920E-02 0. -1.
</event>
<event>
 5   0  0.2730801E-07  0.4023441E+04  0.7818609E-02  0.7999834E-01
        2   -1    0    0  501    0  0.00000000000E+00  0.00000000000E+00  0.25341041111E+04  0.25341041111E+04  0.25500000920E-02 0.  1.
       -2   -1    0    0    0  501  0.00000000000E+00  0.00000000000E+00 -0.15970213656E+04  0.15970213656E+04  0.25500000920E-02 0. -1.
    10030    2    1    2    0    0  0.00000000000E+00  0.00000000000E+00  0.93708274549E+03  0.41311254766E+04  0.40234405217E+04 0.  0.
        2    1    3    3  502    0  0.17358928368E+04  0.59623382497E+03  0.13141114288E+04  0.22573673964E+04  0.25500000920E-02 0.  1.
       -2    1    3    3    0  502 -0.17358928368E+04 -0.59623382497E+03 -0.37702868335E+03  0.18737580802E+04  0.25500000920E-02 0. -1.
</event>
<event>
 5   0  0.8528625E-08  0.4002408E+04  0.7818609E-02  0.8004061E-01
        1   -1    0    0  501    0  0.00000000000E+00  0.00000000000E+00  0.14264775204E+04  0.14264775204E+04  0.50400001928E-02 0. -1.
       -1   -1    0    0    0  501  0.00000000000E+00  0.00000000000E+00 -0.28074875623E+04  0.28074875623E+04  0.50400001928E-02 0.  1.
    10030    2    1    2    0    0  0.00000000000E+00  0.00000000000E+00 -0.13810100418E+04  0.42339650827E+04  0.40024082233E+04 0.  0.
        3    1    3    3  502    0 -0.98396831472E+03 -0.16440598979E+04 -0.79424657827E+02  0.19176639118E+04  0.10100000352E+00 0. -1.
       -3    1    3    3    0  502  0.98396831472E+03  0.16440598979E+04 -0.13015853840E+04  0.23163011709E+04  0.10100000352E+00 0.  1.
</event>
<event>
 5   0  0.2704088E-07  0.3178472E+04  0.7818609E-02  0.8194526E-01
        2   -1    0    0  501    0  0.00000000000E+00  0.00000000000E+00  0.16071423137E+04  0.16071423137E+04  0.25500000920E-02 0. -1.
       -2   -1    0    0    0  501  0.00000000000E+00  0.00000000000E+00 -0.15715289291E+04  0.15715289291E+04  0.25500000920E-02 0.  1.
    10030    2    1    2    0    0  0.00000000000E+00  0.00000000000E+00  0.35613384654E+02  0.31786712428E+04  0.31784717329E+04 0.  0.
        5    1    3    3  502    0 -0.15778388916E+04 -0.17196326872E+03  0.98444349964E+02  0.15902390744E+04  0.46999998093E+01 0. -1.
       -5    1    3    3    0  502  0.15778388916E+04  0.17196326872E+03 -0.62830965310E+02  0.15884321685E+04  0.46999998093E+01 0.  1.
</event>
<event>
 5   0  0.8528625E-08  0.3668060E+04  0.7818609E-02  0.8075077E-01
        1   -1    0    0  501    0  0.00000000000E+00  0.00000000000E+00  0.20719073375E+04  0.20719073375E+04  0.50400001928E-02 0.  1.
       -1   -1    0    0    0  501  0.00000000000E+00  0.00000000000E+00 -0.16234638900E+04  0.16234638900E+04  0.50400001928E-02 0. -1.
    10030    2    1    2    0    0  0.00000000000E+00  0.00000000000E+00  0.44844344750E+03  0.36953712275E+04  0.36680603844E+04 0.  0.
        4    1    3    3  502    0  0.80945855921E+03  0.20478166955E+03 -0.14208805973E+04  0.16480479289E+04  0.12699999809E+01 0. -1.
       -4    1    3    3    0  502 -0.80945855921E+03 -0.20478166955E+03  0.18693240448E+04  0.20473232986E+04  0.12699999809E+01 0.  1.
</event>
<event>
 5   0  0.2730801E-07  0.3930855E+04  0.7818609E-02  0.8018642E-01
        2   -1    0    0  501    0  0.00000000000E+00  0.00000000000E+00  0.26446329146E+04  0.26446329146E+04  0.25500000920E-02 0. -1.
       -2   -1    0    0    0  501  0.00000000000E+00  0.00000000000E+00 -0.14606587445E+04  0.14606587445E+04  0.25500000920E-02 0.  1.
    10030    2    1    2    0    0  0.00000000000E+00  0.00000000000E+00  0.11839741701E+04  0.41052916591E+04  0.39308554756E+04 0.  0.
        2    1    3    3  502    0 -0.12067271972E+04 -0.14808086135E+04  0.10750282825E+04  0.21919558587E+04  0.25500000920E-02 0. -1.
       -2    1    3    3    0  502  0.12067271972E+04  0.14808086135E+04  0.10894588755E+03  0.19133358003E+04  0.25500000920E-02 0.  1.
</event>
<event>
 5   0  0.8528625E-08  0.4000024E+04  0.7818609E-02  0.8004542E-01
        1   -1    0    0  501    0  0.00000000000E+00  0.00000000000E+00  0.14659876261E+04  0.14659876261E+04  0.50400001928E-02 0. -1.
       -1   -1    0    0    0  501  0.00000000000E+00  0.00000000000E+00 -0.27285681233E+04  0.27285681233E+04  0.50400001928E-02 0.  1.
    10030    2    1    2    0    0  0.00000000000E+00  0.00000000000E+00 -0.12625804972E+04  0.41945557495E+04  0.40000235529E+04 0.  0.
        5    1    3    3  502    0  0.14884870099E+04  0.41737926100E+03  0.69936894361E+03  0.16967433617E+04  0.46999998093E+01 0. -1.
       -5    1    3    3    0  502 -0.14884870099E+04 -0.41737926100E+03 -0.19619494408E+04  0.24978123878E+04  0.46999998093E+01 0.  1.
</event>
<event>
 5   0  0.8528625E-08  0.3710764E+04  0.7818609E-02  0.8065581E-01
       -3   -1    0    0    0  501  0.00000000000E+00  0.00000000000E+00  0.13548926324E+04  0.13548926361E+04  0.10100000352E+00 0.  1.
        3   -1    0    0  501    0  0.00000000000E+00  0.00000000000E+00 -0.25407490588E+04  0.25407490608E+04  0.10100000352E+00 0. -1.
    10030    2    1    2    0    0  0.00000000000E+00  0.00000000000E+00 -0.11858564264E+04  0.38956416969E+04  0.37107639061E+04 0.  0.
        5    1    3    3  502    0 -0.12294887753E+04  0.59603553514E+03 -0.19106615024E+04  0.23489466734E+04  0.46999998093E+01 0. -1.
       -5    1    3    3    0  502  0.12294887753E+04 -0.59603553514E+03  0.72480507600E+03  0.15466950236E+04  0.46999998093E+01 0.  1.
</event>
<event>
 5   0  0.8528625E-08  0.3966642E+04  0.7818609E-02  0.8011310E-01
        1   -1    0    0  501    0  0.00000000000E+00  0.00000000000E+00  0.21347663098E+04  0.21347663098E+04  0.50400001928E-02 0. -1.
       -1   -1    0    0    0  501  0.00000000000E+00  0.00000000000E+00 -0.18426195354E+04  0.18426195354E+04  0.50400001928E-02 0.  1.
    10030    2    1    2    0    0  0.00000000000E+00  0.00000000000E+00  0.29214677439E+03  0.39773858453E+04  0.39666419582E+04 0.  0.
        2    1    3    3  502    0 -0.12033347632E+04  0.33255896746E+03  0.16913354717E+04  0.21021954469E+04  0.25500000920E-02 0. -1.
       -2    1    3    3    0  502  0.12033347632E+04 -0.33255896746E+03 -0.13991886974E+04  0.18751903983E+04  0.25500000920E-02 0.  1.
</event>
<event>
 5   0  0.8528625E-08  0.3027098E+04  0.7818609E-02  0.8236035E-01
       -1   -1    0    0    0  501  0.00000000000E+00  0.00000000000E+00  0.13112598669E+04  0.13112598669E+04  0.50400001928E-02 0. -1.
        1   -1    0    0  501    0  0.00000000000E+00  0.00000000000E+00 -0.17470456001E+04  0.17470456001E+04  0.50400001928E-02 0.  1.
    10030    2    1    2    0    0  0.00000000000E+00  0.00000000000E+00 -0.43578573326E+03  0.30583054670E+04  0.30270981359E+04 0.  0.
        5    1    3    3  502    0  0.10516824140E+04 -0.91634507308E+03  0.37560216232E+03  0.14445841156E+04  0.46999998093E+01 0. -1.
       -5    1    3    3    0  502 -0.10516824140E+04  0.91634507308E+03 -0.81138789558E+03  0.16137213514E+04  0.46999998093E+01 0.  1.
</event>
<event>
 5   0  0.2730801E-07  0.4017717E+04  0.7818609E-02  0.8000982E-01
       -2   -1    0    0    0  501  0.00000000000E+00  0.00000000000E+00  0.13488457258E+04  0.13488457258E+04  0.25500000920E-02 0.  1.
        2   -1    0    0  501    0  0.00000000000E+00  0.00000000000E+00 -0.29918266703E+04  0.29918266703E+04  0.25500000920E-02 0. -1.
    10030    2    1    2    0    0  0.00000000000E+00  0.00000000000E+00 -0.16429809445E+04  0.43406723962E+04  0.40177170715E+04 0.  0.
        2    1    3    3  502    0  0.70615387335E+03 -0.18565310439E+04 -0.11458785445E+04  0.22931198069E+04  0.25500000920E-02 0.  1.
       -2    1    3    3    0  502 -0.70615387335E+03  0.18565310439E+04 -0.49710239993E+03  0.20475525893E+04  0.25500000920E-02 0. -1.
</event>
<event>
 5   0  0.2730801E-07  0.3961473E+04  0.7818609E-02  0.8012364E-01
        2   -1    0    0  501    0  0.00000000000E+00  0.00000000000E+00  0.26592224908E+04  0.26592224908E+04  0.25500000920E-02 0.  1.
       -2   -1    0    0    0  501  0.00000000000E+00  0.00000000000E+00 -0.14753626977E+04  0.14753626977E+04  0.25500000920E-02 0. -1.
    10030    2    1    2    0    0  0.00000000000E+00  0.00000000000E+00  0.11838597930E+04  0.41345851885E+04  0.39614732955E+04 0.  0.
        2    1    3    3  502    0  0.11485917504E+04  0.15948772783E+04  0.33538131400E+03  0.19938347894E+04  0.25500000920E-02 0. -1.
       -2    1    3    3    0  502 -0.11485917504E+04 -0.15948772783E+04  0.84847847904E+03  0.21407503991E+04  0.25500000920E-02 0.  1.
</event>
<event>
 5   0  0.8528625E-08  0.4017376E+04  0.7818609E-02  0.8001050E-01
        1   -1    0    0  501    0  0.00000000000E+00  0.00000000000E+00  0.13339162307E+04  0.13339162307E+04  0.50400001928E-02 0. -1.
       -1   -1    0    0    0  501  0.00000000000E+00  0.00000000000E+00 -0.30247982884E+04  0.30247982884E+04  0.50400001928E-02 0.  1.
    10030    2    1    2    0    0  0.00000000000E+00  0.00000000000E+00 -0.16908820578E+04  0.43587145191E+04  0.40173760249E+04 0.  0.
        4    1    3    3  502    0  0.58189931241E+03 -0.15024882540E+03  0.12340856639E+04  0.13726436384E+04  0.12699999809E+01 0. -1.
       -4    1    3    3    0  502 -0.58189931241E+03  0.15024882540E+03 -0.29249677216E+04  0.29860708808E+04  0.12699999809E+01 0.  1.
</event>
<event>
 5   0  0.2666978E-07  0.4184000E+04  0.7818609E-02  0.7968423E-01
        2   -1    0    0  501    0  0.00000000000E+00  0.00000000000E+00  0.21256045202E+04  0.21256045202E+04  0.25500000920E-02 0. -1.
       -2   -1    0    0    0  501  0.00000000000E+00  0.00000000000E+00 -0.20589270413E+04  0.20589270413E+04  0.25500000920E-02 0.  1.
    10030    2    1    2    0    0  0.00000000000E+00  0.00000000000E+00  0.66677478901E+02  0.41845315616E+04  0.41840002992E+04 0.  0.
        4    1    3    3  502    0 -0.58760962487E+02  0.19724062221E+04  0.72813829856E+03  0.21033369084E+04  0.12699999809E+01 0. -1.
       -4    1    3    3    0  502  0.58760962487E+02 -0.19724062221E+04 -0.66146081966E+03  0.20811946532E+04  0.12699999809E+01 0.  1.
</event>
<event>
 5   0  0.8528625E-08  0.3934782E+04  0.7818609E-02  0.8017834E-01
       -3   -1    0    0    0  501  0.00000000000E+00  0.00000000000E+00  0.25545117077E+04  0.25545117097E+04  0.10100000352E+00 0.  1.
        3   -1    0    0  501    0  0.00000000000E+00  0.00000000000E+00 -0.15152119415E+04  0.15152119449E+04  0.10100000352E+00 0. -1.
    10030    2    1    2    0    0  0.00000000000E+00  0.00000000000E+00  0.10392997662E+04  0.40697236546E+04  0.39347816484E+04 0.  0.
        5    1    3    3  502    0  0.20010321956E+03 -0.96222891137E+03 -0.12431107372E+04  0.15846993946E+04  0.46999998093E+01 0. -1.
       -5    1    3    3    0  502 -0.20010321956E+03  0.96222891137E+03  0.22824105034E+04  0.24850242599E+04  0.46999998093E+01 0.  1.
</event>
<event>
 5   0  0.8528625E-08  0.4026318E+04  0.7818609E-02  0.7999258E-01
       -1   -1    0    0    0  501  0.00000000000E+00  0.00000000000E+00  0.24558912848E+04  0.24558912848E+04  0.50400001928E-02 0.  1.
        1   -1    0    0  501    0  0.00000000000E+00  0.00000000000E+00 -0.16502397694E+04  0.16502397694E+04  0.50400001928E-02 0. -1.
    10030    2    1    2    0    0  0.00000000000E+00  0.00000000000E+00  0.80565151547E+03  0.41061310542E+04  0.40263181531E+04 0.  0.
        5    1    3    3  502    0  0.13394218905E+04  0.46229250065E+03 -0.10555643565E+04  0.17669192278E+04  0.46999998093E+01 0. -1.
       -5    1    3    3    0  502 -0.13394218905E+04 -0.46229250065E+03  0.18612158719E+04  0.23392118264E+04  0.46999998093E+01 0.  1.
</event>
<event>
 5   0  0.2730801E-07  0.4147629E+04  0.7818609E-02  0.7975410E-01
        2   -1    0    0  501    0  0.00000000000E+00  0.00000000000E+00  0.23720405118E+04  0.23720405118E+04  0.25500000920E-02 0.  1.
       -2   -1    0    0    0  501  0.00000000000E+00  0.00000000000E+00 -0.18130832779E+04  0.18130832779E+04  0.25500000920E-02 0. -1.
    10030    2    1    2    0    0  0.00000000000E+00  0.00000000000E+00  0.55895723396E+03  0.41851237897E+04  0.41476291958E+04 0.  0.
        2    1    3    3  502    0 -0.25312447528E+03 -0.19942251102E+04 -0.23473711651E+03  0.20238842121E+04  0.25500000920E-02 0.  1.
       -2    1    3    3    0  502  0.25312447528E+03  0.19942251102E+04  0.79369435046E+03  0.21612395776E+04  0.25500000920E-02 0. -1.
</event>
<event>
 5   0  0.8583262E-08  0.4148734E+04  0.7818609E-02  0.7975196E-01
       -1   -1    0    0    0  501  0.00000000000E+00  0.00000000000E+00  0.13276984672E+04  0.13276984672E+04  0.50400001928E-02 0.  1.
        1   -1    0    0  501    0  0.00000000000E+00  0.00000000000E+00 -0.32409458745E+04  0.32409458745E+04  0.50400001928E-02 0. -1.
    10030    2    1    2    0    0  0.00000000000E+00  0.00000000000E+00 -0.19132474073E+04  0.45686443417E+04  0.41487342020E+04 0.  0.
        1    1    3    3  502    0 -0.12845718943E+04  0.84186280457E+03  0.57882605814E+03  0.16413097023E+04  0.50400001928E-02 0.  1.
       -1    1    3    3    0  502  0.12845718943E+04 -0.84186280457E+03 -0.24920734655E+04  0.29273346393E+04  0.50400001928E-02 0. -1.
</event>
<event>
 5   0  0.2730801E-07  0.3949579E+04  0.7818609E-02  0.8014796E-01
       -2   -1    0    0    0  501  0.00000000000E+00  0.00000000000E+00  0.17712832450E+04  0.17712832450E+04  0.25500000920E-02 0.  1.
        2   -1    0    0  501    0  0.00000000000E+00  0.00000000000E+00 -0.22016773138E+04  0.22016773138E+04  0.25500000920E-02 0. -1.
    10030    2    1    2    0    0  0.00000000000E+00  0.00000000000E+00 -0.43039406880E+03  0.39729605588E+04  0.39495792874E+04 0.  0.
        2    1    3    3  502    0  0.14393676943E+02 -0.15303237560E+04  0.10402684913E+04  0.18504746715E+04  0.25500000920E-02 0.  1.
       -2    1    3    3    0  502 -0.14393676943E+02  0.15303237560E+04 -0.14706625601E+04  0.21224858873E+04  0.25500000920E-02 0. -1.
</event>
<event>
 5   0  0.2730801E-07  0.3978109E+04  0.7818609E-02  0.8008977E-01
       -2   -1    0    0    0  501  0.00000000000E+00  0.00000000000E+00  0.30833419825E+04  0.30833419825E+04  0.25500000920E-02 0. -1.
        2   -1    0    0  501    0  0.00000000000E+00  0.00000000000E+00 -0.12831332602E+04  0.12831332602E+04  0.25500000920E-02 0.  1.
    10030    2    1    2    0    0  0.00000000000E+00  0.00000000000E+00  0.18002087222E+04  0.43664752427E+04  0.39781094255E+04 0.  0.
        2    1    3    3  502    0 -0.18697593838E+04 -0.62795702215E+03  0.11821076206E+04  0.22995018160E+04  0.25500000920E-02 0. -1.
       -2    1    3    3    0  502  0.18697593838E+04  0.62795702215E+03  0.61810110160E+03  0.20669734267E+04  0.25500000920E-02 0.  1.
</event>
<event>
 5   0  0.8528625E-08  0.4031920E+04  0.7818609E-02  0.7998138E-01
       -1   -1    0    0    0  501  0.00000000000E+00  0.00000000000E+00  0.13961432311E+04  0.13961432311E+04  0.50400001928E-02 0. -1.
        1   -1    0    0  501    0  0.00000000000E+00  0.00000000000E+00 -0.29109438356E+04  0.29109438356E+04  0.50400001928E-02 0.  1.
    10030    2    1    2    0    0  0.00000000000E+00  0.00000000000E+00 -0.15148006045E+04  0.43070870668E+04  0.40319199061E+04 0.  0.
        3    1    3    3  502    0  0.67433354519E+03 -0.82607106934E+03  0.10702002872E+04  0.15107772194E+04  0.10100000352E+00 0. -1.
       -3    1    3    3    0  502 -0.67433354519E+03  0.82607106934E+03 -0.25850008918E+04  0.27963098473E+04  0.10100000352E+00 0.  1.
</event>
<event>
 5   0  0.8583262E-08  0.3944657E+04  0.7818609E-02  0.8015805E-01
       -1   -1    0    0    0  501  0.00000000000E+00  0.00000000000E+00  0.24205565916E+04  0.24205565916E+04  0.50400001928E-02 0.  1.
        1   -1    0    0  501    0  0.00000000000E+00  0.00000000000E+00 -0.16071013093E+04  0.16071013093E+04  0.50400001928E-02 0. -1.
    10030    2    1    2    0    0  0.00000000000E+00  0.00000000000E+00  0.81345528233E+03  0.40276579009E+04  0.39446569775E+04 0.  0.
        1    1    3    3  502    0  0.11121591785E+04  0.61870039312E+03  0.19452141905E+04  0.23245529596E+04  0.50400001928E-02 0.  1.
       -1    1    3    3    0  502 -0.11121591785E+04 -0.61870039312E+03 -0.11317589082E+04  0.17031049413E+04  0.50400001928E-02 0. -1.
</event>
<event>
 5   0  0.8528625E-08  0.3118533E+04  0.7818609E-02  0.8210670E-01
       -1   -1    0    0    0  501  0.00000000000E+00  0.00000000000E+00  0.11771885931E+04  0.11771885931E+04  0.50400001928E-02 0. -1.
        1   -1    0    0  501    0  0.00000000000E+00  0.00000000000E+00 -0.20653542361E+04  0.20653542361E+04  0.50400001928E-02 0.  1.
    10030    2    1    2    0    0  0.00000000000E+00  0.00000000000E+00 -0.88816564302E+03  0.32425428293E+04  0.31185326341E+04 0.  0.
        3    1    3    3  502    0  0.54025632110E+02 -0.11359069914E+04 -0.15533270084E+04  0.19251047419E+04  0.10100000352E+00 0.  1.
       -3    1    3    3    0  502 -0.54025632110E+02  0.11359069914E+04  0.66516136539E+03  0.13174380874E+04  0.10100000352E+00 0. -1.
</event>
<event>
 5   0  0.8528625E-08  0.4032301E+04  0.7818609E-02  0.7998062E-01
        1   -1    0    0  501    0  0.00000000000E+00  0.00000000000E+00  0.12506943880E+04  0.12506943880E+04  0.50400001928E-02 0. -1.
       -1   -1    0    0    0  501  0.00000000000E+00  0.00000000000E+00 -0.32500847940E+04  0.32500847940E+04  0.50400001928E-02 0.  1.
    10030    2    1    2    0    0  0.00000000000E+00  0.00000000000E+00 -0.19993904060E+04  0.45007791820E+04  0.40323009870E+04 0.  0.
        4    1    3    3  502    0 -0.12294310208E+04  0.15268377915E+04 -0.15257553043E+04  0.24840823533E+04  0.12699999809E+01 0.  1.
       -4    1    3    3    0  502  0.12294310208E+04 -0.15268377915E+04 -0.47363510168E+03  0.20166968287E+04  0.12699999809E+01 0. -1.
</event>
<event>
 5   0  0.8528625E-08  0.3749664E+04  0.7818609E-02  0.8057044E-01
       -1   -1    0    0    0  501  0.00000000000E+00  0.00000000000E+00  0.14454266569E+04  0.14454266570E+04  0.50400001928E-02 0. -1.
        1   -1    0    0  501    0  0.00000000000E+00  0.00000000000E+00 -0.24318042409E+04  0.24318042409E+04  0.50400001928E-02 0.  1.
    10030    2    1    2    0    0  0.00000000000E+00  0.00000000000E+00 -0.98637758397E+03  0.38772308979E+04  0.37496638112E+04 0.  0.
        4    1    3    3  502    0  0.13839600371E+04 -0.85410270911E+03 -0.14577459160E+04  0.21840012799E+04  0.12699999809E+01 0.  1.
       -4    1    3    3    0  502 -0.13839600371E+04  0.85410270911E+03  0.47136833204E+03  0.16932296180E+04  0.12699999809E+01 0. -1.
</event>
<event>
 5   0  0.2661693E-07  0.3930586E+04  0.7818609E-02  0.8018698E-01
        2   -1    0    0  501    0  0.00000000000E+00  0.00000000000E+00  0.16493540849E+04  0.16493540849E+04  0.25500000920E-02 0.  1.
       -2   -1    0    0    0  501  0.00000000000E+00  0.00000000000E+00 -0.23417508132E+04  0.23417508132E+04  0.25500000920E-02 0. -1.
    10030    2    1    2    0    0  0.00000000000E+00  0.00000000000E+00 -0.69239672824E+03  0.39911048981E+04  0.39305858442E+04 0.  0.
        1    1    3    3  502    0  0.11218749841E+04  0.59371226894E+02  0.12911580653E+04  0.17114957120E+04  0.50400001928E-02 0.  1.
       -1    1    3    3    0  502 -0.11218749841E+04 -0.59371226894E+02 -0.19835547935E+04  0.22796091861E+04  0.50400001928E-02 0. -1.
</event>
<event>
 5   0  0.2839279E-07  0.3971781E+04  0.7818609E-02  0.8010264E-01
        2   -1    0    0  501    0  0.00000000000E+00  0.00000000000E+00  0.24839287855E+04  0.24839287855E+04  0.25500000920E-02 0. -1.
       -2   -1    0    0    0  501  0.00000000000E+00  0.00000000000E+00 -0.15877109818E+04  0.15877109818E+04  0.25500000920E-02 0.  1.
    10030    2    1    2    0    0  0.00000000000E+00  0.00000000000E+00  0.89621780370E+03  0.40716397672E+04  0.39717809661E+04 0.  0.
        3    1    3    3  502    0 -0.16325635129E+04  0.47823710978E+03 -0.60224240147E+03  0.18046246915E+04  0.10100000352E+00 0.  1.
       -3    1    3    3    0  502  0.16325635129E+04 -0.47823710978E+03  0.14984602052E+04  0.22670150757E+04  0.10100000352E+00 0. -1.
</event>
<event>
 5   0  0.8528625E-08  0.4020272E+04  0.7818609E-02  0.8000470E-01
        3   -1    0    0  501    0  0.00000000000E+00  0.00000000000E+00  0.22937911976E+04  0.22937911998E+04  0.10100000352E+00 0.  1.
       -3   -1    0    0    0  501  0.00000000000E+00  0.00000000000E+00 -0.17615579327E+04  0.17615579356E+04  0.10100000352E+00 0. -1.
    10030    2    1    2    0    0  0.00000000000E+00  0.00000000000E+00  0.53223326492E+03  0.40553491354E+04  0.40202716776E+04 0.  0.
        5    1    3    3  502    0  0.11004382541E+04 -0.88121648697E+03  0.17114888844E+04  0.22173685169E+04  0.46999998093E+01 0.  1.
       -5    1    3    3    0  502 -0.11004382541E+04  0.88121648697E+03 -0.11792556195E+04  0.18379806186E+04  0.46999998093E+01 0. -1.
</event>
<event>
 5   0  0.2730801E-07  0.4058214E+04  0.7818609E-02  0.7992905E-01
        2   -1    0    0  501    0  0.00000000000E+00  0.00000000000E+00  0.16412018707E+04  0.16412018707E+04  0.25500000920E-02 0. -1.
       -2   -1    0    0    0  501  0.00000000000E+00  0.00000000000E+00 -0.25086950856E+04  0.25086950856E+04  0.25500000920E-02 0.  1.
    10030    2    1    2    0    0  0.00000000000E+00  0.00000000000E+00 -0.86749321486E+03  0.41498969563E+04  0.40582139261E+04 0.  0.
        2    1    3    3  502    0  0.34247059478E+03  0.68116051151E+03 -0.23566571327E+04  0.24769131175E+04  0.25500000920E-02 0.  1.
       -2    1    3    3    0  502 -0.34247059478E+03 -0.68116051151E+03  0.14891639178E+04  0.16729838388E+04  0.25500000920E-02 0. -1.
</event>
<event>
 5   0  0.2666978E-07  0.4129491E+04  0.7818609E-02  0.7978922E-01
       -2   -1    0    0    0  501  0.00000000000E+00  0.00000000000E+00  0.20706248108E+04  0.20706248108E+04  0.25500000920E-02 0. -1.
        2   -1    0    0  501    0  0.00000000000E+00  0.00000000000E+00 -0.20588832344E+04  0.20588832344E+04  0.25500000920E-02 0.  1.
    10030    2    1    2    0    0  0.00000000000E+00  0.00000000000E+00  0.11741576438E+02  0.41295080452E+04  0.41294913525E+04 0.  0.
        4    1    3    3  502    0 -0.88704695673E+03 -0.11148136736E+04  0.15003704776E+04  0.20690033865E+04  0.12699999809E+01 0. -1.
       -4    1    3    3    0  502  0.88704695673E+03  0.11148136736E+04 -0.14886289012E+04  0.20605046587E+04  0.12699999809E+01 0.  1.
</event>
<event>
 5   0  0.8528625E-08  0.3752459E+04  0.7818609E-02  0.8056435E-01
        1   -1    0    0  501    0  0.00000000000E+00  0.00000000000E+00  0.16083944599E+04  0.16083944599E+04  0.50400001928E-02 0.  1.
       -1   -1    0    0    0  501  0.00000000000E+00  0.00000000000E+00 -0.21886654024E+04  0.21886654024E+04  0.50400001928E-02 0. -1.
    10030    2    1    2    0    0  0.00000000000E+00  0.00000000000E+00 -0.58027094243E+03  0.37970598623E+04  0.37524590912E+04 0.  0.
        4    1    3    3  502    0 -0.74739636205E+03 -0.23824905889E+02 -0.20313632067E+04  0.21646263046E+04  0.12699999809E+01 0. -1.
       -4    1    3    3    0  502  0.74739636205E+03  0.23824905889E+02  0.14510922643E+04  0.16324335577E+04  0.12699999809E+01 0.  1.
</event>
<event>
 5   0  0.2704088E-07  0.3701705E+04  0.7818609E-02  0.8067584E-01
       -2   -1    0    0    0  501  0.00000000000E+00  0.00000000000E+00  0.16114920409E+04  0.16114920409E+04  0.25500000920E-02 0.  1.
        2   -1    0    0  501    0  0.00000000000E+00  0.00000000000E+00 -0.21257662387E+04  0.21257662387E+04  0.25500000920E-02 0. -1.
    10030    2    1    2    0    0  0.00000000000E+00  0.00000000000E+00 -0.51427419780E+03  0.37372582796E+04  0.37017052149E+04 0.  0.
        5    1    3    3  502    0 -0.21216912420E+03 -0.12731879306E+04  0.10821062483E+04  0.16843394155E+04  0.46999998093E+01 0.  1.
       -5    1    3    3    0  502  0.21216912420E+03  0.12731879306E+04 -0.15963804461E+04  0.20529188641E+04  0.46999998093E+01 0. -1.
</event>
<event>
 5   0  0.2661693E-07  0.3863466E+04  0.7818609E-02  0.8032671E-01
        2   -1    0    0  501    0  0.00000000000E+00  0.00000000000E+00  0.12449890604E+04  0.12449890604E+04  0.25500000920E-02 0.  1.
       -2   -1    0    0    0  501  0.00000000000E+00  0.00000000000E+00 -0.29972894581E+04  0.29972894581E+04  0.25500000920E-02 0. -1.
    10030    2    1    2    0    0  0.00000000000E+00  0.00000000000E+00 -0.17523003977E+04  0.42422785185E+04  0.38634661051E+04 0.  0.
        1    1    3    3  502    0  0.10747923431E+04  0.15781347281E+04 -0.55431706805E+03  0.19882040169E+04  0.50400001928E-02 0. -1.
       -1    1    3    3    0  502 -0.10747923431E+04 -0.15781347281E+04 -0.11979833296E+04  0.22540745016E+04  0.50400001928E-02 0.  1.
</event>
<event>
 5   0  0.8528625E-08  0.3974245E+04  0.7818609E-02  0.8009762E-01
        1   -1    0    0  501    0  0.00000000000E+00  0.00000000000E+00  0.27800161558E+04  0.27800161558E+04  0.50400001928E-02 0.  1.
       -1   -1    0    0    0  501  0.00000000000E+00  0.00000000000E+00 -0.14203712955E+04  0.14203712955E+04  0.50400001928E-02 0. -1.
    10030    2    1    2    0    0  0.00000000000E+00  0.00000000000E+00  0.13596448603E+04  0.42003874514E+04  0.39742446572E+04 0.  0.
        4    1    3    3  502    0  0.81375247515E+03 -0.17682327600E+04  0.11023366044E+04  0.22369594960E+04  0.12699999809E+01 0. -1.
       -4    1    3    3    0  502 -0.81375247515E+03  0.17682327600E+04  0.25730825596E+03  0.19634279554E+04  0.12699999809E+01 0.  1.
</event>
<event>
 5   0  0.8528625E-08  0.3974948E+04  0.7818609E-02  0.8009620E-01
       -1   -1    0    0    0  501  0.00000000000E+00  0.00000000000E+00  0.14965221280E+04  0.14965221280E+04  0.50400001928E-02 0. -1.
        1   -1    0    0  501    0  0.00000000000E+00  0.00000000000E+00 -0.26394878415E+04  0.26394878415E+04  0.50400001928E-02 0.  1.
    10030    2    1    2    0    0  0.00000000000E+00  0.00000000000E+00 -0.11429657134E+04  0.41360099695E+04  0.39749475274E+04 0.  0.
        3    1    3    3  502    0  0.10861445049E+04  0.14488719428E+04 -0.14238912760E+04  0.23035637973E+04  0.10100000352E+00 0.  1.
       -3    1    3    3    0  502 -0.10861445049E+04 -0.14488719428E+04  0.28092556252E+03  0.18324461722E+04  0.10100000352E+00 0. -1.
</event>
<event>
 5   0  0.2666978E-07  0.4131711E+04  0.7818609E-02  0.7978491E-01
       -2   -1    0    0    0  501  0.00000000000E+00  0.00000000000E+00  0.15582291945E+04  0.15582291945E+04  0.25500000920E-02 0. -1.
        2   -1    0    0  501    0  0.00000000000E+00  0.00000000000E+00 -0.27388512767E+04  0.27388512767E+04  0.25500000920E-02 0.  1.
    10030    2    1    2    0    0  0.00000000000E+00  0.00000000000E+00 -0.11806220822E+04  0.42970804712E+04  0.41317105508E+04 0.  0.
        4    1    3    3  502    0  0.10832054691E+04  0.15189483265E+04  0.33245411709E+03  0.18950106753E+04  0.12699999809E+01 0. -1.
       -4    1    3    3    0  502 -0.10832054691E+04 -0.15189483265E+04 -0.15130761993E+04  0.24020697959E+04  0.12699999809E+01 0.  1.
</event>
<event>
 5   0  0.2839279E-07  0.4061551E+04  0.7818609E-02  0.7992244E-01
        2   -1    0    0  501    0  0.00000000000E+00  0.00000000000E+00  0.14758683760E+04  0.14758683760E+04  0.25500000920E-02 0.  1.
       -2   -1    0    0    0  501  0.00000000000E+00  0.00000000000E+00 -0.27943203045E+04  0.27943203045E+04  0.25500000920E-02 0. -1.
    10030    2    1    2    0    0  0.00000000000E+00  0.00000000000E+00 -0.13184519285E+04  0.42701886805E+04  0.40615509204E+04 0.  0.
        3    1    3    3  502    0 -0.10655945765E+04  0.12726176939E+03 -0.24718426919E+04  0.26947529874E+04  0.10100000352E+00 0. -1.
       -3    1    3    3    0  502  0.10655945765E+04 -0.12726176939E+03  0.11533907635E+04  0.15754356930E+04  0.10100000352E+00 0.  1.
</event>
<event>
 5   0  0.2730801E-07  0.3945123E+04  0.7818609E-02  0.8015709E-01
       -2   -1    0    0    0  501  0.00000000000E+00  0.00000000000E+00  0.17134402603E+04  0.17134402603E+04  0.25500000920E-02 0. -1.
        2   -1    0    0  501    0  0.00000000000E+00  0.00000000000E+00 -0.22708695184E+04  0.22708695184E+04  0.25500000920E-02 0.  1.
    10030    2    1    2    0    0  0.00000000000E+00  0.00000000000E+00 -0.55742925810E+03  0.39843097787E+04  0.39451231964E+04 0.  0.
        2    1    3    3  502    0  0.16822631229E+04  0.46531329429E+03 -0.12067949450E+04  0.21219989905E+04  0.25500000920E-02 0.  1.
       -2    1    3    3    0  502 -0.16822631229E+04 -0.46531329429E+03  0.64936568695E+03  0.18623107882E+04  0.25500000920E-02 0. -1.
</event>
<event>
 5   0  0.2730801E-07  0.3815550E+04  0.7818609E-02  0.8042826E-01
       -2   -1    0    0    0  501  0.00000000000E+00  0.00000000000E+00  0.17048266763E+04  0.17048266763E+04  0.25500000920E-02 0. -1.
        2   -1    0    0  501    0  0.00000000000E+00  0.00000000000E+00 -0.21348830965E+04  0.21348830965E+04  0.25500000920E-02 0.  1.
    10030    2    1    2    0    0  0.00000000000E+00  0.00000000000E+00 -0.43005642019E+03  0.38397097727E+04  0.38155501064E+04 0.  0.
        2    1    3    3  502    0 -0.74171270153E+03 -0.25512521205E+03  0.15350576196E+04  0.17238412053E+04  0.25500000920E-02 0. -1.
       -2    1    3    3    0  502  0.74171270153E+03  0.25512521205E+03 -0.19651140398E+04  0.21158685675E+04  0.25500000920E-02 0.  1.
</event>
<event>
 5   0  0.2666978E-07  0.3915478E+04  0.7818609E-02  0.8021818E-01
       -2   -1    0    0    0  501  0.00000000000E+00  0.00000000000E+00  0.31135851890E+04  0.31135851890E+04  0.25500000920E-02 0. -1.
        2   -1    0    0  501    0  0.00000000000E+00  0.00000000000E+00 -0.12309737683E+04  0.12309737683E+04  0.25500000920E-02 0.  1.
    10030    2    1    2    0    0  0.00000000000E+00  0.00000000000E+00  0.18826114208E+04  0.43445589573E+04  0.39154778472E+04 0.  0.
        4    1    3    3  502    0  0.12538196290E+03 -0.62549682674E+02 -0.12254024499E+04  0.12333879667E+04  0.12699999809E+01 0.  1.
       -4    1    3    3    0  502 -0.12538196290E+03  0.62549682674E+02  0.31080138706E+04  0.31111709905E+04  0.12699999809E+01 0. -1.
</event>
<event>
 5   0  0.2704088E-07  0.3955393E+04  0.7818609E-02  0.8013606E-01
        2   -1    0    0  501    0  0.00000000000E+00  0.00000000000E+00  0.29447172902E+04  0.29447172902E+04  0.25500000920E-02 0. -1.
       -2   -1    0    0    0  501  0.00000000000E+00  0.00000000000E+00 -0.13282371227E+04  0.13282371227E+04  0.25500000920E-02 0.  1.
    10030    2    1    2    0    0  0.00000000000E+00  0.00000000000E+00  0.16164801675E+04  0.42729544129E+04  0.39553926838E+04 0.  0.
        5    1    3    3  502    0  0.65671166206E+03 -0.16136055913E+04 -0.20300636749E+03  0.17539175826E+04  0.46999998093E+01 0.  1.
       -5    1    3    3    0  502 -0.65671166206E+03  0.16136055913E+04  0.18194865350E+04  0.25190368303E+04  0.46999998093E+01 0. -1.
</event>
<event>
 5   0  0.2704088E-07  0.3989022E+04  0.7818609E-02  0.8006765E-01
        2   -1    0    0  501    0  0.00000000000E+00  0.00000000000E+00  0.13468906273E+04  0.13468906273E+04  0.25500000920E-02 0.  1.
       -2   -1    0    0    0  501  0.00000000000E+00  0.00000000000E+00 -0.29535247817E+04  0.29535247817E+04  0.25500000920E-02 0. -1.
    10030    2    1    2    0    0  0.00000000000E+00  0.00000000000E+00 -0.16066341543E+04  0.43004154090E+04  0.39890223594E+04 0.  0.
        5    1    3    3  502    0 -0.36395165621E+03  0.18631690046E+04 -0.14385186768E+03  0.19038316621E+04  0.46999998093E+01 0. -1.
       -5    1    3    3    0  502  0.36395165621E+03 -0.18631690046E+04 -0.14627822866E+04  0.23965837469E+04  0.46999998093E+01 0.  1.
</event>
<event>
 5   0  0.2839279E-07  0.4046339E+04  0.7818609E-02  0.7995263E-01
       -2   -1    0    0    0  501  0.00000000000E+00  0.00000000000E+00  0.19350125150E+04  0.19350125150E+04  0.25500000920E-02 0.  1.
        2   -1    0    0  501    0  0.00000000000E+00  0.00000000000E+00 -0.21153424205E+04  0.21153424205E+04  0.25500000920E-02 0. -1.
    10030    2    1    2    0    0  0.00000000000E+00  0.00000000000E+00 -0.18032990557E+03  0.40503549355E+04  0.40463386201E+04 0.  0.
        3    1    3    3  502    0 -0.12946571221E+04 -0.38473842470E+03  0.14176679284E+04  0.19580457311E+04  0.10100000352E+00 0.  1.
       -3    1    3    3    0  502  0.12946571221E+04  0.38473842470E+03 -0.15979978340E+04  0.20923092045E+04  0.10100000352E+00 0. -1.
</event>
<event>
 5   0  0.8583262E-08  0.4037408E+04  0.7818609E-02  0.7997042E-01
        1   -1    0    0  501    0  0.00000000000E+00  0.00000000000E+00  0.30580577338E+04  0.30580577338E+04  0.50400001928E-02 0. -1.
       -1   -1    0    0    0  501  0.00000000000E+00  0.00000000000E+00 -0.13325996377E+04  0.13325996377E+04  0.50400001928E-02 0.  1.
    10030    2    1    2    0    0  0.00000000000E+00  0.00000000000E+00  0.17254580960E+04  0.43906573715E+04  0.40374083906E+04 0.  0.
        1    1    3    3  502    0  0.93695522134E+03 -0.16740984335E+04  0.15459280334E+04  0.24638149557E+04  0.50400001928E-02 0. -1.
       -1    1    3    3    0  502 -0.93695522134E+03  0.16740984335E+04  0.17953006266E+03  0.19268424158E+04  0.50400001928E-02 0.  1.
</event>
<event>
 5   0  0.8583262E-08  0.3981637E+04  0.7818609E-02  0.8008261E-01
        1   -1    0    0  501    0  0.00000000000E+00  0.00000000000E+00  0.23545761200E+04  0.23545761200E+04  0.50400001928E-02 0.  1.
       -1   -1    0    0    0  501  0.00000000000E+00  0.00000000000E+00 -0.16832577621E+04  0.16832577621E+04  0.50400001928E-02 0. -1.
    10030    2    1    2    0    0  0.00000000000E+00  0.00000000000E+00  0.67131835784E+03  0.40378338821E+04  0.39816371158E+04 0.  0.
        1    1    3    3  502    0  0.15305652058E+04 -0.11760364707E+04 -0.15873246691E+03  0.19367208435E+04  0.50400001928E-02 0. -1.
       -1    1    3    3    0  502 -0.15305652058E+04  0.11760364707E+04  0.83005082475E+03  0.21011130386E+04  0.50400001928E-02 0.  1.
</event>
<event>
 5   0  0.2730801E-07  0.3978502E+04  0.7818609E-02  0.8008897E-01
        2   -1    0    0  501    0  0.00000000000E+00  0.00000000000E+00  0.15435895896E+04  0.15435895896E+04  0.25500000920E-02 0. -1.
       -2   -1    0    0    0  501  0.00000000000E+00  0.00000000000E+00 -0.25635831935E+04  0.25635831935E+04  0.25500000920E-02 0.  1.
    10030    2    1    2    0    0  0.00000000000E+00  0.00000000000E+00 -0.10199936039E+04  0.41071727831E+04  0.39785023964E+04 0.  0.
        2    1    3    3  502    0  0.10530929608E+04  0.16164148479E+04 -0.10107819769E+04  0.21779536150E+04  0.25500000920E-02 0. -1.
       -2    1    3    3    0  502 -0.10530929608E+04 -0.16164148479E+04 -0.92116270625E+01  0.19292191681E+04  0.25500000920E-02 0.  1.
</event>
<event>
 5   0  0.2666978E-07  0.3080955E+04  0.7818609E-02  0.8220984E-01
        2   -1    0    0  501    0  0.00000000000E+00  0.00000000000E+00  0.13593189376E+04  0.13593189376E+04  0.25500000920E-02 0.  1.
       -2   -1    0    0    0  501  0.00000000000E+00  0.00000000000E+00 -0.17457797837E+04  0.17457797837E+04  0.25500000920E-02 0. -1.
    10030    2    1    2    0    0  0.00000000000E+00  0.00000000000E+00 -0.38646084612E+03  0.31050987212E+04  0.30809553848E+04 0.  0.
        4    1    3    3  502    0  0.45979261527E+03 -0.29111283385E+03 -0.16456739570E+04  0.17333206041E+04  0.12699999809E+01 0. -1.
       -4    1    3    3    0  502 -0.45979261527E+03  0.29111283385E+03  0.12592131109E+04  0.13717781171E+04  0.12699999809E+01 0.  1.
</event>
<event>
 5   0  0.8528625E-08  0.3112848E+04  0.7818609E-02  0.8212221E-01
       -1   -1    0    0    0  501  0.00000000000E+00  0.00000000000E+00  0.27105145376E+04  0.27105145376E+04  0.50400001928E-02 0. -1.
        1   -1    0    0  501    0  0.00000000000E+00  0.00000000000E+00 -0.89372555169E+03  0.89372555171E+03  0.50400001928E-02 0.  1.
    10030    2    1    2    0    0  0.00000000000E+00  0.00000000000E+00  0.18167889859E+04  0.36042400893E+04  0.31128482780E+04 0.  0.
        5    1    3    3  502    0  0.96948969422E+03  0.10270644198E+04  0.15120199143E+03  0.14204420868E+04  0.46999998093E+01 0.  1.
       -5    1    3    3    0  502 -0.96948969422E+03 -0.10270644198E+04  0.16655869945E+04  0.21837980025E+04  0.46999998093E+01 0. -1.
</event>
<event>
 5   0  0.2661693E-07  0.3946943E+04  0.7818609E-02  0.8015336E-01
       -2   -1    0    0    0  501  0.00000000000E+00  0.00000000000E+00  0.24126256489E+04  0.24126256489E+04  0.25500000920E-02 0.  1.
        2   -1    0    0  501    0  0.00000000000E+00  0.00000000000E+00 -0.16142536178E+04  0.16142536178E+04  0.25500000920E-02 0. -1.
    10030    2    1    2    0    0  0.00000000000E+00  0.00000000000E+00  0.79837203109E+03  0.40268792667E+04  0.39469429599E+04 0.  0.
        1    1    3    3  502    0  0.18914097184E+04  0.55567483333E+03  0.49260706983E+03  0.20319613600E+04  0.50400001928E-02 0.  1.
       -1    1    3    3    0  502 -0.18914097184E+04 -0.55567483333E+03  0.30576496125E+03  0.19949179068E+04  0.50400001928E-02 0. -1.
</event>
<event>
 5   0  0.8528625E-08  0.4011810E+04  0.7818609E-02  0.8002168E-01
       -1   -1    0    0    0  501  0.00000000000E+00  0.00000000000E+00  0.33250337433E+04  0.33250337433E+04  0.50400001928E-02 0. -1.
        1   -1    0    0  501    0  0.00000000000E+00  0.00000000000E+00 -0.12101096600E+04  0.12101096600E+04  0.50400001928E-02 0.  1.
    10030    2    1    2    0    0  0.00000000000E+00  0.00000000000E+00  0.21149240833E+04  0.45351434033E+04  0.40118102909E+04 0.  0.
        5    1    3    3  502    0 -0.92197751194E+03  0.17797600442E+04  0.11453540379E+04  0.23085593580E+04  0.46999998093E+01 0. -1.
       -5    1    3    3    0  502  0.92197751194E+03 -0.17797600442E+04  0.96957004542E+03  0.22265840452E+04  0.46999998093E+01 0.  1.
</event>
<event>
 5   0  0.8528625E-08  0.3373194E+04  0.7818609E-02  0.8144517E-01
        1   -1    0    0  501    0  0.00000000000E+00  0.00000000000E+00  0.15400710378E+04  0.15400710378E+04  0.50400001928E-02 0.  1.
       -1   -1    0    0    0  501  0.00000000000E+00  0.00000000000E+00 -0.18470637997E+04  0.18470637997E+04  0.50400001928E-02 0. -1.
    10030    2    1    2    0    0  0.00000000000E+00  0.00000000000E+00 -0.30699276188E+03  0.33871348375E+04  0.33731940133E+04 0.  0.
        4    1    3    3  502    0 -0.15038749580E+03  0.12315704231E+04 -0.13006827561E+04  0.17975425867E+04  0.12699999809E+01 0. -1.
       -4    1    3    3    0  502  0.15038749580E+03 -0.12315704231E+04  0.99368999426E+03  0.15895922507E+04  0.12699999809E+01 0.  1.
</event>
<event>
 5   0  0.8583262E-08  0.4010082E+04  0.7818609E-02  0.8002516E-01
        1   -1    0    0  501    0  0.00000000000E+00  0.00000000000E+00  0.17650050323E+04  0.17650050323E+04  0.50400001928E-02 0.  1.
       -1   -1    0    0    0  501  0.00000000000E+00  0.00000000000E+00 -0.22777212743E+04  0.22777212743E+04  0.50400001928E-02 0. -1.
    10030    2    1    2    0    0  0.00000000000E+00  0.00000000000E+00 -0.51271624204E+03  0.40427263066E+04  0.40100820497E+04 0.  0.
        1    1    3    3  502    0  0.42486139732E+03 -0.15301250096E+03 -0.22257883460E+04  0.22711349131E+04  0.50400001928E-02 0. -1.
       -1    1    3    3    0  502 -0.42486139732E+03  0.15301250096E+03  0.17130721039E+04  0.17715913935E+04  0.50400001928E-02 0.  1.
</event>
<event>
 5   0  0.8583262E-08  0.4085665E+04  0.7818609E-02  0.7987485E-01
       -1   -1    0    0    0  501  0.00000000000E+00  0.00000000000E+00  0.20033974103E+04  0.20033974103E+04  0.50400001928E-02 0.  1.
        1   -1    0    0  501    0  0.00000000000E+00  0.00000000000E+00 -0.20830442701E+04  0.20830442701E+04  0.50400001928E-02 0. -1.
    10030    2    1    2    0    0  0.00000000000E+00  0.00000000000E+00 -0.79646859746E+02  0.40864416804E+04  0.40856654275E+04 0.  0.
        1    1    3    3  502    0 -0.18432255839E+04 -0.78585840330E+03  0.35788450239E+03  0.20354693071E+04  0.50400001928E-02 0.  1.
       -1    1    3    3    0  502  0.18432255839E+04  0.78585840330E+03 -0.43753136213E+03  0.20509723733E+04  0.50400001928E-02 0. -1.
</event>
<event>
 5   0  0.8583262E-08  0.4071691E+04  0.7818609E-02  0.7990238E-01
        1   -1    0    0  501    0  0.00000000000E+00  0.00000000000E+00  0.20348242256E+04  0.20348242256E+04  0.50400001928E-02 0. -1.
       -1   -1    0    0    0  501  0.00000000000E+00  0.00000000000E+00 -0.20368675028E+04  0.20368675028E+04  0.50400001928E-02 0.  1.
    10030    2    1    2    0    0  0.00000000000E+00  0.00000000000E+00 -0.20432771368E+01  0.40716917284E+04  0.40716912157E+04 0.  0.
        1    1    3    3  502    0 -0.15625711968E+04  0.13039999009E+04 -0.52235435753E+02  0.20358715646E+04  0.50400001928E-02 0.  1.
       -1    1    3    3    0  502  0.15625711968E+04 -0.13039999009E+04  0.50192158617E+02  0.20358201638E+04  0.50400001928E-02 0. -1.
</event>
<event>
 5   0  0.8528625E-08  0.4029346E+04  0.7818609E-02  0.7998653E-01
       -1   -1    0    0    0  501  0.00000000000E+00  0.00000000000E+00  0.20608735135E+04  0.20608735135E+04  0.50400001928E-02 0.  1.
        1   -1    0    0  501    0  0.00000000000E+00  0.00000000000E+00 -0.19695084334E+04  0.19695084334E+04  0.50400001928E-02 0. -1.
    10030    2    1    2    0    0  0.00000000000E+00  0.00000000000E+00  0.91365080111E+02  0.40303819469E+04  0.40293462323E+04 0.  0.
        2    1    3    3  502    0 -0.11535351433E+04  0.94786070243E+03  0.13987403120E+04  0.20458635582E+04  0.25500000920E-02 0.  1.
       -2    1    3    3    0  502  0.11535351433E+04 -0.94786070243E+03 -0.13073752319E+04  0.19845183887E+04  0.25500000920E-02 0. -1.
</event>
<event>
 5   0  0.8528625E-08  0.3996280E+04  0.7818609E-02  0.8005297E-01
       -1   -1    0    0    0  501  0.00000000000E+00  0.00000000000E+00  0.17268582182E+04  0.17268582182E+04  0.50400001928E-02 0. -1.
        1   -1    0    0  501    0  0.00000000000E+00  0.00000000000E+00 -0.23120388794E+04  0.23120388794E+04  0.50400001928E-02 0.  1.
    10030    2    1    2    0    0  0.00000000000E+00  0.00000000000E+00 -0.58518066119E+03  0.40388970977E+04  0.39962799400E+04 0.  0.
        5    1    3    3  502    0 -0.45306334363E+03  0.17198077252E+04  0.62791131358E+03  0.18860805160E+04  0.46999998093E+01 0. -1.
       -5    1    3    3    0  502  0.45306334363E+03 -0.17198077252E+04 -0.12130919748E+04  0.21528165817E+04  0.46999998093E+01 0.  1.
</event>
<event>
 5   0  0.2839279E-07  0.3972475E+04  0.7818609E-02  0.8010122E-01
       -2   -1    0    0    0  501  0.00000000000E+00  0.00000000000E+00  0.22796902036E+04  0.22796902036E+04  0.25500000920E-02 0.  1.
        2   -1    0    0  501    0  0.00000000000E+00  0.00000000000E+00 -0.17305592169E+04  0.17305592169E+04  0.25500000920E-02 0. -1.
    10030    2    1    2    0    0  0.00000000000E+00  0.00000000000E+00  0.54913098669E+03  0.40102494206E+04  0.39724747419E+04 0.  0.
        3    1    3    3  502    0 -0.78952385345E+03  0.17876336573E+04 -0.83997696486E+02  0.19560259791E+04  0.10100000352E+00 0. -1.
       -3    1    3    3    0  502  0.78952385345E+03 -0.17876336573E+04  0.63312868317E+03  0.20542234415E+04  0.10100000352E+00 0.  1.
</event>
<event>
 5   0  0.8528625E-08  0.4016607E+04  0.7818609E-02  0.8001205E-01
        1   -1    0    0  501    0  0.00000000000E+00  0.00000000000E+00  0.18712364932E+04  0.18712364932E+04  0.50400001928E-02 0.  1.
       -1   -1    0    0    0  501  0.00000000000E+00  0.00000000000E+00 -0.21554108571E+04  0.21554108571E+04  0.50400001928E-02 0. -1.
    10030    2    1    2    0    0  0.00000000000E+00  0.00000000000E+00 -0.28417436391E+03  0.40266473503E+04  0.40166072518E+04 0.  0.
        3    1    3    3  502    0 -0.27292847100E+03 -0.17932100664E+04 -0.10063274408E+04  0.20743160851E+04  0.10100000352E+00 0. -1.
       -3    1    3    3    0  502  0.27292847100E+03  0.17932100664E+04  0.72215307684E+03  0.19523312652E+04  0.10100000352E+00 0.  1.
</event>
<event>
 5   0  0.8528625E-08  0.3900553E+04  0.7818609E-02  0.8024914E-01
       -1   -1    0    0    0  501  0.00000000000E+00  0.00000000000E+00  0.23887286462E+04  0.23887286462E+04  0.50400001928E-02 0.  1.
        1   -1    0    0  501    0  0.00000000000E+00  0.00000000000E+00 -0.15923028087E+04  0.15923028088E+04  0.50400001928E-02 0. -1.
    10030    2    1    2    0    0  0.00000000000E+00  0.00000000000E+00  0.79642583749E+03  0.39810314550E+04  0.39005534647E+04 0.  0.
        2    1    3    3  502    0  0.74440804008E+03  0.16736047856E+04  0.10817189930E+04  0.21272546364E+04  0.25500000920E-02 0.  1.
       -2    1    3    3    0  502 -0.74440804008E+03 -0.16736047856E+04 -0.28529315550E+03  0.18537768186E+04  0.25500000920E-02 0. -1.
</event>
<event>
 5   0  0.2704088E-07  0.3990941E+04  0.7818609E-02  0.8006376E-01
       -2   -1    0    0    0  501  0.00000000000E+00  0.00000000000E+00  0.14159762209E+04  0.14159762209E+04  0.25500000920E-02 0.  1.
        2   -1    0    0  501    0  0.00000000000E+00  0.00000000000E+00 -0.28121257906E+04  0.28121257906E+04  0.25500000920E-02 0. -1.
    10030    2    1    2    0    0  0.00000000000E+00  0.00000000000E+00 -0.13961495697E+04  0.42281020114E+04  0.39909413674E+04 0.  0.
        5    1    3    3  502    0  0.12982988046E+04 -0.75129009190E+03  0.69613162012E+03  0.16536740642E+04  0.46999998093E+01 0.  1.
       -5    1    3    3    0  502 -0.12982988046E+04  0.75129009190E+03 -0.20922811898E+04  0.25744279472E+04  0.46999998093E+01 0. -1.
</event>
<event>
 5   0  0.2839279E-07  0.3818716E+04  0.7818609E-02  0.8042150E-01
       -2   -1    0    0    0  501  0.00000000000E+00  0.00000000000E+00  0.20229972614E+04  0.20229972614E+04  0.25500000920E-02 0. -1.
        2   -1    0    0  501    0  0.00000000000E+00  0.00000000000E+00 -0.18021027256E+04  0.18021027256E+04  0.25500000920E-02 0.  1.
    10030    2    1    2    0    0  0.00000000000E+00  0.00000000000E+00  0.22089453579E+03  0.38250999869E+04  0.38187164747E+04 0.  0.
        3    1    3    3  502    0  0.59104783360E+03 -0.78474023541E+03  0.17504055638E+04  0.20072554463E+04  0.10100000352E+00 0. -1.
       -3    1    3    3    0  502 -0.59104783360E+03  0.78474023541E+03 -0.15295110280E+04  0.18178445406E+04  0.10100000352E+00 0.  1.
</event>
<event>
 5   0  0.8583262E-08  0.3913206E+04  0.7818609E-02  0.8022288E-01
        1   -1    0    0  501    0  0.00000000000E+00  0.00000000000E+00  0.17047129440E+04  0.17047129441E+04  0.50400001928E-02 0.  1.
       -1   -1    0    0    0  501  0.00000000000E+00  0.00000000000E+00 -0.22457126755E+04  0.22457126755E+04  0.50400001928E-02 0. -1.
    10030    2    1    2    0    0  0.00000000000E+00  0.00000000000E+00 -0.54099973143E+03  0.39504256195E+04  0.39132060853E+04 0.  0.
        1    1    3    3  502    0  0.64564723087E+03  0.50931579371E+03  0.15217828442E+04  0.17297647092E+04  0.50400001928E-02 0.  1.
       -1    1    3    3    0  502 -0.64564723087E+03 -0.50931579371E+03 -0.20627825756E+04  0.22206609103E+04  0.50400001928E-02 0. -1.
</event>
<event>
 5   0  0.2666978E-07  0.3989292E+04  0.7818609E-02  0.8006710E-01
        2   -1    0    0  501    0  0.00000000000E+00  0.00000000000E+00  0.26527921176E+04  0.26527921176E+04  0.25500000920E-02 0.  1.
       -2   -1    0    0    0  501  0.00000000000E+00  0.00000000000E+00 -0.14997830197E+04  0.14997830198E+04  0.25500000920E-02 0. -1.
    10030    2    1    2    0    0  0.00000000000E+00  0.00000000000E+00  0.11530090979E+04  0.41525751374E+04  0.39892919537E+04 0.  0.
        4    1    3    3  502    0 -0.72983727214E+03 -0.12479133630E+03 -0.13514310302E+04  0.15409746148E+04  0.12699999809E+01 0. -1.
       -4    1    3    3    0  502  0.72983727214E+03  0.12479133630E+03  0.25044401280E+04  0.26116005225E+04  0.12699999809E+01 0.  1.
</event>
<event>
 5   0  0.2661693E-07  0.3963293E+04  0.7818609E-02  0.8011993E-01
        2   -1    0    0  501    0  0.00000000000E+00  0.00000000000E+00  0.13987027024E+04  0.13987027024E+04  0.25500000920E-02 0. -1.
       -2   -1    0    0    0  501  0.00000000000E+00  0.00000000000E+00 -0.28075469854E+04  0.28075469854E+04  0.25500000920E-02 0.  1.
    10030    2    1    2    0    0  0.00000000000E+00  0.00000000000E+00 -0.14088442830E+04  0.42062496878E+04  0.39632933556E+04 0.  0.
        1    1    3    3  502    0  0.12357137919E+04  0.77116081379E+03 -0.21303810914E+04  0.25807365559E+04  0.50400001928E-02 0.  1.
       -1    1    3    3    0  502 -0.12357137919E+04 -0.77116081379E+03  0.72153680838E+03  0.16255131319E+04  0.50400001928E-02 0. -1.
</event>
<event>
 5   0  0.2839279E-07  0.3734386E+04  0.7818609E-02  0.8060384E-01
        2   -1    0    0  501    0  0.00000000000E+00  0.00000000000E+00  0.20306114393E+04  0.20306114393E+04  0.25500000920E-02 0.  1.
       -2   -1    0    0    0  501  0.00000000000E+00  0.00000000000E+00 -0.17169263235E+04  0.17169263235E+04  0.25500000920E-02 0. -1.
    10030    2    1    2    0    0  0.00000000000E+00  0.00000000000E+00  0.31368511577E+03  0.37475377628E+04  0.37343862859E+04 0.  0.
        3    1    3    3  502    0  0.18414743366E+04  0.29599329775E+03  0.24530320013E+03  0.18811734197E+04  0.10100000352E+00 0.  1.
       -3    1    3    3    0  502 -0.18414743366E+04 -0.29599329775E+03  0.68381915640E+02  0.18663643431E+04  0.10100000352E+00 0. -1.
</event>
<event>
 5   0  0.8528625E-08  0.4029685E+04  0.7818609E-02  0.7998585E-01
       -1   -1    0    0    0  501  0.00000000000E+00  0.00000000000E+00  0.25088058435E+04  0.25088058435E+04  0.50400001928E-02 0. -1.
        1   -1    0    0  501    0  0.00000000000E+00  0.00000000000E+00 -0.16181366162E+04  0.16181366162E+04  0.50400001928E-02 0.  1.
    10030    2    1    2    0    0  0.00000000000E+00  0.00000000000E+00  0.89066922732E+03  0.41269424598E+04  0.40296851482E+04 0.  0.
        5    1    3    3  502    0  0.36817344397E+03 -0.16304009463E+04 -0.70690151306E+03  0.18147977214E+04  0.46999998093E+01 0.  1.
       -5    1    3    3    0  502 -0.36817344397E+03  0.16304009463E+04  0.15975707404E+04  0.23121447383E+04  0.46999998093E+01 0. -1.
</event>
<event>
 5   0  0.8528625E-08  0.3465562E+04  0.7818609E-02  0.8122000E-01
       -1   -1    0    0    0  501  0.00000000000E+00  0.00000000000E+00  0.23450618688E+04  0.23450618688E+04  0.50400001928E-02 0. -1.
        1   -1    0    0  501    0  0.00000000000E+00  0.00000000000E+00 -0.12803626688E+04  0.12803626688E+04  0.50400001928E-02 0.  1.
    10030    2    1    2    0    0  0.00000000000E+00  0.00000000000E+00  0.10646992001E+04  0.36254245376E+04  0.34655618147E+04 0.  0.
        2    1    3    3  502    0 -0.10180061784E+04  0.35737372892E+03  0.19508005870E+04  0.22292768988E+04  0.25500000920E-02 0. -1.
       -2    1    3    3    0  502  0.10180061784E+04 -0.35737372892E+03 -0.88610138696E+03  0.13961476388E+04  0.25500000920E-02 0.  1.
</event>
<event>
 5   0  0.8528625E-08  0.3719910E+04  0.7818609E-02  0.8063564E-01
       -1   -1    0    0    0  501  0.00000000000E+00  0.00000000000E+00  0.18441154030E+04  0.18441154030E+04  0.50400001928E-02 0.  1.
        1   -1    0    0  501    0  0.00000000000E+00  0.00000000000E+00 -0.18759303122E+04  0.18759303122E+04  0.50400001928E-02 0. -1.
    10030    2    1    2    0    0  0.00000000000E+00  0.00000000000E+00 -0.31814909239E+02  0.37200457152E+04  0.37199096675E+04 0.  0.
        3    1    3    3  502    0  0.63187473989E+03 -0.17358315907E+04  0.20102206638E+03  0.18581676134E+04  0.10100000352E+00 0.  1.
       -3    1    3    3    0  502 -0.63187473989E+03  0.17358315907E+04 -0.23283697562E+03  0.18618781017E+04  0.10100000352E+00 0. -1.
</event>
<event>
 5   0  0.2730801E-07  0.3972269E+04  0.7818609E-02  0.8010164E-01
       -2   -1    0    0    0  501  0.00000000000E+00  0.00000000000E+00  0.19072752404E+04  0.19072752404E+04  0.25500000920E-02 0.  1.
        2   -1    0    0  501    0  0.00000000000E+00  0.00000000000E+00 -0.20682547921E+04  0.20682547921E+04  0.25500000920E-02 0. -1.
    10030    2    1    2    0    0  0.00000000000E+00  0.00000000000E+00 -0.16097955167E+03  0.39755300324E+04  0.39722694550E+04 0.  0.
        2    1    3    3  502    0 -0.16218202188E+03 -0.18328344191E+03 -0.20531062013E+04  0.20676413862E+04  0.25500000920E-02 0. -1.
       -2    1    3    3    0  502  0.16218202188E+03  0.18328344191E+03  0.18921266496E+04  0.19078886462E+04  0.25500000920E-02 0.  1.
</event>
<event>
 5   0  0.2666978E-07  0.4017299E+04  0.7818609E-02  0.8001066E-01
       -2   -1    0    0    0  501  0.00000000000E+00  0.00000000000E+00  0.19846773484E+04  0.19846773484E+04  0.25500000920E-02 0.  1.
        2   -1    0    0  501    0  0.00000000000E+00  0.00000000000E+00 -0.20329108576E+04  0.20329108577E+04  0.25500000920E-02 0. -1.
    10030    2    1    2    0    0  0.00000000000E+00  0.00000000000E+00 -0.48233509294E+02  0.40175882060E+04  0.40172986597E+04 0.  0.
        4    1    3    3  502    0  0.97289990569E+03  0.63046029656E+03  0.16163234231E+04  0.19890996539E+04  0.12699999809E+01 0.  1.
       -4    1    3    3    0  502 -0.97289990569E+03 -0.63046029656E+03 -0.16645569324E+04  0.20284885521E+04  0.12699999809E+01 0. -1.
</event>
<event>
 5   0  0.8528625E-08  0.3494524E+04  0.7818609E-02  0.8115089E-01
        1   -1    0    0  501    0  0.00000000000E+00  0.00000000000E+00  0.28938153166E+04  0.28938153166E+04  0.50400001928E-02 0.  1.
       -1   -1    0    0    0  501  0.00000000000E+00  0.00000000000E+00 -0.10549827769E+04  0.10549827769E+04  0.50400001928E-02 0. -1.
    10030    2    1    2    0    0  0.00000000000E+00  0.00000000000E+00  0.18388325397E+04  0.39487980935E+04  0.34945244704E+04 0.  0.
        2    1    3    3  502    0  0.30843743338E+03 -0.40744711231E+03 -0.96865038845E+03  0.10951850870E+04  0.25500000920E-02 0. -1.
       -2    1    3    3    0  502 -0.30843743338E+03  0.40744711231E+03  0.28074829281E+04  0.28536130066E+04  0.25500000920E-02 0.  1.
</event>
<event>
 5   0  0.8528625E-08  0.3327365E+04  0.7818609E-02  0.8155967E-01
        1   -1    0    0  501    0  0.00000000000E+00  0.00000000000E+00  0.24764728722E+04  0.24764728722E+04  0.50400001928E-02 0. -1.
       -1   -1    0    0    0  501  0.00000000000E+00  0.00000000000E+00 -0.11176535251E+04  0.11176535251E+04  0.50400001928E-02 0.  1.
    10030    2    1    2    0    0  0.00000000000E+00  0.00000000000E+00  0.13588193471E+04  0.35941263973E+04  0.33273645038E+04 0.  0.
        5    1    3    3  502    0  0.32265466039E+03  0.88997224629E+03  0.21571782816E+04  0.23557582342E+04  0.46999998093E+01 0. -1.
       -5    1    3    3    0  502 -0.32265466039E+03 -0.88997224629E+03 -0.79835893453E+03  0.12383681631E+04  0.46999998093E+01 0.  1.
</event>
<event>
 5   0  0.8528625E-08  0.3089999E+04  0.7818609E-02  0.8218488E-01
        1   -1    0    0  501    0  0.00000000000E+00  0.00000000000E+00  0.23730465200E+04  0.23730465200E+04  0.50400001928E-02 0. -1.
       -1   -1    0    0    0  501  0.00000000000E+00  0.00000000000E+00 -0.10058899877E+04  0.10058899877E+04  0.50400001928E-02 0.  1.
    10030    2    1    2    0    0  0.00000000000E+00  0.00000000000E+00  0.13671565324E+04  0.33789365077E+04  0.30899991811E+04 0.  0.
        2    1    3    3  502    0  0.96074841622E+03 -0.63826046554E+03 -0.44045452960E+03  0.12346716704E+04  0.25500000920E-02 0.  1.
       -2    1    3    3    0  502 -0.96074841622E+03  0.63826046554E+03  0.18076110620E+04  0.21442648373E+04  0.25500000920E-02 0. -1.
</event>
<event>
 5   0  0.2730801E-07  0.3967021E+04  0.7818609E-02  0.8011233E-01
        2   -1    0    0  501    0  0.00000000000E+00  0.00000000000E+00  0.13547994812E+04  0.13547994812E+04  0.25500000920E-02 0.  1.
       -2   -1    0    0    0  501  0.00000000000E+00  0.00000000000E+00 -0.29039819284E+04  0.29039819284E+04  0.25500000920E-02 0. -1.
    10030    2    1    2    0    0  0.00000000000E+00  0.00000000000E+00 -0.15491824472E+04  0.42587814096E+04  0.39670206503E+04 0.  0.
        2    1    3    3  502    0 -0.43390011490E+03 -0.10645734522E+04  0.96068224660E+03  0.14981643180E+04  0.25500000920E-02 0.  1.
       -2    1    3    3    0  502  0.43390011490E+03  0.10645734522E+04 -0.25098646938E+04  0.27606170915E+04  0.25500000920E-02 0. -1.
</event>
<event>
 5   0  0.2839279E-07  0.3983193E+04  0.7818609E-02  0.8007946E-01
        2   -1    0    0  501    0  0.00000000000E+00  0.00000000000E+00  0.13426302025E+04  0.13426302025E+04  0.25500000920E-02 0. -1.
       -2   -1    0    0    0  501  0.00000000000E+00  0.00000000000E+00 -0.29542432105E+04  0.29542432105E+04  0.25500000920E-02 0.  1.
    10030    2    1    2    0    0  0.00000000000E+00  0.00000000000E+00 -0.16116130081E+04  0.42968734130E+04  0.39831927696E+04 0.  0.
        3    1    3    3  502    0  0.37587647831E+03 -0.42182158489E+03 -0.28659780291E+04  0.29211379033E+04  0.10100000352E+00 0.  1.
       -3    1    3    3    0  502 -0.37587647831E+03  0.42182158489E+03  0.12543650211E+04  0.13757355097E+04  0.10100000352E+00 0. -1.
</event>
<event>
 5   0  0.2730801E-07  0.3983619E+04  0.7818609E-02  0.8007859E-01
        2   -1    0    0  501    0  0.00000000000E+00  0.00000000000E+00  0.19583889018E+04  0.19583889018E+04  0.25500000920E-02 0. -1.
       -2   -1    0    0    0  501  0.00000000000E+00  0.00000000000E+00 -0.20258009371E+04  0.20258009371E+04  0.25500000920E-02 0.  1.
    10030    2    1    2    0    0  0.00000000000E+00  0.00000000000E+00 -0.67412035301E+02  0.39841898389E+04  0.39836194961E+04 0.  0.
        2    1    3    3  502    0 -0.26584998024E+03  0.45828285415E+03 -0.19540347394E+04  0.20245866613E+04  0.25500000920E-02 0.  1.
       -2    1    3    3    0  502  0.26584998024E+03 -0.45828285415E+03  0.18866227041E+04  0.19596031776E+04  0.25500000920E-02 0. -1.
</event>
<event>
 5   0  0.8528625E-08  0.3993436E+04  0.7818609E-02  0.8005872E-01
       -1   -1    0    0    0  501  0.00000000000E+00  0.00000000000E+00  0.30627404903E+04  0.30627404903E+04  0.50400001928E-02 0. -1.
        1   -1    0    0  501    0  0.00000000000E+00  0.00000000000E+00 -0.13017367908E+04  0.13017367908E+04  0.50400001928E-02 0.  1.
    10030    2    1    2    0    0  0.00000000000E+00  0.00000000000E+00  0.17610036994E+04  0.43644772811E+04  0.39934356021E+04 0.  0.
        3    1    3    3  502    0  0.22504196107E+03 -0.17938203454E+04 -0.45864591988E+02  0.18084631284E+04  0.10100000352E+00 0.  1.
       -3    1    3    3    0  502 -0.22504196107E+03  0.17938203454E+04  0.18068682914E+04  0.25560141527E+04  0.10100000352E+00 0. -1.
</event>
<event>
 5   0  0.8528625E-08  0.3984975E+04  0.7818609E-02  0.8007584E-01
       -1   -1    0    0    0  501  0.00000000000E+00  0.00000000000E+00  0.16213101969E+04  0.16213101969E+04  0.50400001928E-02 0. -1.
        1   -1    0    0  501    0  0.00000000000E+00  0.00000000000E+00 -0.24486405685E+04  0.24486405685E+04  0.50400001928E-02 0.  1.
    10030    2    1    2    0    0  0.00000000000E+00  0.00000000000E+00 -0.82733037164E+03  0.40699507654E+04  0.39849747413E+04 0.  0.
        5    1    3    3  502    0  0.29945667676E+03 -0.54739293763E+02 -0.24247436766E+04  0.24437828625E+04  0.46999998093E+01 0.  1.
       -5    1    3    3    0  502 -0.29945667676E+03  0.54739293763E+02  0.15974133050E+04  0.16261679029E+04  0.46999998093E+01 0. -1.
</event>
<event>
 5   0  0.2704088E-07  0.3927467E+04  0.7818609E-02  0.8019341E-01
       -2   -1    0    0    0  501  0.00000000000E+00  0.00000000000E+00  0.21851299469E+04  0.21851299469E+04  0.25500000920E-02 0.  1.
        2   -1    0    0  501    0  0.00000000000E+00  0.00000000000E+00 -0.17647685375E+04  0.17647685375E+04  0.25500000920E-02 0. -1.
    10030    2    1    2    0    0  0.00000000000E+00  0.00000000000E+00  0.42036140942E+03  0.39498984844E+04  0.39274666545E+04 0.  0.
        5    1    3    3  502    0 -0.66444647142E+03  0.10191176295E+04  0.17604570937E+04  0.21399348413E+04  0.46999998093E+01 0.  1.
       -5    1    3    3    0  502  0.66444647142E+03 -0.10191176295E+04 -0.13400956843E+04  0.18099636431E+04  0.46999998093E+01 0. -1.
</event>
<event>
 5   0  0.8528625E-08  0.3403244E+04  0.7818609E-02  0.8137110E-01
       -1   -1    0    0    0  501  0.00000000000E+00  0.00000000000E+00  0.14188792151E+04  0.14188792151E+04  0.50400001928E-02 0. -1.
        1   -1    0    0  501    0  0.00000000000E+00  0.00000000000E+00 -0.20407080342E+04  0.20407080342E+04  0.50400001928E-02 0.  1.
    10030    2    1    2    0    0  0.00000000000E+00  0.00000000000E+00 -0.62182881910E+03  0.34595872492E+04  0.34032444600E+04 0.  0.
        5    1    3    3  502    0  0.15446337356E+04  0.55968173946E+03  0.13954602854E+03  0.16488275260E+04  0.46999998093E+01 0. -1.
       -5    1    3    3    0  502 -0.15446337356E+04 -0.55968173946E+03 -0.76137484764E+03  0.18107597232E+04  0.46999998093E+01 0.  1.
</event>
<event>
 5   0  0.8528625E-08  0.4018773E+04  0.7818609E-02  0.8000770E-01
        1   -1    0    0  501    0  0.00000000000E+00  0.00000000000E+00  0.23733039007E+04  0.23733039007E+04  0.50400001928E-02 0.  1.
       -1   -1    0    0    0  501  0.00000000000E+00  0.00000000000E+00 -0.17012717811E+04  0.17012717811E+04  0.50400001928E-02 0. -1.
    10030    2    1    2    0    0  0.00000000000E+00  0.00000000000E+00  0.67203211967E+03  0.40745756818E+04  0.40187734220E+04 0.  0.
        2    1    3    3  502    0 -0.12733522066E+04 -0.55613864860E+03 -0.11356618754E+04  0.17945595375E+04  0.25500000920E-02 0. -1.
       -2    1    3    3    0  502  0.12733522066E+04  0.55613864860E+03  0.18076939950E+04  0.22800161443E+04  0.25500000920E-02 0.  1.
</event>
<event>
 5   0  0.2704088E-07  0.3985936E+04  0.7818609E-02  0.8007390E-01
        2   -1    0    0  501    0  0.00000000000E+00  0.00000000000E+00  0.32019924090E+04  0.32019924090E+04  0.25500000920E-02 0. -1.
       -2   -1    0    0    0  501  0.00000000000E+00  0.00000000000E+00 -0.12404529689E+04  0.12404529689E+04  0.25500000920E-02 0.  1.
    10030    2    1    2    0    0  0.00000000000E+00  0.00000000000E+00  0.19615394401E+04  0.44424453780E+04  0.39859357698E+04 0.  0.
        5    1    3    3  502    0  0.33393088153E+03 -0.27377575350E+03  0.31492213994E+04  0.31786916348E+04  0.46999998093E+01 0. -1.
       -5    1    3    3    0  502 -0.33393088153E+03  0.27377575350E+03 -0.11876819593E+04  0.12637537431E+04  0.46999998093E+01 0.  1.
</event>
<event>
 5   0  0.8583262E-08  0.4093905E+04  0.7818609E-02  0.7985866E-01
        1   -1    0    0  501    0  0.00000000000E+00  0.00000000000E+00  0.19641788300E+04  0.19641788300E+04  0.50400001928E-02 0. -1.
       -1   -1    0    0    0  501  0.00000000000E+00  0.00000000000E+00 -0.21332146335E+04  0.21332146335E+04  0.50400001928E-02 0.  1.
    10030    2    1    2    0    0  0.00000000000E+00  0.00000000000E+00 -0.16903580345E+03  0.40973934635E+04  0.40939052373E+04 0.  0.
        1    1    3    3  502    0  0.92844710697E+03  0.11761209412E+04  0.13112098590E+04  0.19911167201E+04  0.50400001928E-02 0. -1.
       -1    1    3    3    0  502 -0.92844710697E+03 -0.11761209412E+04 -0.14802456624E+04  0.21062767434E+04  0.50400001928E-02 0.  1.
</event>
<event>
 5   0  0.2839279E-07  0.3179649E+04  0.7818609E-02  0.8194213E-01
       -2   -1    0    0    0  501  0.00000000000E+00  0.00000000000E+00  0.12672786098E+04  0.12672786098E+04  0.25500000920E-02 0.  1.
        2   -1    0    0  501    0  0.00000000000E+00  0.00000000000E+00 -0.19944644070E+04  0.19944644070E+04  0.25500000920E-02 0. -1.
    10030    2    1    2    0    0  0.00000000000E+00  0.00000000000E+00 -0.72718579720E+03  0.32617430168E+04  0.31796490882E+04 0.  0.
        3    1    3    3  502    0  0.12189899284E+04 -0.74043071817E+03  0.35694366968E+03  0.14702322563E+04  0.10100000352E+00 0.  1.
       -3    1    3    3    0  502 -0.12189899284E+04  0.74043071817E+03 -0.10841294669E+04  0.17915107605E+04  0.10100000352E+00 0. -1.
</event>
<event>
 5   0  0.2661693E-07  0.3949996E+04  0.7818609E-02  0.8014710E-01
        2   -1    0    0  501    0  0.00000000000E+00  0.00000000000E+00  0.10966043211E+04  0.10966043211E+04  0.25500000920E-02 0.  1.
       -2   -1    0    0    0  501  0.00000000000E+00  0.00000000000E+00 -0.35569967345E+04  0.35569967345E+04  0.25500000920E-02 0. -1.
    10030    2    1    2    0    0  0.00000000000E+00  0.00000000000E+00 -0.24603924133E+04  0.46536010556E+04  0.39499964503E+04 0.  0.
        1    1    3    3  502    0  0.84920239861E+03 -0.12843697335E+04  0.22700451105E+03  0.15563680073E+04  0.50400001928E-02 0.  1.
       -1    1    3    3    0  502 -0.84920239861E+03  0.12843697335E+04 -0.26873969244E+04  0.30972330483E+04  0.50400001928E-02 0. -1.
</event>
<event>
 5   0  0.2839279E-07  0.3893264E+04  0.7818609E-02  0.8026432E-01
        2   -1    0    0  501    0  0.00000000000E+00  0.00000000000E+00  0.17179588007E+04  0.17179588007E+04  0.25500000920E-02 0. -1.
       -2   -1    0    0    0  501  0.00000000000E+00  0.00000000000E+00 -0.22057436995E+04  0.22057436995E+04  0.25500000920E-02 0.  1.
    10030    2    1    2    0    0  0.00000000000E+00  0.00000000000E+00 -0.48778489883E+03  0.39237025003E+04  0.38932643377E+04 0.  0.
        3    1    3    3  502    0  0.31717535847E+03  0.76868362060E+03  0.15299539970E+04  0.17413310885E+04  0.10100000352E+00 0. -1.
       -3    1    3    3    0  502 -0.31717535847E+03 -0.76868362060E+03 -0.20177388959E+04  0.21823714117E+04  0.10100000352E+00 0.  1.
</event>
<event>
 5   0  0.8528625E-08  0.4097990E+04  0.7818609E-02  0.7985065E-01
        1   -1    0    0  501    0  0.00000000000E+00  0.00000000000E+00  0.15117612152E+04  0.15117612153E+04  0.50400001928E-02 0. -1.
       -1   -1    0    0    0  501  0.00000000000E+00  0.00000000000E+00 -0.27771457779E+04  0.27771457779E+04  0.50400001928E-02 0.  1.
    10030    2    1    2    0    0  0.00000000000E+00  0.00000000000E+00 -0.12653845626E+04  0.42889069931E+04  0.40979903739E+04 0.  0.
        2    1    3    3  502    0  0.10979821774E+04 -0.49754089534E+03 -0.23667685101E+04  0.26560694616E+04  0.25500000920E-02 0.  1.
       -2    1    3    3    0  502 -0.10979821774E+04  0.49754089534E+03  0.11013839475E+04  0.16328375315E+04  0.25500000920E-02 0. -1.
</event>
<event>
 5   0  0.2666978E-07  0.4119206E+04  0.7818609E-02  0.7980921E-01
       -2   -1    0    0    0  501  0.00000000000E+00  0.00000000000E+00  0.15371937567E+04  0.15371937567E+04  0.25500000920E-02 0.  1.
        2   -1    0    0  501    0  0.00000000000E+00  0.00000000000E+00 -0.27595504704E+04  0.27595504704E+04  0.25500000920E-02 0. -1.
    10030    2    1    2    0    0  0.00000000000E+00  0.00000000000E+00 -0.12223567138E+04  0.42967442271E+04  0.41192056294E+04 0.  0.
        4    1    3    3  502    0 -0.16680633091E+03 -0.94996004737E+02 -0.27501985942E+04  0.27568900075E+04  0.12699999809E+01 0. -1.
       -4    1    3    3    0  502  0.16680633091E+03  0.94996004737E+02  0.15278418805E+04  0.15398542196E+04  0.12699999809E+01 0.  1.
</event>
<event>
 5   0  0.8528625E-08  0.3759278E+04  0.7818609E-02  0.8054951E-01
       -1   -1    0    0    0  501  0.00000000000E+00  0.00000000000E+00  0.12809436449E+04  0.12809436449E+04  0.50400001928E-02 0.  1.
        1   -1    0    0  501    0  0.00000000000E+00  0.00000000000E+00 -0.27581559963E+04  0.27581559963E+04  0.50400001928E-02 0. -1.
    10030    2    1    2    0    0  0.00000000000E+00  0.00000000000E+00 -0.14772123514E+04  0.40390996413E+04  0.37592778004E+04 0.  0.
        5    1    3    3  502    0 -0.41220155513E+03  0.18338423313E+04 -0.72623909628E+03  0.20150268318E+04  0.46999998093E+01 0.  1.
       -5    1    3    3    0  502  0.41220155513E+03 -0.18338423313E+04 -0.75097325512E+03  0.20240728094E+04  0.46999998093E+01 0. -1.
</event>
<event>
 5   0  0.8528625E-08  0.3960063E+04  0.7818609E-02  0.8012652E-01
        1   -1    0    0  501    0  0.00000000000E+00  0.00000000000E+00  0.27817273787E+04  0.27817273788E+04  0.50400001928E-02 0. -1.
       -1   -1    0    0    0  501  0.00000000000E+00  0.00000000000E+00 -0.14093851683E+04  0.14093851683E+04  0.50400001928E-02 0.  1.
    10030    2    1    2    0    0  0.00000000000E+00  0.00000000000E+00  0.13723422104E+04  0.41911125471E+04  0.39600632873E+04 0.  0.
        2    1    3    3  502    0  0.95516131239E+03 -0.13861638136E+04 -0.41712080691E+03  0.17342932331E+04  0.25500000920E-02 0.  1.
       -2    1    3    3    0  502 -0.95516131239E+03  0.13861638136E+04  0.17894630174E+04  0.24568193139E+04  0.25500000920E-02 0. -1.
</event>
<event>
 5   0  0.8528625E-08  0.3774710E+04  0.7818609E-02  0.8051604E-01
        1   -1    0    0  501    0  0.00000000000E+00  0.00000000000E+00  0.29516091267E+04  0.29516091267E+04  0.50400001928E-02 0. -1.
       -1   -1    0    0    0  501  0.00000000000E+00  0.00000000000E+00 -0.12068360137E+04  0.12068360137E+04  0.50400001928E-02 0.  1.
    10030    2    1    2    0    0  0.00000000000E+00  0.00000000000E+00  0.17447731130E+04  0.41584451403E+04  0.37747096272E+04 0.  0.
        2    1    3    3  502    0  0.41947604259E+03  0.33788427206E+03  0.28651369242E+04  0.29153276876E+04  0.25500000920E-02 0. -1.
       -2    1    3    3    0  502 -0.41947604259E+03 -0.33788427206E+03 -0.11203638113E+04  0.12431174527E+04  0.25500000920E-02 0.  1.
</event>
<event>
 5   0  0.8528625E-08  0.3105822E+04  0.7818609E-02  0.8214142E-01
       -1   -1    0    0    0  501  0.00000000000E+00  0.00000000000E+00  0.15050021896E+04  0.15050021896E+04  0.50400001928E-02 0.  1.
        1   -1    0    0  501    0  0.00000000000E+00  0.00000000000E+00 -0.16023445792E+04  0.16023445793E+04  0.50400001928E-02 0. -1.
    10030    2    1    2    0    0  0.00000000000E+00  0.00000000000E+00 -0.97342389645E+02  0.31073467689E+04  0.31058216950E+04 0.  0.
        3    1    3    3  502    0  0.63023966970E+03  0.11391564114E+04  0.79829792985E+03  0.15271407813E+04  0.10100000352E+00 0.  1.
       -3    1    3    3    0  502 -0.63023966970E+03 -0.11391564114E+04 -0.89564031949E+03  0.15802059875E+04  0.10100000352E+00 0. -1.
</event>
<event>
 5   0  0.8528625E-08  0.3979573E+04  0.7818609E-02  0.8008680E-01
       -1   -1    0    0    0  501  0.00000000000E+00  0.00000000000E+00  0.21117495174E+04  0.21117495174E+04  0.50400001928E-02 0. -1.
        1   -1    0    0  501    0  0.00000000000E+00  0.00000000000E+00 -0.18748673847E+04  0.18748673847E+04  0.50400001928E-02 0.  1.
    10030    2    1    2    0    0  0.00000000000E+00  0.00000000000E+00  0.23688213274E+03  0.39866169021E+04  0.39795729896E+04 0.  0.
        5    1    3    3  502    0  0.14309570242E+04  0.17476505463E+03 -0.12554993403E+04  0.19116698232E+04  0.46999998093E+01 0.  1.
       -5    1    3    3    0  502 -0.14309570242E+04 -0.17476505463E+03  0.14923814730E+04  0.20749470789E+04  0.46999998093E+01 0. -1.
</event>
<event>
 5   0  0.2704088E-07  0.4017180E+04  0.7818609E-02  0.8001090E-01
        2   -1    0    0  501    0  0.00000000000E+00  0.00000000000E+00  0.17717796185E+04  0.17717796185E+04  0.25500000920E-02 0. -1.
       -2   -1    0    0    0  501  0.00000000000E+00  0.00000000000E+00 -0.22770520313E+04  0.22770520313E+04  0.25500000920E-02 0.  1.
    10030    2    1    2    0    0  0.00000000000E+00  0.00000000000E+00 -0.50527241288E+03  0.40488316498E+04  0.40171802943E+04 0.  0.
        5    1    3    3  502    0 -0.23622116891E+03  0.67003083737E+03  0.16409081360E+04  0.17881116756E+04  0.46999998093E+01 0. -1.
       -5    1    3    3    0  502  0.23622116891E+03 -0.67003083737E+03 -0.21461805488E+04  0.22607199742E+04  0.46999998093E+01 0.  1.
</event>
<event>
 5   0  0.8528625E-08  0.2994661E+04  0.7818609E-02  0.8245257E-01
        1   -1    0    0  501    0  0.00000000000E+00  0.00000000000E+00  0.17340489371E+04  0.17340489371E+04  0.50400001928E-02 0.  1.
       -1   -1    0    0    0  501  0.00000000000E+00  0.00000000000E+00 -0.12929269525E+04  0.12929269526E+04  0.50400001928E-02 0. -1.
    10030    2    1    2    0    0  0.00000000000E+00  0.00000000000E+00  0.44112198457E+03  0.30269758897E+04  0.29946609877E+04 0.  0.
        3    1    3    3  502    0 -0.53150272437E+03 -0.13278441693E+03 -0.11879867398E+04  0.13082199171E+04  0.10100000352E+00 0. -1.
       -3    1    3    3    0  502  0.53150272437E+03  0.13278441693E+03  0.16291087243E+04  0.17187559726E+04  0.10100000352E+00 0.  1.
</event>
<event>
 5   0  0.8528625E-08  0.3061044E+04  0.7818609E-02  0.8226511E-01
       -1   -1    0    0    0  501  0.00000000000E+00  0.00000000000E+00  0.11378020319E+04  0.11378020319E+04  0.50400001928E-02 0. -1.
        1   -1    0    0  501    0  0.00000000000E+00  0.00000000000E+00 -0.20587917899E+04  0.20587917899E+04  0.50400001928E-02 0.  1.
    10030    2    1    2    0    0  0.00000000000E+00  0.00000000000E+00 -0.92098975799E+03  0.31965938218E+04  0.30610439277E+04 0.  0.
        5    1    3    3  502    0  0.11839145803E+04  0.43010413475E+03 -0.13683792868E+04  0.18598729157E+04  0.46999998093E+01 0.  1.
       -5    1    3    3    0  502 -0.11839145803E+04 -0.43010413475E+03  0.44738952877E+03  0.13367209060E+04  0.46999998093E+01 0. -1.
</event>
<event>
 5   0  0.8528625E-08  0.4046951E+04  0.7818609E-02  0.7995141E-01
        1   -1    0    0  501    0  0.00000000000E+00  0.00000000000E+00  0.22354522484E+04  0.22354522485E+04  0.50400001928E-02 0.  1.
       -1   -1    0    0    0  501  0.00000000000E+00  0.00000000000E+00 -0.18315997240E+04  0.18315997240E+04  0.50400001928E-02 0. -1.
    10030    2    1    2    0    0  0.00000000000E+00  0.00000000000E+00  0.40385252444E+03  0.40670519725E+04  0.40469513075E+04 0.  0.
        4    1    3    3  502    0  0.10265401787E+03 -0.16954828686E+04 -0.90319559613E+03  0.19237889444E+04  0.12699999809E+01 0. -1.
       -4    1    3    3    0  502 -0.10265401787E+03  0.16954828686E+04  0.13070481206E+04  0.21432630280E+04  0.12699999809E+01 0.  1.
</event>
<event>
 5   0  0.8528625E-08  0.3993915E+04  0.7818609E-02  0.8005775E-01
       -1   -1    0    0    0  501  0.00000000000E+00  0.00000000000E+00  0.19936353891E+04  0.19936353891E+04  0.50400001928E-02 0.  1.
        1   -1    0    0  501    0  0.00000000000E+00  0.00000000000E+00 -0.20002854250E+04  0.20002854251E+04  0.50400001928E-02 0. -1.
    10030    2    1    2    0    0  0.00000000000E+00  0.00000000000E+00 -0.66500359757E+01  0.39939208141E+04  0.39939152778E+04 0.  0.
        2    1    3    3  502    0  0.11806086049E+04 -0.16318889267E+03 -0.16056294949E+04  0.19996283073E+04  0.25500000920E-02 0. -1.
       -2    1    3    3    0  502 -0.11806086049E+04  0.16318889267E+03  0.15989794589E+04  0.19942925068E+04  0.25500000920E-02 0.  1.
</event>
<event>
 5   0  0.2730801E-07  0.4105698E+04  0.7818609E-02  0.7983557E-01
       -2   -1    0    0    0  501  0.00000000000E+00  0.00000000000E+00  0.14100743610E+04  0.14100743610E+04  0.25500000920E-02 0. -1.
        2   -1    0    0  501    0  0.00000000000E+00  0.00000000000E+00 -0.29886293956E+04  0.29886293956E+04  0.25500000920E-02 0.  1.
    10030    2    1    2    0    0  0.00000000000E+00  0.00000000000E+00 -0.15785550346E+04  0.43987037567E+04  0.41056983257E+04 0.  0.
        2    1    3    3  502    0 -0.26769157408E+03  0.87993225404E+03  0.11769775122E+04  0.14937254148E+04  0.25500000920E-02 0. -1.
       -2    1    3    3    0  502  0.26769157408E+03 -0.87993225404E+03 -0.27555325468E+04  0.29049783419E+04  0.25500000920E-02 0.  1.
</event>
<event>
 5   0  0.2839279E-07  0.3053779E+04  0.7818609E-02  0.8228539E-01
        2   -1    0    0  501    0  0.00000000000E+00  0.00000000000E+00  0.15061334014E+04  0.15061334014E+04  0.25500000920E-02 0. -1.
       -2   -1    0    0    0  501  0.00000000000E+00  0.00000000000E+00 -0.15479313088E+04  0.15479313088E+04  0.25500000920E-02 0.  1.
    10030    2    1    2    0    0  0.00000000000E+00  0.00000000000E+00 -0.41797907354E+02  0.30540647102E+04  0.30537786739E+04 0.  0.
        3    1    3    3  502    0 -0.12042276094E+04  0.42287791418E+03 -0.85907122738E+03  0.15385035747E+04  0.10100000352E+00 0.  1.
       -3    1    3    3    0  502  0.12042276094E+04 -0.42287791418E+03  0.81727332003E+03  0.15155611355E+04  0.10100000352E+00 0. -1.
</event>
<event>
 5   0  0.2666978E-07  0.3871508E+04  0.7818609E-02  0.8030981E-01
        2   -1    0    0  501    0  0.00000000000E+00  0.00000000000E+00  0.25453711649E+04  0.25453711650E+04  0.25500000920E-02 0. -1.
       -2   -1    0    0    0  501  0.00000000000E+00  0.00000000000E+00 -0.14721406646E+04  0.14721406646E+04  0.25500000920E-02 0.  1.
    10030    2    1    2    0    0  0.00000000000E+00  0.00000000000E+00  0.10732305004E+04  0.40175118295E+04  0.38715084390E+04 0.  0.
        4    1    3    3  502    0  0.17917934547E+03  0.18507536784E+04  0.10951979159E+04  0.21579746300E+04  0.12699999809E+01 0. -1.
       -4    1    3    3    0  502 -0.17917934547E+03 -0.18507536784E+04 -0.21967415500E+02  0.18595371995E+04  0.12699999809E+01 0.  1.
</event>
<event>
 5   0  0.8528625E-08  0.2970045E+04  0.7818609E-02  0.8252337E-01
       -1   -1    0    0    0  501  0.00000000000E+00  0.00000000000E+00  0.20413303999E+04  0.20413303999E+04  0.50400001928E-02 0. -1.
        1   -1    0    0  501    0  0.00000000000E+00  0.00000000000E+00 -0.10803207287E+04  0.10803207287E+04  0.50400001928E-02 0.  1.
    10030    2    1    2    0    0  0.00000000000E+00  0.00000000000E+00  0.96100967123E+03  0.31216511286E+04  0.29700448112E+04 0.  0.
        5    1    3    3  502    0  0.18117770928E+03 -0.64198831883E+02  0.20281924671E+04  0.20372858479E+04  0.46999998093E+01 0. -1.
       -5    1    3    3    0  502 -0.18117770928E+03  0.64198831883E+02 -0.10671827959E+04  0.10843652808E+04  0.46999998093E+01 0.  1.
</event>
<event>
 5   0  0.2661693E-07  0.4042747E+04  0.7818609E-02  0.7995978E-01
       -2   -1    0    0    0  501  0.00000000000E+00  0.00000000000E+00  0.19519513860E+04  0.19519513860E+04  0.25500000920E-02 0. -1.
        2   -1    0    0  501    0  0.00000000000E+00  0.00000000000E+00 -0.20932642124E+04  0.20932642124E+04  0.25500000920E-02 0.  1.
    10030    2    1    2    0    0  0.00000000000E+00  0.00000000000E+00 -0.14131282639E+03  0.40452155984E+04  0.40427465816E+04 0.  0.
        1    1    3    3  502    0  0.84295767723E+03 -0.18111908061E+04  0.23768791395E+03  0.20118363070E+04  0.50400001928E-02 0. -1.
       -1    1    3    3    0  502 -0.84295767723E+03  0.18111908061E+04 -0.37900074034E+03  0.20333792914E+04  0.50400001928E-02 0.  1.
</event>
<event>
 5   0  0.2704088E-07  0.3856019E+04  0.7818609E-02  0.8034239E-01
       -2   -1    0    0    0  501  0.00000000000E+00  0.00000000000E+00  0.20069758658E+04  0.20069758658E+04  0.25500000920E-02 0. -1.
        2   -1    0    0  501    0  0.00000000000E+00  0.00000000000E+00 -0.18521505230E+04  0.18521505230E+04  0.25500000920E-02 0.  1.
    10030    2    1    2    0    0  0.00000000000E+00  0.00000000000E+00  0.15482534281E+03  0.38591263888E+04  0.38560193980E+04 0.  0.
        5    1    3    3  502    0  0.17138030488E+04 -0.59669796832E+03 -0.57428783821E+03  0.19034174441E+04  0.46999998093E+01 0.  1.
       -5    1    3    3    0  502 -0.17138030488E+04  0.59669796832E+03  0.72911318102E+03  0.19557089447E+04  0.46999998093E+01 0. -1.
</event>
<event>
 5   0  0.8528625E-08  0.3934580E+04  0.7818609E-02  0.8017875E-01
       -1   -1    0    0    0  501  0.00000000000E+00  0.00000000000E+00  0.25632811250E+04  0.25632811250E+04  0.50400001928E-02 0.  1.
        1   -1    0    0  501    0  0.00000000000E+00  0.00000000000E+00 -0.15098732730E+04  0.15098732730E+04  0.50400001928E-02 0. -1.
    10030    2    1    2    0    0  0.00000000000E+00  0.00000000000E+00  0.10534078520E+04  0.40731543980E+04  0.39345798565E+04 0.  0.
        4    1    3    3  502    0  0.91978837611E+03 -0.76412186310E+03 -0.10904719277E+04  0.16183397408E+04  0.12699999809E+01 0. -1.
       -4    1    3    3    0  502 -0.91978837611E+03  0.76412186310E+03  0.21438797797E+04  0.24548146572E+04  0.12699999809E+01 0.  1.
</event>
<event>
 5   0  0.8528625E-08  0.4008800E+04  0.7818609E-02  0.8002774E-01
        1   -1    0    0  501    0  0.00000000000E+00  0.00000000000E+00  0.27796932320E+04  0.27796932320E+04  0.50400001928E-02 0.  1.
       -1   -1    0    0    0  501  0.00000000000E+00  0.00000000000E+00 -0.14453461090E+04  0.14453461090E+04  0.50400001928E-02 0. -1.
    10030    2    1    2    0    0  0.00000000000E+00  0.00000000000E+00  0.13343471230E+04  0.42250393411E+04  0.40087997192E+04 0.  0.
        2    1    3    3  502    0  0.17252573226E+03  0.10491485763E+04 -0.11236400636E+04  0.15469469467E+04  0.25500000920E-02 0. -1.
       -2    1    3    3    0  502 -0.17252573226E+03 -0.10491485763E+04  0.24579871866E+04  0.26780923944E+04  0.25500000920E-02 0.  1.
</event>
<event>
 5   0  0.8528625E-08  0.3992731E+04  0.7818609E-02  0.8006015E-01
       -1   -1    0    0    0  501  0.00000000000E+00  0.00000000000E+00  0.16864811740E+04  0.16864811740E+04  0.50400001928E-02 0. -1.
        1   -1    0    0  501    0  0.00000000000E+00  0.00000000000E+00 -0.23631897179E+04  0.23631897179E+04  0.50400001928E-02 0.  1.
    10030    2    1    2    0    0  0.00000000000E+00  0.00000000000E+00 -0.67670854391E+03  0.40496708920E+04  0.39927308800E+04 0.  0.
        2    1    3    3  502    0 -0.19743123890E+04 -0.74944436005E+02 -0.62870387374E+03  0.20733534766E+04  0.25500000920E-02 0.  1.
       -2    1    3    3    0  502  0.19743123890E+04  0.74944436005E+02 -0.48004670167E+02  0.19763174154E+04  0.25500000920E-02 0. -1.
</event>
<event>
 5   0  0.8528625E-08  0.3999677E+04  0.7818609E-02  0.8004612E-01
       -1   -1    0    0    0  501  0.00000000000E+00  0.00000000000E+00  0.21218548492E+04  0.21218548492E+04  0.50400001928E-02 0.  1.
        1   -1    0    0  501    0  0.00000000000E+00  0.00000000000E+00 -0.18848388346E+04  0.18848388346E+04  0.50400001928E-02 0. -1.
    10030    2    1    2    0    0  0.00000000000E+00  0.00000000000E+00  0.23701601463E+03  0.40066936839E+04  0.39996771976E+04 0.  0.
        5    1    3    3  502    0 -0.59552857675E+03  0.30067062773E+03  0.20070938341E+04  0.21150661600E+04  0.46999998093E+01 0.  1.
       -5    1    3    3    0  502  0.59552857675E+03 -0.30067062773E+03 -0.17700778195E+04  0.18916275239E+04  0.46999998093E+01 0. -1.
</event>
<event>
 5   0  0.8528625E-08  0.4017646E+04  0.7818609E-02  0.8000996E-01
       -1   -1    0    0    0  501  0.00000000000E+00  0.00000000000E+00  0.19972154912E+04  0.19972154912E+04  0.50400001928E-02 0.  1.
        1   -1    0    0  501    0  0.00000000000E+00  0.00000000000E+00 -0.20204975284E+04  0.20204975284E+04  0.50400001928E-02 0. -1.
    10030    2    1    2    0    0  0.00000000000E+00  0.00000000000E+00 -0.23282037283E+02  0.40177130196E+04  0.40176455611E+04 0.  0.
        2    1    3    3  502    0 -0.85067491915E+03  0.18182471870E+04  0.63847416367E+02  0.20084190658E+04  0.25500000920E-02 0.  1.
       -2    1    3    3    0  502  0.85067491915E+03 -0.18182471870E+04 -0.87129453650E+02  0.20092939538E+04  0.25500000920E-02 0. -1.
</event>
<event>
 5   0  0.2730801E-07  0.3974463E+04  0.7818609E-02  0.8009718E-01
        2   -1    0    0  501    0  0.00000000000E+00  0.00000000000E+00  0.19051618485E+04  0.19051618485E+04  0.25500000920E-02 0.  1.
       -2   -1    0    0    0  501  0.00000000000E+00  0.00000000000E+00 -0.20728368903E+04  0.20728368903E+04  0.25500000920E-02 0. -1.
    10030    2    1    2    0    0  0.00000000000E+00  0.00000000000E+00 -0.16767504179E+03  0.39779987388E+04  0.39744633659E+04 0.  0.
        2    1    3    3  502    0 -0.62511139892E+03 -0.13576352735E+04  0.12269655356E+04  0.19337482314E+04  0.25500000920E-02 0.  1.
       -2    1    3    3    0  502  0.62511139892E+03  0.13576352735E+04 -0.13946405774E+04  0.20442505074E+04  0.25500000920E-02 0. -1.
</event>
<event>
 5   0  0.2730801E-07  0.4061446E+04  0.7818609E-02  0.7992264E-01
       -2   -1    0    0    0  501  0.00000000000E+00  0.00000000000E+00  0.18101004984E+04  0.18101004984E+04  0.25500000920E-02 0. -1.
        2   -1    0    0  501    0  0.00000000000E+00  0.00000000000E+00 -0.22782362531E+04  0.22782362531E+04  0.25500000920E-02 0.  1.
    10030    2    1    2    0    0  0.00000000000E+00  0.00000000000E+00 -0.46813575464E+03  0.40883367515E+04  0.40614463321E+04 0.  0.
        2    1    3    3  502    0 -0.78841035598E+03 -0.29679029722E+03  0.16259107498E+04  0.18311911796E+04  0.25500000920E-02 0. -1.
       -2    1    3    3    0  502  0.78841035598E+03  0.29679029722E+03 -0.20940465044E+04  0.22571455719E+04  0.25500000920E-02 0.  1.
</event>
<event>
 5   0  0.2839279E-07  0.4048726E+04  0.7818609E-02  0.7994789E-01
       -2   -1    0    0    0  501  0.00000000000E+00  0.00000000000E+00  0.26572306869E+04  0.26572306869E+04  0.25500000920E-02 0.  1.
        2   -1    0    0  501    0  0.00000000000E+00  0.00000000000E+00 -0.15422239185E+04  0.15422239185E+04  0.25500000920E-02 0. -1.
    10030    2    1    2    0    0  0.00000000000E+00  0.00000000000E+00  0.11150067684E+04  0.41994546054E+04  0.40487255882E+04 0.  0.
        3    1    3    3  502    0 -0.18178780161E+04  0.14239118247E+03  0.14694917339E+04  0.23418714090E+04  0.10100000352E+00 0.  1.
       -3    1    3    3    0  502  0.18178780161E+04 -0.14239118247E+03 -0.35448496545E+03  0.18575831963E+04  0.10100000352E+00 0. -1.
</event>
<event>
 5   0  0.8583262E-08  0.3993802E+04  0.7818609E-02  0.8005798E-01
       -1   -1    0    0    0  501  0.00000000000E+00  0.00000000000E+00  0.14363180892E+04  0.14363180892E+04  0.50400001928E-02 0.  1.
        1   -1    0    0  501    0  0.00000000000E+00  0.00000000000E+00 -0.27762742370E+04  0.27762742370E+04  0.50400001928E-02 0. -1.
    10030    2    1    2    0    0  0.00000000000E+00  0.00000000000E+00 -0.13399561479E+04  0.42125923262E+04  0.39938016511E+04 0.  0.
        1    1    3    3  502    0 -0.95073609629E+02 -0.78720383324E+03  0.12631491882E+04  0.14914002608E+04  0.50400001928E-02 0.  1.
       -1    1    3    3    0  502  0.95073609629E+02  0.78720383324E+03 -0.26031053361E+04  0.27211920654E+04  0.50400001928E-02 0. -1.
</event>
<event>
 5   0  0.8528625E-08  0.3882766E+04  0.7818609E-02  0.8028623E-01
       -1   -1    0    0    0  501  0.00000000000E+00  0.00000000000E+00  0.20096479184E+04  0.20096479184E+04  0.50400001928E-02 0.  1.
        1   -1    0    0  501    0  0.00000000000E+00  0.00000000000E+00 -0.18754371778E+04  0.18754371778E+04  0.50400001928E-02 0. -1.
    10030    2    1    2    0    0  0.00000000000E+00  0.00000000000E+00  0.13421074060E+03  0.38850850963E+04  0.38827662410E+04 0.  0.
        2    1    3    3  502    0 -0.37686277139E+03 -0.15154233903E+04 -0.10870282495E+04  0.19026728609E+04  0.25500000920E-02 0. -1.
       -2    1    3    3    0  502  0.37686277139E+03  0.15154233903E+04  0.12212389901E+04  0.19824122354E+04  0.25500000920E-02 0.  1.
</event>
<event>
 5   0  0.8528625E-08  0.3991995E+04  0.7818609E-02  0.8006163E-01
        1   -1    0    0  501    0  0.00000000000E+00  0.00000000000E+00  0.15299885434E+04  0.15299885434E+04  0.50400001928E-02 0. -1.
       -1   -1    0    0    0  501  0.00000000000E+00  0.00000000000E+00 -0.26039448042E+04  0.26039448042E+04  0.50400001928E-02 0.  1.
    10030    2    1    2    0    0  0.00000000000E+00  0.00000000000E+00 -0.10739562607E+04  0.41339333476E+04  0.39919948488E+04 0.  0.
        2    1    3    3  502    0 -0.50238738404E+03  0.18265681015E+04 -0.11880303335E+04  0.22361037960E+04  0.25500000920E-02 0.  1.
       -2    1    3    3    0  502  0.50238738404E+03 -0.18265681015E+04  0.11407407279E+03  0.18978295516E+04  0.25500000920E-02 0. -1.
</event>
<event>
 5   0  0.2839279E-07  0.3481647E+04  0.7818609E-02  0.8118153E-01
        2   -1    0    0  501    0  0.00000000000E+00  0.00000000000E+00  0.18700113490E+04  0.18700113490E+04  0.25500000920E-02 0. -1.
       -2   -1    0    0    0  501  0.00000000000E+00  0.00000000000E+00 -0.16205601000E+04  0.16205601000E+04  0.25500000920E-02 0.  1.
    10030    2    1    2    0    0  0.00000000000E+00  0.00000000000E+00  0.24945124898E+03  0.34905714491E+04  0.34816466098E+04 0.  0.
        3    1    3    3  502    0  0.12148161941E+03 -0.16999647471E+04  0.48035712372E+03  0.17707006811E+04  0.10100000352E+00 0. -1.
       -3    1    3    3    0  502 -0.12148161941E+03  0.16999647471E+04 -0.23090587474E+03  0.17198707680E+04  0.10100000352E+00 0.  1.
</event>
<event>
 5   0  0.2730801E-07  0.4018198E+04  0.7818609E-02  0.8000885E-01
       -2   -1    0    0    0  501  0.00000000000E+00  0.00000000000E+00  0.28770322465E+04  0.28770322465E+04  0.25500000920E-02 0. -1.
        2   -1    0    0  501    0  0.00000000000E+00  0.00000000000E+00 -0.14030011805E+04  0.14030011805E+04  0.25500000920E-02 0.  1.
    10030    2    1    2    0    0  0.00000000000E+00  0.00000000000E+00  0.14740310660E+04  0.42800334270E+04  0.40181984213E+04 0.  0.
        2    1    3    3  502    0  0.67088551878E+02 -0.91066367675E+03  0.26432306411E+04  0.27965116535E+04  0.25500000920E-02 0. -1.
       -2    1    3    3    0  502 -0.67088551878E+02  0.91066367675E+03 -0.11691995751E+04  0.14835217735E+04  0.25500000920E-02 0.  1.
</event>
<event>
 5   0  0.2730801E-07  0.4025092E+04  0.7818609E-02  0.7999504E-01
       -2   -1    0    0    0  501  0.00000000000E+00  0.00000000000E+00  0.16292634542E+04  0.16292634542E+04  0.25500000920E-02 0. -1.
        2   -1    0    0  501    0  0.00000000000E+00  0.00000000000E+00 -0.24859959548E+04  0.24859959548E+04  0.25500000920E-02 0.  1.
    10030    2    1    2    0    0  0.00000000000E+00  0.00000000000E+00 -0.85673250058E+03  0.41152594091E+04  0.40250924742E+04 0.  0.
        2    1    3    3  502    0  0.20039741780E+04 -0.32734716796E+02 -0.24163232048E+03  0.20187546275E+04  0.25500000920E-02 0.  1.
       -2    1    3    3    0  502 -0.20039741780E+04  0.32734716796E+02 -0.61510018010E+03  0.20965047816E+04  0.25500000920E-02 0. -1.
</event>
<event>
 5   0  0.8528625E-08  0.4048849E+04  0.7818609E-02  0.7994764E-01
       -1   -1    0    0    0  501  0.00000000000E+00  0.00000000000E+00  0.21066516788E+04  0.21066516788E+04  0.50400001928E-02 0. -1.
        1   -1    0    0  501    0  0.00000000000E+00  0.00000000000E+00 -0.19454063787E+04  0.19454063787E+04  0.50400001928E-02 0.  1.
    10030    2    1    2    0    0  0.00000000000E+00  0.00000000000E+00  0.16124530013E+03  0.40520580575E+04  0.40488485345E+04 0.  0.
        4    1    3    3  502    0 -0.14525222338E+04  0.27772468032E+03 -0.13029855327E+04  0.19709705095E+04  0.12699999809E+01 0.  1.
       -4    1    3    3    0  502  0.14525222338E+04 -0.27772468032E+03  0.14642308329E+04  0.20810875481E+04  0.12699999809E+01 0. -1.
</event>
<event>
 5   0  0.2661693E-07  0.4028375E+04  0.7818609E-02  0.7998847E-01
        2   -1    0    0  501    0  0.00000000000E+00  0.00000000000E+00  0.21641890060E+04  0.21641890060E+04  0.25500000920E-02 0. -1.
       -2   -1    0    0    0  501  0.00000000000E+00  0.00000000000E+00 -0.18745827831E+04  0.18745827831E+04  0.25500000920E-02 0.  1.
    10030    2    1    2    0    0  0.00000000000E+00  0.00000000000E+00  0.28960622288E+03  0.40387717891E+04  0.40283750818E+04 0.  0.
        1    1    3    3  502    0  0.15651059798E+04 -0.40276738510E+03 -0.10604530381E+04  0.19329611844E+04  0.50400001928E-02 0.  1.
       -1    1    3    3    0  502 -0.15651059798E+04  0.40276738510E+03  0.13500592610E+04  0.21058106046E+04  0.50400001928E-02 0. -1.
</event>
<event>
 5   0  0.2839279E-07  0.3968277E+04  0.7818609E-02  0.8010977E-01
       -2   -1    0    0    0  501  0.00000000000E+00  0.00000000000E+00  0.23510756528E+04  0.23510756528E+04  0.25500000920E-02 0. -1.
        2   -1    0    0  501    0  0.00000000000E+00  0.00000000000E+00 -0.16744699334E+04  0.16744699334E+04  0.25500000920E-02 0.  1.
    10030    2    1    2    0    0  0.00000000000E+00  0.00000000000E+00  0.67660571938E+03  0.40255455862E+04  0.39682769519E+04 0.  0.
        3    1    3    3  502    0  0.19645354273E+04 -0.27730907485E+03  0.31549024956E+03  0.20089384948E+04  0.10100000352E+00 0.  1.
       -3    1    3    3    0  502 -0.19645354273E+04  0.27730907485E+03  0.36111546982E+03  0.20166070914E+04  0.10100000352E+00 0. -1.
</event>
<event>
 5   0  0.8528625E-08  0.4023840E+04  0.7818609E-02  0.7999755E-01
        1   -1    0    0  501    0  0.00000000000E+00  0.00000000000E+00  0.12865614090E+04  0.12865614090E+04  0.50400001928E-02 0. -1.
       -1   -1    0    0    0  501  0.00000000000E+00  0.00000000000E+00 -0.31462328633E+04  0.31462328633E+04  0.50400001928E-02 0.  1.
    10030    2    1    2    0    0  0.00000000000E+00  0.00000000000E+00 -0.18596714543E+04  0.44327942723E+04  0.40238398505E+04 0.  0.
        2    1    3    3  502    0 -0.37531375963E+03 -0.35056281467E+03 -0.30728067663E+04  0.31154287230E+04  0.25500000920E-02 0.  1.
       -2    1    3    3    0  502  0.37531375963E+03  0.35056281467E+03  0.12131353120E+04  0.13173655493E+04  0.25500000920E-02 0. -1.
</event>
<event>
 5   0  0.2839279E-07  0.3960029E+04  0.7818609E-02  0.8012659E-01
        2   -1    0    0  501    0  0.00000000000E+00  0.00000000000E+00  0.16208071133E+04  0.16208071133E+04  0.25500000920E-02 0. -1.
       -2   -1    0    0    0  501  0.00000000000E+00  0.00000000000E+00 -0.24188307131E+04  0.24188307131E+04  0.25500000920E-02 0.  1.
    10030    2    1    2    0    0  0.00000000000E+00  0.00000000000E+00 -0.79802359979E+03  0.40396378264E+04  0.39600293058E+04 0.  0.
        3    1    3    3  502    0  0.17835020650E+03  0.13468836730E+04  0.10702742642E+04  0.17295639437E+04  0.10100000352E+00 0. -1.
       -3    1    3    3    0  502 -0.17835020650E+03 -0.13468836730E+04 -0.18682978639E+04  0.23100738827E+04  0.10100000352E+00 0.  1.
</event>
<event>
 5   0  0.2730801E-07  0.3950408E+04  0.7818609E-02  0.8014626E-01
        2   -1    0    0  501    0  0.00000000000E+00  0.00000000000E+00  0.10939626832E+04  0.10939626832E+04  0.25500000920E-02 0.  1.
       -2   -1    0    0    0  501  0.00000000000E+00  0.00000000000E+00 -0.35663281375E+04  0.35663281375E+04  0.25500000920E-02 0. -1.
    10030    2    1    2    0    0  0.00000000000E+00  0.00000000000E+00 -0.24723654543E+04  0.46602908207E+04  0.39504075225E+04 0.  0.
        2    1    3    3  502    0  0.61546465759E+03  0.26451992859E+03  0.95585575874E+03  0.11672308122E+04  0.25500000920E-02 0.  1.
       -2    1    3    3    0  502 -0.61546465759E+03 -0.26451992859E+03 -0.34282212130E+04  0.34930600085E+04  0.25500000920E-02 0. -1.
</event>
<event>
 5   0  0.2704088E-07  0.3972621E+04  0.7818609E-02  0.8010093E-01
       -2   -1    0    0    0  501  0.00000000000E+00  0.00000000000E+00  0.23024628658E+04  0.23024628658E+04  0.25500000920E-02 0.  1.
        2   -1    0    0  501    0  0.00000000000E+00  0.00000000000E+00 -0.17135692303E+04  0.17135692303E+04  0.25500000920E-02 0. -1.
    10030    2    1    2    0    0  0.00000000000E+00  0.00000000000E+00  0.58889363549E+03  0.40160320961E+04  0.39726210596E+04 0.  0.
        5    1    3    3  502    0  0.83945754974E+03  0.19672761154E+03 -0.15145251242E+04  0.17427562001E+04  0.46999998093E+01 0. -1.
       -5    1    3    3    0  502 -0.83945754974E+03 -0.19672761154E+03  0.21034187597E+04  0.22732758961E+04  0.46999998093E+01 0.  1.
</event>
<event>
 5   0  0.8528625E-08  0.3994297E+04  0.7818609E-02  0.8005698E-01
        1   -1    0    0  501    0  0.00000000000E+00  0.00000000000E+00  0.19207782025E+04  0.19207782025E+04  0.50400001928E-02 0.  1.
       -1   -1    0    0    0  501  0.00000000000E+00  0.00000000000E+00 -0.20765549048E+04  0.20765549048E+04  0.50400001928E-02 0. -1.
    10030    2    1    2    0    0  0.00000000000E+00  0.00000000000E+00 -0.15577670227E+03  0.39973331073E+04  0.39942966327E+04 0.  0.
        5    1    3    3  502    0 -0.14942258462E+04  0.11132188116E+04  0.64141552338E+03  0.19706351681E+04  0.46999998093E+01 0.  1.
       -5    1    3    3    0  502  0.14942258462E+04 -0.11132188116E+04 -0.79719222564E+03  0.20266979392E+04  0.46999998093E+01 0. -1.
</event>
<event>
 5   0  0.8528625E-08  0.3982227E+04  0.7818609E-02  0.8008142E-01
        3   -1    0    0  501    0  0.00000000000E+00  0.00000000000E+00  0.12838512720E+04  0.12838512760E+04  0.10100000352E+00 0.  1.
       -3   -1    0    0    0  501  0.00000000000E+00  0.00000000000E+00 -0.30879994464E+04  0.30879994480E+04  0.10100000352E+00 0. -1.
    10030    2    1    2    0    0  0.00000000000E+00  0.00000000000E+00 -0.18041481744E+04  0.43718507240E+04  0.39822265276E+04 0.  0.
        2    1    3    3  502    0  0.62858622840E+03  0.10339795999E+04 -0.26380160958E+04  0.29023031167E+04  0.25500000920E-02 0. -1.
       -2    1    3    3    0  502 -0.62858622840E+03 -0.10339795999E+04  0.83386792146E+03  0.14695476072E+04  0.25500000920E-02 0.  1.
</event>
<event>
 5   0  0.2661693E-07  0.4063831E+04  0.7818609E-02  0.7991792E-01
       -2   -1    0    0    0  501  0.00000000000E+00  0.00000000000E+00  0.28493866567E+04  0.28493866567E+04  0.25500000920E-02 0. -1.
        2   -1    0    0  501    0  0.00000000000E+00  0.00000000000E+00 -0.14489713573E+04  0.14489713573E+04  0.25500000920E-02 0.  1.
    10030    2    1    2    0    0  0.00000000000E+00  0.00000000000E+00  0.14004152995E+04  0.42983580140E+04  0.40638305336E+04 0.  0.
        1    1    3    3  502    0  0.74117456195E+03 -0.15792972814E+04  0.18020358619E+04  0.25081572682E+04  0.50400001928E-02 0. -1.
       -1    1    3    3    0  502 -0.74117456195E+03  0.15792972814E+04 -0.40162056242E+03  0.17902007458E+04  0.50400001928E-02 0.  1.
</event>
<event>
 5   0  0.8528625E-08  0.3876435E+04  0.7818609E-02  0.8029948E-01
        1   -1    0    0  501    0  0.00000000000E+00  0.00000000000E+00  0.20453571527E+04  0.20453571527E+04  0.50400001928E-02 0. -1.
       -1   -1    0    0    0  501  0.00000000000E+00  0.00000000000E+00 -0.18366903829E+04  0.18366903829E+04  0.50400001928E-02 0.  1.
    10030    2    1    2    0    0  0.00000000000E+00  0.00000000000E+00  0.20866676977E+03  0.38820475355E+04  0.38764353790E+04 0.  0.
        4    1    3    3  502    0  0.18565144487E+04 -0.49468492398E+03 -0.15162836991E+03  0.19272653807E+04  0.12699999809E+01 0.  1.
       -4    1    3    3    0  502 -0.18565144487E+04  0.49468492398E+03  0.36029513968E+03  0.19547821548E+04  0.12699999809E+01 0. -1.
</event>
<event>
 5   0  0.2730801E-07  0.3870910E+04  0.7818609E-02  0.8031107E-01
        2   -1    0    0  501    0  0.00000000000E+00  0.00000000000E+00  0.21301780145E+04  0.21301780145E+04  0.25500000920E-02 0. -1.
       -2   -1    0    0    0  501  0.00000000000E+00  0.00000000000E+00 -0.17585321325E+04  0.17585321325E+04  0.25500000920E-02 0.  1.
    10030    2    1    2    0    0  0.00000000000E+00  0.00000000000E+00  0.37164588206E+03  0.38887101470E+04  0.38709102219E+04 0.  0.
        2    1    3    3  502    0  0.22076050308E+03 -0.15006344697E+04 -0.10219314039E+04  0.18289294152E+04  0.25500000920E-02 0.  1.
       -2    1    3    3    0  502 -0.22076050308E+03  0.15006344697E+04  0.13935772860E+04  0.20597807319E+04  0.25500000920E-02 0. -1.
</event>
<event>
 5   0  0.8583262E-08  0.4042758E+04  0.7818609E-02  0.7995976E-01
        1   -1    0    0  501    0  0.00000000000E+00  0.00000000000E+00  0.23558255933E+04  0.23558255933E+04  0.50400001928E-02 0. -1.
       -1   -1    0    0    0  501  0.00000000000E+00  0.00000000000E+00 -0.17344126708E+04  0.17344126708E+04  0.50400001928E-02 0.  1.
    10030    2    1    2    0    0  0.00000000000E+00  0.00000000000E+00  0.62141292242E+03  0.40902382641E+04  0.40427583451E+04 0.  0.
        1    1    3    3  502    0 -0.40536182377E+03  0.19122332832E+04 -0.21013994968E+03  0.19659890987E+04  0.50400001928E-02 0.  1.
       -1    1    3    3    0  502  0.40536182377E+03 -0.19122332832E+04  0.83155287210E+03  0.21242491654E+04  0.50400001928E-02 0. -1.
</event>
<event>
 5   0  0.2666978E-07  0.4030712E+04  0.7818609E-02  0.7998380E-01
       -2   -1    0    0    0  501  0.00000000000E+00  0.00000000000E+00  0.23524538286E+04  0.23524538286E+04  0.25500000920E-02 0. -1.
        2   -1    0    0  501    0  0.00000000000E+00  0.00000000000E+00 -0.17265626822E+04  0.17265626822E+04  0.25500000920E-02 0.  1.
    10030    2    1    2    0    0  0.00000000000E+00  0.00000000000E+00  0.62589114637E+03  0.40790165108E+04  0.40307115957E+04 0.  0.
        4    1    3    3  502    0 -0.15739699448E+04 -0.11200981333E+03  0.15816565032E+04  0.22341813920E+04  0.12699999809E+01 0. -1.
       -4    1    3    3    0  502  0.15739699448E+04  0.11200981333E+03 -0.95576535681E+03  0.18448351188E+04  0.12699999809E+01 0.  1.
</event>
<event>
 5   0  0.8528625E-08  0.3376386E+04  0.7818609E-02  0.8143726E-01
        1   -1    0    0  501    0  0.00000000000E+00  0.00000000000E+00  0.22697314639E+04  0.22697314639E+04  0.50400001928E-02 0.  1.
       -1   -1    0    0    0  501  0.00000000000E+00  0.00000000000E+00 -0.12556529592E+04  0.12556529592E+04  0.50400001928E-02 0. -1.
    10030    2    1    2    0    0  0.00000000000E+00  0.00000000000E+00  0.10140785046E+04  0.35253844231E+04  0.33763856588E+04 0.  0.
        4    1    3    3  502    0  0.11685842698E+04 -0.71703129615E+02  0.17769614493E+04  0.21279859350E+04  0.12699999809E+01 0.  1.
       -4    1    3    3    0  502 -0.11685842698E+04  0.71703129615E+02 -0.76288294464E+03  0.13973984881E+04  0.12699999809E+01 0. -1.
</event>
<event>
 5   0  0.2704088E-07  0.3959923E+04  0.7818609E-02  0.8012681E-01
       -2   -1    0    0    0  501  0.00000000000E+00  0.00000000000E+00  0.20390144615E+04  0.20390144615E+04  0.25500000920E-02 0. -1.
        2   -1    0    0  501    0  0.00000000000E+00  0.00000000000E+00 -0.19226185933E+04  0.19226185933E+04  0.25500000920E-02 0.  1.
    10030    2    1    2    0    0  0.00000000000E+00  0.00000000000E+00  0.11639586815E+03  0.39616330548E+04  0.39599227850E+04 0.  0.
        5    1    3    3  502    0  0.15867879275E+04  0.43596633175E+02  0.12421060255E+04  0.20156006703E+04  0.46999998093E+01 0. -1.
       -5    1    3    3    0  502 -0.15867879275E+04 -0.43596633175E+02 -0.11257101574E+04  0.19460323846E+04  0.46999998093E+01 0.  1.
</event>
<event>
 5   0  0.8528625E-08  0.4010107E+04  0.7818609E-02  0.8002511E-01
       -1   -1    0    0    0  501  0.00000000000E+00  0.00000000000E+00  0.17807094142E+04  0.17807094142E+04  0.50400001928E-02 0. -1.
        1   -1    0    0  501    0  0.00000000000E+00  0.00000000000E+00 -0.22576618225E+04  0.22576618226E+04  0.50400001928E-02 0.  1.
    10030    2    1    2    0    0  0.00000000000E+00  0.00000000000E+00 -0.47695240834E+03  0.40383712368E+04  0.40101070617E+04 0.  0.
        4    1    3    3  502    0  0.17514901145E+04  0.95619253627E+03 -0.43534385977E+03  0.20424367008E+04  0.12699999809E+01 0. -1.
       -4    1    3    3    0  502 -0.17514901145E+04 -0.95619253627E+03 -0.41608548571E+02  0.19959345360E+04  0.12699999809E+01 0.  1.
</event>
<event>
 5   0  0.8528625E-08  0.3983021E+04  0.7818609E-02  0.8007980E-01
        1   -1    0    0  501    0  0.00000000000E+00  0.00000000000E+00  0.27413800906E+04  0.27413800906E+04  0.50400001928E-02 0.  1.
       -1   -1    0    0    0  501  0.00000000000E+00  0.00000000000E+00 -0.14467585301E+04  0.14467585301E+04  0.50400001928E-02 0. -1.
    10030    2    1    2    0    0  0.00000000000E+00  0.00000000000E+00  0.12946215605E+04  0.41881386206E+04  0.39830214813E+04 0.  0.
        5    1    3    3  502    0  0.23151575829E+03  0.27493840497E+03 -0.14123645515E+04  0.14573902666E+04  0.46999998093E+01 0. -1.
       -5    1    3    3    0  502 -0.23151575829E+03 -0.27493840497E+03  0.27069861120E+04  0.27307483541E+04  0.46999998093E+01 0.  1.
</event>
<event>
 5   0  0.2661693E-07  0.3165291E+04  0.7818609E-02  0.8198044E-01
       -2   -1    0    0    0  501  0.00000000000E+00  0.00000000000E+00  0.88125061368E+03  0.88125061368E+03  0.25500000920E-02 0. -1.
        2   -1    0    0  501    0  0.00000000000E+00  0.00000000000E+00 -0.28422858416E+04  0.28422858416E+04  0.25500000920E-02 0.  1.
    10030    2    1    2    0    0  0.00000000000E+00  0.00000000000E+00 -0.19610352280E+04  0.37235364553E+04  0.31652905978E+04 0.  0.
        1    1    3    3  502    0  0.14205950693E+04 -0.69199445628E+03 -0.10845408858E+04  0.19165530547E+04  0.50400001928E-02 0.  1.
       -1    1    3    3    0  502 -0.14205950693E+04  0.69199445628E+03 -0.87649434212E+03  0.18069834006E+04  0.50400001928E-02 0. -1.
</event>
<event>
 5   0  0.8528625E-08  0.4047293E+04  0.7818609E-02  0.7995073E-01
        1   -1    0    0  501    0  0.00000000000E+00  0.00000000000E+00  0.25432520131E+04  0.25432520131E+04  0.50400001928E-02 0.  1.
       -1   -1    0    0    0  501  0.00000000000E+00  0.00000000000E+00 -0.16102001176E+04  0.16102001176E+04  0.50400001928E-02 0. -1.
    10030    2    1    2    0    0  0.00000000000E+00  0.00000000000E+00  0.93305189554E+03  0.41534521307E+04  0.40472927695E+04 0.  0.
        5    1    3    3  502    0 -0.39262115146E+03  0.19206192338E+04  0.98188640694E+03  0.21924991712E+04  0.46999998093E+01 0. -1.
       -5    1    3    3    0  502  0.39262115146E+03 -0.19206192338E+04 -0.48834511401E+02  0.19609529595E+04  0.46999998093E+01 0.  1.
</event>
<event>
 5   0  0.2661693E-07  0.4008874E+04  0.7818609E-02  0.8002759E-01
        2   -1    0    0  501    0  0.00000000000E+00  0.00000000000E+00  0.24987046722E+04  0.24987046722E+04  0.25500000920E-02 0. -1.
       -2   -1    0    0    0  501  0.00000000000E+00  0.00000000000E+00 -0.16079399141E+04  0.16079399141E+04  0.25500000920E-02 0.  1.
    10030    2    1    2    0    0  0.00000000000E+00  0.00000000000E+00  0.89076475804E+03  0.41066445863E+04  0.40088736453E+04 0.  0.
        1    1    3    3  502    0 -0.80234496611E+03 -0.13879850346E+04  0.16778488056E+04  0.23206543291E+04  0.50400001928E-02 0. -1.
       -1    1    3    3    0  502  0.80234496611E+03  0.13879850346E+04 -0.78708404755E+03  0.17859902572E+04  0.50400001928E-02 0.  1.
</event>
<event>
 5   0  0.8528625E-08  0.3972384E+04  0.7818609E-02  0.8010141E-01
       -1   -1    0    0    0  501  0.00000000000E+00  0.00000000000E+00  0.15929633590E+04  0.15929633590E+04  0.50400001928E-02 0. -1.
        1   -1    0    0  501    0  0.00000000000E+00  0.00000000000E+00 -0.24764902851E+04  0.24764902851E+04  0.50400001928E-02 0.  1.
    10030    2    1    2    0    0  0.00000000000E+00  0.00000000000E+00 -0.88352692603E+03  0.40694536441E+04  0.39723838098E+04 0.  0.
        3    1    3    3  502    0 -0.13212771321E+04  0.32224155259E+03 -0.19246663596E+04  0.23566827288E+04  0.10100000352E+00 0.  1.
       -3    1    3    3    0  502  0.13212771321E+04 -0.32224155259E+03  0.10411394336E+04  0.17127709153E+04  0.10100000352E+00 0. -1.
</event>
<event>
 5   0  0.8528625E-08  0.3950501E+04  0.7818609E-02  0.8014607E-01
        1   -1    0    0  501    0  0.00000000000E+00  0.00000000000E+00  0.26176662768E+04  0.26176662768E+04  0.50400001928E-02 0. -1.
       -1   -1    0    0    0  501  0.00000000000E+00  0.00000000000E+00 -0.14904935729E+04  0.14904935729E+04  0.50400001928E-02 0.  1.
    10030    2    1    2    0    0  0.00000000000E+00  0.00000000000E+00  0.11271727039E+04  0.41081598496E+04  0.39505011132E+04 0.  0.
        5    1    3    3  502    0  0.15898493247E+04  0.77886955609E+03 -0.34734860696E+03  0.18041429559E+04  0.46999998093E+01 0.  1.
       -5    1    3    3    0  502 -0.15898493247E+04 -0.77886955609E+03  0.14745213108E+04  0.23040168937E+04  0.46999998093E+01 0. -1.
</event>
<event>
 5   0  0.2666978E-07  0.3984554E+04  0.7818609E-02  0.8007670E-01
       -2   -1    0    0    0  501  0.00000000000E+00  0.00000000000E+00  0.23403728094E+04  0.23403728094E+04  0.25500000920E-02 0. -1.
        2   -1    0    0  501    0  0.00000000000E+00  0.00000000000E+00 -0.16959552057E+04  0.16959552057E+04  0.25500000920E-02 0.  1.
    10030    2    1    2    0    0  0.00000000000E+00  0.00000000000E+00  0.64441760364E+03  0.40363280151E+04  0.39845539019E+04 0.  0.
        4    1    3    3  502    0  0.17802742272E+04  0.40887290559E+03 -0.48349537802E+03  0.18895297749E+04  0.12699999809E+01 0. -1.
       -4    1    3    3    0  502 -0.17802742272E+04 -0.40887290559E+03  0.11279129817E+04  0.21467982402E+04  0.12699999809E+01 0.  1.
</event>
<event>
 5   0  0.2730801E-07  0.3558159E+04  0.7818609E-02  0.8100144E-01
       -2   -1    0    0    0  501  0.00000000000E+00  0.00000000000E+00  0.12389505205E+04  0.12389505205E+04  0.25500000920E-02 0.  1.
        2   -1    0    0  501    0  0.00000000000E+00  0.00000000000E+00 -0.25546810232E+04  0.25546810232E+04  0.25500000920E-02 0. -1.
    10030    2    1    2    0    0  0.00000000000E+00  0.00000000000E+00 -0.13157305027E+04  0.37936315437E+04  0.35581587280E+04 0.  0.
        2    1    3    3  502    0 -0.52636807217E+02  0.14278080238E+04  0.47234256078E+03  0.15048301834E+04  0.25500000920E-02 0. -1.
       -2    1    3    3    0  502  0.52636807217E+02 -0.14278080238E+04 -0.17880730635E+04  0.22888013602E+04  0.25500000920E-02 0.  1.
</event>
<event>
 5   0  0.8528625E-08  0.3996075E+04  0.7818609E-02  0.8005339E-01
       -1   -1    0    0    0  501  0.00000000000E+00  0.00000000000E+00  0.23823483559E+04  0.23823483559E+04  0.50400001928E-02 0. -1.
        1   -1    0    0  501    0  0.00000000000E+00  0.00000000000E+00 -0.16757218474E+04  0.16757218474E+04  0.50400001928E-02 0.  1.
    10030    2    1    2    0    0  0.00000000000E+00  0.00000000000E+00  0.70662650846E+03  0.40580702033E+04  0.39960746681E+04 0.  0.
        4    1    3    3  502    0  0.12723077978E+04  0.70345715820E+03 -0.10385459777E+04  0.17866724564E+04  0.12699999809E+01 0.  1.
       -4    1    3    3    0  502 -0.12723077978E+04 -0.70345715820E+03  0.17451724861E+04  0.22713977470E+04  0.12699999809E+01 0. -1.
</event>
<event>
 5   0  0.2704088E-07  0.4066550E+04  0.7818609E-02  0.7991254E-01
       -2   -1    0    0    0  501  0.00000000000E+00  0.00000000000E+00  0.17545039540E+04  0.17545039540E+04  0.25500000920E-02 0.  1.
        2   -1    0    0  501    0  0.00000000000E+00  0.00000000000E+00 -0.23563394094E+04  0.23563394094E+04  0.25500000920E-02 0. -1.
    10030    2    1    2    0    0  0.00000000000E+00  0.00000000000E+00 -0.60183545540E+03  0.41108433634E+04  0.40665497960E+04 0.  0.
        5    1    3    3  502    0 -0.13624945011E+04  0.13292756517E+04  0.42158360384E+03  0.19496460830E+04  0.46999998093E+01 0.  1.
       -5    1    3    3    0  502  0.13624945011E+04 -0.13292756517E+04 -0.10234190592E+04  0.21611972804E+04  0.46999998093E+01 0. -1.
</event>
<event>
 5   0  0.8583262E-08  0.3994396E+04  0.7818609E-02  0.8005678E-01
        1   -1    0    0  501    0  0.00000000000E+00  0.00000000000E+00  0.21300374025E+04  0.21300374025E+04  0.50400001928E-02 0. -1.
       -1   -1    0    0    0  501  0.00000000000E+00  0.00000000000E+00 -0.18726431792E+04  0.18726431792E+04  0.50400001928E-02 0.  1.
    10030    2    1    2    0    0  0.00000000000E+00  0.00000000000E+00  0.25739422330E+03  0.40026805817E+04  0.39943960812E+04 0.  0.
        1    1    3    3  502    0 -0.17377122543E+04 -0.96916698638E+03  0.30188927167E+03  0.20124774927E+04  0.50400001928E-02 0.  1.
       -1    1    3    3    0  502  0.17377122543E+04  0.96916698638E+03 -0.44495048364E+02  0.19902030890E+04  0.50400001928E-02 0. -1.
</event>
<event>
 5   0  0.2666978E-07  0.3883807E+04  0.7818609E-02  0.8028405E-01
       -2   -1    0    0    0  501  0.00000000000E+00  0.00000000000E+00  0.15882327426E+04  0.15882327426E+04  0.25500000920E-02 0.  1.
        2   -1    0    0  501    0  0.00000000000E+00  0.00000000000E+00 -0.23743303121E+04  0.23743303121E+04  0.25500000920E-02 0. -1.
    10030    2    1    2    0    0  0.00000000000E+00  0.00000000000E+00 -0.78609756947E+03  0.39625630547E+04  0.38838069691E+04 0.  0.
        4    1    3    3  502    0  0.18307567018E+03  0.18916526628E+04  0.13939908285E+02  0.19005426677E+04  0.12699999809E+01 0.  1.
       -4    1    3    3    0  502 -0.18307567018E+03 -0.18916526628E+04 -0.80003747776E+03  0.20620203870E+04  0.12699999809E+01 0. -1.
</event>
<event>
 5   0  0.8528625E-08  0.4007805E+04  0.7818609E-02  0.8002974E-01
       -1   -1    0    0    0  501  0.00000000000E+00  0.00000000000E+00  0.18921381639E+04  0.18921381639E+04  0.50400001928E-02 0.  1.
        1   -1    0    0  501    0  0.00000000000E+00  0.00000000000E+00 -0.21222683423E+04  0.21222683423E+04  0.50400001928E-02 0. -1.
    10030    2    1    2    0    0  0.00000000000E+00  0.00000000000E+00 -0.23013017848E+03  0.40144065062E+04  0.40078048478E+04 0.  0.
        2    1    3    3  502    0  0.19159819013E+04  0.52097070268E+03  0.15598701956E+03  0.19916648989E+04  0.25500000920E-02 0.  1.
       -2    1    3    3    0  502 -0.19159819013E+04 -0.52097070268E+03 -0.38611719804E+03  0.20227416073E+04  0.25500000920E-02 0. -1.
</event>
<event>
 5   0  0.8528625E-08  0.4005768E+04  0.7818609E-02  0.8003384E-01
        1   -1    0    0  501    0  0.00000000000E+00  0.00000000000E+00  0.21702316310E+04  0.21702316310E+04  0.50400001928E-02 0. -1.
       -1   -1    0    0    0  501  0.00000000000E+00  0.00000000000E+00 -0.18484410474E+04  0.18484410474E+04  0.50400001928E-02 0.  1.
    10030    2    1    2    0    0  0.00000000000E+00  0.00000000000E+00  0.32179058356E+03  0.40186726784E+04  0.40057684551E+04 0.  0.
        2    1    3    3  502    0  0.17417965270E+04  0.16864242076E+03  0.11383284191E+04  0.20876031704E+04  0.25500000920E-02 0. -1.
       -2    1    3    3    0  502 -0.17417965270E+04 -0.16864242076E+03 -0.81653783556E+03  0.19310695079E+04  0.25500000920E-02 0.  1.
</event>
<event>
 5   0  0.2730801E-07  0.3586598E+04  0.7818609E-02  0.8093569E-01
        2   -1    0    0  501    0  0.00000000000E+00  0.00000000000E+00  0.17141954369E+04  0.17141954369E+04  0.25500000920E-02 0. -1.
       -2   -1    0    0    0  501  0.00000000000E+00  0.00000000000E+00 -0.18760524647E+04  0.18760524647E+04  0.25500000920E-02 0.  1.
    10030    2    1    2    0    0  0.00000000000E+00  0.00000000000E+00 -0.16185702781E+03  0.35902479015E+04  0.35865975934E+04 0.  0.
        2    1    3    3  502    0  0.39109240509E+03 -0.10626300273E+04 -0.14729497077E+04  0.18578796209E+04  0.25500000920E-02 0.  1.
       -2    1    3    3    0  502 -0.39109240509E+03  0.10626300273E+04  0.13110926799E+04  0.17323682806E+04  0.25500000920E-02 0. -1.
</event>
<event>
 5   0  0.8528625E-08  0.4197576E+04  0.7818609E-02  0.7965833E-01
        3   -1    0    0  501    0  0.00000000000E+00  0.00000000000E+00  0.16856385088E+04  0.16856385118E+04  0.10100000352E+00 0. -1.
       -3   -1    0    0    0  501  0.00000000000E+00  0.00000000000E+00 -0.26132003583E+04  0.26132003602E+04  0.10100000352E+00 0.  1.
    10030    2    1    2    0    0  0.00000000000E+00  0.00000000000E+00 -0.92756184946E+03  0.42988388721E+04  0.41975760462E+04 0.  0.
        4    1    3    3  502    0  0.42761903330E+02  0.14643418771E+04 -0.20029627637E+04  0.24815291977E+04  0.12699999809E+01 0.  1.
       -4    1    3    3    0  502 -0.42761903330E+02 -0.14643418771E+04  0.10754009143E+04  0.18173096744E+04  0.12699999809E+01 0. -1.
</event>
<event>
 5   0  0.8583262E-08  0.4162129E+04  0.7818609E-02  0.7972615E-01
        1   -1    0    0  501    0  0.00000000000E+00  0.00000000000E+00  0.26675088154E+04  0.26675088154E+04  0.50400001928E-02 0.  1.
       -1   -1    0    0    0  501  0.00000000000E+00  0.00000000000E+00 -0.16235482939E+04  0.16235482939E+04  0.50400001928E-02 0. -1.
    10030    2    1    2    0    0  0.00000000000E+00  0.00000000000E+00  0.10439605215E+04  0.42910571094E+04  0.41621289679E+04 0.  0.
        1    1    3    3  502    0  0.74001782016E+03 -0.19409138795E+04  0.65261895545E+03  0.21773113151E+04  0.50400001928E-02 0. -1.
       -1    1    3    3    0  502 -0.74001782016E+03  0.19409138795E+04  0.39134156606E+03  0.21137457943E+04  0.50400001928E-02 0.  1.
</event>
<event>
 5   0  0.8528625E-08  0.4098659E+04  0.7818609E-02  0.7984934E-01
        1   -1    0    0  501    0  0.00000000000E+00  0.00000000000E+00  0.23142458066E+04  0.23142458066E+04  0.50400001928E-02 0.  1.
       -1   -1    0    0    0  501  0.00000000000E+00  0.00000000000E+00 -0.18147383085E+04  0.18147383085E+04  0.50400001928E-02 0. -1.
    10030    2    1    2    0    0  0.00000000000E+00  0.00000000000E+00  0.49950749816E+03  0.41289841151E+04  0.40986585711E+04 0.  0.
        5    1    3    3  502    0 -0.85959260510E+03 -0.41592834309E+03 -0.15769003618E+04  0.18435109640E+04  0.46999998093E+01 0. -1.
       -5    1    3    3    0  502  0.85959260510E+03  0.41592834309E+03  0.20764078600E+04  0.22854731511E+04  0.46999998093E+01 0.  1.
</event>
<event>
 5   0  0.2730801E-07  0.4010498E+04  0.7818609E-02  0.8002432E-01
        2   -1    0    0  501    0  0.00000000000E+00  0.00000000000E+00  0.23967546097E+04  0.23967546097E+04  0.25500000920E-02 0. -1.
       -2   -1    0    0    0  501  0.00000000000E+00  0.00000000000E+00 -0.16776947371E+04  0.16776947371E+04  0.25500000920E-02 0.  1.
    10030    2    1    2    0    0  0.00000000000E+00  0.00000000000E+00  0.71905987261E+03  0.40744493469E+04  0.40104975227E+04 0.  0.
        2    1    3    3  502    0  0.48958695957E+03  0.11943761885E+04 -0.11994732877E+04  0.17620913820E+04  0.25500000920E-02 0.  1.
       -2    1    3    3    0  502 -0.48958695957E+03 -0.11943761885E+04  0.19185331603E+04  0.23123579649E+04  0.25500000920E-02 0. -1.
</event>
<event>
 5   0  0.2730801E-07  0.4065877E+04  0.7818609E-02  0.7991387E-01
        2   -1    0    0  501    0  0.00000000000E+00  0.00000000000E+00  0.24406537054E+04  0.24406537054E+04  0.25500000920E-02 0.  1.
       -2   -1    0    0    0  501  0.00000000000E+00  0.00000000000E+00 -0.16933330987E+04  0.16933330987E+04  0.25500000920E-02 0. -1.
    10030    2    1    2    0    0  0.00000000000E+00  0.00000000000E+00  0.74732060665E+03  0.41339868041E+04  0.40658773724E+04 0.  0.
        2    1    3    3  502    0 -0.19322212111E+04 -0.15726980633E+03  0.99598123097E+03  0.21794933386E+04  0.25500000920E-02 0.  1.
       -2    1    3    3    0  502  0.19322212111E+04  0.15726980633E+03 -0.24866062432E+03  0.19544934655E+04  0.25500000920E-02 0. -1.
</event>
<event>
 5   0  0.8583262E-08  0.3995618E+04  0.7818609E-02  0.8005431E-01
       -1   -1    0    0    0  501  0.00000000000E+00  0.00000000000E+00  0.25367966546E+04  0.25367966546E+04  0.50400001928E-02 0. -1.
        1   -1    0    0  501    0  0.00000000000E+00  0.00000000000E+00 -0.15733390277E+04  0.15733390278E+04  0.50400001928E-02 0.  1.
    10030    2    1    2    0    0  0.00000000000E+00  0.00000000000E+00  0.96345762682E+03  0.41101356823E+04  0.39956181910E+04 0.  0.
        1    1    3    3  502    0 -0.84341995839E+03  0.12127125175E+04 -0.90189154553E+03  0.17307331499E+04  0.50400001928E-02 0.  1.
       -1    1    3    3    0  502  0.84341995839E+03 -0.12127125175E+04  0.18653491724E+04  0.23794025324E+04  0.50400001928E-02 0. -1.
</event>
<event>
 5   0  0.2839279E-07  0.4022570E+04  0.7818609E-02  0.8000009E-01
        2   -1    0    0  501    0  0.00000000000E+00  0.00000000000E+00  0.19425213720E+04  0.19425213720E+04  0.25500000920E-02 0. -1.
       -2   -1    0    0    0  501  0.00000000000E+00  0.00000000000E+00 -0.20824825707E+04  0.20824825707E+04  0.25500000920E-02 0.  1.
    10030    2    1    2    0    0  0.00000000000E+00  0.00000000000E+00 -0.13996119868E+03  0.40250039427E+04  0.40225697759E+04 0.  0.
        3    1    3    3  502    0 -0.53613772025E+03  0.18684626935E+04 -0.58669448024E+03  0.20304696293E+04  0.10100000352E+00 0. -1.
       -3    1    3    3    0  502  0.53613772025E+03 -0.18684626935E+04  0.44673328155E+03  0.19945343134E+04  0.10100000352E+00 0.  1.
</event>
<event>
 5   0  0.2839279E-07  0.4011448E+04  0.7818609E-02  0.8002241E-01
       -2   -1    0    0    0  501  0.00000000000E+00  0.00000000000E+00  0.16309229211E+04  0.16309229211E+04  0.25500000920E-02 0. -1.
        2   -1    0    0  501    0  0.00000000000E+00  0.00000000000E+00 -0.24666581675E+04  0.24666581675E+04  0.25500000920E-02 0.  1.
    10030    2    1    2    0    0  0.00000000000E+00  0.00000000000E+00 -0.83573524638E+03  0.40975810886E+04  0.40114482890E+04 0.  0.
        3    1    3    3  502    0  0.12574884903E+04  0.14660252840E+04  0.13450392897E+03  0.19361298391E+04  0.10100000352E+00 0. -1.
       -3    1    3    3    0  502 -0.12574884903E+04 -0.14660252840E+04 -0.97023917534E+03  0.21614512495E+04  0.10100000352E+00 0.  1.
</event>
<event>
 5   0  0.2666978E-07  0.4309767E+04  0.7818609E-02  0.7944815E-01
       -2   -1    0    0    0  501  0.00000000000E+00  0.00000000000E+00  0.22157325590E+04  0.22157325590E+04  0.25500000920E-02 0.  1.
        2   -1    0    0  501    0  0.00000000000E+00  0.00000000000E+00 -0.20957050292E+04  0.20957050292E+04  0.25500000920E-02 0. -1.
    10030    2    1    2    0    0  0.00000000000E+00  0.00000000000E+00  0.12002752984E+03  0.43114375882E+04  0.43097665215E+04 0.  0.
        4    1    3    3  502    0 -0.20294889441E+04  0.34202262880E+03  0.69878730678E+03  0.21735018210E+04  0.12699999809E+01 0.  1.
       -4    1    3    3    0  502  0.20294889441E+04 -0.34202262880E+03 -0.57875977694E+03  0.21379357673E+04  0.12699999809E+01 0. -1.
</event>
<event>
 5   0  0.8528625E-08  0.3947613E+04  0.7818609E-02  0.8015199E-01
        1   -1    0    0  501    0  0.00000000000E+00  0.00000000000E+00  0.21673690220E+04  0.21673690220E+04  0.50400001928E-02 0. -1.
       -1   -1    0    0    0  501  0.00000000000E+00  0.00000000000E+00 -0.17975307525E+04  0.17975307525E+04  0.50400001928E-02 0.  1.
    10030    2    1    2    0    0  0.00000000000E+00  0.00000000000E+00  0.36983826948E+03  0.39648997745E+04  0.39476131873E+04 0.  0.
        4    1    3    3  502    0 -0.80867830153E+01  0.16563009242E+04  0.12631716602E+04  0.20830272210E+04  0.12699999809E+01 0.  1.
       -4    1    3    3    0  502  0.80867830153E+01 -0.16563009242E+04 -0.89333339068E+03  0.18818725535E+04  0.12699999809E+01 0. -1.
</event>
<event>
 5   0  0.8528625E-08  0.3990752E+04  0.7818609E-02  0.8006415E-01
       -1   -1    0    0    0  501  0.00000000000E+00  0.00000000000E+00  0.15475869529E+04  0.15475869529E+04  0.50400001928E-02 0.  1.
        1   -1    0    0  501    0  0.00000000000E+00  0.00000000000E+00 -0.25727315081E+04  0.25727315081E+04  0.50400001928E-02 0. -1.
    10030    2    1    2    0    0  0.00000000000E+00  0.00000000000E+00 -0.10251445552E+04  0.41203184610E+04  0.39907521673E+04 0.  0.
        4    1    3    3  502    0 -0.16632925028E+04 -0.37989660846E+03 -0.15808937579E+04  0.23259600318E+04  0.12699999809E+01 0. -1.
       -4    1    3    3    0  502  0.16632925028E+04  0.37989660846E+03  0.55574920266E+03  0.17943584292E+04  0.12699999809E+01 0.  1.
</event>
<event>
 5   0  0.2704088E-07  0.3900893E+04  0.7818609E-02  0.8024843E-01
        2   -1    0    0  501    0  0.00000000000E+00  0.00000000000E+00  0.20782564909E+04  0.20782564909E+04  0.25500000920E-02 0. -1.
       -2   -1    0    0    0  501  0.00000000000E+00  0.00000000000E+00 -0.18304970898E+04  0.18304970898E+04  0.25500000920E-02 0.  1.
    10030    2    1    2    0    0  0.00000000000E+00  0.00000000000E+00  0.24775940113E+03  0.39087535807E+04  0.39008934661E+04 0.  0.
        5    1    3    3  502    0 -0.62360030493E+03 -0.17565618245E+04  0.69934831119E+03  0.19908533181E+04  0.46999998093E+01 0. -1.
       -5    1    3    3    0  502  0.62360030493E+03  0.17565618245E+04 -0.45158891006E+03  0.19179002626E+04  0.46999998093E+01 0.  1.
</event>
<event>
 5   0  0.8528625E-08  0.4013873E+04  0.7818609E-02  0.8001754E-01
       -1   -1    0    0    0  501  0.00000000000E+00  0.00000000000E+00  0.15131177489E+04  0.15131177489E+04  0.50400001928E-02 0. -1.
        1   -1    0    0  501    0  0.00000000000E+00  0.00000000000E+00 -0.26619168651E+04  0.26619168651E+04  0.50400001928E-02 0.  1.
    10030    2    1    2    0    0  0.00000000000E+00  0.00000000000E+00 -0.11487991162E+04  0.41750346141E+04  0.40138727707E+04 0.  0.
        4    1    3    3  502    0 -0.20001597285E+04 -0.16005832953E+03 -0.61514420402E+03  0.20987285705E+04  0.12699999809E+01 0.  1.
       -4    1    3    3    0  502  0.20001597285E+04  0.16005832953E+03 -0.53365491218E+03  0.20763060435E+04  0.12699999809E+01 0. -1.
</event>
<event>
 5   0  0.2839279E-07  0.4108186E+04  0.7818609E-02  0.7983071E-01
       -2   -1    0    0    0  501  0.00000000000E+00  0.00000000000E+00  0.13480239708E+04  0.13480239708E+04  0.25500000920E-02 0.  1.
        2   -1    0    0  501    0  0.00000000000E+00  0.00000000000E+00 -0.31299874300E+04  0.31299874300E+04  0.25500000920E-02 0. -1.
    10030    2    1    2    0    0  0.00000000000E+00  0.00000000000E+00 -0.17819634592E+04  0.44780114008E+04  0.41081860153E+04 0.  0.
        3    1    3    3  502    0  0.32370272818E+03 -0.17478099972E+04  0.23109202628E+03  0.17924917788E+04  0.10100000352E+00 0.  1.
       -3    1    3    3    0  502 -0.32370272818E+03  0.17478099972E+04 -0.20130554855E+04  0.26855196220E+04  0.10100000352E+00 0. -1.
</event>
<event>
 5   0  0.2839279E-07  0.3449871E+04  0.7818609E-02  0.8125774E-01
       -2   -1    0    0    0  501  0.00000000000E+00  0.00000000000E+00  0.23126970660E+04  0.23126970660E+04  0.25500000920E-02 0.  1.
        2   -1    0    0  501    0  0.00000000000E+00  0.00000000000E+00 -0.12865509815E+04  0.12865509815E+04  0.25500000920E-02 0. -1.
    10030    2    1    2    0    0  0.00000000000E+00  0.00000000000E+00  0.10261460845E+04  0.35992480475E+04  0.34498711166E+04 0.  0.
        3    1    3    3  502    0 -0.10594358214E+04  0.71309388894E+03 -0.69665733492E+03  0.14547297366E+04  0.10100000352E+00 0. -1.
       -3    1    3    3    0  502  0.10594358214E+04 -0.71309388894E+03  0.17228034194E+04  0.21445183110E+04  0.10100000352E+00 0.  1.
</event>
<event>
 5   0  0.8528625E-08  0.4018992E+04  0.7818609E-02  0.8000726E-01
       -1   -1    0    0    0  501  0.00000000000E+00  0.00000000000E+00  0.17176910803E+04  0.17176910803E+04  0.50400001928E-02 0. -1.
        1   -1    0    0  501    0  0.00000000000E+00  0.00000000000E+00 -0.23508734678E+04  0.23508734678E+04  0.50400001928E-02 0.  1.
    10030    2    1    2    0    0  0.00000000000E+00  0.00000000000E+00 -0.63318238749E+03  0.40685645481E+04  0.40189921058E+04 0.  0.
        4    1    3    3  502    0  0.67426565357E+03 -0.16912752906E+04 -0.11773890226E+04  0.21682464813E+04  0.12699999809E+01 0.  1.
       -4    1    3    3    0  502 -0.67426565357E+03  0.16912752906E+04  0.54420663510E+03  0.19003180668E+04  0.12699999809E+01 0. -1.
</event>
<event>
 5   0  0.8528625E-08  0.4000630E+04  0.7818609E-02  0.8004419E-01
        1   -1    0    0  501    0  0.00000000000E+00  0.00000000000E+00  0.29729040755E+04  0.29729040755E+04  0.50400001928E-02 0. -1.
       -1   -1    0    0    0  501  0.00000000000E+00  0.00000000000E+00 -0.13459098046E+04  0.13459098046E+04  0.50400001928E-02 0.  1.
    10030    2    1    2    0    0  0.00000000000E+00  0.00000000000E+00  0.16269942709E+04  0.43188138801E+04  0.40006303220E+04 0.  0.
        3    1    3    3  502    0 -0.17867221724E+04 -0.87174599159E+03  0.57466995818E+03  0.20694353738E+04  0.10100000352E+00 0.  1.
       -3    1    3    3    0  502  0.17867221724E+04  0.87174599159E+03  0.10523243127E+04  0.22493785063E+04  0.10100000352E+00 0. -1.
</event>
<event>
 5   0  0.8528625E-08  0.4019416E+04  0.7818609E-02  0.8000641E-01
       -1   -1    0    0    0  501  0.00000000000E+00  0.00000000000E+00  0.16475658331E+04  0.16475658331E+04  0.50400001928E-02 0. -1.
        1   -1    0    0  501    0  0.00000000000E+00  0.00000000000E+00 -0.24514507261E+04  0.24514507261E+04  0.50400001928E-02 0.  1.
    10030    2    1    2    0    0  0.00000000000E+00  0.00000000000E+00 -0.80388489297E+03  0.40990165593E+04  0.40194161058E+04 0.  0.
        4    1    3    3  502    0  0.14633611934E+04 -0.51005229906E+03  0.90298652016E+03  0.17935901423E+04  0.12699999809E+01 0. -1.
       -4    1    3    3    0  502 -0.14633611934E+04  0.51005229906E+03 -0.17068714131E+04  0.23054264169E+04  0.12699999809E+01 0.  1.
</event>
<event>
 5   0  0.2704088E-07  0.3699333E+04  0.7818609E-02  0.8068110E-01
       -2   -1    0    0    0  501  0.00000000000E+00  0.00000000000E+00  0.17012375120E+04  0.17012375120E+04  0.25500000920E-02 0. -1.
        2   -1    0    0  501    0  0.00000000000E+00  0.00000000000E+00 -0.20110451001E+04  0.20110451001E+04  0.25500000920E-02 0.  1.
    10030    2    1    2    0    0  0.00000000000E+00  0.00000000000E+00 -0.30980758811E+03  0.37122826121E+04  0.36993325682E+04 0.  0.
        5    1    3    3  502    0  0.94437920308E+03  0.14635120799E+04 -0.77959691703E+03  0.19082749095E+04  0.46999998093E+01 0.  1.
       -5    1    3    3    0  502 -0.94437920308E+03 -0.14635120799E+04  0.46978932892E+03  0.18040077025E+04  0.46999998093E+01 0. -1.
</event>
<event>
 5   0  0.8528625E-08  0.3858891E+04  0.7818609E-02  0.8033634E-01
       -1   -1    0    0    0  501  0.00000000000E+00  0.00000000000E+00  0.19649248953E+04  0.19649248953E+04  0.50400001928E-02 0.  1.
        1   -1    0    0  501    0  0.00000000000E+00  0.00000000000E+00 -0.18946069382E+04  0.18946069382E+04  0.50400001928E-02 0. -1.
    10030    2    1    2    0    0  0.00000000000E+00  0.00000000000E+00  0.70317957075E+02  0.38595318334E+04  0.38588912084E+04 0.  0.
        4    1    3    3  502    0 -0.33817033967E+02 -0.12536386115E+04 -0.14313741041E+04  0.19030467148E+04  0.12699999809E+01 0. -1.
       -4    1    3    3    0  502  0.33817033967E+02  0.12536386115E+04  0.15016920612E+04  0.19564851186E+04  0.12699999809E+01 0.  1.
</event>
<event>
 5   0  0.8528625E-08  0.3974835E+04  0.7818609E-02  0.8009643E-01
       -1   -1    0    0    0  501  0.00000000000E+00  0.00000000000E+00  0.17440481235E+04  0.17440481235E+04  0.50400001928E-02 0.  1.
        1   -1    0    0  501    0  0.00000000000E+00  0.00000000000E+00 -0.22647468512E+04  0.22647468512E+04  0.50400001928E-02 0. -1.
    10030    2    1    2    0    0  0.00000000000E+00  0.00000000000E+00 -0.52069872770E+03  0.40087949746E+04  0.39748345857E+04 0.  0.
        2    1    3    3  502    0  0.29169066581E+03  0.10842091558E+04  0.13935501785E+04  0.17895739823E+04  0.25500000920E-02 0.  1.
       -2    1    3    3    0  502 -0.29169066581E+03 -0.10842091558E+04 -0.19142489062E+04  0.22192209924E+04  0.25500000920E-02 0. -1.
</event>
<event>
 5   0  0.8528625E-08  0.3985053E+04  0.7818609E-02  0.8007569E-01
       -3   -1    0    0    0  501  0.00000000000E+00  0.00000000000E+00  0.18507016292E+04  0.18507016319E+04  0.10100000352E+00 0. -1.
        3   -1    0    0  501    0  0.00000000000E+00  0.00000000000E+00 -0.21452195232E+04  0.21452195255E+04  0.10100000352E+00 0.  1.
    10030    2    1    2    0    0  0.00000000000E+00  0.00000000000E+00 -0.29451789400E+03  0.39959211574E+04  0.39850527106E+04 0.  0.
        4    1    3    3  502    0  0.17278413117E+04  0.94907927306E+03  0.14331163134E+03  0.19765441815E+04  0.12699999809E+01 0. -1.
       -4    1    3    3    0  502 -0.17278413117E+04 -0.94907927306E+03 -0.43782952533E+03  0.20193769759E+04  0.12699999809E+01 0.  1.
</event>
<event>
 5   0  0.2730801E-07  0.3984224E+04  0.7818609E-02  0.8007737E-01
       -2   -1    0    0    0  501  0.00000000000E+00  0.00000000000E+00  0.19446791106E+04  0.19446791106E+04  0.25500000920E-02 0.  1.
        2   -1    0    0  501    0  0.00000000000E+00  0.00000000000E+00 -0.20407020991E+04  0.20407020991E+04  0.25500000920E-02 0. -1.
    10030    2    1    2    0    0  0.00000000000E+00  0.00000000000E+00 -0.96022988535E+02  0.39853812098E+04  0.39842242624E+04 0.  0.
        2    1    3    3  502    0  0.17262344171E+04 -0.98443638458E+03 -0.18773199260E+03  0.19960570030E+04  0.25500000920E-02 0.  1.
       -2    1    3    3    0  502 -0.17262344171E+04  0.98443638458E+03  0.91709004068E+02  0.19893242068E+04  0.25500000920E-02 0. -1.
</event>
<event>
 5   0  0.2666978E-07  0.3899124E+04  0.7818609E-02  0.8025211E-01
       -2   -1    0    0    0  501  0.00000000000E+00  0.00000000000E+00  0.18343454168E+04  0.18343454168E+04  0.25500000920E-02 0. -1.
        2   -1    0    0  501    0  0.00000000000E+00  0.00000000000E+00 -0.20720151139E+04  0.20720151139E+04  0.25500000920E-02 0.  1.
    10030    2    1    2    0    0  0.00000000000E+00  0.00000000000E+00 -0.23766969716E+03  0.39063605307E+04  0.38991237106E+04 0.  0.
        4    1    3    3  502    0  0.85106797658E+03 -0.16243227669E+04 -0.78191570272E+03  0.19935232456E+04  0.12699999809E+01 0. -1.
       -4    1    3    3    0  502 -0.85106797658E+03  0.16243227669E+04  0.54424600556E+03  0.19128372851E+04  0.12699999809E+01 0.  1.
</event>
<event>
 5   0  0.2839279E-07  0.4147153E+04  0.7818609E-02  0.7975502E-01
       -2   -1    0    0    0  501  0.00000000000E+00  0.00000000000E+00  0.19220902229E+04  0.19220902229E+04  0.25500000920E-02 0. -1.
        2   -1    0    0  501    0  0.00000000000E+00  0.00000000000E+00 -0.22370016544E+04  0.22370016544E+04  0.25500000920E-02 0.  1.
    10030    2    1    2    0    0  0.00000000000E+00  0.00000000000E+00 -0.31491143146E+03  0.41590918773E+04  0.41471527623E+04 0.  0.
        3    1    3    3  502    0  0.32750027644E+03 -0.19970442750E+04  0.29581528084E+03  0.20452258941E+04  0.10100000352E+00 0. -1.
       -3    1    3    3    0  502 -0.32750027644E+03  0.19970442750E+04 -0.61072671230E+03  0.21138659831E+04  0.10100000352E+00 0.  1.
</event>
<event>
 5   0  0.8583262E-08  0.4031655E+04  0.7818609E-02  0.7998191E-01
        1   -1    0    0  501    0  0.00000000000E+00  0.00000000000E+00  0.18595635635E+04  0.18595635635E+04  0.50400001928E-02 0.  1.
       -1   -1    0    0    0  501  0.00000000000E+00  0.00000000000E+00 -0.21852221740E+04  0.21852221740E+04  0.50400001928E-02 0. -1.
    10030    2    1    2    0    0  0.00000000000E+00  0.00000000000E+00 -0.32565861043E+03  0.40447857375E+04  0.40316545154E+04 0.  0.
        1    1    3    3  502    0 -0.70592352693E+03 -0.33594902772E+03  0.17012778079E+04  0.18723076550E+04  0.50400001928E-02 0.  1.
       -1    1    3    3    0  502  0.70592352693E+03  0.33594902772E+03 -0.20269364183E+04  0.21724780825E+04  0.50400001928E-02 0. -1.
</event>
<event>
 5   0  0.8528625E-08  0.3968175E+04  0.7818609E-02  0.8010998E-01
        1   -1    0    0  501    0  0.00000000000E+00  0.00000000000E+00  0.20585434355E+04  0.20585434355E+04  0.50400001928E-02 0.  1.
       -1   -1    0    0    0  501  0.00000000000E+00  0.00000000000E+00 -0.19123241242E+04  0.19123241242E+04  0.50400001928E-02 0. -1.
    10030    2    1    2    0    0  0.00000000000E+00  0.00000000000E+00  0.14621931134E+03  0.39708675597E+04  0.39681745286E+04 0.  0.
        3    1    3    3  502    0 -0.16074972458E+04  0.10973909011E+04 -0.31223359257E+03  0.19712442801E+04  0.10100000352E+00 0. -1.
       -3    1    3    3    0  502  0.16074972458E+04 -0.10973909011E+04  0.45845290391E+03  0.19996232796E+04  0.10100000352E+00 0.  1.
</event>
<event>
 5   0  0.8528625E-08  0.3356947E+04  0.7818609E-02  0.8148554E-01
        1   -1    0    0  501    0  0.00000000000E+00  0.00000000000E+00  0.17199109910E+04  0.17199109910E+04  0.50400001928E-02 0. -1.
       -1   -1    0    0    0  501  0.00000000000E+00  0.00000000000E+00 -0.16380343802E+04  0.16380343802E+04  0.50400001928E-02 0.  1.
    10030    2    1    2    0    0  0.00000000000E+00  0.00000000000E+00  0.81876610794E+02  0.33579453711E+04  0.33569470261E+04 0.  0.
        5    1    3    3  502    0 -0.43442426970E+03 -0.16208470004E+04  0.78121921350E+02  0.16798793318E+04  0.46999998093E+01 0.  1.
       -5    1    3    3    0  502  0.43442426970E+03  0.16208470004E+04  0.37546894448E+01  0.16780660394E+04  0.46999998093E+01 0. -1.
</event>
<event>
 5   0  0.8528625E-08  0.4050745E+04  0.7818609E-02  0.7994387E-01
       -1   -1    0    0    0  501  0.00000000000E+00  0.00000000000E+00  0.17570365043E+04  0.17570365044E+04  0.50400001928E-02 0. -1.
        1   -1    0    0  501    0  0.00000000000E+00  0.00000000000E+00 -0.23346887804E+04  0.23346887804E+04  0.50400001928E-02 0.  1.
    10030    2    1    2    0    0  0.00000000000E+00  0.00000000000E+00 -0.57765227603E+03  0.40917252847E+04  0.40507448270E+04 0.  0.
        5    1    3    3  502    0 -0.90132676644E+03 -0.17826940312E+04  0.48805864592E+02  0.19981972002E+04  0.46999998093E+01 0.  1.
       -5    1    3    3    0  502  0.90132676644E+03  0.17826940312E+04 -0.62645814062E+03  0.20935280845E+04  0.46999998093E+01 0. -1.
</event>
<event>
 5   0  0.2730801E-07  0.4087217E+04  0.7818609E-02  0.7987180E-01
       -2   -1    0    0    0  501  0.00000000000E+00  0.00000000000E+00  0.15624423515E+04  0.15624423515E+04  0.25500000920E-02 0. -1.
        2   -1    0    0  501    0  0.00000000000E+00  0.00000000000E+00 -0.26729535453E+04  0.26729535453E+04  0.25500000920E-02 0.  1.
    10030    2    1    2    0    0  0.00000000000E+00  0.00000000000E+00 -0.11105111938E+04  0.42353958968E+04  0.40872170594E+04 0.  0.
        2    1    3    3  502    0  0.70594036990E+03 -0.58943019556E+03 -0.24463999633E+04  0.26135517102E+04  0.25500000920E-02 0.  1.
       -2    1    3    3    0  502 -0.70594036990E+03  0.58943019556E+03  0.13358887694E+04  0.16218441866E+04  0.25500000920E-02 0. -1.
</event>
<event>
 5   0  0.2730801E-07  0.3920912E+04  0.7818609E-02  0.8020694E-01
       -2   -1    0    0    0  501  0.00000000000E+00  0.00000000000E+00  0.15911953735E+04  0.15911953735E+04  0.25500000920E-02 0. -1.
        2   -1    0    0  501    0  0.00000000000E+00  0.00000000000E+00 -0.24154088916E+04  0.24154088916E+04  0.25500000920E-02 0.  1.
    10030    2    1    2    0    0  0.00000000000E+00  0.00000000000E+00 -0.82421351813E+03  0.40066042651E+04  0.39209118599E+04 0.  0.
        2    1    3    3  502    0  0.14754798851E+03  0.18291251947E+04  0.29283861525E+03  0.18582851884E+04  0.25500000920E-02 0. -1.
       -2    1    3    3    0  502 -0.14754798851E+03 -0.18291251947E+04 -0.11170521334E+04  0.21483190767E+04  0.25500000920E-02 0.  1.
</event>
<event>
 5   0  0.8528625E-08  0.3343433E+04  0.7818609E-02  0.8151931E-01
        1   -1    0    0  501    0  0.00000000000E+00  0.00000000000E+00  0.19013563370E+04  0.19013563370E+04  0.50400001928E-02 0. -1.
       -1   -1    0    0    0  501  0.00000000000E+00  0.00000000000E+00 -0.14698117570E+04  0.14698117570E+04  0.50400001928E-02 0.  1.
    10030    2    1    2    0    0  0.00000000000E+00  0.00000000000E+00  0.43154458004E+03  0.33711680940E+04  0.33434329055E+04 0.  0.
        3    1    3    3  502    0  0.13370497250E+04  0.93244986050E+03  0.58961905229E+03  0.17334403210E+04  0.10100000352E+00 0. -1.
       -3    1    3    3    0  502 -0.13370497250E+04 -0.93244986050E+03 -0.15807447224E+03  0.16377277730E+04  0.10100000352E+00 0.  1.
</event>
<event>
 5   0  0.8583262E-08  0.3962660E+04  0.7818609E-02  0.8012122E-01
       -1   -1    0    0    0  501  0.00000000000E+00  0.00000000000E+00  0.14068381075E+04  0.14068381075E+04  0.50400001928E-02 0. -1.
        1   -1    0    0  501    0  0.00000000000E+00  0.00000000000E+00 -0.27904198932E+04  0.27904198932E+04  0.50400001928E-02 0.  1.
    10030    2    1    2    0    0  0.00000000000E+00  0.00000000000E+00 -0.13835817857E+04  0.41972580006E+04  0.39626602386E+04 0.  0.
        1    1    3    3  502    0 -0.11265010912E+04 -0.16240053394E+04 -0.83882932021E+03  0.21470986655E+04  0.50400001928E-02 0. -1.
       -1    1    3    3    0  502  0.11265010912E+04  0.16240053394E+04 -0.54475246547E+03  0.20501593352E+04  0.50400001928E-02 0.  1.
</event>
<event>
 5   0  0.2661693E-07  0.3926010E+04  0.7818609E-02  0.8019641E-01
       -2   -1    0    0    0  501  0.00000000000E+00  0.00000000000E+00  0.15691408729E+04  0.15691408729E+04  0.25500000920E-02 0.  1.
        2   -1    0    0  501    0  0.00000000000E+00  0.00000000000E+00 -0.24557310272E+04  0.24557310272E+04  0.25500000920E-02 0. -1.
    10030    2    1    2    0    0  0.00000000000E+00  0.00000000000E+00 -0.88659015432E+03  0.40248719001E+04  0.39260096422E+04 0.  0.
        1    1    3    3  502    0  0.89759851005E+03  0.17165332647E+04 -0.76945486852E+03  0.20842817297E+04  0.50400001928E-02 0. -1.
       -1    1    3    3    0  502 -0.89759851005E+03 -0.17165332647E+04 -0.11713528580E+03  0.19405901704E+04  0.50400001928E-02 0.  1.
</event>
<event>
 5   0  0.2704088E-07  0.3972589E+04  0.7818609E-02  0.8010099E-01
       -2   -1    0    0    0  501  0.00000000000E+00  0.00000000000E+00  0.20689113633E+04  0.20689113633E+04  0.25500000920E-02 0. -1.
        2   -1    0    0  501    0  0.00000000000E+00  0.00000000000E+00 -0.19069769325E+04  0.19069769326E+04  0.25500000920E-02 0.  1.
    10030    2    1    2    0    0  0.00000000000E+00  0.00000000000E+00  0.16193443072E+03  0.39758882958E+04  0.39725892037E+04 0.  0.
        5    1    3    3  502    0  0.57051527990E+03  0.12078424886E+04  0.15522128454E+04  0.20478666874E+04  0.46999998093E+01 0. -1.
       -5    1    3    3    0  502 -0.57051527990E+03 -0.12078424886E+04 -0.13902784147E+04  0.19280216084E+04  0.46999998093E+01 0.  1.
</event>
<event>
 5   0  0.8528625E-08  0.4028385E+04  0.7818609E-02  0.7998845E-01
       -1   -1    0    0    0  501  0.00000000000E+00  0.00000000000E+00  0.22415503105E+04  0.22415503105E+04  0.50400001928E-02 0. -1.
        1   -1    0    0  501    0  0.00000000000E+00  0.00000000000E+00 -0.18098954193E+04  0.18098954193E+04  0.50400001928E-02 0.  1.
    10030    2    1    2    0    0  0.00000000000E+00  0.00000000000E+00  0.43165489125E+03  0.40514457298E+04  0.40283851053E+04 0.  0.
        2    1    3    3  502    0 -0.11711852771E+04  0.15896658214E+04 -0.18426800443E+03  0.19830953266E+04  0.25500000920E-02 0.  1.
       -2    1    3    3    0  502  0.11711852771E+04 -0.15896658214E+04  0.61592289568E+03  0.20683504032E+04  0.25500000920E-02 0. -1.
</event>
<event>
 5   0  0.8528625E-08  0.4006505E+04  0.7818609E-02  0.8003236E-01
        1   -1    0    0  501    0  0.00000000000E+00  0.00000000000E+00  0.28458801230E+04  0.28458801231E+04  0.50400001928E-02 0.  1.
       -1   -1    0    0    0  501  0.00000000000E+00  0.00000000000E+00 -0.14101156809E+04  0.14101156809E+04  0.50400001928E-02 0. -1.
    10030    2    1    2    0    0  0.00000000000E+00  0.00000000000E+00  0.14357644422E+04  0.42559958039E+04  0.40065048046E+04 0.  0.
        2    1    3    3  502    0  0.25726293856E+03  0.13086577342E+04  0.23057030483E+04  0.26636508465E+04  0.25500000920E-02 0.  1.
       -2    1    3    3    0  502 -0.25726293856E+03 -0.13086577342E+04 -0.86993860614E+03  0.15923449574E+04  0.25500000920E-02 0. -1.
</event>
<event>
 5   0  0.8528625E-08  0.4088358E+04  0.7818609E-02  0.7986955E-01
        1   -1    0    0  501    0  0.00000000000E+00  0.00000000000E+00  0.18685006857E+04  0.18685006857E+04  0.50400001928E-02 0.  1.
       -1   -1    0    0    0  501  0.00000000000E+00  0.00000000000E+00 -0.22363743994E+04  0.22363743994E+04  0.50400001928E-02 0. -1.
    10030    2    1    2    0    0  0.00000000000E+00  0.00000000000E+00 -0.36787371374E+03  0.41048750851E+04  0.40883576648E+04 0.  0.
        3    1    3    3  502    0 -0.20425553917E+04 -0.40428674904E+02 -0.25493380237E+03  0.20588001990E+04  0.10100000352E+00 0.  1.
       -3    1    3    3    0  502  0.20425553917E+04  0.40428674904E+02 -0.11293991138E+03  0.20460748861E+04  0.10100000352E+00 0. -1.
</event>
<event>
 5   0  0.2839279E-07  0.3999398E+04  0.7818609E-02  0.8004668E-01
       -2   -1    0    0    0  501  0.00000000000E+00  0.00000000000E+00  0.15941428228E+04  0.15941428228E+04  0.25500000920E-02 0. -1.
        2   -1    0    0  501    0  0.00000000000E+00  0.00000000000E+00 -0.25084306055E+04  0.25084306055E+04  0.25500000920E-02 0.  1.
    10030    2    1    2    0    0  0.00000000000E+00  0.00000000000E+00 -0.91428778273E+03  0.41025734283E+04  0.39993982779E+04 0.  0.
        3    1    3    3  502    0  0.17917891388E+04  0.85043251245E+03 -0.19550945540E+03  0.19929796119E+04  0.10100000352E+00 0.  1.
       -3    1    3    3    0  502 -0.17917891388E+04 -0.85043251245E+03 -0.71877832733E+03  0.21095938164E+04  0.10100000352E+00 0. -1.
</event>
<event>
 5   0  0.8528625E-08  0.4073593E+04  0.7818609E-02  0.7989863E-01
       -1   -1    0    0    0  501  0.00000000000E+00  0.00000000000E+00  0.16252166432E+04  0.16252166432E+04  0.50400001928E-02 0. -1.
        1   -1    0    0  501    0  0.00000000000E+00  0.00000000000E+00 -0.25526068568E+04  0.25526068568E+04  0.50400001928E-02 0.  1.
    10030    2    1    2    0    0  0.00000000000E+00  0.00000000000E+00 -0.92739021359E+03  0.41778235000E+04  0.40735925899E+04 0.  0.
        5    1    3    3  502    0 -0.34090209225E+02 -0.16602517459E+04  0.74585377661E+03  0.18204169710E+04  0.46999998093E+01 0. -1.
       -5    1    3    3    0  502  0.34090209225E+02  0.16602517459E+04 -0.16732439902E+04  0.23574065290E+04  0.46999998093E+01 0.  1.
</event>
<event>
 5   0  0.8528625E-08  0.3220482E+04  0.7818609E-02  0.8183429E-01
       -1   -1    0    0    0  501  0.00000000000E+00  0.00000000000E+00  0.20824066218E+04  0.20824066218E+04  0.50400001928E-02 0. -1.
        1   -1    0    0  501    0  0.00000000000E+00  0.00000000000E+00 -0.12451346758E+04  0.12451346758E+04  0.50400001928E-02 0.  1.
    10030    2    1    2    0    0  0.00000000000E+00  0.00000000000E+00  0.83727194600E+03  0.33275412976E+04  0.32204823825E+04 0.  0.
        4    1    3    3  502    0  0.95809262993E+03  0.65726170827E+03 -0.73329835509E+03  0.13739223163E+04  0.12699999809E+01 0.  1.
       -4    1    3    3    0  502 -0.95809262993E+03 -0.65726170827E+03  0.15705703011E+04  0.19536189813E+04  0.12699999809E+01 0. -1.
</event>
<event>
 5   0  0.2839279E-07  0.4002932E+04  0.7818609E-02  0.8003955E-01
       -2   -1    0    0    0  501  0.00000000000E+00  0.00000000000E+00  0.16817183402E+04  0.16817183402E+04  0.25500000920E-02 0. -1.
        2   -1    0    0  501    0  0.00000000000E+00  0.00000000000E+00 -0.23820080349E+04  0.23820080349E+04  0.25500000920E-02 0.  1.
    10030    2    1    2    0    0  0.00000000000E+00  0.00000000000E+00 -0.70028969469E+03  0.40637263751E+04  0.40029322247E+04 0.  0.
        3    1    3    3  502    0  0.17827194916E+04  0.89204357273E+03 -0.53184940479E+03  0.20631757852E+04  0.10100000352E+00 0. -1.
       -3    1    3    3    0  502 -0.17827194916E+04 -0.89204357273E+03 -0.16844028990E+03  0.20005505899E+04  0.10100000352E+00 0.  1.
</event>
<event>
 5   0  0.2704088E-07  0.4006580E+04  0.7818609E-02  0.8003220E-01
       -2   -1    0    0    0  501  0.00000000000E+00  0.00000000000E+00  0.28240808634E+04  0.28240808634E+04  0.25500000920E-02 0. -1.
        2   -1    0    0  501    0  0.00000000000E+00  0.00000000000E+00 -0.14210540569E+04  0.14210540569E+04  0.25500000920E-02 0.  1.
    10030    2    1    2    0    0  0.00000000000E+00  0.00000000000E+00  0.14030268064E+04  0.42451349203E+04  0.40065803713E+04 0.  0.
        5    1    3    3  502    0 -0.83414287055E+03 -0.16637115711E+04 -0.83847828155E+02  0.18630037758E+04  0.46999998093E+01 0.  1.
       -5    1    3    3    0  502  0.83414287055E+03  0.16637115711E+04  0.14868746346E+04  0.23821311445E+04  0.46999998093E+01 0. -1.
</event>
<event>
 5   0  0.2704088E-07  0.3776757E+04  0.7818609E-02  0.8051161E-01
       -2   -1    0    0    0  501  0.00000000000E+00  0.00000000000E+00  0.14278001891E+04  0.14278001891E+04  0.25500000920E-02 0.  1.
        2   -1    0    0  501    0  0.00000000000E+00  0.00000000000E+00 -0.24975303429E+04  0.24975303429E+04  0.25500000920E-02 0. -1.
    10030    2    1    2    0    0  0.00000000000E+00  0.00000000000E+00 -0.10697301537E+04  0.39253305320E+04  0.37767574960E+04 0.  0.
        5    1    3    3  502    0  0.78395198871E+03  0.12546340188E+04  0.68487103641E+03  0.16302630672E+04  0.46999998093E+01 0.  1.
       -5    1    3    3    0  502 -0.78395198871E+03 -0.12546340188E+04 -0.17546011901E+04  0.22950674648E+04  0.46999998093E+01 0. -1.
</event>
<event>
 5   0  0.2704088E-07  0.4010818E+04  0.7818609E-02  0.8002368E-01
        2   -1    0    0  501    0  0.00000000000E+00  0.00000000000E+00  0.19595101165E+04  0.19595101165E+04  0.25500000920E-02 0.  1.
       -2   -1    0    0    0  501  0.00000000000E+00  0.00000000000E+00 -0.20523825237E+04  0.20523825237E+04  0.25500000920E-02 0. -1.
    10030    2    1    2    0    0  0.00000000000E+00  0.00000000000E+00 -0.92872407200E+02  0.40118926402E+04  0.40108175317E+04 0.  0.
        5    1    3    3  502    0 -0.16016441462E+03  0.14321170602E+04  0.13485810699E+04  0.19736526812E+04  0.46999998093E+01 0.  1.
       -5    1    3    3    0  502  0.16016441462E+03 -0.14321170602E+04 -0.14414534771E+04  0.20382399590E+04  0.46999998093E+01 0. -1.
</event>
<event>
 5   0  0.2730801E-07  0.4119677E+04  0.7818609E-02  0.7980830E-01
       -2   -1    0    0    0  501  0.00000000000E+00  0.00000000000E+00  0.28638691427E+04  0.28638691427E+04  0.25500000920E-02 0. -1.
        2   -1    0    0  501    0  0.00000000000E+00  0.00000000000E+00 -0.14815394953E+04  0.14815394953E+04  0.25500000920E-02 0.  1.
    10030    2    1    2    0    0  0.00000000000E+00  0.00000000000E+00  0.13823296474E+04  0.43454086380E+04  0.41196772904E+04 0.  0.
        2    1    3    3  502    0 -0.62647726061E+03 -0.11212611269E+04  0.23897540327E+04  0.27130471079E+04  0.25500000920E-02 0. -1.
       -2    1    3    3    0  502  0.62647726061E+03  0.11212611269E+04 -0.10074243853E+04  0.16323615301E+04  0.25500000920E-02 0.  1.
</event>
<event>
 5   0  0.2666978E-07  0.3968550E+04  0.7818609E-02  0.8010921E-01
        2   -1    0    0  501    0  0.00000000000E+00  0.00000000000E+00  0.17008024830E+04  0.17008024830E+04  0.25500000920E-02 0.  1.
       -2   -1    0    0    0  501  0.00000000000E+00  0.00000000000E+00 -0.23149938289E+04  0.23149938289E+04  0.25500000920E-02 0. -1.
    10030    2    1    2    0    0  0.00000000000E+00  0.00000000000E+00 -0.61419134592E+03  0.40157963119E+04  0.39685499882E+04 0.  0.
        4    1    3    3  502    0 -0.13413523129E+04 -0.85337250339E+03 -0.15086132364E+04  0.21916628771E+04  0.12699999809E+01 0. -1.
       -4    1    3    3    0  502  0.13413523129E+04  0.85337250339E+03  0.89442189051E+03  0.18241334348E+04  0.12699999809E+01 0.  1.
</event>
<event>
 5   0  0.2839279E-07  0.3088187E+04  0.7818609E-02  0.8218987E-01
        2   -1    0    0  501    0  0.00000000000E+00  0.00000000000E+00  0.25395907144E+04  0.25395907144E+04  0.25500000920E-02 0. -1.
       -2   -1    0    0    0  501  0.00000000000E+00  0.00000000000E+00 -0.93882266717E+03  0.93882266717E+03  0.25500000920E-02 0.  1.
    10030    2    1    2    0    0  0.00000000000E+00  0.00000000000E+00  0.16007680472E+04  0.34784133816E+04  0.30881873829E+04 0.  0.
        3    1    3    3  502    0 -0.11260892767E+04 -0.27851361657E+02 -0.38917919387E+03  0.11917689426E+04  0.10100000352E+00 0.  1.
       -3    1    3    3    0  502  0.11260892767E+04  0.27851361657E+02  0.19899472411E+04  0.22866444389E+04  0.10100000352E+00 0. -1.
</event>
<event>
 5   0  0.2704088E-07  0.3997902E+04  0.7818609E-02  0.8004970E-01
        2   -1    0    0  501    0  0.00000000000E+00  0.00000000000E+00  0.15866375651E+04  0.15866375651E+04  0.25500000920E-02 0. -1.
       -2   -1    0    0    0  501  0.00000000000E+00  0.00000000000E+00 -0.25184106698E+04  0.25184106698E+04  0.25500000920E-02 0.  1.
    10030    2    1    2    0    0  0.00000000000E+00  0.00000000000E+00 -0.93177310467E+03  0.41050482349E+04  0.39979019363E+04 0.  0.
        5    1    3    3  502    0 -0.14261346338E+04 -0.11273521166E+04 -0.13194291115E+04  0.22462631322E+04  0.46999998093E+01 0.  1.
       -5    1    3    3    0  502  0.14261346338E+04  0.11273521166E+04  0.38765600678E+03  0.18587851028E+04  0.46999998093E+01 0. -1.
</event>
<event>
 5   0  0.2666978E-07  0.3959831E+04  0.7818609E-02  0.8012699E-01
       -2   -1    0    0    0  501  0.00000000000E+00  0.00000000000E+00  0.17325002708E+04  0.17325002708E+04  0.25500000920E-02 0.  1.
        2   -1    0    0  501    0  0.00000000000E+00  0.00000000000E+00 -0.22626639451E+04  0.22626639451E+04  0.25500000920E-02 0. -1.
    10030    2    1    2    0    0  0.00000000000E+00  0.00000000000E+00 -0.53016367423E+03  0.39951642159E+04  0.39598312578E+04 0.  0.
        4    1    3    3  502    0  0.10606698907E+04  0.15761217363E+04  0.29746294308E+03  0.19229316577E+04  0.12699999809E+01 0.  1.
       -4    1    3    3    0  502 -0.10606698907E+04 -0.15761217363E+04 -0.82762661731E+03  0.20722325582E+04  0.12699999809E+01 0. -1.
</event>
<event>
 5   0  0.2661693E-07  0.3369423E+04  0.7818609E-02  0.8145452E-01
        2   -1    0    0  501    0  0.00000000000E+00  0.00000000000E+00  0.97381030059E+03  0.97381030060E+03  0.25500000920E-02 0. -1.
       -2   -1    0    0    0  501  0.00000000000E+00  0.00000000000E+00 -0.29145840918E+04  0.29145840918E+04  0.25500000920E-02 0.  1.
    10030    2    1    2    0    0  0.00000000000E+00  0.00000000000E+00 -0.19407737912E+04  0.38883943924E+04  0.33694225087E+04 0.  0.
        1    1    3    3  502    0 -0.10260275623E+04 -0.13135194819E+04 -0.68727204051E+03  0.18028890275E+04  0.50400001928E-02 0.  1.
       -1    1    3    3    0  502  0.10260275623E+04  0.13135194819E+04 -0.12535017507E+04  0.20855053648E+04  0.50400001928E-02 0. -1.
</event>
<event>
 5   0  0.8528625E-08  0.3176296E+04  0.7818609E-02  0.8195106E-01
        1   -1    0    0  501    0  0.00000000000E+00  0.00000000000E+00  0.18755735023E+04  0.18755735023E+04  0.50400001928E-02 0.  1.
       -1   -1    0    0    0  501  0.00000000000E+00  0.00000000000E+00 -0.13447695323E+04  0.13447695323E+04  0.50400001928E-02 0. -1.
    10030    2    1    2    0    0  0.00000000000E+00  0.00000000000E+00  0.53080397002E+03  0.32203430346E+04  0.31762960198E+04 0.  0.
        2    1    3    3  502    0  0.31382703217E+03 -0.88506618498E+03  0.15639380007E+04  0.18242071231E+04  0.25500000920E-02 0.  1.
       -2    1    3    3    0  502 -0.31382703217E+03  0.88506618498E+03 -0.10331340307E+04  0.13961359115E+04  0.25500000920E-02 0. -1.
</event>
<event>
 5   0  0.2839279E-07  0.4005286E+04  0.7818609E-02  0.8003481E-01
       -2   -1    0    0    0  501  0.00000000000E+00  0.00000000000E+00  0.16770137283E+04  0.16770137283E+04  0.25500000920E-02 0. -1.
        2   -1    0    0  501    0  0.00000000000E+00  0.00000000000E+00 -0.23915005643E+04  0.23915005643E+04  0.25500000920E-02 0.  1.
    10030    2    1    2    0    0  0.00000000000E+00  0.00000000000E+00 -0.71448683594E+03  0.40685142926E+04  0.40052861458E+04 0.  0.
        3    1    3    3  502    0  0.14079668179E+04 -0.12543277210E+04  0.32784443520E+03  0.19139463357E+04  0.10100000352E+00 0. -1.
       -3    1    3    3    0  502 -0.14079668179E+04  0.12543277210E+04 -0.10423312711E+04  0.21545679569E+04  0.10100000352E+00 0.  1.
</event>
<event>
 5   0  0.8528625E-08  0.3327255E+04  0.7818609E-02  0.8155995E-01
       -1   -1    0    0    0  501  0.00000000000E+00  0.00000000000E+00  0.13088225954E+04  0.13088225954E+04  0.50400001928E-02 0.  1.
        1   -1    0    0  501    0  0.00000000000E+00  0.00000000000E+00 -0.21146150479E+04  0.21146150479E+04  0.50400001928E-02 0. -1.
    10030    2    1    2    0    0  0.00000000000E+00  0.00000000000E+00 -0.80579245253E+03  0.34234376433E+04  0.33272546974E+04 0.  0.
        4    1    3    3  502    0 -0.68244595247E+03 -0.65060143174E+03  0.10073602929E+04  0.13797793568E+04  0.12699999809E+01 0.  1.
       -4    1    3    3    0  502  0.68244595247E+03  0.65060143174E+03 -0.18131527454E+04  0.20436582865E+04  0.12699999809E+01 0. -1.
</event>
<event>
 5   0  0.8583262E-08  0.3947977E+04  0.7818609E-02  0.8015124E-01
       -1   -1    0    0    0  501  0.00000000000E+00  0.00000000000E+00  0.22258342424E+04  0.22258342424E+04  0.50400001928E-02 0.  1.
        1   -1    0    0  501    0  0.00000000000E+00  0.00000000000E+00 -0.17506378329E+04  0.17506378329E+04  0.50400001928E-02 0. -1.
    10030    2    1    2    0    0  0.00000000000E+00  0.00000000000E+00  0.47519640954E+03  0.39764720753E+04  0.39479765118E+04 0.  0.
        1    1    3    3  502    0 -0.97476616496E+02 -0.77821583021E+03  0.20621664611E+04  0.22062756134E+04  0.50400001928E-02 0.  1.
       -1    1    3    3    0  502  0.97476616496E+02  0.77821583021E+03 -0.15869700515E+04  0.17701964619E+04  0.50400001928E-02 0. -1.
</event>
<event>
 5   0  0.8528625E-08  0.2928438E+04  0.7818609E-02  0.8264466E-01
       -3   -1    0    0    0  501  0.00000000000E+00  0.00000000000E+00  0.12603249594E+04  0.12603249635E+04  0.10100000352E+00 0.  1.
        3   -1    0    0  501    0  0.00000000000E+00  0.00000000000E+00 -0.17010989188E+04  0.17010989218E+04  0.10100000352E+00 0. -1.
    10030    2    1    2    0    0  0.00000000000E+00  0.00000000000E+00 -0.44077395937E+03  0.29614238853E+04  0.29284381068E+04 0.  0.
        2    1    3    3  502    0 -0.68734365079E+03  0.11991998712E+04 -0.70896020199E+03  0.15534304598E+04  0.25500000920E-02 0. -1.
       -2    1    3    3    0  502  0.68734365079E+03 -0.11991998712E+04  0.26818624262E+03  0.14079934255E+04  0.25500000920E-02 0.  1.
</event>
<event>
 5   0  0.2666978E-07  0.3897197E+04  0.7818609E-02  0.8025612E-01
        2   -1    0    0  501    0  0.00000000000E+00  0.00000000000E+00  0.20238088591E+04  0.20238088591E+04  0.25500000920E-02 0. -1.
       -2   -1    0    0    0  501  0.00000000000E+00  0.00000000000E+00 -0.18761836452E+04  0.18761836452E+04  0.25500000920E-02 0.  1.
    10030    2    1    2    0    0  0.00000000000E+00  0.00000000000E+00  0.14762521391E+03  0.38999925042E+04  0.38971974968E+04 0.  0.
        4    1    3    3  502    0  0.12936655580E+04 -0.13604031111E+04 -0.44883417557E+03  0.19302126646E+04  0.12699999809E+01 0.  1.
       -4    1    3    3    0  502 -0.12936655580E+04  0.13604031111E+04  0.59645938948E+03  0.19697798396E+04  0.12699999809E+01 0. -1.
</event>
<event>
 5   0  0.8528625E-08  0.3779105E+04  0.7818609E-02  0.8050654E-01
       -1   -1    0    0    0  501  0.00000000000E+00  0.00000000000E+00  0.23370211316E+04  0.23370211316E+04  0.50400001928E-02 0.  1.
        1   -1    0    0  501    0  0.00000000000E+00  0.00000000000E+00 -0.15277603602E+04  0.15277603602E+04  0.50400001928E-02 0. -1.
    10030    2    1    2    0    0  0.00000000000E+00  0.00000000000E+00  0.80926077142E+03  0.38647814918E+04  0.37791047860E+04 0.  0.
        2    1    3    3  502    0  0.15026210700E+04 -0.83015158160E+03 -0.40281789314E+03  0.17633161893E+04  0.25500000920E-02 0. -1.
       -2    1    3    3    0  502 -0.15026210700E+04  0.83015158160E+03  0.12120786646E+04  0.21014653025E+04  0.25500000920E-02 0.  1.
</event>
<event>
 5   0  0.2730801E-07  0.3946859E+04  0.7818609E-02  0.8015353E-01
       -2   -1    0    0    0  501  0.00000000000E+00  0.00000000000E+00  0.21027916549E+04  0.21027916549E+04  0.25500000920E-02 0.  1.
        2   -1    0    0  501    0  0.00000000000E+00  0.00000000000E+00 -0.18520252435E+04  0.18520252435E+04  0.25500000920E-02 0. -1.
    10030    2    1    2    0    0  0.00000000000E+00  0.00000000000E+00  0.25076641144E+03  0.39548168984E+04  0.39468586125E+04 0.  0.
        2    1    3    3  502    0  0.10777224581E+04  0.46666674432E+03  0.17145064980E+04  0.20781713304E+04  0.25500000920E-02 0.  1.
       -2    1    3    3    0  502 -0.10777224581E+04 -0.46666674432E+03 -0.14637400866E+04  0.18766455680E+04  0.25500000920E-02 0. -1.
</event>
<event>
 5   0  0.2661693E-07  0.3975587E+04  0.7818609E-02  0.8009490E-01
        2   -1    0    0  501    0  0.00000000000E+00  0.00000000000E+00  0.23877079556E+04  0.23877079556E+04  0.25500000920E-02 0.  1.
       -2   -1    0    0    0  501  0.00000000000E+00  0.00000000000E+00 -0.16548602378E+04  0.16548602378E+04  0.25500000920E-02 0. -1.
    10030    2    1    2    0    0  0.00000000000E+00  0.00000000000E+00  0.73284771781E+03  0.40425681935E+04  0.39755869782E+04 0.  0.
        1    1    3    3  502    0  0.11730303713E+03 -0.66087014296E+03  0.22689936179E+04  0.23661870988E+04  0.50400001928E-02 0.  1.
       -1    1    3    3    0  502 -0.11730303713E+03  0.66087014296E+03 -0.15361459001E+04  0.16763810947E+04  0.50400001928E-02 0. -1.
</event>
<event>
 5   0  0.2704088E-07  0.3498662E+04  0.7818609E-02  0.8114107E-01
        2   -1    0    0  501    0  0.00000000000E+00  0.00000000000E+00  0.20829757848E+04  0.20829757848E+04  0.25500000920E-02 0. -1.
       -2   -1    0    0    0  501  0.00000000000E+00  0.00000000000E+00 -0.14691284413E+04  0.14691284413E+04  0.25500000920E-02 0.  1.
    10030    2    1    2    0    0  0.00000000000E+00  0.00000000000E+00  0.61384734354E+03  0.35521042261E+04  0.34986620117E+04 0.  0.
        5    1    3    3  502    0  0.11319589490E+04  0.63883991221E+03  0.14955715932E+04  0.19814651085E+04  0.46999998093E+01 0. -1.
       -5    1    3    3    0  502 -0.11319589490E+04 -0.63883991221E+03 -0.88172424967E+03  0.15706391177E+04  0.46999998093E+01 0.  1.
</event>
<event>
 5   0  0.8528625E-08  0.4022808E+04  0.7818609E-02  0.7999961E-01
        1   -1    0    0  501    0  0.00000000000E+00  0.00000000000E+00  0.21572740909E+04  0.21572740909E+04  0.50400001928E-02 0. -1.
       -1   -1    0    0    0  501  0.00000000000E+00  0.00000000000E+00 -0.18753977561E+04  0.18753977561E+04  0.50400001928E-02 0.  1.
    10030    2    1    2    0    0  0.00000000000E+00  0.00000000000E+00  0.28187633478E+03  0.40326718469E+04  0.40228084664E+04 0.  0.
        2    1    3    3  502    0 -0.52317853131E+03 -0.11445805713E+03 -0.18026116621E+04  0.18804853700E+04  0.25500000920E-02 0.  1.
       -2    1    3    3    0  502  0.52317853131E+03  0.11445805713E+03  0.20844879969E+04  0.21521864769E+04  0.25500000920E-02 0. -1.
</event>
<event>
 5   0  0.8528625E-08  0.3944449E+04  0.7818609E-02  0.8015848E-01
        1   -1    0    0  501    0  0.00000000000E+00  0.00000000000E+00  0.21631414366E+04  0.21631414366E+04  0.50400001928E-02 0. -1.
       -1   -1    0    0    0  501  0.00000000000E+00  0.00000000000E+00 -0.17981580948E+04  0.17981580948E+04  0.50400001928E-02 0.  1.
    10030    2    1    2    0    0  0.00000000000E+00  0.00000000000E+00  0.36498334177E+03  0.39612995315E+04  0.39444494087E+04 0.  0.
        4    1    3    3  502    0  0.54437271371E+03  0.14112058152E+04  0.14535305900E+04  0.20977598274E+04  0.12699999809E+01 0. -1.
       -4    1    3    3    0  502 -0.54437271371E+03 -0.14112058152E+04 -0.10885472483E+04  0.18635397041E+04  0.12699999809E+01 0.  1.
</event>
<event>
 5   0  0.2666978E-07  0.4029807E+04  0.7818609E-02  0.7998560E-01
       -2   -1    0    0    0  501  0.00000000000E+00  0.00000000000E+00  0.16702067050E+04  0.16702067050E+04  0.25500000920E-02 0.  1.
        2   -1    0    0  501    0  0.00000000000E+00  0.00000000000E+00 -0.24307384974E+04  0.24307384974E+04  0.25500000920E-02 0. -1.
    10030    2    1    2    0    0  0.00000000000E+00  0.00000000000E+00 -0.76053179240E+03  0.41009452025E+04  0.40298068126E+04 0.  0.
        4    1    3    3  502    0  0.53862371430E+03 -0.14162338484E+04  0.97133685589E+03  0.17998140791E+04  0.12699999809E+01 0.  1.
       -4    1    3    3    0  502 -0.53862371430E+03  0.14162338484E+04 -0.17318686483E+04  0.23011311233E+04  0.12699999809E+01 0. -1.
</event>
<event>
 5   0  0.2839279E-07  0.3954599E+04  0.7818609E-02  0.8013768E-01
        2   -1    0    0  501    0  0.00000000000E+00  0.00000000000E+00  0.18263663902E+04  0.18263663902E+04  0.25500000920E-02 0. -1.
       -2   -1    0    0    0  501  0.00000000000E+00  0.00000000000E+00 -0.21407062157E+04  0.21407062157E+04  0.25500000920E-02 0.  1.
    10030    2    1    2    0    0  0.00000000000E+00  0.00000000000E+00 -0.31433982547E+03  0.39670726059E+04  0.39545992887E+04 0.  0.
        3    1    3    3  502    0 -0.43853156815E+03 -0.10899197962E+04 -0.17526198635E+04  0.21099553300E+04  0.10100000352E+00 0.  1.
       -3    1    3    3    0  502  0.43853156815E+03  0.10899197962E+04  0.14382800380E+04  0.18571172759E+04  0.10100000352E+00 0. -1.
</event>
<event>
 5   0  0.8583262E-08  0.4003690E+04  0.7818609E-02  0.8003802E-01
        1   -1    0    0  501    0  0.00000000000E+00  0.00000000000E+00  0.18832930385E+04  0.18832930386E+04  0.50400001928E-02 0. -1.
       -1   -1    0    0    0  501  0.00000000000E+00  0.00000000000E+00 -0.21278602234E+04  0.21278602234E+04  0.50400001928E-02 0.  1.
    10030    2    1    2    0    0  0.00000000000E+00  0.00000000000E+00 -0.24456718484E+03  0.40111532619E+04  0.40036904704E+04 0.  0.
        1    1    3    3  502    0 -0.48203676824E+03  0.15900774076E+03  0.18177507729E+04  0.18872892677E+04  0.50400001928E-02 0. -1.
       -1    1    3    3    0  502  0.48203676824E+03 -0.15900774076E+03 -0.20623179577E+04  0.21238639943E+04  0.50400001928E-02 0.  1.
</event>
<event>
 5   0  0.8528625E-08  0.4058884E+04  0.7818609E-02  0.7992772E-01
        1   -1    0    0  501    0  0.00000000000E+00  0.00000000000E+00  0.15807279907E+04  0.15807279907E+04  0.50400001928E-02 0. -1.
       -1   -1    0    0    0  501  0.00000000000E+00  0.00000000000E+00 -0.26055307320E+04  0.26055307321E+04  0.50400001928E-02 0.  1.
    10030    2    1    2    0    0  0.00000000000E+00  0.00000000000E+00 -0.10248027414E+04  0.41862587227E+04  0.40588842599E+04 0.  0.
        3    1    3    3  502    0 -0.32180621455E+03  0.59519774830E+03 -0.24857705164E+04  0.25762132423E+04  0.10100000352E+00 0.  1.
       -3    1    3    3    0  502  0.32180621455E+03 -0.59519774830E+03  0.14609677750E+04  0.16100454805E+04  0.10100000352E+00 0. -1.
</event>
<event>
 5   0  0.8528625E-08  0.3990904E+04  0.7818609E-02  0.8006384E-01
        1   -1    0    0  501    0  0.00000000000E+00  0.00000000000E+00  0.17399261696E+04  0.17399261696E+04  0.50400001928E-02 0. -1.
       -1   -1    0    0    0  501  0.00000000000E+00  0.00000000000E+00 -0.22885046544E+04  0.22885046544E+04  0.50400001928E-02 0.  1.
    10030    2    1    2    0    0  0.00000000000E+00  0.00000000000E+00 -0.54857848482E+03  0.40284308240E+04  0.39909042271E+04 0.  0.
        2    1    3    3  502    0 -0.52351256143E+03 -0.17634441748E+04  0.50630528275E+03  0.19079166122E+04  0.25500000920E-02 0. -1.
       -2    1    3    3    0  502  0.52351256143E+03  0.17634441748E+04 -0.10548837676E+04  0.21205142119E+04  0.25500000920E-02 0.  1.
</event>
<event>
 5   0  0.8528625E-08  0.3976496E+04  0.7818609E-02  0.8009305E-01
       -1   -1    0    0    0  501  0.00000000000E+00  0.00000000000E+00  0.16385557897E+04  0.16385557897E+04  0.50400001928E-02 0. -1.
        1   -1    0    0  501    0  0.00000000000E+00  0.00000000000E+00 -0.24125694721E+04  0.24125694721E+04  0.50400001928E-02 0.  1.
    10030    2    1    2    0    0  0.00000000000E+00  0.00000000000E+00 -0.77401368248E+03  0.40511252618E+04  0.39764957822E+04 0.  0.
        2    1    3    3  502    0  0.17117368257E+04  0.42911950766E+03 -0.13201352586E+04  0.22038474569E+04  0.25500000920E-02 0. -1.
       -2    1    3    3    0  502 -0.17117368257E+04 -0.42911950766E+03  0.54612157614E+03  0.18472778049E+04  0.25500000920E-02 0.  1.
</event>
<event>
 5   0  0.2704088E-07  0.4070944E+04  0.7818609E-02  0.7990386E-01
       -2   -1    0    0    0  501  0.00000000000E+00  0.00000000000E+00  0.19635061123E+04  0.19635061123E+04  0.25500000920E-02 0.  1.
        2   -1    0    0  501    0  0.00000000000E+00  0.00000000000E+00 -0.21100752511E+04  0.21100752511E+04  0.25500000920E-02 0. -1.
    10030    2    1    2    0    0  0.00000000000E+00  0.00000000000E+00 -0.14656913885E+03  0.40735813634E+04  0.40709437004E+04 0.  0.
        5    1    3    3  502    0 -0.19517846961E+04 -0.10458546320E+03  0.49516971900E+03  0.20163374618E+04  0.46999998093E+01 0.  1.
       -5    1    3    3    0  502  0.19517846961E+04  0.10458546320E+03 -0.64173885785E+03  0.20572439016E+04  0.46999998093E+01 0. -1.
</event>
<event>
 5   0  0.8528625E-08  0.4039051E+04  0.7818609E-02  0.7996715E-01
       -3   -1    0    0    0  501  0.00000000000E+00  0.00000000000E+00  0.16032071133E+04  0.16032071165E+04  0.10100000352E+00 0. -1.
        3   -1    0    0  501    0  0.00000000000E+00  0.00000000000E+00 -0.25439525196E+04  0.25439525216E+04  0.10100000352E+00 0.  1.
    10030    2    1    2    0    0  0.00000000000E+00  0.00000000000E+00 -0.94074540629E+03  0.41471596382E+04  0.40390507728E+04 0.  0.
        2    1    3    3  502    0  0.57422930424E+03  0.55750751356E+03  0.14334209902E+04  0.16417215527E+04  0.25500000920E-02 0. -1.
       -2    1    3    3    0  502 -0.57422930424E+03 -0.55750751356E+03 -0.23741663965E+04  0.25054380854E+04  0.25500000920E-02 0.  1.
</event>
<event>
 5   0  0.8528625E-08  0.3974987E+04  0.7818609E-02  0.8009612E-01
        1   -1    0    0  501    0  0.00000000000E+00  0.00000000000E+00  0.18400356608E+04  0.18400356608E+04  0.50400001928E-02 0.  1.
       -1   -1    0    0    0  501  0.00000000000E+00  0.00000000000E+00 -0.21467679910E+04  0.21467679910E+04  0.50400001928E-02 0. -1.
    10030    2    1    2    0    0  0.00000000000E+00  0.00000000000E+00 -0.30673233021E+03  0.39868036518E+04  0.39749866208E+04 0.  0.
        3    1    3    3  502    0 -0.81090169197E+03 -0.12762880870E+03 -0.19687966088E+04  0.21330754238E+04  0.10100000352E+00 0. -1.
       -3    1    3    3    0  502  0.81090169197E+03  0.12762880870E+03  0.16620642785E+04  0.18537282279E+04  0.10100000352E+00 0.  1.
</event>
<event>
 5   0  0.8528625E-08  0.3343049E+04  0.7818609E-02  0.8152027E-01
       -1   -1    0    0    0  501  0.00000000000E+00  0.00000000000E+00  0.17469727550E+04  0.17469727550E+04  0.50400001928E-02 0.  1.
        1   -1    0    0  501    0  0.00000000000E+00  0.00000000000E+00 -0.15993349370E+04  0.15993349370E+04  0.50400001928E-02 0. -1.
    10030    2    1    2    0    0  0.00000000000E+00  0.00000000000E+00  0.14763781807E+03  0.33463076920E+04  0.33430492435E+04 0.  0.
        5    1    3    3  502    0  0.10646740673E+04 -0.10502920282E+04  0.82109077068E+03  0.17061231953E+04  0.46999998093E+01 0.  1.
       -5    1    3    3    0  502 -0.10646740673E+04  0.10502920282E+04 -0.67345295261E+03  0.16401844967E+04  0.46999998093E+01 0. -1.
</event>
<event>
 5   0  0.8583262E-08  0.3646580E+04  0.7818609E-02  0.8079905E-01
       -1   -1    0    0    0  501  0.00000000000E+00  0.00000000000E+00  0.23149859814E+04  0.23149859814E+04  0.50400001928E-02 0. -1.
        1   -1    0    0  501    0  0.00000000000E+00  0.00000000000E+00 -0.14360285399E+04  0.14360285399E+04  0.50400001928E-02 0.  1.
    10030    2    1    2    0    0  0.00000000000E+00  0.00000000000E+00  0.87895744152E+03  0.37510145213E+04  0.36465797338E+04 0.  0.
        1    1    3    3  502    0 -0.26247472697E+03 -0.17965392077E+04  0.26753951200E+03  0.18352175614E+04  0.50400001928E-02 0.  1.
       -1    1    3    3    0  502  0.26247472697E+03  0.17965392077E+04  0.61141792952E+03  0.19157969599E+04  0.50400001928E-02 0. -1.
</event>
<event>
 5   0  0.2730801E-07  0.3281260E+04  0.7818609E-02  0.8167680E-01
        2   -1    0    0  501    0  0.00000000000E+00  0.00000000000E+00  0.22777108837E+04  0.22777108837E+04  0.25500000920E-02 0. -1.
       -2   -1    0    0    0  501  0.00000000000E+00  0.00000000000E+00 -0.11817422208E+04  0.11817422208E+04  0.25500000920E-02 0.  1.
    10030    2    1    2    0    0  0.00000000000E+00  0.00000000000E+00  0.10959686629E+04  0.34594531045E+04  0.32812601958E+04 0.  0.
        2    1    3    3  502    0  0.29373322044E+03  0.14987076852E+04 -0.83951727091E+02  0.15295266663E+04  0.25500000920E-02 0.  1.
       -2    1    3    3    0  502 -0.29373322044E+03 -0.14987076852E+04  0.11799203900E+04  0.19299264383E+04  0.25500000920E-02 0. -1.
</event>
<event>
 5   0  0.2661693E-07  0.3955861E+04  0.7818609E-02  0.8013510E-01
        2   -1    0    0  501    0  0.00000000000E+00  0.00000000000E+00  0.18082050345E+04  0.18082050345E+04  0.25500000920E-02 0.  1.
       -2   -1    0    0    0  501  0.00000000000E+00  0.00000000000E+00 -0.21635875673E+04  0.21635875673E+04  0.25500000920E-02 0. -1.
    10030    2    1    2    0    0  0.00000000000E+00  0.00000000000E+00 -0.35538253280E+03  0.39717926018E+04  0.39558614393E+04 0.  0.
        1    1    3    3  502    0 -0.10389482345E+04 -0.84750215280E+03  0.12823095358E+04  0.18552603803E+04  0.50400001928E-02 0.  1.
       -1    1    3    3    0  502  0.10389482345E+04  0.84750215280E+03 -0.16376920686E+04  0.21165322215E+04  0.50400001928E-02 0. -1.
</event>
<event>
 5   0  0.8528625E-08  0.4004162E+04  0.7818609E-02  0.8003707E-01
       -3   -1    0    0    0  501  0.00000000000E+00  0.00000000000E+00  0.19472365735E+04  0.19472365761E+04  0.10100000352E+00 0. -1.
        3   -1    0    0  501    0  0.00000000000E+00  0.00000000000E+00 -0.20584703026E+04  0.20584703051E+04  0.10100000352E+00 0.  1.
    10030    2    1    2    0    0  0.00000000000E+00  0.00000000000E+00 -0.11123372915E+03  0.40057068812E+04  0.40041621690E+04 0.  0.
        5    1    3    3  502    0 -0.41008309170E+03 -0.19594926038E+04 -0.78585959563E+02  0.20034912651E+04  0.46999998093E+01 0.  1.
       -5    1    3    3    0  502  0.41008309170E+03  0.19594926038E+04 -0.32647769591E+02  0.20022156161E+04  0.46999998093E+01 0. -1.
</event>
<event>
 5   0  0.8528625E-08  0.4033954E+04  0.7818609E-02  0.7997732E-01
       -1   -1    0    0    0  501  0.00000000000E+00  0.00000000000E+00  0.29561761408E+04  0.29561761408E+04  0.50400001928E-02 0.  1.
        1   -1    0    0  501    0  0.00000000000E+00  0.00000000000E+00 -0.13761681353E+04  0.13761681353E+04  0.50400001928E-02 0. -1.
    10030    2    1    2    0    0  0.00000000000E+00  0.00000000000E+00  0.15800080055E+04  0.43323442761E+04  0.40339535978E+04 0.  0.
        2    1    3    3  502    0  0.15169840813E+04  0.11416944907E+04  0.15211624384E+04  0.24328259652E+04  0.25500000920E-02 0.  1.
       -2    1    3    3    0  502 -0.15169840813E+04 -0.11416944907E+04  0.58845567166E+02  0.18995183110E+04  0.25500000920E-02 0. -1.
</event>
<event>
 5   0  0.8528625E-08  0.4043911E+04  0.7818609E-02  0.7995747E-01
       -1   -1    0    0    0  501  0.00000000000E+00  0.00000000000E+00  0.19930267410E+04  0.19930267410E+04  0.50400001928E-02 0. -1.
        1   -1    0    0  501    0  0.00000000000E+00  0.00000000000E+00 -0.20513037329E+04  0.20513037329E+04  0.50400001928E-02 0.  1.
    10030    2    1    2    0    0  0.00000000000E+00  0.00000000000E+00 -0.58276991879E+02  0.40443304739E+04  0.40439105794E+04 0.  0.
        3    1    3    3  502    0 -0.13796129822E+03 -0.10652341162E+04  0.16840910808E+04  0.19974783656E+04  0.10100000352E+00 0. -1.
       -3    1    3    3    0  502  0.13796129822E+03  0.10652341162E+04 -0.17423680727E+04  0.20468521083E+04  0.10100000352E+00 0.  1.
</event>
<event>
 5   0  0.2730801E-07  0.4168492E+04  0.7818609E-02  0.7971393E-01
       -2   -1    0    0    0  501  0.00000000000E+00  0.00000000000E+00  0.25431716825E+04  0.25431716825E+04  0.25500000920E-02 0. -1.
        2   -1    0    0  501    0  0.00000000000E+00  0.00000000000E+00 -0.17081350676E+04  0.17081350676E+04  0.25500000920E-02 0.  1.
    10030    2    1    2    0    0  0.00000000000E+00  0.00000000000E+00  0.83503661487E+03  0.42513067501E+04  0.41684916859E+04 0.  0.
        2    1    3    3  502    0  0.46195530828E+03 -0.16607302843E+04 -0.77736054969E+03  0.18909566913E+04  0.25500000920E-02 0.  1.
       -2    1    3    3    0  502 -0.46195530828E+03  0.16607302843E+04  0.16123971646E+04  0.23603500588E+04  0.25500000920E-02 0. -1.
</event>
<event>
 5   0  0.2661693E-07  0.4018430E+04  0.7818609E-02  0.8000839E-01
       -2   -1    0    0    0  501  0.00000000000E+00  0.00000000000E+00  0.32415614895E+04  0.32415614895E+04  0.25500000920E-02 0. -1.
        2   -1    0    0  501    0  0.00000000000E+00  0.00000000000E+00 -0.12453701805E+04  0.12453701805E+04  0.25500000920E-02 0.  1.
    10030    2    1    2    0    0  0.00000000000E+00  0.00000000000E+00  0.19961913090E+04  0.44869316701E+04  0.40184295527E+04 0.  0.
        1    1    3    3  502    0  0.50982499155E+03  0.94461144298E+03 -0.89837362286E+03  0.13997455006E+04  0.50400001928E-02 0.  1.
       -1    1    3    3    0  502 -0.50982499155E+03 -0.94461144298E+03  0.28945649318E+04  0.30871861694E+04  0.50400001928E-02 0. -1.
</event>
<event>
 5   0  0.8583262E-08  0.3954651E+04  0.7818609E-02  0.8013758E-01
       -1   -1    0    0    0  501  0.00000000000E+00  0.00000000000E+00  0.16112388248E+04  0.16112388248E+04  0.50400001928E-02 0.  1.
        1   -1    0    0  501    0  0.00000000000E+00  0.00000000000E+00 -0.24265901316E+04  0.24265901316E+04  0.50400001928E-02 0. -1.
    10030    2    1    2    0    0  0.00000000000E+00  0.00000000000E+00 -0.81535130678E+03  0.40378289564E+04  0.39546510501E+04 0.  0.
        1    1    3    3  502    0 -0.15624753006E+04 -0.25044674051E+02  0.82935954629E+03  0.17691222563E+04  0.50400001928E-02 0.  1.
       -1    1    3    3    0  502  0.15624753006E+04  0.25044674051E+02 -0.16447108531E+04  0.22687067001E+04  0.50400001928E-02 0. -1.
</event>
<event>
 5   0  0.2730801E-07  0.4005414E+04  0.7818609E-02  0.8003455E-01
        2   -1    0    0  501    0  0.00000000000E+00  0.00000000000E+00  0.17443520947E+04  0.17443520947E+04  0.25500000920E-02 0. -1.
       -2   -1    0    0    0  501  0.00000000000E+00  0.00000000000E+00 -0.22993261330E+04  0.22993261330E+04  0.25500000920E-02 0.  1.
    10030    2    1    2    0    0  0.00000000000E+00  0.00000000000E+00 -0.55497403833E+03  0.40436782277E+04  0.40054135150E+04 0.  0.
        2    1    3    3  502    0 -0.73550623458E+03 -0.12793798368E+04  0.10893497191E+04  0.18342478018E+04  0.25500000920E-02 0. -1.
       -2    1    3    3    0  502  0.73550623458E+03  0.12793798368E+04 -0.16443237574E+04  0.22094304259E+04  0.25500000920E-02 0.  1.
</event>
<event>
 5   0  0.8528625E-08  0.3995955E+04  0.7818609E-02  0.8005363E-01
        1   -1    0    0  501    0  0.00000000000E+00  0.00000000000E+00  0.22896961169E+04  0.22896961169E+04  0.50400001928E-02 0. -1.
       -1   -1    0    0    0  501  0.00000000000E+00  0.00000000000E+00 -0.17434249216E+04  0.17434249216E+04  0.50400001928E-02 0.  1.
    10030    2    1    2    0    0  0.00000000000E+00  0.00000000000E+00  0.54627119530E+03  0.40331210385E+04  0.39959545908E+04 0.  0.
        4    1    3    3  502    0  0.16961571786E+04 -0.10208732696E+04  0.84823082094E+00  0.19796802114E+04  0.12699999809E+01 0.  1.
       -4    1    3    3    0  502 -0.16961571786E+04  0.10208732696E+04  0.54542296448E+03  0.20534408270E+04  0.12699999809E+01 0. -1.
</event>
<event>
 5   0  0.8528625E-08  0.4049383E+04  0.7818609E-02  0.7994658E-01
       -1   -1    0    0    0  501  0.00000000000E+00  0.00000000000E+00  0.22753746034E+04  0.22753746034E+04  0.50400001928E-02 0. -1.
        1   -1    0    0  501    0  0.00000000000E+00  0.00000000000E+00 -0.18016263048E+04  0.18016263048E+04  0.50400001928E-02 0.  1.
    10030    2    1    2    0    0  0.00000000000E+00  0.00000000000E+00  0.47374829854E+03  0.40770009082E+04  0.40493825400E+04 0.  0.
        3    1    3    3  502    0  0.10100588746E+04  0.58156634765E+03 -0.14299948900E+04  0.18448099475E+04  0.10100000352E+00 0.  1.
       -3    1    3    3    0  502 -0.10100588746E+04 -0.58156634765E+03  0.19037431886E+04  0.22321909607E+04  0.10100000352E+00 0. -1.
</event>
<event>
 5   0  0.2704088E-07  0.4029410E+04  0.7818609E-02  0.7998640E-01
       -2   -1    0    0    0  501  0.00000000000E+00  0.00000000000E+00  0.22046726529E+04  0.22046726529E+04  0.25500000920E-02 0. -1.
        2   -1    0    0  501    0  0.00000000000E+00  0.00000000000E+00 -0.18411060250E+04  0.18411060250E+04  0.25500000920E-02 0.  1.
    10030    2    1    2    0    0  0.00000000000E+00  0.00000000000E+00  0.36356662795E+03  0.40457786779E+04  0.40294099342E+04 0.  0.
        5    1    3    3  502    0  0.77927326578E+03 -0.18362779904E+04 -0.10190708683E+03  0.19973960111E+04  0.46999998093E+01 0.  1.
       -5    1    3    3    0  502 -0.77927326578E+03  0.18362779904E+04  0.46547371478E+03  0.20483826669E+04  0.46999998093E+01 0. -1.
</event>
<event>
 5   0  0.2730801E-07  0.3993198E+04  0.7818609E-02  0.8005920E-01
       -2   -1    0    0    0  501  0.00000000000E+00  0.00000000000E+00  0.20022105398E+04  0.20022105398E+04  0.25500000920E-02 0.  1.
        2   -1    0    0  501    0  0.00000000000E+00  0.00000000000E+00 -0.19910033319E+04  0.19910033319E+04  0.25500000920E-02 0. -1.
    10030    2    1    2    0    0  0.00000000000E+00  0.00000000000E+00  0.11207207970E+02  0.39932138717E+04  0.39931981448E+04 0.  0.
        2    1    3    3  502    0 -0.35929253453E+03 -0.19232160935E+04 -0.39258961200E+03  0.19954893813E+04  0.25500000920E-02 0. -1.
       -2    1    3    3    0  502  0.35929253453E+03  0.19232160935E+04  0.40379681997E+03  0.19977244904E+04  0.25500000920E-02 0.  1.
</event>
<event>
 5   0  0.8528625E-08  0.4069570E+04  0.7818609E-02  0.7990657E-01
       -3   -1    0    0    0  501  0.00000000000E+00  0.00000000000E+00  0.17662461185E+04  0.17662461214E+04  0.10100000352E+00 0.  1.
        3   -1    0    0  501    0  0.00000000000E+00  0.00000000000E+00 -0.23441517792E+04  0.23441517814E+04  0.10100000352E+00 0. -1.
    10030    2    1    2    0    0  0.00000000000E+00  0.00000000000E+00 -0.57790566071E+03  0.41103979028E+04  0.40695695063E+04 0.  0.
        1    1    3    3  502    0 -0.31714178131E+03  0.20026842917E+04 -0.11687424722E+03  0.20310053843E+04  0.50400001928E-02 0.  1.
       -1    1    3    3    0  502  0.31714178131E+03 -0.20026842917E+04 -0.46103141349E+03  0.20793925184E+04  0.50400001928E-02 0. -1.
</event>
<event>
 5   0  0.8528625E-08  0.3940036E+04  0.7818609E-02  0.8016754E-01
       -1   -1    0    0    0  501  0.00000000000E+00  0.00000000000E+00  0.15481459166E+04  0.15481459166E+04  0.50400001928E-02 0. -1.
        1   -1    0    0  501    0  0.00000000000E+00  0.00000000000E+00 -0.25068503523E+04  0.25068503523E+04  0.50400001928E-02 0.  1.
    10030    2    1    2    0    0  0.00000000000E+00  0.00000000000E+00 -0.95870443573E+03  0.40549962689E+04  0.39400356021E+04 0.  0.
        2    1    3    3  502    0  0.23082660930E+03  0.16091241826E+04 -0.16246602028E+04  0.22982781235E+04  0.25500000920E-02 0.  1.
       -2    1    3    3    0  502 -0.23082660930E+03 -0.16091241826E+04  0.66595576704E+03  0.17567181454E+04  0.25500000920E-02 0. -1.
</event>
<event>
 5   0  0.8583262E-08  0.4049757E+04  0.7818609E-02  0.7994584E-01
       -1   -1    0    0    0  501  0.00000000000E+00  0.00000000000E+00  0.19540235053E+04  0.19540235053E+04  0.50400001928E-02 0.  1.
        1   -1    0    0  501    0  0.00000000000E+00  0.00000000000E+00 -0.20983023542E+04  0.20983023542E+04  0.50400001928E-02 0. -1.
    10030    2    1    2    0    0  0.00000000000E+00  0.00000000000E+00 -0.14427884899E+03  0.40523258595E+04  0.40497565958E+04 0.  0.
        1    1    3    3  502    0  0.12828006910E+04 -0.14926920259E+04 -0.54828269537E+03  0.20431155159E+04  0.50400001928E-02 0. -1.
       -1    1    3    3    0  502 -0.12828006910E+04  0.14926920259E+04  0.40400384639E+03  0.20092103436E+04  0.50400001928E-02 0.  1.
</event>
<event>
 5   0  0.2730801E-07  0.3970931E+04  0.7818609E-02  0.8010437E-01
        2   -1    0    0  501    0  0.00000000000E+00  0.00000000000E+00  0.20907571602E+04  0.20907571602E+04  0.25500000920E-02 0.  1.
       -2   -1    0    0    0  501  0.00000000000E+00  0.00000000000E+00 -0.18854759321E+04  0.18854759321E+04  0.25500000920E-02 0. -1.
    10030    2    1    2    0    0  0.00000000000E+00  0.00000000000E+00  0.20528122812E+03  0.39762330923E+04  0.39709305234E+04 0.  0.
        2    1    3    3  502    0 -0.14249771510E+04  0.32837628140E+03  0.14474460791E+04  0.20575448998E+04  0.25500000920E-02 0.  1.
       -2    1    3    3    0  502  0.14249771510E+04 -0.32837628140E+03 -0.12421648510E+04  0.19186881925E+04  0.25500000920E-02 0. -1.
</event>
<event>
 5   0  0.8583262E-08  0.4050783E+04  0.7818609E-02  0.7994380E-01
        1   -1    0    0  501    0  0.00000000000E+00  0.00000000000E+00  0.29744361171E+04  0.29744361171E+04  0.50400001928E-02 0. -1.
       -1   -1    0    0    0  501  0.00000000000E+00  0.00000000000E+00 -0.13791558907E+04  0.13791558907E+04  0.50400001928E-02 0.  1.
    10030    2    1    2    0    0  0.00000000000E+00  0.00000000000E+00  0.15952802264E+04  0.43535920078E+04  0.40507831798E+04 0.  0.
        1    1    3    3  502    0 -0.15251363913E+04  0.13303877910E+04  0.88252796603E+03  0.22079013332E+04  0.50400001928E-02 0.  1.
       -1    1    3    3    0  502  0.15251363913E+04 -0.13303877910E+04  0.71275226034E+03  0.21456906746E+04  0.50400001928E-02 0. -1.
</event>
<event>
 5   0  0.2704088E-07  0.4049479E+04  0.7818609E-02  0.7994639E-01
        2   -1    0    0  501    0  0.00000000000E+00  0.00000000000E+00  0.28521702619E+04  0.28521702619E+04  0.25500000920E-02 0.  1.
       -2   -1    0    0    0  501  0.00000000000E+00  0.00000000000E+00 -0.14373508173E+04  0.14373508173E+04  0.25500000920E-02 0. -1.
    10030    2    1    2    0    0  0.00000000000E+00  0.00000000000E+00  0.14148194446E+04  0.42895210792E+04  0.40494786119E+04 0.  0.
        5    1    3    3  502    0 -0.10540338607E+04  0.16919591532E+04  0.33165130549E+03  0.20208235535E+04  0.46999998093E+01 0.  1.
       -5    1    3    3    0  502  0.10540338607E+04 -0.16919591532E+04  0.10831681391E+04  0.22686975257E+04  0.46999998093E+01 0. -1.
</event>
<event>
 5   0  0.8528625E-08  0.3079455E+04  0.7818609E-02  0.8221399E-01
       -1   -1    0    0    0  501  0.00000000000E+00  0.00000000000E+00  0.12059940919E+04  0.12059940919E+04  0.50400001928E-02 0. -1.
        1   -1    0    0  501    0  0.00000000000E+00  0.00000000000E+00 -0.19658143212E+04  0.19658143212E+04  0.50400001928E-02 0.  1.
    10030    2    1    2    0    0  0.00000000000E+00  0.00000000000E+00 -0.75982022929E+03  0.31718084130E+04  0.30794547940E+04 0.  0.
        3    1    3    3  502    0  0.33545181885E+03  0.11821075084E+04 -0.13355581163E+04  0.18148337600E+04  0.10100000352E+00 0.  1.
       -3    1    3    3    0  502 -0.33545181885E+03 -0.11821075084E+04  0.57573788699E+03  0.13569746530E+04  0.10100000352E+00 0. -1.
</event>
<event>
 5   0  0.8528625E-08  0.4032446E+04  0.7818609E-02  0.7998033E-01
       -1   -1    0    0    0  501  0.00000000000E+00  0.00000000000E+00  0.30197096500E+04  0.30197096501E+04  0.50400001928E-02 0.  1.
        1   -1    0    0  501    0  0.00000000000E+00  0.00000000000E+00 -0.13462069920E+04  0.13462069920E+04  0.50400001928E-02 0. -1.
    10030    2    1    2    0    0  0.00000000000E+00  0.00000000000E+00  0.16735026580E+04  0.43659166421E+04  0.40324455333E+04 0.  0.
        5    1    3    3  502    0  0.47036155456E+03 -0.12956191299E+04  0.24299219172E+04  0.27936376886E+04  0.46999998093E+01 0.  1.
       -5    1    3    3    0  502 -0.47036155456E+03  0.12956191299E+04 -0.75641925914E+03  0.15722789534E+04  0.46999998093E+01 0. -1.
</event>
<event>
 5   0  0.2730801E-07  0.3355126E+04  0.7818609E-02  0.8149009E-01
       -2   -1    0    0    0  501  0.00000000000E+00  0.00000000000E+00  0.99125505051E+03  0.99125505051E+03  0.25500000920E-02 0.  1.
        2   -1    0    0  501    0  0.00000000000E+00  0.00000000000E+00 -0.28390442879E+04  0.28390442879E+04  0.25500000920E-02 0. -1.
    10030    2    1    2    0    0  0.00000000000E+00  0.00000000000E+00 -0.18477892374E+04  0.38302993384E+04  0.33551256245E+04 0.  0.
        2    1    3    3  502    0  0.73695147115E+03  0.15058256171E+04 -0.85531405356E+03  0.18820654586E+04  0.25500000920E-02 0.  1.
       -2    1    3    3    0  502 -0.73695147115E+03 -0.15058256171E+04 -0.99247518384E+03  0.19482338799E+04  0.25500000920E-02 0. -1.
</event>
<event>
 5   0  0.8583262E-08  0.3958100E+04  0.7818609E-02  0.8013053E-01
        1   -1    0    0  501    0  0.00000000000E+00  0.00000000000E+00  0.13718278453E+04  0.13718278453E+04  0.50400001928E-02 0. -1.
       -1   -1    0    0    0  501  0.00000000000E+00  0.00000000000E+00 -0.28550518611E+04  0.28550518611E+04  0.50400001928E-02 0.  1.
    10030    2    1    2    0    0  0.00000000000E+00  0.00000000000E+00 -0.14832240158E+04  0.42268797064E+04  0.39581003741E+04 0.  0.
        1    1    3    3  502    0 -0.86827027201E+03  0.15424013227E+04  0.20379833327E+03  0.17816926969E+04  0.50400001928E-02 0. -1.
       -1    1    3    3    0  502  0.86827027201E+03 -0.15424013227E+04 -0.16870223490E+04  0.24451870095E+04  0.50400001928E-02 0.  1.
</event>
<event>
 5   0  0.2730801E-07  0.3221293E+04  0.7818609E-02  0.8183216E-01
        2   -1    0    0  501    0  0.00000000000E+00  0.00000000000E+00  0.25373577169E+04  0.25373577169E+04  0.25500000920E-02 0. -1.
       -2   -1    0    0    0  501  0.00000000000E+00  0.00000000000E+00 -0.10223953392E+04  0.10223953392E+04  0.25500000920E-02 0.  1.
    10030    2    1    2    0    0  0.00000000000E+00  0.00000000000E+00  0.15149623777E+04  0.35597530560E+04  0.32212933450E+04 0.  0.
        2    1    3    3  502    0  0.14658314332E+04 -0.58202518528E+03  0.39639628681E+03  0.16262057444E+04  0.25500000920E-02 0.  1.
       -2    1    3    3    0  502 -0.14658314332E+04  0.58202518528E+03  0.11185660909E+04  0.19335473117E+04  0.25500000920E-02 0. -1.
</event>
<event>
 5   0  0.8528625E-08  0.3500571E+04  0.7818609E-02  0.8113655E-01
       -1   -1    0    0    0  501  0.00000000000E+00  0.00000000000E+00  0.19621348360E+04  0.19621348360E+04  0.50400001928E-02 0.  1.
        1   -1    0    0  501    0  0.00000000000E+00  0.00000000000E+00 -0.15613095552E+04  0.15613095552E+04  0.50400001928E-02 0. -1.
    10030    2    1    2    0    0  0.00000000000E+00  0.00000000000E+00  0.40082528084E+03  0.35234443912E+04  0.35005713065E+04 0.  0.
        2    1    3    3  502    0 -0.58611182995E+02  0.17425362413E+04  0.45680994969E+02  0.17441200006E+04  0.25500000920E-02 0. -1.
       -2    1    3    3    0  502  0.58611182995E+02 -0.17425362413E+04  0.35514428587E+03  0.17793243906E+04  0.25500000920E-02 0.  1.
</event>
<event>
 5   0  0.8528625E-08  0.4027252E+04  0.7818609E-02  0.7999071E-01
       -1   -1    0    0    0  501  0.00000000000E+00  0.00000000000E+00  0.17455630225E+04  0.17455630225E+04  0.50400001928E-02 0. -1.
        1   -1    0    0  501    0  0.00000000000E+00  0.00000000000E+00 -0.23228549738E+04  0.23228549738E+04  0.50400001928E-02 0.  1.
    10030    2    1    2    0    0  0.00000000000E+00  0.00000000000E+00 -0.57729195134E+03  0.40684179963E+04  0.40272520403E+04 0.  0.
        2    1    3    3  502    0  0.13349705927E+03  0.62537007666E+03 -0.22175562147E+04  0.23079135086E+04  0.25500000920E-02 0.  1.
       -2    1    3    3    0  502 -0.13349705927E+03 -0.62537007666E+03  0.16402642634E+04  0.17605044877E+04  0.25500000920E-02 0. -1.
</event>
<event>
 5   0  0.8528625E-08  0.3974478E+04  0.7818609E-02  0.8009715E-01
        1   -1    0    0  501    0  0.00000000000E+00  0.00000000000E+00  0.17337498315E+04  0.17337498316E+04  0.50400001928E-02 0. -1.
       -1   -1    0    0    0  501  0.00000000000E+00  0.00000000000E+00 -0.22777909080E+04  0.22777909080E+04  0.50400001928E-02 0.  1.
    10030    2    1    2    0    0  0.00000000000E+00  0.00000000000E+00 -0.54404107643E+03  0.40115407395E+04  0.39744783824E+04 0.  0.
        4    1    3    3  502    0 -0.17852767882E+04  0.30242440101E+03 -0.10984625891E+04  0.21178516004E+04  0.12699999809E+01 0.  1.
       -4    1    3    3    0  502  0.17852767882E+04 -0.30242440101E+03  0.55442151264E+03  0.18936891391E+04  0.12699999809E+01 0. -1.
</event>
<event>
 5   0  0.8528625E-08  0.4000250E+04  0.7818609E-02  0.8004496E-01
        1   -1    0    0  501    0  0.00000000000E+00  0.00000000000E+00  0.16889704988E+04  0.16889704988E+04  0.50400001928E-02 0.  1.
       -1   -1    0    0    0  501  0.00000000000E+00  0.00000000000E+00 -0.23686030326E+04  0.23686030326E+04  0.50400001928E-02 0. -1.
    10030    2    1    2    0    0  0.00000000000E+00  0.00000000000E+00 -0.67963253385E+03  0.40575735314E+04  0.40002503149E+04 0.  0.
        4    1    3    3  502    0  0.88221771700E+03  0.17949166456E+04 -0.36169307525E+03  0.20324510716E+04  0.12699999809E+01 0. -1.
       -4    1    3    3    0  502 -0.88221771700E+03 -0.17949166456E+04 -0.31793945860E+03  0.20251224598E+04  0.12699999809E+01 0.  1.
</event>
<event>
 5   0  0.8528625E-08  0.3984469E+04  0.7818609E-02  0.8007687E-01
       -1   -1    0    0    0  501  0.00000000000E+00  0.00000000000E+00  0.21930356433E+04  0.21930356433E+04  0.50400001928E-02 0.  1.
        1   -1    0    0  501    0  0.00000000000E+00  0.00000000000E+00 -0.18098189843E+04  0.18098189843E+04  0.50400001928E-02 0. -1.
    10030    2    1    2    0    0  0.00000000000E+00  0.00000000000E+00  0.38321665908E+03  0.40028546276E+04  0.39844686172E+04 0.  0.
        5    1    3    3  502    0  0.15227095541E+04 -0.52983051733E+03 -0.98409561577E+03  0.18888703064E+04  0.46999998093E+01 0.  1.
       -5    1    3    3    0  502 -0.15227095541E+04  0.52983051733E+03  0.13673122748E+04  0.21139843212E+04  0.46999998093E+01 0. -1.
</event>
<event>
 5   0  0.8528625E-08  0.4064140E+04  0.7818609E-02  0.7991731E-01
        1   -1    0    0  501    0  0.00000000000E+00  0.00000000000E+00  0.21850478140E+04  0.21850478140E+04  0.50400001928E-02 0.  1.
       -1   -1    0    0    0  501  0.00000000000E+00  0.00000000000E+00 -0.18898022451E+04  0.18898022452E+04  0.50400001928E-02 0. -1.
    10030    2    1    2    0    0  0.00000000000E+00  0.00000000000E+00  0.29524556882E+03  0.40748500591E+04  0.40641398916E+04 0.  0.
        3    1    3    3  502    0  0.10467748228E+04  0.17155017738E+04  0.44945495737E+03  0.20592944506E+04  0.10100000352E+00 0. -1.
       -3    1    3    3    0  502 -0.10467748228E+04 -0.17155017738E+04 -0.15420938855E+03  0.20155556085E+04  0.10100000352E+00 0.  1.
</event>
<event>
 5   0  0.2704088E-07  0.3945052E+04  0.7818609E-02  0.8015724E-01
       -2   -1    0    0    0  501  0.00000000000E+00  0.00000000000E+00  0.11120888273E+04  0.11120888273E+04  0.25500000920E-02 0. -1.
        2   -1    0    0  501    0  0.00000000000E+00  0.00000000000E+00 -0.34986950983E+04  0.34986950983E+04  0.25500000920E-02 0.  1.
    10030    2    1    2    0    0  0.00000000000E+00  0.00000000000E+00 -0.23866062710E+04  0.46107839257E+04  0.39450524606E+04 0.  0.
        5    1    3    3  502    0 -0.79670076846E+02 -0.15196144528E+04 -0.26601960747E+04  0.30646762720E+04  0.46999998093E+01 0.  1.
       -5    1    3    3    0  502  0.79670076846E+02  0.15196144528E+04  0.27358980371E+03  0.15461076537E+04  0.46999998093E+01 0. -1.
</event>
<event>
 5   0  0.8528625E-08  0.3474207E+04  0.7818609E-02  0.8119930E-01
        1   -1    0    0  501    0  0.00000000000E+00  0.00000000000E+00  0.17383000910E+04  0.17383000911E+04  0.50400001928E-02 0. -1.
       -1   -1    0    0    0  501  0.00000000000E+00  0.00000000000E+00 -0.17359076288E+04  0.17359076288E+04  0.50400001928E-02 0.  1.
    10030    2    1    2    0    0  0.00000000000E+00  0.00000000000E+00  0.23924622651E+01  0.34742077198E+04  0.34742068961E+04 0.  0.
        5    1    3    3  502    0  0.84298680445E+03 -0.14022594247E+04  0.58476132105E+03  0.17375057235E+04  0.46999998093E+01 0. -1.
       -5    1    3    3    0  502 -0.84298680445E+03  0.14022594247E+04 -0.58236885878E+03  0.17367019964E+04  0.46999998093E+01 0.  1.
</event>
<event>
 5   0  0.2661693E-07  0.3340844E+04  0.7818609E-02  0.8152580E-01
       -2   -1    0    0    0  501  0.00000000000E+00  0.00000000000E+00  0.11997189509E+04  0.11997189509E+04  0.25500000920E-02 0.  1.
        2   -1    0    0  501    0  0.00000000000E+00  0.00000000000E+00 -0.23258031397E+04  0.23258031397E+04  0.25500000920E-02 0. -1.
    10030    2    1    2    0    0  0.00000000000E+00  0.00000000000E+00 -0.11260841888E+04  0.35255220907E+04  0.33408442663E+04 0.  0.
        1    1    3    3  502    0  0.23685881824E+03 -0.16075083087E+04 -0.97192012634E+03  0.18933604502E+04  0.50400001928E-02 0. -1.
       -1    1    3    3    0  502 -0.23685881824E+03  0.16075083087E+04 -0.15416406247E+03  0.16321616405E+04  0.50400001928E-02 0.  1.
</event>
<event>
 5   0  0.8528625E-08  0.3170338E+04  0.7818609E-02  0.8196695E-01
       -1   -1    0    0    0  501  0.00000000000E+00  0.00000000000E+00  0.10740995484E+04  0.10740995484E+04  0.50400001928E-02 0. -1.
        1   -1    0    0  501    0  0.00000000000E+00  0.00000000000E+00 -0.23394118695E+04  0.23394118695E+04  0.50400001928E-02 0.  1.
    10030    2    1    2    0    0  0.00000000000E+00  0.00000000000E+00 -0.12653123212E+04  0.34135114179E+04  0.31703382990E+04 0.  0.
        3    1    3    3  502    0 -0.58473485578E+03 -0.14268641983E+04 -0.10281226275E+04  0.18533462815E+04  0.10100000352E+00 0.  1.
       -3    1    3    3    0  502  0.58473485578E+03  0.14268641983E+04 -0.23718969367E+03  0.15601651364E+04  0.10100000352E+00 0. -1.
</event>
<event>
 5   0  0.8528625E-08  0.3979886E+04  0.7818609E-02  0.8008617E-01
        1   -1    0    0  501    0  0.00000000000E+00  0.00000000000E+00  0.20316884902E+04  0.20316884902E+04  0.50400001928E-02 0. -1.
       -1   -1    0    0    0  501  0.00000000000E+00  0.00000000000E+00 -0.19490547996E+04  0.19490547996E+04  0.50400001928E-02 0.  1.
    10030    2    1    2    0    0  0.00000000000E+00  0.00000000000E+00  0.82633690576E+02  0.39807432898E+04  0.39798855275E+04 0.  0.
        4    1    3    3  502    0  0.27193501132E+03 -0.13921264214E+04  0.14372916657E+04  0.20193497887E+04  0.12699999809E+01 0. -1.
       -4    1    3    3    0  502 -0.27193501132E+03  0.13921264214E+04 -0.13546579752E+04  0.19613935011E+04  0.12699999809E+01 0.  1.
</event>
<event>
 5   0  0.2661693E-07  0.3962157E+04  0.7818609E-02  0.8012224E-01
        2   -1    0    0  501    0  0.00000000000E+00  0.00000000000E+00  0.23194729760E+04  0.23194729760E+04  0.25500000920E-02 0. -1.
       -2   -1    0    0    0  501  0.00000000000E+00  0.00000000000E+00 -0.16920536408E+04  0.16920536408E+04  0.25500000920E-02 0.  1.
    10030    2    1    2    0    0  0.00000000000E+00  0.00000000000E+00  0.62741933519E+03  0.40115266168E+04  0.39621573385E+04 0.  0.
        1    1    3    3  502    0 -0.69496458754E+03  0.67906620494E+03  0.20616529341E+04  0.22791488563E+04  0.50400001928E-02 0. -1.
       -1    1    3    3    0  502  0.69496458754E+03 -0.67906620494E+03 -0.14342335989E+04  0.17323777604E+04  0.50400001928E-02 0.  1.
</event>
<event>
 5   0  0.2839279E-07  0.3945501E+04  0.7818609E-02  0.8015632E-01
        2   -1    0    0  501    0  0.00000000000E+00  0.00000000000E+00  0.19928547335E+04  0.19928547336E+04  0.25500000920E-02 0. -1.
       -2   -1    0    0    0  501  0.00000000000E+00  0.00000000000E+00 -0.19528493206E+04  0.19528493206E+04  0.25500000920E-02 0.  1.
    10030    2    1    2    0    0  0.00000000000E+00  0.00000000000E+00  0.40005412917E+02  0.39457040542E+04  0.39455012419E+04 0.  0.
        3    1    3    3  502    0  0.26233734341E+03  0.15026006501E+04 -0.12311073270E+04  0.19601670480E+04  0.10100000352E+00 0.  1.
       -3    1    3    3    0  502 -0.26233734341E+03 -0.15026006501E+04  0.12711127399E+04  0.19855370062E+04  0.10100000352E+00 0. -1.
</event>
<event>
 5   0  0.2661693E-07  0.3932387E+04  0.7818609E-02  0.8018327E-01
        2   -1    0    0  501    0  0.00000000000E+00  0.00000000000E+00  0.25726185851E+04  0.25726185851E+04  0.25500000920E-02 0. -1.
       -2   -1    0    0    0  501  0.00000000000E+00  0.00000000000E+00 -0.15027165706E+04  0.15027165706E+04  0.25500000920E-02 0.  1.
    10030    2    1    2    0    0  0.00000000000E+00  0.00000000000E+00  0.10699020145E+04  0.40753351557E+04  0.39323868465E+04 0.  0.
        1    1    3    3  502    0  0.19165695269E+04  0.34616700834E+03  0.25523930750E+03  0.19642345718E+04  0.50400001928E-02 0. -1.
       -1    1    3    3    0  502 -0.19165695269E+04 -0.34616700834E+03  0.81466270700E+03  0.21111005839E+04  0.50400001928E-02 0.  1.
</event>
<event>
 5   0  0.2839279E-07  0.3867351E+04  0.7818609E-02  0.8031854E-01
        2   -1    0    0  501    0  0.00000000000E+00  0.00000000000E+00  0.29685614387E+04  0.29685614387E+04  0.25500000920E-02 0. -1.
       -2   -1    0    0    0  501  0.00000000000E+00  0.00000000000E+00 -0.12595669541E+04  0.12595669541E+04  0.25500000920E-02 0.  1.
    10030    2    1    2    0    0  0.00000000000E+00  0.00000000000E+00  0.17089944847E+04  0.42281283928E+04  0.38673514913E+04 0.  0.
        3    1    3    3  502    0  0.86439991366E+03  0.17096642502E+04  0.11416030830E+04  0.22301113578E+04  0.10100000352E+00 0. -1.
       -3    1    3    3    0  502 -0.86439991366E+03 -0.17096642502E+04  0.56739140170E+03  0.19980170350E+04  0.10100000352E+00 0.  1.
</event>
<event>
 5   0  0.2730801E-07  0.3804462E+04  0.7818609E-02  0.8045198E-01
        2   -1    0    0  501    0  0.00000000000E+00  0.00000000000E+00  0.30409838888E+04  0.30409838888E+04  0.25500000920E-02 0.  1.
       -2   -1    0    0    0  501  0.00000000000E+00  0.00000000000E+00 -0.11899055182E+04  0.11899055182E+04  0.25500000920E-02 0. -1.
    10030    2    1    2    0    0  0.00000000000E+00  0.00000000000E+00  0.18510783706E+04  0.42308894069E+04  0.38044623851E+04 0.  0.
        2    1    3    3  502    0 -0.11508502599E+04 -0.12784051253E+04  0.18288019290E+04  0.25106358718E+04  0.25500000920E-02 0.  1.
       -2    1    3    3    0  502  0.11508502599E+04  0.12784051253E+04  0.22276441584E+02  0.17202535351E+04  0.25500000920E-02 0. -1.
</event>
<event>
 5   0  0.2661693E-07  0.2886297E+04  0.7818609E-02  0.8276966E-01
       -2   -1    0    0    0  501  0.00000000000E+00  0.00000000000E+00  0.12931998410E+04  0.12931998410E+04  0.25500000920E-02 0. -1.
        2   -1    0    0  501    0  0.00000000000E+00  0.00000000000E+00 -0.16104842857E+04  0.16104842857E+04  0.25500000920E-02 0.  1.
    10030    2    1    2    0    0  0.00000000000E+00  0.00000000000E+00 -0.31728444473E+03  0.29036841266E+04  0.28862972973E+04 0.  0.
        1    1    3    3  502    0 -0.76033600735E+03 -0.52493322437E+03 -0.12739286581E+04  0.15737089821E+04  0.50400001928E-02 0.  1.
       -1    1    3    3    0  502  0.76033600735E+03  0.52493322437E+03  0.95664421342E+03  0.13299751446E+04  0.50400001928E-02 0. -1.
</event>
<event>
 5   0  0.8528625E-08  0.3861753E+04  0.7818609E-02  0.8033031E-01
       -1   -1    0    0    0  501  0.00000000000E+00  0.00000000000E+00  0.11235291365E+04  0.11235291365E+04  0.50400001928E-02 0. -1.
        1   -1    0    0  501    0  0.00000000000E+00  0.00000000000E+00 -0.33183680108E+04  0.33183680108E+04  0.50400001928E-02 0.  1.
    10030    2    1    2    0    0  0.00000000000E+00  0.00000000000E+00 -0.21948388743E+04  0.44418971473E+04  0.38617525274E+04 0.  0.
        5    1    3    3  502    0 -0.84945097566E+03  0.17091718174E+04 -0.14336046228E+04  0.23870650527E+04  0.46999998093E+01 0.  1.
       -5    1    3    3    0  502  0.84945097566E+03 -0.17091718174E+04 -0.76123425151E+03  0.20548320946E+04  0.46999998093E+01 0. -1.
</event>
<event>
 5   0  0.8528625E-08  0.4055394E+04  0.7818609E-02  0.7993464E-01
        1   -1    0    0  501    0  0.00000000000E+00  0.00000000000E+00  0.32140319014E+04  0.32140319014E+04  0.50400001928E-02 0. -1.
       -1   -1    0    0    0  501  0.00000000000E+00  0.00000000000E+00 -0.12792512639E+04  0.12792512639E+04  0.50400001928E-02 0.  1.
    10030    2    1    2    0    0  0.00000000000E+00  0.00000000000E+00  0.19347806374E+04  0.44932831653E+04  0.40553936293E+04 0.  0.
        5    1    3    3  502    0 -0.51193212362E+03 -0.22741726263E+03  0.31265926529E+04  0.31763810882E+04  0.46999998093E+01 0. -1.
       -5    1    3    3    0  502  0.51193212362E+03  0.22741726263E+03 -0.11918120154E+04  0.13169020771E+04  0.46999998093E+01 0.  1.
</event>
<event>
 5   0  0.2730801E-07  0.2951275E+04  0.7818609E-02  0.8257783E-01
        2   -1    0    0  501    0  0.00000000000E+00  0.00000000000E+00  0.26998640261E+04  0.26998640261E+04  0.25500000920E-02 0.  1.
       -2   -1    0    0    0  501  0.00000000000E+00  0.00000000000E+00 -0.80652444650E+03  0.80652444651E+03  0.25500000920E-02 0. -1.
    10030    2    1    2    0    0  0.00000000000E+00  0.00000000000E+00  0.18933395796E+04  0.35063884726E+04  0.29512752086E+04 0.  0.
        2    1    3    3  502    0  0.10467002813E+03 -0.14028160521E+04  0.41712467573E+03  0.14672565168E+04  0.25500000920E-02 0.  1.
       -2    1    3    3    0  502 -0.10467002813E+03  0.14028160521E+04  0.14762149039E+04  0.20391319558E+04  0.25500000920E-02 0. -1.
</event>
<event>
 5   0  0.8528625E-08  0.3955956E+04  0.7818609E-02  0.8013491E-01
        1   -1    0    0  501    0  0.00000000000E+00  0.00000000000E+00  0.20106657064E+04  0.20106657064E+04  0.50400001928E-02 0. -1.
       -1   -1    0    0    0  501  0.00000000000E+00  0.00000000000E+00 -0.19458214392E+04  0.19458214392E+04  0.50400001928E-02 0.  1.
    10030    2    1    2    0    0  0.00000000000E+00  0.00000000000E+00  0.64844267233E+02  0.39564871456E+04  0.39559557321E+04 0.  0.
        3    1    3    3  502    0  0.13726522538E+04  0.14035315097E+04 -0.20910879545E+03  0.19742850370E+04  0.10100000352E+00 0.  1.
       -3    1    3    3    0  502 -0.13726522538E+04 -0.14035315097E+04  0.27395306269E+03  0.19822021086E+04  0.10100000352E+00 0. -1.
</event>
<event>
 5   0  0.8528625E-08  0.3835214E+04  0.7818609E-02  0.8038640E-01
       -1   -1    0    0    0  501  0.00000000000E+00  0.00000000000E+00  0.13028371494E+04  0.13028371494E+04  0.50400001928E-02 0. -1.
        1   -1    0    0  501    0  0.00000000000E+00  0.00000000000E+00 -0.28224685575E+04  0.28224685575E+04  0.50400001928E-02 0.  1.
    10030    2    1    2    0    0  0.00000000000E+00  0.00000000000E+00 -0.15196314081E+04  0.41253057069E+04  0.38352141477E+04 0.  0.
        5    1    3    3  502    0 -0.12169946209E+04 -0.14807867309E+04 -0.69719217477E+03  0.20395843371E+04  0.46999998093E+01 0. -1.
       -5    1    3    3    0  502  0.12169946209E+04  0.14807867309E+04 -0.82243923334E+03  0.20857213697E+04  0.46999998093E+01 0.  1.
</event>
<event>
 5   0  0.2704088E-07  0.4032303E+04  0.7818609E-02  0.7998062E-01
       -2   -1    0    0    0  501  0.00000000000E+00  0.00000000000E+00  0.14467133597E+04  0.14467133597E+04  0.25500000920E-02 0.  1.
        2   -1    0    0  501    0  0.00000000000E+00  0.00000000000E+00 -0.28097252337E+04  0.28097252337E+04  0.25500000920E-02 0. -1.
    10030    2    1    2    0    0  0.00000000000E+00  0.00000000000E+00 -0.13630118740E+04  0.42564385935E+04  0.40323030803E+04 0.  0.
        5    1    3    3  502    0  0.14678432817E+04 -0.13412529132E+04 -0.10337008294E+04  0.22410003952E+04  0.46999998093E+01 0. -1.
       -5    1    3    3    0  502 -0.14678432817E+04  0.13412529132E+04 -0.32931104460E+03  0.20154381982E+04  0.46999998093E+01 0.  1.
</event>
<event>
 5   0  0.2839279E-07  0.3274307E+04  0.7818609E-02  0.8169464E-01
       -2   -1    0    0    0  501  0.00000000000E+00  0.00000000000E+00  0.17009488648E+04  0.17009488648E+04  0.25500000920E-02 0.  1.
        2   -1    0    0  501    0  0.00000000000E+00  0.00000000000E+00 -0.15757510346E+04  0.15757510346E+04  0.25500000920E-02 0. -1.
    10030    2    1    2    0    0  0.00000000000E+00  0.00000000000E+00  0.12519783020E+03  0.32766998993E+04  0.32743072143E+04 0.  0.
        3    1    3    3  502    0 -0.12931621509E+04  0.34642400821E+03 -0.88042401701E+03  0.16023184459E+04  0.10100000352E+00 0. -1.
       -3    1    3    3    0  502  0.12931621509E+04 -0.34642400821E+03  0.10056218472E+04  0.16743814535E+04  0.10100000352E+00 0.  1.
</event>
<event>
 5   0  0.8528625E-08  0.3317269E+04  0.7818609E-02  0.8158515E-01
        3   -1    0    0  501    0  0.00000000000E+00  0.00000000000E+00  0.16783713899E+04  0.16783713930E+04  0.10100000352E+00 0.  1.
       -3   -1    0    0    0  501  0.00000000000E+00  0.00000000000E+00 -0.16391295182E+04  0.16391295213E+04  0.10100000352E+00 0. -1.
    10030    2    1    2    0    0  0.00000000000E+00  0.00000000000E+00  0.39241871739E+02  0.33175009143E+04  0.33172688151E+04 0.  0.
        3    1    3    3  502    0 -0.49586068432E+03 -0.69069489904E+03  0.14438451598E+04  0.16755972420E+04  0.10100000352E+00 0.  1.
       -3    1    3    3    0  502  0.49586068432E+03  0.69069489904E+03 -0.14046032881E+04  0.16419036722E+04  0.10100000352E+00 0. -1.
</event>
<event>
 5   0  0.2730801E-07  0.3980019E+04  0.7818609E-02  0.8008590E-01
        2   -1    0    0  501    0  0.00000000000E+00  0.00000000000E+00  0.28250044607E+04  0.28250044607E+04  0.25500000920E-02 0. -1.
       -2   -1    0    0    0  501  0.00000000000E+00  0.00000000000E+00 -0.14018163118E+04  0.14018163118E+04  0.25500000920E-02 0.  1.
    10030    2    1    2    0    0  0.00000000000E+00  0.00000000000E+00  0.14231881489E+04  0.42268207725E+04  0.39800187608E+04 0.  0.
        2    1    3    3  502    0 -0.15814285758E+04  0.11293658986E+04  0.25634747161E+03  0.19601269601E+04  0.25500000920E-02 0.  1.
       -2    1    3    3    0  502  0.15814285758E+04 -0.11293658986E+04  0.11668406772E+04  0.22666938125E+04  0.25500000920E-02 0. -1.
</event>
<event>
 5   0  0.8583262E-08  0.3577747E+04  0.7818609E-02  0.8095608E-01
        1   -1    0    0  501    0  0.00000000000E+00  0.00000000000E+00  0.15021236564E+04  0.15021236564E+04  0.50400001928E-02 0.  1.
       -1   -1    0    0    0  501  0.00000000000E+00  0.00000000000E+00 -0.21303632312E+04  0.21303632313E+04  0.50400001928E-02 0. -1.
    10030    2    1    2    0    0  0.00000000000E+00  0.00000000000E+00 -0.62823957489E+03  0.36324868876E+04  0.35777473395E+04 0.  0.
        1    1    3    3  502    0 -0.94974046862E+03 -0.15152860328E+04 -0.35918684227E+03  0.18240378029E+04  0.50400001928E-02 0. -1.
       -1    1    3    3    0  502  0.94974046862E+03  0.15152860328E+04 -0.26905273262E+03  0.18084490847E+04  0.50400001928E-02 0.  1.
</event>
<event>
 5   0  0.2661693E-07  0.3904956E+04  0.7818609E-02  0.8023999E-01
        2   -1    0    0  501    0  0.00000000000E+00  0.00000000000E+00  0.16651713135E+04  0.16651713135E+04  0.25500000920E-02 0. -1.
       -2   -1    0    0    0  501  0.00000000000E+00  0.00000000000E+00 -0.22893563475E+04  0.22893563475E+04  0.25500000920E-02 0.  1.
    10030    2    1    2    0    0  0.00000000000E+00  0.00000000000E+00 -0.62418503396E+03  0.39545276610E+04  0.39049560900E+04 0.  0.
        1    1    3    3  502    0 -0.13219178740E+04 -0.82752415201E+03 -0.15016993202E+04  0.21650320867E+04  0.50400001928E-02 0.  1.
       -1    1    3    3    0  502  0.13219178740E+04  0.82752415201E+03  0.87751428627E+03  0.17894955743E+04  0.50400001928E-02 0. -1.
</event>
<event>
 5   0  0.8528625E-08  0.4005255E+04  0.7818609E-02  0.8003487E-01
       -1   -1    0    0    0  501  0.00000000000E+00  0.00000000000E+00  0.22406478417E+04  0.22406478417E+04  0.50400001928E-02 0. -1.
        1   -1    0    0  501    0  0.00000000000E+00  0.00000000000E+00 -0.17898917105E+04  0.17898917105E+04  0.50400001928E-02 0.  1.
    10030    2    1    2    0    0  0.00000000000E+00  0.00000000000E+00  0.45075613126E+03  0.40305395522E+04  0.40052550471E+04 0.  0.
        2    1    3    3  502    0  0.47448570931E+03  0.18496323593E+04  0.83271136671E+03  0.20831910074E+04  0.25500000920E-02 0. -1.
       -2    1    3    3    0  502 -0.47448570931E+03 -0.18496323593E+04 -0.38195523545E+03  0.19473485448E+04  0.25500000920E-02 0.  1.
</event>
<event>
 5   0  0.8528625E-08  0.3973733E+04  0.7818609E-02  0.8009867E-01
       -1   -1    0    0    0  501  0.00000000000E+00  0.00000000000E+00  0.21110137395E+04  0.21110137395E+04  0.50400001928E-02 0.  1.
        1   -1    0    0  501    0  0.00000000000E+00  0.00000000000E+00 -0.18700199892E+04  0.18700199892E+04  0.50400001928E-02 0. -1.
    10030    2    1    2    0    0  0.00000000000E+00  0.00000000000E+00  0.24099375033E+03  0.39810337287E+04  0.39737326988E+04 0.  0.
        5    1    3    3  502    0 -0.19767757889E+04 -0.13603427373E+03  0.26728555506E+03  0.19994027862E+04  0.46999998093E+01 0.  1.
       -5    1    3    3    0  502  0.19767757889E+04  0.13603427373E+03 -0.26291804722E+02  0.19816309425E+04  0.46999998093E+01 0. -1.
</event>
<event>
 5   0  0.8528625E-08  0.4018749E+04  0.7818609E-02  0.8000775E-01
       -1   -1    0    0    0  501  0.00000000000E+00  0.00000000000E+00  0.21848292896E+04  0.21848292896E+04  0.50400001928E-02 0. -1.
        1   -1    0    0  501    0  0.00000000000E+00  0.00000000000E+00 -0.18480100485E+04  0.18480100485E+04  0.50400001928E-02 0.  1.
    10030    2    1    2    0    0  0.00000000000E+00  0.00000000000E+00  0.33681924113E+03  0.40328393381E+04  0.40187492987E+04 0.  0.
        5    1    3    3  502    0 -0.15153092027E+02 -0.10761963473E+04 -0.15343412503E+04  0.18742073942E+04  0.46999998093E+01 0.  1.
       -5    1    3    3    0  502  0.15153092027E+02  0.10761963473E+04  0.18711604915E+04  0.21586319438E+04  0.46999998093E+01 0. -1.
</event>
<event>
 5   0  0.8528625E-08  0.4004485E+04  0.7818609E-02  0.8003642E-01
        1   -1    0    0  501    0  0.00000000000E+00  0.00000000000E+00  0.22124505817E+04  0.22124505818E+04  0.50400001928E-02 0. -1.
       -1   -1    0    0    0  501  0.00000000000E+00  0.00000000000E+00 -0.18120061471E+04  0.18120061471E+04  0.50400001928E-02 0.  1.
    10030    2    1    2    0    0  0.00000000000E+00  0.00000000000E+00  0.40044443462E+03  0.40244567289E+04  0.40044845133E+04 0.  0.
        2    1    3    3  502    0 -0.11905230760E+04  0.16094320947E+04  0.16319838777E+03  0.20085443923E+04  0.25500000920E-02 0.  1.
       -2    1    3    3    0  502  0.11905230760E+04 -0.16094320947E+04  0.23724604685E+03  0.20159123366E+04  0.25500000920E-02 0. -1.
</event>
<event>
 5   0  0.2666978E-07  0.4007434E+04  0.7818609E-02  0.8003049E-01
        2   -1    0    0  501    0  0.00000000000E+00  0.00000000000E+00  0.27364435039E+04  0.27364435039E+04  0.25500000920E-02 0.  1.
       -2   -1    0    0    0  501  0.00000000000E+00  0.00000000000E+00 -0.14671896988E+04  0.14671896988E+04  0.25500000920E-02 0. -1.
    10030    2    1    2    0    0  0.00000000000E+00  0.00000000000E+00  0.12692538052E+04  0.42036332027E+04  0.40074339522E+04 0.  0.
        4    1    3    3  502    0  0.15609345990E+04  0.48093460963E+03  0.18520814229E+04  0.24694173667E+04  0.12699999809E+01 0.  1.
       -4    1    3    3    0  502 -0.15609345990E+04 -0.48093460963E+03 -0.58282761771E+03  0.17342158360E+04  0.12699999809E+01 0. -1.
</event>
<event>
 5   0  0.8528625E-08  0.3929137E+04  0.7818609E-02  0.8018996E-01
       -1   -1    0    0    0  501  0.00000000000E+00  0.00000000000E+00  0.11796513086E+04  0.11796513086E+04  0.50400001928E-02 0.  1.
        1   -1    0    0  501    0  0.00000000000E+00  0.00000000000E+00 -0.32717546975E+04  0.32717546975E+04  0.50400001928E-02 0. -1.
    10030    2    1    2    0    0  0.00000000000E+00  0.00000000000E+00 -0.20921033889E+04  0.44514060061E+04  0.39291371625E+04 0.  0.
        4    1    3    3  502    0 -0.12272391851E+03  0.44660365171E+03 -0.32090167626E+04  0.32422686776E+04  0.12699999809E+01 0. -1.
       -4    1    3    3    0  502  0.12272391851E+03 -0.44660365171E+03  0.11169133738E+04  0.12091373285E+04  0.12699999809E+01 0.  1.
</event>
<event>
 5   0  0.8528625E-08  0.4018995E+04  0.7818609E-02  0.8000726E-01
        1   -1    0    0  501    0  0.00000000000E+00  0.00000000000E+00  0.24403590453E+04  0.24403590453E+04  0.50400001928E-02 0. -1.
       -1   -1    0    0    0  501  0.00000000000E+00  0.00000000000E+00 -0.16547071578E+04  0.16547071578E+04  0.50400001928E-02 0.  1.
    10030    2    1    2    0    0  0.00000000000E+00  0.00000000000E+00  0.78565188753E+03  0.40950662031E+04  0.40189946901E+04 0.  0.
        5    1    3    3  502    0  0.64073398823E+03 -0.18761011112E+04  0.72731079300E+03  0.21117051174E+04  0.46999998093E+01 0. -1.
       -5    1    3    3    0  502 -0.64073398823E+03  0.18761011112E+04  0.58341094526E+02  0.19833610857E+04  0.46999998093E+01 0.  1.
</event>
<event>
 5   0  0.8528625E-08  0.3979270E+04  0.7818609E-02  0.8008742E-01
       -1   -1    0    0    0  501  0.00000000000E+00  0.00000000000E+00  0.22319987731E+04  0.22319987731E+04  0.50400001928E-02 0. -1.
        1   -1    0    0  501    0  0.00000000000E+00  0.00000000000E+00 -0.17735883941E+04  0.17735883941E+04  0.50400001928E-02 0.  1.
    10030    2    1    2    0    0  0.00000000000E+00  0.00000000000E+00  0.45841037904E+03  0.40055871672E+04  0.39792698424E+04 0.  0.
        2    1    3    3  502    0 -0.58690075799E+03  0.14196420832E+04 -0.10435982990E+04  0.18571304622E+04  0.25500000920E-02 0.  1.
       -2    1    3    3    0  502  0.58690075799E+03 -0.14196420832E+04  0.15020086780E+04  0.21484567049E+04  0.25500000920E-02 0. -1.
</event>
<event>
 5   0  0.2661693E-07  0.3920368E+04  0.7818609E-02  0.8020806E-01
        2   -1    0    0  501    0  0.00000000000E+00  0.00000000000E+00  0.19714270226E+04  0.19714270226E+04  0.25500000920E-02 0. -1.
       -2   -1    0    0    0  501  0.00000000000E+00  0.00000000000E+00 -0.19490049182E+04  0.19490049182E+04  0.25500000920E-02 0.  1.
    10030    2    1    2    0    0  0.00000000000E+00  0.00000000000E+00  0.22422104404E+02  0.39204319408E+04  0.39203678210E+04 0.  0.
        1    1    3    3  502    0  0.16838704518E+03 -0.50860625615E+03  0.18967886137E+04  0.19710001436E+04  0.50400001928E-02 0. -1.
       -1    1    3    3    0  502 -0.16838704518E+03  0.50860625615E+03 -0.18743665093E+04  0.19494317972E+04  0.50400001928E-02 0.  1.
</event>
<event>
 5   0  0.2839279E-07  0.4060902E+04  0.7818609E-02  0.7992372E-01
        2   -1    0    0  501    0  0.00000000000E+00  0.00000000000E+00  0.23997548524E+04  0.23997548524E+04  0.25500000920E-02 0.  1.
       -2   -1    0    0    0  501  0.00000000000E+00  0.00000000000E+00 -0.17179800070E+04  0.17179800070E+04  0.25500000920E-02 0. -1.
    10030    2    1    2    0    0  0.00000000000E+00  0.00000000000E+00  0.68177484543E+03  0.41177348594E+04  0.40609018004E+04 0.  0.
        3    1    3    3  502    0 -0.14327037639E+04 -0.42632650172E+03  0.17342867090E+04  0.22895730520E+04  0.10100000352E+00 0.  1.
       -3    1    3    3    0  502  0.14327037639E+04  0.42632650172E+03 -0.10525118635E+04  0.18281618074E+04  0.10100000352E+00 0. -1.
</event>
<event>
 5   0  0.2839279E-07  0.4000897E+04  0.7818609E-02  0.8004366E-01
        2   -1    0    0  501    0  0.00000000000E+00  0.00000000000E+00  0.23889980511E+04  0.23889980511E+04  0.25500000920E-02 0.  1.
       -2   -1    0    0    0  501  0.00000000000E+00  0.00000000000E+00 -0.16750934517E+04  0.16750934517E+04  0.25500000920E-02 0. -1.
    10030    2    1    2    0    0  0.00000000000E+00  0.00000000000E+00  0.71390459947E+03  0.40640915028E+04  0.40008973951E+04 0.  0.
        3    1    3    3  502    0 -0.10667335773E+04  0.14917960676E+04  0.11685839009E+04  0.21746182138E+04  0.10100000352E+00 0.  1.
       -3    1    3    3    0  502  0.10667335773E+04 -0.14917960676E+04 -0.45467930144E+03  0.18894732890E+04  0.10100000352E+00 0. -1.
</event>
<event>
 5   0  0.8528625E-08  0.3954286E+04  0.7818609E-02  0.8013833E-01
       -1   -1    0    0    0  501  0.00000000000E+00  0.00000000000E+00  0.11921544789E+04  0.11921544790E+04  0.50400001928E-02 0.  1.
        1   -1    0    0  501    0  0.00000000000E+00  0.00000000000E+00 -0.32790161880E+04  0.32790161880E+04  0.50400001928E-02 0. -1.
    10030    2    1    2    0    0  0.00000000000E+00  0.00000000000E+00 -0.20868617091E+04  0.44711706670E+04  0.39542856928E+04 0.  0.
        4    1    3    3  502    0 -0.16978232364E+04 -0.75840140163E+03 -0.18030457463E+04  0.25901258664E+04  0.12699999809E+01 0. -1.
       -4    1    3    3    0  502  0.16978232364E+04  0.75840140163E+03 -0.28381596275E+03  0.18810448005E+04  0.12699999809E+01 0.  1.
</event>
<event>
 5   0  0.2661693E-07  0.3126780E+04  0.7818609E-02  0.8208427E-01
        2   -1    0    0  501    0  0.00000000000E+00  0.00000000000E+00  0.16628810427E+04  0.16628810427E+04  0.25500000920E-02 0.  1.
       -2   -1    0    0    0  501  0.00000000000E+00  0.00000000000E+00 -0.14698517189E+04  0.14698517189E+04  0.25500000920E-02 0. -1.
    10030    2    1    2    0    0  0.00000000000E+00  0.00000000000E+00  0.19302932383E+03  0.31327327616E+04  0.31267801707E+04 0.  0.
        1    1    3    3  502    0 -0.15484636587E+04 -0.98830203703E+02 -0.95373963900E+02  0.15545427959E+04  0.50400001928E-02 0. -1.
       -1    1    3    3    0  502  0.15484636587E+04  0.98830203703E+02  0.28840328773E+03  0.15781899657E+04  0.50400001928E-02 0.  1.
</event>
<event>
 5   0  0.8528625E-08  0.3949550E+04  0.7818609E-02  0.8014802E-01
       -1   -1    0    0    0  501  0.00000000000E+00  0.00000000000E+00  0.16968259925E+04  0.16968259925E+04  0.50400001928E-02 0. -1.
        1   -1    0    0  501    0  0.00000000000E+00  0.00000000000E+00 -0.22982534122E+04  0.22982534122E+04  0.50400001928E-02 0.  1.
    10030    2    1    2    0    0  0.00000000000E+00  0.00000000000E+00 -0.60142741973E+03  0.39950794048E+04  0.39495499122E+04 0.  0.
        2    1    3    3  502    0  0.33770265007E+03 -0.10851740358E+04  0.13328614690E+04  0.17516179559E+04  0.25500000920E-02 0. -1.
       -2    1    3    3    0  502 -0.33770265007E+03  0.10851740358E+04 -0.19342888887E+04  0.22434614489E+04  0.25500000920E-02 0.  1.
</event>
<event>
 5   0  0.8528625E-08  0.3964606E+04  0.7818609E-02  0.8011725E-01
       -1   -1    0    0    0  501  0.00000000000E+00  0.00000000000E+00  0.17829794660E+04  0.17829794660E+04  0.50400001928E-02 0. -1.
        1   -1    0    0  501    0  0.00000000000E+00  0.00000000000E+00 -0.22039093850E+04  0.22039093850E+04  0.50400001928E-02 0.  1.
    10030    2    1    2    0    0  0.00000000000E+00  0.00000000000E+00 -0.42092991899E+03  0.39868888511E+04  0.39646059973E+04 0.  0.
        3    1    3    3  502    0 -0.10867790923E+04 -0.50656136485E+03  0.13769609713E+04  0.18258463074E+04  0.10100000352E+00 0. -1.
       -3    1    3    3    0  502  0.10867790923E+04  0.50656136485E+03 -0.17978908903E+04  0.21610425436E+04  0.10100000352E+00 0.  1.
</event>
<event>
 5   0  0.8528625E-08  0.3900291E+04  0.7818609E-02  0.8024969E-01
        1   -1    0    0  501    0  0.00000000000E+00  0.00000000000E+00  0.22189991406E+04  0.22189991406E+04  0.50400001928E-02 0.  1.
       -1   -1    0    0    0  501  0.00000000000E+00  0.00000000000E+00 -0.17138661428E+04  0.17138661428E+04  0.50400001928E-02 0. -1.
    10030    2    1    2    0    0  0.00000000000E+00  0.00000000000E+00  0.50513299776E+03  0.39328652834E+04  0.39002910137E+04 0.  0.
        5    1    3    3  502    0 -0.73524453279E+03 -0.40870666526E+03  0.20266409122E+04  0.21942928561E+04  0.46999998093E+01 0.  1.
       -5    1    3    3    0  502  0.73524453279E+03  0.40870666526E+03 -0.15215079144E+04  0.17385724273E+04  0.46999998093E+01 0. -1.
</event>
<event>
 5   0  0.2730801E-07  0.4005540E+04  0.7818609E-02  0.8003430E-01
       -2   -1    0    0    0  501  0.00000000000E+00  0.00000000000E+00  0.19491605013E+04  0.19491605013E+04  0.25500000920E-02 0.  1.
        2   -1    0    0  501    0  0.00000000000E+00  0.00000000000E+00 -0.20578536091E+04  0.20578536091E+04  0.25500000920E-02 0. -1.
    10030    2    1    2    0    0  0.00000000000E+00  0.00000000000E+00 -0.10869310775E+03  0.40070141104E+04  0.40055396502E+04 0.  0.
        2    1    3    3  502    0 -0.11165925917E+03  0.18633746879E+04  0.67149200044E+03  0.19838181682E+04  0.25500000920E-02 0.  1.
       -2    1    3    3    0  502  0.11165925917E+03 -0.18633746879E+04 -0.78018510818E+03  0.20231959423E+04  0.25500000920E-02 0. -1.
</event>
<event>
 5   0  0.2661693E-07  0.3984267E+04  0.7818609E-02  0.8007728E-01
       -2   -1    0    0    0  501  0.00000000000E+00  0.00000000000E+00  0.18606841393E+04  0.18606841393E+04  0.25500000920E-02 0. -1.
        2   -1    0    0  501    0  0.00000000000E+00  0.00000000000E+00 -0.21328686820E+04  0.21328686820E+04  0.25500000920E-02 0.  1.
    10030    2    1    2    0    0  0.00000000000E+00  0.00000000000E+00 -0.27218454270E+03  0.39935528213E+04  0.39842665211E+04 0.  0.
        1    1    3    3  502    0  0.56323050634E+03 -0.11975768509E+04 -0.16285812625E+04  0.20984984741E+04  0.50400001928E-02 0.  1.
       -1    1    3    3    0  502 -0.56323050634E+03  0.11975768509E+04  0.13563967198E+04  0.18950543472E+04  0.50400001928E-02 0. -1.
</event>
<event>
 5   0  0.2704088E-07  0.3738549E+04  0.7818609E-02  0.8059472E-01
        2   -1    0    0  501    0  0.00000000000E+00  0.00000000000E+00  0.20089557214E+04  0.20089557214E+04  0.25500000920E-02 0.  1.
       -2   -1    0    0    0  501  0.00000000000E+00  0.00000000000E+00 -0.17393055448E+04  0.17393055449E+04  0.25500000920E-02 0. -1.
    10030    2    1    2    0    0  0.00000000000E+00  0.00000000000E+00  0.26965017652E+03  0.37482612662E+04  0.37385493580E+04 0.  0.
        5    1    3    3  502    0 -0.77821485078E+03 -0.13072470486E+04 -0.95411450548E+03  0.17957922429E+04  0.46999998093E+01 0. -1.
       -5    1    3    3    0  502  0.77821485078E+03  0.13072470486E+04  0.12237646820E+04  0.19524690233E+04  0.46999998093E+01 0.  1.
</event>
<event>
 5   0  0.8528625E-08  0.3956197E+04  0.7818609E-02  0.8013442E-01
        1   -1    0    0  501    0  0.00000000000E+00  0.00000000000E+00  0.14577857789E+04  0.14577857789E+04  0.50400001928E-02 0. -1.
       -1   -1    0    0    0  501  0.00000000000E+00  0.00000000000E+00 -0.26841214792E+04  0.26841214792E+04  0.50400001928E-02 0.  1.
    10030    2    1    2    0    0  0.00000000000E+00  0.00000000000E+00 -0.12263357003E+04  0.41419072582E+04  0.39561972253E+04 0.  0.
        2    1    3    3  502    0  0.85814069978E+03 -0.34554174180E+03  0.12173547579E+04  0.15289725840E+04  0.25500000920E-02 0. -1.
       -2    1    3    3    0  502 -0.85814069978E+03  0.34554174180E+03 -0.24436904582E+04  0.26129346742E+04  0.25500000920E-02 0.  1.
</event>
<event>
 5   0  0.2666978E-07  0.3933309E+04  0.7818609E-02  0.8018137E-01
        2   -1    0    0  501    0  0.00000000000E+00  0.00000000000E+00  0.18741191654E+04  0.18741191654E+04  0.25500000920E-02 0. -1.
       -2   -1    0    0    0  501  0.00000000000E+00  0.00000000000E+00 -0.20637587400E+04  0.20637587400E+04  0.25500000920E-02 0.  1.
    10030    2    1    2    0    0  0.00000000000E+00  0.00000000000E+00 -0.18963957460E+03  0.39378779055E+04  0.39333089416E+04 0.  0.
        4    1    3    3  502    0 -0.14914111281E+04 -0.11751594615E+04 -0.60768555640E+03  0.19936374448E+04  0.12699999809E+01 0.  1.
       -4    1    3    3    0  502  0.14914111281E+04  0.11751594615E+04  0.41804598180E+03  0.19442404606E+04  0.12699999809E+01 0. -1.
</event>
<event>
 5   0  0.2661693E-07  0.2970924E+04  0.7818609E-02  0.8252083E-01
       -2   -1    0    0    0  501  0.00000000000E+00  0.00000000000E+00  0.12105665124E+04  0.12105665124E+04  0.25500000920E-02 0. -1.
        2   -1    0    0  501    0  0.00000000000E+00  0.00000000000E+00 -0.18227807718E+04  0.18227807718E+04  0.25500000920E-02 0.  1.
    10030    2    1    2    0    0  0.00000000000E+00  0.00000000000E+00 -0.61221425935E+03  0.30333472842E+04  0.29709240056E+04 0.  0.
        1    1    3    3  502    0  0.12340426041E+04 -0.38125485760E+03  0.44305433994E+03  0.13654719196E+04  0.50400001928E-02 0.  1.
       -1    1    3    3    0  502 -0.12340426041E+04  0.38125485760E+03 -0.10552685993E+04  0.16678753646E+04  0.50400001928E-02 0. -1.
</event>
<event>
 5   0  0.8583262E-08  0.4022833E+04  0.7818609E-02  0.7999956E-01
        1   -1    0    0  501    0  0.00000000000E+00  0.00000000000E+00  0.14655356707E+04  0.14655356707E+04  0.50400001928E-02 0.  1.
       -1   -1    0    0    0  501  0.00000000000E+00  0.00000000000E+00 -0.27606267403E+04  0.27606267403E+04  0.50400001928E-02 0. -1.
    10030    2    1    2    0    0  0.00000000000E+00  0.00000000000E+00 -0.12950910695E+04  0.42261624110E+04  0.40228333107E+04 0.  0.
        1    1    3    3  502    0  0.13558632757E+04  0.66574801021E+03 -0.20429157490E+04  0.25406869924E+04  0.50400001928E-02 0. -1.
       -1    1    3    3    0  502 -0.13558632757E+04 -0.66574801021E+03  0.74782467948E+03  0.16854754186E+04  0.50400001928E-02 0.  1.
</event>
<event>
 5   0  0.8528625E-08  0.3911415E+04  0.7818609E-02  0.8022659E-01
       -1   -1    0    0    0  501  0.00000000000E+00  0.00000000000E+00  0.14897804159E+04  0.14897804159E+04  0.50400001928E-02 0.  1.
        1   -1    0    0  501    0  0.00000000000E+00  0.00000000000E+00 -0.25673527839E+04  0.25673527839E+04  0.50400001928E-02 0. -1.
    10030    2    1    2    0    0  0.00000000000E+00  0.00000000000E+00 -0.10775723680E+04  0.40571331999E+04  0.39114150372E+04 0.  0.
        5    1    3    3  502    0 -0.13183447323E+04  0.31785418134E+03 -0.20004342149E+04  0.24167795208E+04  0.46999998093E+01 0. -1.
       -5    1    3    3    0  502  0.13183447323E+04 -0.31785418134E+03  0.92286184694E+03  0.16403536791E+04  0.46999998093E+01 0.  1.
</event>
<event>
 5   0  0.2704088E-07  0.3971118E+04  0.7818609E-02  0.8010398E-01
       -2   -1    0    0    0  501  0.00000000000E+00  0.00000000000E+00  0.18917478501E+04  0.18917478501E+04  0.25500000920E-02 0.  1.
        2   -1    0    0  501    0  0.00000000000E+00  0.00000000000E+00 -0.20840222090E+04  0.20840222090E+04  0.25500000920E-02 0. -1.
    10030    2    1    2    0    0  0.00000000000E+00  0.00000000000E+00 -0.19227435888E+03  0.39757700591E+04  0.39711179954E+04 0.  0.
        5    1    3    3  502    0 -0.11084430608E+03  0.10081498493E+04 -0.18051136795E+04  0.20705337632E+04  0.46999998093E+01 0. -1.
       -5    1    3    3    0  502  0.11084430608E+03 -0.10081498493E+04  0.16128393206E+04  0.19052362958E+04  0.46999998093E+01 0.  1.
</event>
<event>
 5   0  0.2704088E-07  0.4011774E+04  0.7818609E-02  0.8002176E-01
       -2   -1    0    0    0  501  0.00000000000E+00  0.00000000000E+00  0.17515923515E+04  0.17515923515E+04  0.25500000920E-02 0. -1.
        2   -1    0    0  501    0  0.00000000000E+00  0.00000000000E+00 -0.22971000337E+04  0.22971000337E+04  0.25500000920E-02 0.  1.
    10030    2    1    2    0    0  0.00000000000E+00  0.00000000000E+00 -0.54550768217E+03  0.40486923852E+04  0.40117740961E+04 0.  0.
        5    1    3    3  502    0  0.10379279624E+04 -0.17084314987E+04 -0.44019667965E+03  0.20469068976E+04  0.46999998093E+01 0. -1.
       -5    1    3    3    0  502 -0.10379279624E+04  0.17084314987E+04 -0.10531100252E+03  0.20017854875E+04  0.46999998093E+01 0.  1.
</event>
<event>
 5   0  0.2704088E-07  0.3983062E+04  0.7818609E-02  0.8007972E-01
       -2   -1    0    0    0  501  0.00000000000E+00  0.00000000000E+00  0.23050842659E+04  0.23050842659E+04  0.25500000920E-02 0.  1.
        2   -1    0    0  501    0  0.00000000000E+00  0.00000000000E+00 -0.17206290578E+04  0.17206290579E+04  0.25500000920E-02 0. -1.
    10030    2    1    2    0    0  0.00000000000E+00  0.00000000000E+00  0.58445520803E+03  0.40257133237E+04  0.39830616208E+04 0.  0.
        5    1    3    3  502    0  0.15500706134E+04 -0.12408639969E+04  0.13659653553E+03  0.19902620603E+04  0.46999998093E+01 0.  1.
       -5    1    3    3    0  502 -0.15500706134E+04  0.12408639969E+04  0.44785867250E+03  0.20354512634E+04  0.46999998093E+01 0. -1.
</event>
<event>
 5   0  0.2666978E-07  0.3998080E+04  0.7818609E-02  0.8004934E-01
       -2   -1    0    0    0  501  0.00000000000E+00  0.00000000000E+00  0.20797753402E+04  0.20797753402E+04  0.25500000920E-02 0.  1.
        2   -1    0    0  501    0  0.00000000000E+00  0.00000000000E+00 -0.19214387241E+04  0.19214387241E+04  0.25500000920E-02 0. -1.
    10030    2    1    2    0    0  0.00000000000E+00  0.00000000000E+00  0.15833661611E+03  0.40012140644E+04  0.39980799773E+04 0.  0.
        4    1    3    3  502    0 -0.15732296929E+04 -0.32560212705E+03  0.12696767268E+04  0.20477180019E+04  0.12699999809E+01 0.  1.
       -4    1    3    3    0  502  0.15732296929E+04  0.32560212705E+03 -0.11113401107E+04  0.19534960625E+04  0.12699999809E+01 0. -1.
</event>
<event>
 5   0  0.2666978E-07  0.4023074E+04  0.7818609E-02  0.7999908E-01
       -2   -1    0    0    0  501  0.00000000000E+00  0.00000000000E+00  0.13015047433E+04  0.13015047433E+04  0.25500000920E-02 0. -1.
        2   -1    0    0  501    0  0.00000000000E+00  0.00000000000E+00 -0.31089254326E+04  0.31089254326E+04  0.25500000920E-02 0.  1.
    10030    2    1    2    0    0  0.00000000000E+00  0.00000000000E+00 -0.18074206893E+04  0.44104301759E+04  0.40230740471E+04 0.  0.
        4    1    3    3  502    0  0.17353198530E+04  0.73612367490E+03 -0.13391428257E+03  0.18897480533E+04  0.12699999809E+01 0.  1.
       -4    1    3    3    0  502 -0.17353198530E+04 -0.73612367490E+03 -0.16735064067E+04  0.25206821226E+04  0.12699999809E+01 0. -1.
</event>
<event>
 5   0  0.8528625E-08  0.3999313E+04  0.7818609E-02  0.8004685E-01
       -1   -1    0    0    0  501  0.00000000000E+00  0.00000000000E+00  0.23740397162E+04  0.23740397162E+04  0.50400001928E-02 0. -1.
        1   -1    0    0  501    0  0.00000000000E+00  0.00000000000E+00 -0.16843127232E+04  0.16843127232E+04  0.50400001928E-02 0.  1.
    10030    2    1    2    0    0  0.00000000000E+00  0.00000000000E+00  0.68972699306E+03  0.40583524394E+04  0.39993125906E+04 0.  0.
        5    1    3    3  502    0 -0.82777379778E+03 -0.18073038949E+04  0.56496728509E+03  0.20665834007E+04  0.46999998093E+01 0.  1.
       -5    1    3    3    0  502  0.82777379778E+03  0.18073038949E+04  0.12475970797E+03  0.19917690387E+04  0.46999998093E+01 0. -1.
</event>
<event>
 5   0  0.2839279E-07  0.3995467E+04  0.7818609E-02  0.8005462E-01
        2   -1    0    0  501    0  0.00000000000E+00  0.00000000000E+00  0.16429059553E+04  0.16429059553E+04  0.25500000920E-02 0.  1.
       -2   -1    0    0    0  501  0.00000000000E+00  0.00000000000E+00 -0.24291948566E+04  0.24291948566E+04  0.25500000920E-02 0. -1.
    10030    2    1    2    0    0  0.00000000000E+00  0.00000000000E+00 -0.78628890133E+03  0.40721008119E+04  0.39954667795E+04 0.  0.
        3    1    3    3  502    0 -0.11051283354E+04  0.11861575881E+04  0.79657561596E+03  0.18063253261E+04  0.10100000352E+00 0. -1.
       -3    1    3    3    0  502  0.11051283354E+04 -0.11861575881E+04 -0.15828645173E+04  0.22657754858E+04  0.10100000352E+00 0.  1.
</event>
<event>
 5   0  0.2730801E-07  0.3970388E+04  0.7818609E-02  0.8010547E-01
       -2   -1    0    0    0  501  0.00000000000E+00  0.00000000000E+00  0.20690400917E+04  0.20690400917E+04  0.25500000920E-02 0. -1.
        2   -1    0    0  501    0  0.00000000000E+00  0.00000000000E+00 -0.19047457908E+04  0.19047457908E+04  0.25500000920E-02 0.  1.
    10030    2    1    2    0    0  0.00000000000E+00  0.00000000000E+00  0.16429430090E+03  0.39737858825E+04  0.39703880947E+04 0.  0.
        2    1    3    3  502    0 -0.13021591765E+04 -0.14388826323E+04  0.50082757300E+03  0.20042030856E+04  0.25500000920E-02 0. -1.
       -2    1    3    3    0  502  0.13021591765E+04  0.14388826323E+04 -0.33653327211E+03  0.19695827969E+04  0.25500000920E-02 0.  1.
</event>
<event>
 5   0  0.8528625E-08  0.3870484E+04  0.7818609E-02  0.8031196E-01
       -1   -1    0    0    0  501  0.00000000000E+00  0.00000000000E+00  0.29653732607E+04  0.29653732607E+04  0.50400001928E-02 0. -1.
        1   -1    0    0  501    0  0.00000000000E+00  0.00000000000E+00 -0.12629649740E+04  0.12629649740E+04  0.50400001928E-02 0.  1.
    10030    2    1    2    0    0  0.00000000000E+00  0.00000000000E+00  0.17024082867E+04  0.42283382347E+04  0.38704844984E+04 0.  0.
        3    1    3    3  502    0 -0.14442176187E+03  0.98614604874E+03 -0.96103066789E+03  0.13845293892E+04  0.10100000352E+00 0. -1.
       -3    1    3    3    0  502  0.14442176187E+03 -0.98614604874E+03  0.26634389546E+04  0.28438088455E+04  0.10100000352E+00 0.  1.
</event>
<event>
 5   0  0.2704088E-07  0.4017912E+04  0.7818609E-02  0.8000943E-01
        2   -1    0    0  501    0  0.00000000000E+00  0.00000000000E+00  0.21011370512E+04  0.21011370512E+04  0.25500000920E-02 0. -1.
       -2   -1    0    0    0  501  0.00000000000E+00  0.00000000000E+00 -0.19208188155E+04  0.19208188155E+04  0.25500000920E-02 0.  1.
    10030    2    1    2    0    0  0.00000000000E+00  0.00000000000E+00  0.18031823567E+03  0.40219558667E+04  0.40179116873E+04 0.  0.
        5    1    3    3  502    0  0.34912677006E+02  0.99932533096E+03 -0.16540101042E+04  0.19327807757E+04  0.46999998093E+01 0.  1.
       -5    1    3    3    0  502 -0.34912677006E+02 -0.99932533096E+03  0.18343283399E+04  0.20891750910E+04  0.46999998093E+01 0. -1.
</event>
<event>
 5   0  0.2730801E-07  0.4002809E+04  0.7818609E-02  0.8003980E-01
        2   -1    0    0  501    0  0.00000000000E+00  0.00000000000E+00  0.21688894216E+04  0.21688894216E+04  0.25500000920E-02 0. -1.
       -2   -1    0    0    0  501  0.00000000000E+00  0.00000000000E+00 -0.18468527237E+04  0.18468527237E+04  0.25500000920E-02 0.  1.
    10030    2    1    2    0    0  0.00000000000E+00  0.00000000000E+00  0.32203669790E+03  0.40157421453E+04  0.40028086818E+04 0.  0.
        2    1    3    3  502    0  0.87530589858E+03  0.93806614526E+02  0.19642294054E+04  0.21524770043E+04  0.25500000920E-02 0. -1.
       -2    1    3    3    0  502 -0.87530589858E+03 -0.93806614526E+02 -0.16421927075E+04  0.18632651410E+04  0.25500000920E-02 0.  1.
</event>
<event>
 5   0  0.8583262E-08  0.4089966E+04  0.7818609E-02  0.7986639E-01
       -1   -1    0    0    0  501  0.00000000000E+00  0.00000000000E+00  0.15455888265E+04  0.15455888265E+04  0.50400001928E-02 0.  1.
        1   -1    0    0  501    0  0.00000000000E+00  0.00000000000E+00 -0.27057359300E+04  0.27057359300E+04  0.50400001928E-02 0. -1.
    10030    2    1    2    0    0  0.00000000000E+00  0.00000000000E+00 -0.11601471035E+04  0.42513247565E+04  0.40899658780E+04 0.  0.
        1    1    3    3  502    0  0.16753082454E+04  0.61636341142E+03 -0.16171291246E+04  0.24086652275E+04  0.50400001928E-02 0. -1.
       -1    1    3    3    0  502 -0.16753082454E+04 -0.61636341142E+03  0.45698202116E+03  0.18426595290E+04  0.50400001928E-02 0.  1.
</event>
<event>
 5   0  0.2704088E-07  0.3932986E+04  0.7818609E-02  0.8018204E-01
        2   -1    0    0  501    0  0.00000000000E+00  0.00000000000E+00  0.29868532023E+04  0.29868532023E+04  0.25500000920E-02 0. -1.
       -2   -1    0    0    0  501  0.00000000000E+00  0.00000000000E+00 -0.12947051974E+04  0.12947051974E+04  0.25500000920E-02 0.  1.
    10030    2    1    2    0    0  0.00000000000E+00  0.00000000000E+00  0.16921480049E+04  0.42815583996E+04  0.39329858198E+04 0.  0.
        5    1    3    3  502    0  0.83920793326E+03 -0.90941784260E+03  0.25098457299E+04  0.27983313681E+04  0.46999998093E+01 0. -1.
       -5    1    3    3    0  502 -0.83920793326E+03  0.90941784260E+03 -0.81769772498E+03  0.14832270316E+04  0.46999998093E+01 0.  1.
</event>
<event>
 5   0  0.2704088E-07  0.3245593E+04  0.7818609E-02  0.8176879E-01
       -2   -1    0    0    0  501  0.00000000000E+00  0.00000000000E+00  0.18088376096E+04  0.18088376096E+04  0.25500000920E-02 0. -1.
        2   -1    0    0  501    0  0.00000000000E+00  0.00000000000E+00 -0.14558896605E+04  0.14558896605E+04  0.25500000920E-02 0.  1.
    10030    2    1    2    0    0  0.00000000000E+00  0.00000000000E+00  0.35294794908E+03  0.32647272701E+04  0.32455926875E+04 0.  0.
        5    1    3    3  502    0 -0.50537843366E+03 -0.79460288513E+03  0.15058724777E+04  0.17760842084E+04  0.46999998093E+01 0. -1.
       -5    1    3    3    0  502  0.50537843366E+03  0.79460288513E+03 -0.11529245287E+04  0.14886430617E+04  0.46999998093E+01 0.  1.
</event>
<event>
 5   0  0.2839279E-07  0.4013177E+04  0.7818609E-02  0.8001894E-01
       -2   -1    0    0    0  501  0.00000000000E+00  0.00000000000E+00  0.19669638558E+04  0.19669638558E+04  0.25500000920E-02 0.  1.
        2   -1    0    0  501    0  0.00000000000E+00  0.00000000000E+00 -0.20470118404E+04  0.20470118404E+04  0.25500000920E-02 0. -1.
    10030    2    1    2    0    0  0.00000000000E+00  0.00000000000E+00 -0.80047984610E+02  0.40139756962E+04  0.40131774456E+04 0.  0.
        3    1    3    3  502    0  0.73217555682E+02  0.51922844313E+03  0.18972245287E+04  0.19683546197E+04  0.10100000352E+00 0.  1.
       -3    1    3    3    0  502 -0.73217555682E+02 -0.51922844313E+03 -0.19772725133E+04  0.20456210765E+04  0.10100000352E+00 0. -1.
</event>
<event>
 5   0  0.8528625E-08  0.4030881E+04  0.7818609E-02  0.7998346E-01
       -1   -1    0    0    0  501  0.00000000000E+00  0.00000000000E+00  0.14896577027E+04  0.14896577027E+04  0.50400001928E-02 0. -1.
        1   -1    0    0  501    0  0.00000000000E+00  0.00000000000E+00 -0.27268009479E+04  0.27268009479E+04  0.50400001928E-02 0.  1.
    10030    2    1    2    0    0  0.00000000000E+00  0.00000000000E+00 -0.12371432452E+04  0.42164586506E+04  0.40308808148E+04 0.  0.
        2    1    3    3  502    0 -0.93013157189E+03  0.45867223776E+03  0.11891324469E+04  0.15778342559E+04  0.25500000920E-02 0. -1.
       -2    1    3    3    0  502  0.93013157189E+03 -0.45867223776E+03 -0.24262756921E+04  0.26386243948E+04  0.25500000920E-02 0.  1.
</event>
<event>
 5   0  0.8528625E-08  0.3984425E+04  0.7818609E-02  0.8007696E-01
        1   -1    0    0  501    0  0.00000000000E+00  0.00000000000E+00  0.22626539860E+04  0.22626539860E+04  0.50400001928E-02 0.  1.
       -1   -1    0    0    0  501  0.00000000000E+00  0.00000000000E+00 -0.17540955486E+04  0.17540955486E+04  0.50400001928E-02 0. -1.
    10030    2    1    2    0    0  0.00000000000E+00  0.00000000000E+00  0.50855843742E+03  0.40167495347E+04  0.39844253212E+04 0.  0.
        5    1    3    3  502    0 -0.11425979015E+04  0.27111639376E+03  0.18766375991E+04  0.22137806647E+04  0.46999998093E+01 0.  1.
       -5    1    3    3    0  502  0.11425979015E+04 -0.27111639376E+03 -0.13680791616E+04  0.18029688699E+04  0.46999998093E+01 0. -1.
</event>
<event>
 5   0  0.2730801E-07  0.4030040E+04  0.7818609E-02  0.7998514E-01
       -2   -1    0    0    0  501  0.00000000000E+00  0.00000000000E+00  0.23098764368E+04  0.23098764368E+04  0.25500000920E-02 0. -1.
        2   -1    0    0  501    0  0.00000000000E+00  0.00000000000E+00 -0.17578017029E+04  0.17578017029E+04  0.25500000920E-02 0.  1.
    10030    2    1    2    0    0  0.00000000000E+00  0.00000000000E+00  0.55207473395E+03  0.40676781397E+04  0.40300395701E+04 0.  0.
        2    1    3    3  502    0 -0.19159788841E+04  0.53280961615E+03 -0.51716109575E+02  0.19893556060E+04  0.25500000920E-02 0.  1.
       -2    1    3    3    0  502  0.19159788841E+04 -0.53280961615E+03  0.60379084353E+03  0.20783225337E+04  0.25500000920E-02 0. -1.
</event>
<event>
 5   0  0.2661693E-07  0.3972247E+04  0.7818609E-02  0.8010169E-01
       -2   -1    0    0    0  501  0.00000000000E+00  0.00000000000E+00  0.13583801823E+04  0.13583801823E+04  0.25500000920E-02 0.  1.
        2   -1    0    0  501    0  0.00000000000E+00  0.00000000000E+00 -0.29039630178E+04  0.29039630178E+04  0.25500000920E-02 0. -1.
    10030    2    1    2    0    0  0.00000000000E+00  0.00000000000E+00 -0.15455828356E+04  0.42623432001E+04  0.39722466255E+04 0.  0.
        1    1    3    3  502    0  0.90147578964E+03 -0.57858330589E+03  0.10218566431E+04  0.14804081330E+04  0.50400001928E-02 0.  1.
       -1    1    3    3    0  502 -0.90147578964E+03  0.57858330589E+03 -0.25674394787E+04  0.27819350671E+04  0.50400001928E-02 0. -1.
</event>
<event>
 5   0  0.8528625E-08  0.4037029E+04  0.7818609E-02  0.7997118E-01
       -1   -1    0    0    0  501  0.00000000000E+00  0.00000000000E+00  0.15364601366E+04  0.15364601366E+04  0.50400001928E-02 0.  1.
        1   -1    0    0  501    0  0.00000000000E+00  0.00000000000E+00 -0.26518096751E+04  0.26518096751E+04  0.50400001928E-02 0. -1.
    10030    2    1    2    0    0  0.00000000000E+00  0.00000000000E+00 -0.11153495386E+04  0.41882698117E+04  0.40370285387E+04 0.  0.
        4    1    3    3  502    0  0.97410873183E+02  0.11735315310E+04 -0.22585243319E+04  0.25470765405E+04  0.12699999809E+01 0. -1.
       -4    1    3    3    0  502 -0.97410873183E+02 -0.11735315310E+04  0.11431747933E+04  0.16411932712E+04  0.12699999809E+01 0.  1.
</event>
<event>
 5   0  0.8528625E-08  0.3945037E+04  0.7818609E-02  0.8015727E-01
        1   -1    0    0  501    0  0.00000000000E+00  0.00000000000E+00  0.19359909615E+04  0.19359909615E+04  0.50400001928E-02 0.  1.
       -1   -1    0    0    0  501  0.00000000000E+00  0.00000000000E+00 -0.20097353138E+04  0.20097353138E+04  0.50400001928E-02 0. -1.
    10030    2    1    2    0    0  0.00000000000E+00  0.00000000000E+00 -0.73744352338E+02  0.39457262754E+04  0.39450370861E+04 0.  0.
        3    1    3    3  502    0 -0.19264335502E+04 -0.31921772573E+03 -0.31581731785E+03  0.19780765325E+04  0.10100000352E+00 0. -1.
       -3    1    3    3    0  502  0.19264335502E+04  0.31921772573E+03  0.24207296551E+03  0.19676497429E+04  0.10100000352E+00 0.  1.
</event>
<event>
 5   0  0.2730801E-07  0.3301544E+04  0.7818609E-02  0.8162503E-01
        2   -1    0    0  501    0  0.00000000000E+00  0.00000000000E+00  0.15000342629E+04  0.15000342629E+04  0.25500000920E-02 0.  1.
       -2   -1    0    0    0  501  0.00000000000E+00  0.00000000000E+00 -0.18166570281E+04  0.18166570281E+04  0.25500000920E-02 0. -1.
    10030    2    1    2    0    0  0.00000000000E+00  0.00000000000E+00 -0.31662276517E+03  0.33166912910E+04  0.33015437517E+04 0.  0.
        2    1    3    3  502    0  0.76218258456E+02  0.14906820635E+04  0.54998055604E+03  0.15907296594E+04  0.25500000920E-02 0.  1.
       -2    1    3    3    0  502 -0.76218258456E+02 -0.14906820635E+04 -0.86660332121E+03  0.17259616316E+04  0.25500000920E-02 0. -1.
</event>
<event>
 5   0  0.8528625E-08  0.3585333E+04  0.7818609E-02  0.8093860E-01
       -1   -1    0    0    0  501  0.00000000000E+00  0.00000000000E+00  0.15464439478E+04  0.15464439478E+04  0.50400001928E-02 0. -1.
        1   -1    0    0  501    0  0.00000000000E+00  0.00000000000E+00 -0.20780918452E+04  0.20780918453E+04  0.50400001928E-02 0.  1.
    10030    2    1    2    0    0  0.00000000000E+00  0.00000000000E+00 -0.53164789742E+03  0.36245357931E+04  0.35853326524E+04 0.  0.
        3    1    3    3  502    0 -0.69619694444E+03  0.16509461066E+04 -0.20740528774E+03  0.18036990314E+04  0.10100000352E+00 0.  1.
       -3    1    3    3    0  502  0.69619694444E+03 -0.16509461066E+04 -0.32424260969E+03  0.18208367616E+04  0.10100000352E+00 0. -1.
</event>
<event>
 5   0  0.8583262E-08  0.3973434E+04  0.7818609E-02  0.8009927E-01
        1   -1    0    0  501    0  0.00000000000E+00  0.00000000000E+00  0.21461801710E+04  0.21461801710E+04  0.50400001928E-02 0.  1.
       -1   -1    0    0    0  501  0.00000000000E+00  0.00000000000E+00 -0.18391024423E+04  0.18391024423E+04  0.50400001928E-02 0. -1.
    10030    2    1    2    0    0  0.00000000000E+00  0.00000000000E+00  0.30707772867E+03  0.39852826133E+04  0.39734343805E+04 0.  0.
        1    1    3    3  502    0 -0.12530778130E+04 -0.15421443349E+03  0.16920813610E+04  0.21111905241E+04  0.50400001928E-02 0.  1.
       -1    1    3    3    0  502  0.12530778130E+04  0.15421443349E+03 -0.13850036323E+04  0.18740920891E+04  0.50400001928E-02 0. -1.
</event>
<event>
 5   0  0.8528625E-08  0.3782676E+04  0.7818609E-02  0.8049883E-01
        1   -1    0    0  501    0  0.00000000000E+00  0.00000000000E+00  0.23540257234E+04  0.23540257235E+04  0.50400001928E-02 0.  1.
       -1   -1    0    0    0  501  0.00000000000E+00  0.00000000000E+00 -0.15195920659E+04  0.15195920659E+04  0.50400001928E-02 0. -1.
    10030    2    1    2    0    0  0.00000000000E+00  0.00000000000E+00  0.83443365754E+03  0.38736177894E+04  0.37826756733E+04 0.  0.
        2    1    3    3  502    0 -0.80148654046E+03  0.10310855535E+04 -0.98375338773E+03  0.16350195171E+04  0.25500000920E-02 0. -1.
       -2    1    3    3    0  502  0.80148654046E+03 -0.10310855535E+04  0.18181870453E+04  0.22385982723E+04  0.25500000920E-02 0.  1.
</event>
<event>
 5   0  0.2666978E-07  0.4005737E+04  0.7818609E-02  0.8003390E-01
       -2   -1    0    0    0  501  0.00000000000E+00  0.00000000000E+00  0.19764431109E+04  0.19764431109E+04  0.25500000920E-02 0.  1.
        2   -1    0    0  501    0  0.00000000000E+00  0.00000000000E+00 -0.20296475936E+04  0.20296475936E+04  0.25500000920E-02 0. -1.
    10030    2    1    2    0    0  0.00000000000E+00  0.00000000000E+00 -0.53204482707E+02  0.40060907046E+04  0.40057373873E+04 0.  0.
        4    1    3    3  502    0  0.78534513913E+02  0.15821348919E+04  0.11991334181E+04  0.19867664818E+04  0.12699999809E+01 0.  1.
       -4    1    3    3    0  502 -0.78534513913E+02 -0.15821348919E+04 -0.12523379008E+04  0.20193242228E+04  0.12699999809E+01 0. -1.
</event>
<event>
 5   0  0.8528625E-08  0.4042517E+04  0.7818609E-02  0.7996024E-01
        4   -1    0    0  501    0  0.00000000000E+00  0.00000000000E+00  0.24660987464E+04  0.24660990734E+04  0.12699999809E+01 0. -1.
       -4   -1    0    0    0  501  0.00000000000E+00  0.00000000000E+00 -0.16566589700E+04  0.16566594567E+04  0.12699999809E+01 0.  1.
    10030    2    1    2    0    0  0.00000000000E+00  0.00000000000E+00  0.80943977642E+03  0.41227585301E+04  0.40425171794E+04 0.  0.
        4    1    3    3  502    0 -0.11307130095E+04  0.89170920433E+03  0.18512630293E+04  0.23453856041E+04  0.12699999809E+01 0. -1.
       -4    1    3    3    0  502  0.11307130095E+04 -0.89170920433E+03 -0.10418232529E+04  0.17773729261E+04  0.12699999809E+01 0.  1.
</event>
<event>
 5   0  0.2666978E-07  0.3976752E+04  0.7818609E-02  0.8009253E-01
       -2   -1    0    0    0  501  0.00000000000E+00  0.00000000000E+00  0.31819950129E+04  0.31819950129E+04  0.25500000920E-02 0. -1.
        2   -1    0    0  501    0  0.00000000000E+00  0.00000000000E+00 -0.12425033394E+04  0.12425033394E+04  0.25500000920E-02 0.  1.
    10030    2    1    2    0    0  0.00000000000E+00  0.00000000000E+00  0.19394916736E+04  0.44244983523E+04  0.39767521569E+04 0.  0.
        4    1    3    3  502    0  0.10576822728E+04 -0.16660209972E+04  0.12407252609E+04  0.23310337919E+04  0.12699999809E+01 0.  1.
       -4    1    3    3    0  502 -0.10576822728E+04  0.16660209972E+04  0.69876641264E+03  0.20934645604E+04  0.12699999809E+01 0. -1.
</event>
<event>
 5   0  0.2661693E-07  0.3945333E+04  0.7818609E-02  0.8015666E-01
        2   -1    0    0  501    0  0.00000000000E+00  0.00000000000E+00  0.18203406654E+04  0.18203406654E+04  0.25500000920E-02 0. -1.
       -2   -1    0    0    0  501  0.00000000000E+00  0.00000000000E+00 -0.21377390667E+04  0.21377390667E+04  0.25500000920E-02 0.  1.
    10030    2    1    2    0    0  0.00000000000E+00  0.00000000000E+00 -0.31739840135E+03  0.39580797321E+04  0.39453331190E+04 0.  0.
        1    1    3    3  502    0  0.38762474668E+03 -0.13589724927E+04 -0.15395013360E+04  0.20897663850E+04  0.50400001928E-02 0.  1.
       -1    1    3    3    0  502 -0.38762474668E+03  0.13589724927E+04  0.12221029346E+04  0.18683133471E+04  0.50400001928E-02 0. -1.
</event>
<event>
 5   0  0.2704088E-07  0.4048933E+04  0.7818609E-02  0.7994747E-01
       -2   -1    0    0    0  501  0.00000000000E+00  0.00000000000E+00  0.15877941085E+04  0.15877941085E+04  0.25500000920E-02 0.  1.
        2   -1    0    0  501    0  0.00000000000E+00  0.00000000000E+00 -0.25812319580E+04  0.25812319580E+04  0.25500000920E-02 0. -1.
    10030    2    1    2    0    0  0.00000000000E+00  0.00000000000E+00 -0.99343784956E+03  0.41690260665E+04  0.40489331413E+04 0.  0.
        5    1    3    3  502    0 -0.56229108887E+03  0.17190054707E+04  0.43981463868E+03  0.18613463093E+04  0.46999998093E+01 0.  1.
       -5    1    3    3    0  502  0.56229108887E+03 -0.17190054707E+04 -0.14332524882E+04  0.23076797572E+04  0.46999998093E+01 0. -1.
</event>
<event>
 5   0  0.2839279E-07  0.4009525E+04  0.7818609E-02  0.8002628E-01
       -2   -1    0    0    0  501  0.00000000000E+00  0.00000000000E+00  0.13010809321E+04  0.13010809321E+04  0.25500000920E-02 0.  1.
        2   -1    0    0  501    0  0.00000000000E+00  0.00000000000E+00 -0.30890251814E+04  0.30890251814E+04  0.25500000920E-02 0. -1.
    10030    2    1    2    0    0  0.00000000000E+00  0.00000000000E+00 -0.17879442492E+04  0.43901061135E+04  0.40095245416E+04 0.  0.
        3    1    3    3  502    0  0.10282405637E+04 -0.10297263246E+04  0.61584856439E+03  0.15801532916E+04  0.10100000352E+00 0.  1.
       -3    1    3    3    0  502 -0.10282405637E+04  0.10297263246E+04 -0.24037928136E+04  0.28099528219E+04  0.10100000352E+00 0. -1.
</event>
<event>
 5   0  0.2666978E-07  0.3885666E+04  0.7818609E-02  0.8028017E-01
        2   -1    0    0  501    0  0.00000000000E+00  0.00000000000E+00  0.18929481763E+04  0.18929481763E+04  0.25500000920E-02 0.  1.
       -2   -1    0    0    0  501  0.00000000000E+00  0.00000000000E+00 -0.19940319897E+04  0.19940319897E+04  0.25500000920E-02 0. -1.
    10030    2    1    2    0    0  0.00000000000E+00  0.00000000000E+00 -0.10108381339E+03  0.38869801660E+04  0.38856655638E+04 0.  0.
        4    1    3    3  502    0  0.86725659045E+03  0.35731431108E+03 -0.17525257970E+04  0.19877514413E+04  0.12699999809E+01 0.  1.
       -4    1    3    3    0  502 -0.86725659045E+03 -0.35731431108E+03  0.16514419836E+04  0.18992287247E+04  0.12699999809E+01 0. -1.
</event>
<event>
 5   0  0.8528625E-08  0.4034569E+04  0.7818609E-02  0.7997609E-01
       -1   -1    0    0    0  501  0.00000000000E+00  0.00000000000E+00  0.13171116348E+04  0.13171116348E+04  0.50400001928E-02 0.  1.
        1   -1    0    0  501    0  0.00000000000E+00  0.00000000000E+00 -0.30896671837E+04  0.30896671837E+04  0.50400001928E-02 0. -1.
    10030    2    1    2    0    0  0.00000000000E+00  0.00000000000E+00 -0.17725555490E+04  0.44067788185E+04  0.40345689214E+04 0.  0.
        3    1    3    3  502    0 -0.68775824452E+03  0.12947673833E+04  0.62719643078E+03  0.15946188739E+04  0.10100000352E+00 0.  1.
       -3    1    3    3    0  502  0.68775824452E+03 -0.12947673833E+04 -0.23997519798E+04  0.28121599447E+04  0.10100000352E+00 0. -1.
</event>
<event>
 5   0  0.8528625E-08  0.3942045E+04  0.7818609E-02  0.8016341E-01
       -1   -1    0    0    0  501  0.00000000000E+00  0.00000000000E+00  0.17215501599E+04  0.17215501599E+04  0.50400001928E-02 0.  1.
        1   -1    0    0  501    0  0.00000000000E+00  0.00000000000E+00 -0.22566462430E+04  0.22566462430E+04  0.50400001928E-02 0. -1.
    10030    2    1    2    0    0  0.00000000000E+00  0.00000000000E+00 -0.53509608306E+03  0.39781964030E+04  0.39420450026E+04 0.  0.
        2    1    3    3  502    0  0.49939851007E+02 -0.12240190336E+04  0.12907021142E+04  0.17795023268E+04  0.25500000920E-02 0.  1.
       -2    1    3    3    0  502 -0.49939851007E+02  0.12240190336E+04 -0.18257981973E+04  0.21986940762E+04  0.25500000920E-02 0. -1.
</event>
<event>
 5   0  0.8528625E-08  0.3992166E+04  0.7818609E-02  0.8006129E-01
        1   -1    0    0  501    0  0.00000000000E+00  0.00000000000E+00  0.16027019270E+04  0.16027019270E+04  0.50400001928E-02 0.  1.
       -1   -1    0    0    0  501  0.00000000000E+00  0.00000000000E+00 -0.24860187749E+04  0.24860187749E+04  0.50400001928E-02 0. -1.
    10030    2    1    2    0    0  0.00000000000E+00  0.00000000000E+00 -0.88331684791E+03  0.40887207019E+04  0.39921658688E+04 0.  0.
        5    1    3    3  502    0  0.12849294515E+04  0.14301344913E+04 -0.99129113625E+03  0.21631016078E+04  0.46999998093E+01 0. -1.
       -5    1    3    3    0  502 -0.12849294515E+04 -0.14301344913E+04  0.10797428834E+03  0.19256190941E+04  0.46999998093E+01 0.  1.
</event>
<event>
 5   0  0.2666978E-07  0.3231700E+04  0.7818609E-02  0.8180495E-01
       -2   -1    0    0    0  501  0.00000000000E+00  0.00000000000E+00  0.15434046141E+04  0.15434046141E+04  0.25500000920E-02 0.  1.
        2   -1    0    0  501    0  0.00000000000E+00  0.00000000000E+00 -0.16916960831E+04  0.16916960831E+04  0.25500000920E-02 0. -1.
    10030    2    1    2    0    0  0.00000000000E+00  0.00000000000E+00 -0.14829146896E+03  0.32351006972E+04  0.32317001967E+04 0.  0.
        4    1    3    3  502    0  0.99671258337E+03 -0.47021349612E+03  0.11088054535E+04  0.15633258945E+04  0.12699999809E+01 0.  1.
       -4    1    3    3    0  502 -0.99671258337E+03  0.47021349612E+03 -0.12570969224E+04  0.16717748027E+04  0.12699999809E+01 0. -1.
</event>
<event>
 5   0  0.8583262E-08  0.3786763E+04  0.7818609E-02  0.8049001E-01
       -1   -1    0    0    0  501  0.00000000000E+00  0.00000000000E+00  0.20084833510E+04  0.20084833510E+04  0.50400001928E-02 0. -1.
        1   -1    0    0  501    0  0.00000000000E+00  0.00000000000E+00 -0.17848763118E+04  0.17848763118E+04  0.50400001928E-02 0.  1.
    10030    2    1    2    0    0  0.00000000000E+00  0.00000000000E+00  0.22360703927E+03  0.37933596628E+04  0.37867634496E+04 0.  0.
        1    1    3    3  502    0  0.55814212806E+03  0.34153318906E+03  0.18916163940E+04  0.20015943986E+04  0.50400001928E-02 0. -1.
       -1    1    3    3    0  502 -0.55814212806E+03 -0.34153318906E+03 -0.16680093548E+04  0.17917652642E+04  0.50400001928E-02 0.  1.
</event>
<event>
 5   0  0.8528625E-08  0.4044560E+04  0.7818609E-02  0.7995617E-01
       -1   -1    0    0    0  501  0.00000000000E+00  0.00000000000E+00  0.18788223205E+04  0.18788223205E+04  0.50400001928E-02 0. -1.
        1   -1    0    0  501    0  0.00000000000E+00  0.00000000000E+00 -0.21766913386E+04  0.21766913386E+04  0.50400001928E-02 0.  1.
    10030    2    1    2    0    0  0.00000000000E+00  0.00000000000E+00 -0.29786901808E+03  0.40555136592E+04  0.40445599375E+04 0.  0.
        5    1    3    3  502    0  0.16158199891E+04 -0.10404103507E+04  0.48226715266E+03  0.19813963843E+04  0.46999998093E+01 0. -1.
       -5    1    3    3    0  502 -0.16158199891E+04  0.10404103507E+04 -0.78013617075E+03  0.20741172749E+04  0.46999998093E+01 0.  1.
</event>
<event>
 5   0  0.8583262E-08  0.4004976E+04  0.7818609E-02  0.8003543E-01
        1   -1    0    0  501    0  0.00000000000E+00  0.00000000000E+00  0.30775381957E+04  0.30775381957E+04  0.50400001928E-02 0.  1.
       -1   -1    0    0    0  501  0.00000000000E+00  0.00000000000E+00 -0.13029759878E+04  0.13029759878E+04  0.50400001928E-02 0. -1.
    10030    2    1    2    0    0  0.00000000000E+00  0.00000000000E+00  0.17745622079E+04  0.43805141834E+04  0.40049760900E+04 0.  0.
        1    1    3    3  502    0  0.11717081540E+04 -0.88642006647E+03 -0.60093382234E+03  0.15873758192E+04  0.50400001928E-02 0.  1.
       -1    1    3    3    0  502 -0.11717081540E+04  0.88642006647E+03  0.23754960302E+04  0.27931383643E+04  0.50400001928E-02 0. -1.
</event>
<event>
 5   0  0.8528625E-08  0.3962586E+04  0.7818609E-02  0.8012137E-01
       -1   -1    0    0    0  501  0.00000000000E+00  0.00000000000E+00  0.16606428464E+04  0.16606428464E+04  0.50400001928E-02 0.  1.
        1   -1    0    0  501    0  0.00000000000E+00  0.00000000000E+00 -0.23638571936E+04  0.23638571936E+04  0.50400001928E-02 0. -1.
    10030    2    1    2    0    0  0.00000000000E+00  0.00000000000E+00 -0.70321434720E+03  0.40245000401E+04  0.39625862961E+04 0.  0.
        2    1    3    3  502    0  0.82065772745E+03 -0.13703764502E+03  0.14746157670E+04  0.16931479800E+04  0.25500000920E-02 0.  1.
       -2    1    3    3    0  502 -0.82065772745E+03  0.13703764502E+03 -0.21778301142E+04  0.23313520601E+04  0.25500000920E-02 0. -1.
</event>
<event>
 5   0  0.2704088E-07  0.4013661E+04  0.7818609E-02  0.8001796E-01
       -2   -1    0    0    0  501  0.00000000000E+00  0.00000000000E+00  0.16726722834E+04  0.16726722834E+04  0.25500000920E-02 0.  1.
        2   -1    0    0  501    0  0.00000000000E+00  0.00000000000E+00 -0.24077453534E+04  0.24077453534E+04  0.25500000920E-02 0. -1.
    10030    2    1    2    0    0  0.00000000000E+00  0.00000000000E+00 -0.73507306999E+03  0.40804176368E+04  0.40136611308E+04 0.  0.
        5    1    3    3  502    0 -0.12612187193E+03 -0.11392967820E+04 -0.20421873317E+04  0.23418913450E+04  0.46999998093E+01 0. -1.
       -5    1    3    3    0  502  0.12612187193E+03  0.11392967820E+04  0.13071142617E+04  0.17385262918E+04  0.46999998093E+01 0.  1.
</event>
<event>
 5   0  0.2666978E-07  0.3945398E+04  0.7818609E-02  0.8015653E-01
       -2   -1    0    0    0  501  0.00000000000E+00  0.00000000000E+00  0.25260307738E+04  0.25260307738E+04  0.25500000920E-02 0.  1.
        2   -1    0    0  501    0  0.00000000000E+00  0.00000000000E+00 -0.15405752023E+04  0.15405752023E+04  0.25500000920E-02 0. -1.
    10030    2    1    2    0    0  0.00000000000E+00  0.00000000000E+00  0.98545557149E+03  0.40666059762E+04  0.39453975062E+04 0.  0.
        4    1    3    3  502    0  0.74325580266E+03 -0.36660735123E+03  0.23378944637E+04  0.24804399356E+04  0.12699999809E+01 0.  1.
       -4    1    3    3    0  502 -0.74325580266E+03  0.36660735123E+03 -0.13524388922E+04  0.15861660405E+04  0.12699999809E+01 0. -1.
</event>
<event>
 5   0  0.8528625E-08  0.3935551E+04  0.7818609E-02  0.8017676E-01
       -1   -1    0    0    0  501  0.00000000000E+00  0.00000000000E+00  0.14387370222E+04  0.14387370222E+04  0.50400001928E-02 0. -1.
        1   -1    0    0  501    0  0.00000000000E+00  0.00000000000E+00 -0.26913467775E+04  0.26913467775E+04  0.50400001928E-02 0.  1.
    10030    2    1    2    0    0  0.00000000000E+00  0.00000000000E+00 -0.12526097553E+04  0.41300837997E+04  0.39355509136E+04 0.  0.
        5    1    3    3  502    0  0.86567942978E+02  0.12661367771E+04  0.95186488730E+03  0.15864000759E+04  0.46999998093E+01 0. -1.
       -5    1    3    3    0  502 -0.86567942978E+02 -0.12661367771E+04 -0.22044746426E+04  0.25436837239E+04  0.46999998093E+01 0.  1.
</event>
<event>
 5   0  0.8528625E-08  0.3728376E+04  0.7818609E-02  0.8061702E-01
       -1   -1    0    0    0  501  0.00000000000E+00  0.00000000000E+00  0.16272702339E+04  0.16272702339E+04  0.50400001928E-02 0. -1.
        1   -1    0    0  501    0  0.00000000000E+00  0.00000000000E+00 -0.21355989794E+04  0.21355989794E+04  0.50400001928E-02 0.  1.
    10030    2    1    2    0    0  0.00000000000E+00  0.00000000000E+00 -0.50832874555E+03  0.37628692134E+04  0.37283758667E+04 0.  0.
        2    1    3    3  502    0  0.18001815077E+03 -0.60268650283E+03  0.15169381709E+04  0.16421750727E+04  0.25500000920E-02 0. -1.
       -2    1    3    3    0  502 -0.18001815077E+03  0.60268650283E+03 -0.20252669164E+04  0.21206941406E+04  0.25500000920E-02 0.  1.
</event>
<event>
 5   0  0.2666978E-07  0.3720403E+04  0.7818609E-02  0.8063455E-01
       -2   -1    0    0    0  501  0.00000000000E+00  0.00000000000E+00  0.17283741238E+04  0.17283741239E+04  0.25500000920E-02 0. -1.
        2   -1    0    0  501    0  0.00000000000E+00  0.00000000000E+00 -0.20020835057E+04  0.20020835057E+04  0.25500000920E-02 0.  1.
    10030    2    1    2    0    0  0.00000000000E+00  0.00000000000E+00 -0.27370938185E+03  0.37304576296E+04  0.37204028411E+04 0.  0.
        4    1    3    3  502    0 -0.77595711616E+03  0.10310860312E+04  0.12065796671E+04  0.17666589812E+04  0.12699999809E+01 0. -1.
       -4    1    3    3    0  502  0.77595711616E+03 -0.10310860312E+04 -0.14802890489E+04  0.19637986483E+04  0.12699999809E+01 0.  1.
</event>
<event>
 5   0  0.8583262E-08  0.3901562E+04  0.7818609E-02  0.8024704E-01
       -1   -1    0    0    0  501  0.00000000000E+00  0.00000000000E+00  0.17382199470E+04  0.17382199470E+04  0.50400001928E-02 0. -1.
        1   -1    0    0  501    0  0.00000000000E+00  0.00000000000E+00 -0.21893354708E+04  0.21893354708E+04  0.50400001928E-02 0.  1.
    10030    2    1    2    0    0  0.00000000000E+00  0.00000000000E+00 -0.45111552386E+03  0.39275554178E+04  0.39015620390E+04 0.  0.
        1    1    3    3  502    0  0.12512811537E+04 -0.14213964966E+04  0.24604398296E+03  0.19096099517E+04  0.50400001928E-02 0. -1.
       -1    1    3    3    0  502 -0.12512811537E+04  0.14213964966E+04 -0.69715950681E+03  0.20179454661E+04  0.50400001928E-02 0.  1.
</event>
<event>
 5   0  0.2661693E-07  0.4154810E+04  0.7818609E-02  0.7974024E-01
        2   -1    0    0  501    0  0.00000000000E+00  0.00000000000E+00  0.23359355747E+04  0.23359355747E+04  0.25500000920E-02 0. -1.
       -2   -1    0    0    0  501  0.00000000000E+00  0.00000000000E+00 -0.18474870338E+04  0.18474870338E+04  0.25500000920E-02 0.  1.
    10030    2    1    2    0    0  0.00000000000E+00  0.00000000000E+00  0.48844854081E+03  0.41834226085E+04  0.41548095918E+04 0.  0.
        1    1    3    3  502    0 -0.79800663661E+03  0.18054345414E+04 -0.40769286385E+03  0.20155946881E+04  0.50400001928E-02 0. -1.
       -1    1    3    3    0  502  0.79800663661E+03 -0.18054345414E+04  0.89614140466E+03  0.21678279204E+04  0.50400001928E-02 0.  1.
</event>
<event>
 5   0  0.8583262E-08  0.3954030E+04  0.7818609E-02  0.8013885E-01
        1   -1    0    0  501    0  0.00000000000E+00  0.00000000000E+00  0.18451314171E+04  0.18451314171E+04  0.50400001928E-02 0.  1.
       -1   -1    0    0    0  501  0.00000000000E+00  0.00000000000E+00 -0.21183252526E+04  0.21183252526E+04  0.50400001928E-02 0. -1.
    10030    2    1    2    0    0  0.00000000000E+00  0.00000000000E+00 -0.27319383550E+03  0.39634566697E+04  0.39540300835E+04 0.  0.
        1    1    3    3  502    0  0.16939005264E+04  0.88765837308E+03  0.36594859534E+03  0.19470887897E+04  0.50400001928E-02 0.  1.
       -1    1    3    3    0  502 -0.16939005264E+04 -0.88765837308E+03 -0.63914243084E+03  0.20163678800E+04  0.50400001928E-02 0. -1.
</event>
<event>
 5   0  0.8583262E-08  0.3855271E+04  0.7818609E-02  0.8034397E-01
        1   -1    0    0  501    0  0.00000000000E+00  0.00000000000E+00  0.13014938635E+04  0.13014938636E+04  0.50400001928E-02 0. -1.
       -1   -1    0    0    0  501  0.00000000000E+00  0.00000000000E+00 -0.28550112157E+04  0.28550112157E+04  0.50400001928E-02 0.  1.
    10030    2    1    2    0    0  0.00000000000E+00  0.00000000000E+00 -0.15535173522E+04  0.41565050793E+04  0.38552714963E+04 0.  0.
        1    1    3    3  502    0  0.16557909071E+03 -0.52687693749E+03 -0.27678866451E+04  0.28224479132E+04  0.50400001928E-02 0.  1.
       -1    1    3    3    0  502 -0.16557909071E+03  0.52687693749E+03  0.12143692930E+04  0.13340571660E+04  0.50400001928E-02 0. -1.
</event>
<event>
 5   0  0.2839279E-07  0.3988500E+04  0.7818609E-02  0.8006870E-01
        2   -1    0    0  501    0  0.00000000000E+00  0.00000000000E+00  0.19721339845E+04  0.19721339845E+04  0.25500000920E-02 0.  1.
       -2   -1    0    0    0  501  0.00000000000E+00  0.00000000000E+00 -0.20166140803E+04  0.20166140803E+04  0.25500000920E-02 0. -1.
    10030    2    1    2    0    0  0.00000000000E+00  0.00000000000E+00 -0.44480095772E+02  0.39887480648E+04  0.39885000496E+04 0.  0.
        3    1    3    3  502    0 -0.12183911350E+04 -0.48994723698E+03  0.14786890113E+04  0.19776365832E+04  0.10100000352E+00 0.  1.
       -3    1    3    3    0  502  0.12183911350E+04  0.48994723698E+03 -0.15231691070E+04  0.20111114817E+04  0.10100000352E+00 0. -1.
</event>
<event>
 5   0  0.8528625E-08  0.3917304E+04  0.7818609E-02  0.8021440E-01
        3   -1    0    0  501    0  0.00000000000E+00  0.00000000000E+00  0.12223639144E+04  0.12223639186E+04  0.10100000352E+00 0.  1.
       -3   -1    0    0    0  501  0.00000000000E+00  0.00000000000E+00 -0.31384418487E+04  0.31384418503E+04  0.10100000352E+00 0. -1.
    10030    2    1    2    0    0  0.00000000000E+00  0.00000000000E+00 -0.19160779343E+04  0.43608057689E+04  0.39173042139E+04 0.  0.
        3    1    3    3  502    0  0.59872560233E+03 -0.86756411756E+03 -0.27957486285E+04  0.29878671739E+04  0.10100000352E+00 0. -1.
       -3    1    3    3    0  502 -0.59872560233E+03  0.86756411756E+03  0.87967069427E+03  0.13729385950E+04  0.10100000352E+00 0.  1.
</event>
<event>
 5   0  0.2839279E-07  0.3440255E+04  0.7818609E-02  0.8128096E-01
        2   -1    0    0  501    0  0.00000000000E+00  0.00000000000E+00  0.21970081808E+04  0.21970081808E+04  0.25500000920E-02 0.  1.
       -2   -1    0    0    0  501  0.00000000000E+00  0.00000000000E+00 -0.13467583508E+04  0.13467583508E+04  0.25500000920E-02 0. -1.
    10030    2    1    2    0    0  0.00000000000E+00  0.00000000000E+00  0.85024982996E+03  0.35437665316E+04  0.34402552896E+04 0.  0.
        3    1    3    3  502    0  0.96404271729E+03  0.13290689347E+04  0.95342714985E+03  0.18986379155E+04  0.10100000352E+00 0.  1.
       -3    1    3    3    0  502 -0.96404271729E+03 -0.13290689347E+04 -0.10317731989E+03  0.16451286161E+04  0.10100000352E+00 0. -1.
</event>
<event>
 5   0  0.2666978E-07  0.3971695E+04  0.7818609E-02  0.8010281E-01
        2   -1    0    0  501    0  0.00000000000E+00  0.00000000000E+00  0.13679408583E+04  0.13679408583E+04  0.25500000920E-02 0.  1.
       -2   -1    0    0    0  501  0.00000000000E+00  0.00000000000E+00 -0.28828663516E+04  0.28828663516E+04  0.25500000920E-02 0. -1.
    10030    2    1    2    0    0  0.00000000000E+00  0.00000000000E+00 -0.15149254932E+04  0.42508072099E+04  0.39716951904E+04 0.  0.
        4    1    3    3  502    0  0.15902801035E+04  0.36957012256E+03 -0.19674022961E+04  0.25566083570E+04  0.12699999809E+01 0. -1.
       -4    1    3    3    0  502 -0.15902801035E+04 -0.36957012256E+03  0.45247680292E+03  0.16941988529E+04  0.12699999809E+01 0.  1.
</event>
<event>
 5   0  0.2839279E-07  0.3982370E+04  0.7818609E-02  0.8008113E-01
        2   -1    0    0  501    0  0.00000000000E+00  0.00000000000E+00  0.24716075602E+04  0.24716075602E+04  0.25500000920E-02 0.  1.
       -2   -1    0    0    0  501  0.00000000000E+00  0.00000000000E+00 -0.16041453461E+04  0.16041453461E+04  0.25500000920E-02 0. -1.
    10030    2    1    2    0    0  0.00000000000E+00  0.00000000000E+00  0.86746221406E+03  0.40757529063E+04  0.39823700306E+04 0.  0.
        3    1    3    3  502    0 -0.64765216459E+03 -0.14573297294E+04  0.16539787891E+04  0.22975876723E+04  0.10100000352E+00 0.  1.
       -3    1    3    3    0  502  0.64765216459E+03  0.14573297294E+04 -0.78651657508E+03  0.17781652341E+04  0.10100000352E+00 0. -1.
</event>
<event>
 5   0  0.2661693E-07  0.3916622E+04  0.7818609E-02  0.8021581E-01
       -2   -1    0    0    0  501  0.00000000000E+00  0.00000000000E+00  0.12758162402E+04  0.12758162402E+04  0.25500000920E-02 0.  1.
        2   -1    0    0  501    0  0.00000000000E+00  0.00000000000E+00 -0.30059049624E+04  0.30059049624E+04  0.25500000920E-02 0. -1.
    10030    2    1    2    0    0  0.00000000000E+00  0.00000000000E+00 -0.17300887221E+04  0.42817212026E+04  0.39166222017E+04 0.  0.
        1    1    3    3  502    0 -0.53577794322E+03  0.11977924022E+04  0.72415662702E+03  0.14987219434E+04  0.50400001928E-02 0.  1.
       -1    1    3    3    0  502  0.53577794322E+03 -0.11977924022E+04 -0.24542453492E+04  0.27829992593E+04  0.50400001928E-02 0. -1.
</event>
<event>
 5   0  0.8528625E-08  0.3768437E+04  0.7818609E-02  0.8052962E-01
        1   -1    0    0  501    0  0.00000000000E+00  0.00000000000E+00  0.16752412992E+04  0.16752412992E+04  0.50400001928E-02 0. -1.
       -1   -1    0    0    0  501  0.00000000000E+00  0.00000000000E+00 -0.21192647681E+04  0.21192647681E+04  0.50400001928E-02 0.  1.
    10030    2    1    2    0    0  0.00000000000E+00  0.00000000000E+00 -0.44402346892E+03  0.37945060674E+04  0.37684372695E+04 0.  0.
        2    1    3    3  502    0  0.31909684276E+03 -0.14438251937E+04  0.95389648148E+03  0.17596512389E+04  0.25500000920E-02 0. -1.
       -2    1    3    3    0  502 -0.31909684276E+03  0.14438251937E+04 -0.13979199504E+04  0.20348548285E+04  0.25500000920E-02 0.  1.
</event>
<event>
 5   0  0.8528625E-08  0.3487454E+04  0.7818609E-02  0.8116770E-01
        1   -1    0    0  501    0  0.00000000000E+00  0.00000000000E+00  0.23244203915E+04  0.23244203915E+04  0.50400001928E-02 0. -1.
       -1   -1    0    0    0  501  0.00000000000E+00  0.00000000000E+00 -0.13081041274E+04  0.13081041274E+04  0.50400001928E-02 0.  1.
    10030    2    1    2    0    0  0.00000000000E+00  0.00000000000E+00  0.10163162641E+04  0.36325245189E+04  0.34874540329E+04 0.  0.
        4    1    3    3  502    0  0.10357238486E+03  0.23719973802E+03 -0.12879840159E+04  0.13137333796E+04  0.12699999809E+01 0.  1.
       -4    1    3    3    0  502 -0.10357238486E+03 -0.23719973802E+03  0.23043002799E+04  0.23187911393E+04  0.12699999809E+01 0. -1.
</event>
<event>
 5   0  0.2704088E-07  0.3972833E+04  0.7818609E-02  0.8010049E-01
        2   -1    0    0  501    0  0.00000000000E+00  0.00000000000E+00  0.21970154146E+04  0.21970154146E+04  0.25500000920E-02 0. -1.
       -2   -1    0    0    0  501  0.00000000000E+00  0.00000000000E+00 -0.17960051926E+04  0.17960051926E+04  0.25500000920E-02 0.  1.
    10030    2    1    2    0    0  0.00000000000E+00  0.00000000000E+00  0.40101022194E+03  0.39930206072E+04  0.39728332926E+04 0.  0.
        5    1    3    3  502    0  0.10372912829E+04 -0.11963001768E+04 -0.10050570395E+04  0.18754383650E+04  0.46999998093E+01 0.  1.
       -5    1    3    3    0  502 -0.10372912829E+04  0.11963001768E+04  0.14060672614E+04  0.21175822421E+04  0.46999998093E+01 0. -1.
</event>
<event>
 5   0  0.8583262E-08  0.3765069E+04  0.7818609E-02  0.8053693E-01
        1   -1    0    0  501    0  0.00000000000E+00  0.00000000000E+00  0.14835521536E+04  0.14835521536E+04  0.50400001928E-02 0.  1.
       -1   -1    0    0    0  501  0.00000000000E+00  0.00000000000E+00 -0.23888181398E+04  0.23888181398E+04  0.50400001928E-02 0. -1.
    10030    2    1    2    0    0  0.00000000000E+00  0.00000000000E+00 -0.90526598613E+03  0.38723702934E+04  0.37650690809E+04 0.  0.
        1    1    3    3  502    0  0.53213678009E+03  0.10806638441E+04  0.10352936876E+04  0.15883440799E+04  0.50400001928E-02 0.  1.
       -1    1    3    3    0  502 -0.53213678009E+03 -0.10806638441E+04 -0.19405596737E+04  0.22840262135E+04  0.50400001928E-02 0. -1.
</event>
<event>
 5   0  0.8528625E-08  0.3999855E+04  0.7818609E-02  0.8004576E-01
       -1   -1    0    0    0  501  0.00000000000E+00  0.00000000000E+00  0.21543762802E+04  0.21543762802E+04  0.50400001928E-02 0.  1.
        1   -1    0    0  501    0  0.00000000000E+00  0.00000000000E+00 -0.18565514849E+04  0.18565514849E+04  0.50400001928E-02 0. -1.
    10030    2    1    2    0    0  0.00000000000E+00  0.00000000000E+00  0.29782479534E+03  0.40109277651E+04  0.39998552384E+04 0.  0.
        4    1    3    3  502    0  0.18712422620E+04 -0.50828676825E+03  0.63996773180E+03  0.20419263828E+04  0.12699999809E+01 0.  1.
       -4    1    3    3    0  502 -0.18712422620E+04  0.50828676825E+03 -0.34214293646E+03  0.19690013824E+04  0.12699999809E+01 0. -1.
</event>
<event>
 5   0  0.8528625E-08  0.4026589E+04  0.7818609E-02  0.7999204E-01
       -1   -1    0    0    0  501  0.00000000000E+00  0.00000000000E+00  0.20710150482E+04  0.20710150482E+04  0.50400001928E-02 0. -1.
        1   -1    0    0  501    0  0.00000000000E+00  0.00000000000E+00 -0.19571828523E+04  0.19571828523E+04  0.50400001928E-02 0.  1.
    10030    2    1    2    0    0  0.00000000000E+00  0.00000000000E+00  0.11383219595E+03  0.40281979005E+04  0.40265891965E+04 0.  0.
        5    1    3    3  502    0 -0.13485679352E+04 -0.71976365561E+03  0.13676448230E+04  0.20511386223E+04  0.46999998093E+01 0. -1.
       -5    1    3    3    0  502  0.13485679352E+04  0.71976365561E+03 -0.12538126271E+04  0.19770592782E+04  0.46999998093E+01 0.  1.
</event>
<event>
 5   0  0.2666978E-07  0.3998471E+04  0.7818609E-02  0.8004855E-01
        2   -1    0    0  501    0  0.00000000000E+00  0.00000000000E+00  0.13298865546E+04  0.13298865546E+04  0.25500000920E-02 0.  1.
       -2   -1    0    0    0  501  0.00000000000E+00  0.00000000000E+00 -0.30054768151E+04  0.30054768151E+04  0.25500000920E-02 0. -1.
    10030    2    1    2    0    0  0.00000000000E+00  0.00000000000E+00 -0.16755902605E+04  0.43353633697E+04  0.39984713112E+04 0.  0.
        4    1    3    3  502    0  0.35766748354E+02  0.99934856452E+03 -0.27148299936E+04  0.28931436744E+04  0.12699999809E+01 0. -1.
       -4    1    3    3    0  502 -0.35766748354E+02 -0.99934856452E+03  0.10392397331E+04  0.14422196953E+04  0.12699999809E+01 0.  1.
</event>
<event>
 5   0  0.8583262E-08  0.2855828E+04  0.7818609E-02  0.8286143E-01
        1   -1    0    0  501    0  0.00000000000E+00  0.00000000000E+00  0.21369515924E+04  0.21369515924E+04  0.50400001928E-02 0. -1.
       -1   -1    0    0    0  501  0.00000000000E+00  0.00000000000E+00 -0.95413404494E+03  0.95413404495E+03  0.50400001928E-02 0.  1.
    10030    2    1    2    0    0  0.00000000000E+00  0.00000000000E+00  0.11828175475E+04  0.30910856373E+04  0.28558279127E+04 0.  0.
        1    1    3    3  502    0  0.31873346428E+02  0.54350570150E+02  0.21354462423E+04  0.21363755636E+04  0.50400001928E-02 0. -1.
       -1    1    3    3    0  502 -0.31873346428E+02 -0.54350570150E+02 -0.95262869487E+03  0.95471007379E+03  0.50400001928E-02 0.  1.
</event>
<event>
 5   0  0.2730801E-07  0.4012011E+04  0.7818609E-02  0.8002128E-01
        2   -1    0    0  501    0  0.00000000000E+00  0.00000000000E+00  0.16219417035E+04  0.16219417035E+04  0.25500000920E-02 0.  1.
       -2   -1    0    0    0  501  0.00000000000E+00  0.00000000000E+00 -0.24810132527E+04  0.24810132527E+04  0.25500000920E-02 0. -1.
    10030    2    1    2    0    0  0.00000000000E+00  0.00000000000E+00 -0.85907154924E+03  0.41029549562E+04  0.40120113966E+04 0.  0.
        2    1    3    3  502    0 -0.15587157493E+04 -0.12575872900E+04 -0.31321081606E+03  0.20271215046E+04  0.25500000920E-02 0.  1.
       -2    1    3    3    0  502  0.15587157493E+04  0.12575872900E+04 -0.54586073318E+03  0.20758334517E+04  0.25500000920E-02 0. -1.
</event>
<event>
 5   0  0.2704088E-07  0.4030591E+04  0.7818609E-02  0.7998404E-01
       -2   -1    0    0    0  501  0.00000000000E+00  0.00000000000E+00  0.13758960177E+04  0.13758960177E+04  0.25500000920E-02 0. -1.
        2   -1    0    0  501    0  0.00000000000E+00  0.00000000000E+00 -0.29518336707E+04  0.29518336707E+04  0.25500000920E-02 0.  1.
    10030    2    1    2    0    0  0.00000000000E+00  0.00000000000E+00 -0.15759376531E+04  0.43277296884E+04  0.40305911191E+04 0.  0.
        5    1    3    3  502    0  0.18747307076E+04  0.52869684935E+03 -0.13430508477E+04  0.23659973064E+04  0.46999998093E+01 0.  1.
       -5    1    3    3    0  502 -0.18747307076E+04 -0.52869684935E+03 -0.23288680531E+03  0.19617323820E+04  0.46999998093E+01 0. -1.
</event>
<event>
 5   0  0.8528625E-08  0.2863718E+04  0.7818609E-02  0.8283755E-01
        1   -1    0    0  501    0  0.00000000000E+00  0.00000000000E+00  0.10139066515E+04  0.10139066515E+04  0.50400001928E-02 0. -1.
       -1   -1    0    0    0  501  0.00000000000E+00  0.00000000000E+00 -0.20220990954E+04  0.20220990954E+04  0.50400001928E-02 0.  1.
    10030    2    1    2    0    0  0.00000000000E+00  0.00000000000E+00 -0.10081924439E+04  0.30360057469E+04  0.28637176696E+04 0.  0.
        3    1    3    3  502    0 -0.10753795380E+04 -0.94538282703E+03 -0.50989058254E+03  0.15199270564E+04  0.10100000352E+00 0. -1.
       -3    1    3    3    0  502  0.10753795380E+04  0.94538282703E+03 -0.49830186139E+03  0.15160786905E+04  0.10100000352E+00 0.  1.
</event>
<event>
 5   0  0.8528625E-08  0.4015629E+04  0.7818609E-02  0.8001401E-01
       -1   -1    0    0    0  501  0.00000000000E+00  0.00000000000E+00  0.21634337043E+04  0.21634337043E+04  0.50400001928E-02 0.  1.
        1   -1    0    0  501    0  0.00000000000E+00  0.00000000000E+00 -0.18633890809E+04  0.18633890809E+04  0.50400001928E-02 0. -1.
    10030    2    1    2    0    0  0.00000000000E+00  0.00000000000E+00  0.30004462334E+03  0.40268227852E+04  0.40156288384E+04 0.  0.
        5    1    3    3  502    0 -0.90729914930E+03  0.16089007245E+04 -0.63928260429E+03  0.19545990959E+04  0.46999998093E+01 0. -1.
       -5    1    3    3    0  502  0.90729914930E+03 -0.16089007245E+04  0.93932722763E+03  0.20722236893E+04  0.46999998093E+01 0.  1.
</event>
<event>
 5   0  0.2730801E-07  0.3671496E+04  0.7818609E-02  0.8074308E-01
        2   -1    0    0  501    0  0.00000000000E+00  0.00000000000E+00  0.19207397935E+04  0.19207397935E+04  0.25500000920E-02 0.  1.
       -2   -1    0    0    0  501  0.00000000000E+00  0.00000000000E+00 -0.17545171467E+04  0.17545171467E+04  0.25500000920E-02 0. -1.
    10030    2    1    2    0    0  0.00000000000E+00  0.00000000000E+00  0.16622264685E+03  0.36752569402E+04  0.36714960994E+04 0.  0.
        2    1    3    3  502    0  0.62756911981E+01 -0.10500010497E+04  0.15904523285E+04  0.19058017205E+04  0.25500000920E-02 0.  1.
       -2    1    3    3    0  502 -0.62756911981E+01  0.10500010497E+04 -0.14242296816E+04  0.17694552197E+04  0.25500000920E-02 0. -1.
</event>
<event>
 5   0  0.8528625E-08  0.3925221E+04  0.7818609E-02  0.8019804E-01
        1   -1    0    0  501    0  0.00000000000E+00  0.00000000000E+00  0.17905014214E+04  0.17905014214E+04  0.50400001928E-02 0.  1.
       -1   -1    0    0    0  501  0.00000000000E+00  0.00000000000E+00 -0.21512632627E+04  0.21512632627E+04  0.50400001928E-02 0. -1.
    10030    2    1    2    0    0  0.00000000000E+00  0.00000000000E+00 -0.36076184129E+03  0.39417646841E+04  0.39252209770E+04 0.  0.
        4    1    3    3  502    0 -0.61348137413E+03 -0.14182628803E+03 -0.20470765010E+04  0.21417277853E+04  0.12699999809E+01 0. -1.
       -4    1    3    3    0  502  0.61348137413E+03  0.14182628803E+03  0.16863146597E+04  0.18000368988E+04  0.12699999809E+01 0.  1.
</event>
<event>
 5   0  0.2839279E-07  0.3964783E+04  0.7818609E-02  0.8011689E-01
        2   -1    0    0  501    0  0.00000000000E+00  0.00000000000E+00  0.15749238921E+04  0.15749238921E+04  0.25500000920E-02 0. -1.
       -2   -1    0    0    0  501  0.00000000000E+00  0.00000000000E+00 -0.24952799403E+04  0.24952799403E+04  0.25500000920E-02 0.  1.
    10030    2    1    2    0    0  0.00000000000E+00  0.00000000000E+00 -0.92035604821E+03  0.40702038324E+04  0.39647829678E+04 0.  0.
        3    1    3    3  502    0  0.14946037031E+04  0.12768547294E+04 -0.72326896437E+03  0.20945921403E+04  0.10100000352E+00 0.  1.
       -3    1    3    3    0  502 -0.14946037031E+04 -0.12768547294E+04 -0.19708708384E+03  0.19756116921E+04  0.10100000352E+00 0. -1.
</event>
<event>
 5   0  0.2704088E-07  0.3974490E+04  0.7818609E-02  0.8009713E-01
       -2   -1    0    0    0  501  0.00000000000E+00  0.00000000000E+00  0.17634721181E+04  0.17634721181E+04  0.25500000920E-02 0.  1.
        2   -1    0    0  501    0  0.00000000000E+00  0.00000000000E+00 -0.22394131169E+04  0.22394131169E+04  0.25500000920E-02 0. -1.
    10030    2    1    2    0    0  0.00000000000E+00  0.00000000000E+00 -0.47594099876E+03  0.40028852350E+04  0.39744899509E+04 0.  0.
        5    1    3    3  502    0  0.55042623568E+03 -0.20425949444E+02  0.16850514408E+04  0.17727962964E+04  0.46999998093E+01 0.  1.
       -5    1    3    3    0  502 -0.55042623568E+03  0.20425949444E+02 -0.21609924395E+04  0.22300889386E+04  0.46999998093E+01 0. -1.
</event>
<event>
 5   0  0.2666978E-07  0.4061949E+04  0.7818609E-02  0.7992165E-01
        2   -1    0    0  501    0  0.00000000000E+00  0.00000000000E+00  0.28287057289E+04  0.28287057289E+04  0.25500000920E-02 0. -1.
       -2   -1    0    0    0  501  0.00000000000E+00  0.00000000000E+00 -0.14582134924E+04  0.14582134924E+04  0.25500000920E-02 0.  1.
    10030    2    1    2    0    0  0.00000000000E+00  0.00000000000E+00  0.13704922365E+04  0.42869192213E+04  0.40619487244E+04 0.  0.
        4    1    3    3  502    0  0.48027979754E+03 -0.10986619485E+04 -0.10447896403E+04  0.15903816417E+04  0.12699999809E+01 0.  1.
       -4    1    3    3    0  502 -0.48027979754E+03  0.10986619485E+04  0.24152818767E+04  0.26965375796E+04  0.12699999809E+01 0. -1.
</event>
<event>
 5   0  0.8583262E-08  0.3937265E+04  0.7818609E-02  0.8017323E-01
       -1   -1    0    0    0  501  0.00000000000E+00  0.00000000000E+00  0.19221382869E+04  0.19221382869E+04  0.50400001928E-02 0.  1.
        1   -1    0    0  501    0  0.00000000000E+00  0.00000000000E+00 -0.20162512661E+04  0.20162512661E+04  0.50400001928E-02 0. -1.
    10030    2    1    2    0    0  0.00000000000E+00  0.00000000000E+00 -0.94112979243E+02  0.39383895530E+04  0.39372649160E+04 0.  0.
        1    1    3    3  502    0 -0.11727686451E+03  0.15867387531E+04  0.11125934318E+04  0.19414834220E+04  0.50400001928E-02 0.  1.
       -1    1    3    3    0  502  0.11727686451E+03 -0.15867387531E+04 -0.12067064110E+04  0.19969061310E+04  0.50400001928E-02 0. -1.
</event>
<event>
 5   0  0.2661693E-07  0.3978904E+04  0.7818609E-02  0.8008816E-01
        2   -1    0    0  501    0  0.00000000000E+00  0.00000000000E+00  0.21306875336E+04  0.21306875336E+04  0.25500000920E-02 0. -1.
       -2   -1    0    0    0  501  0.00000000000E+00  0.00000000000E+00 -0.18575785512E+04  0.18575785512E+04  0.25500000920E-02 0.  1.
    10030    2    1    2    0    0  0.00000000000E+00  0.00000000000E+00  0.27310898240E+03  0.39882660849E+04  0.39789041013E+04 0.  0.
        1    1    3    3  502    0 -0.12067886554E+04  0.14542915442E+04  0.75980259002E+03  0.20368119035E+04  0.50400001928E-02 0. -1.
       -1    1    3    3    0  502  0.12067886554E+04 -0.14542915442E+04 -0.48669360761E+03  0.19514541814E+04  0.50400001928E-02 0.  1.
</event>
<event>
 5   0  0.8583262E-08  0.3983102E+04  0.7818609E-02  0.8007964E-01
        1   -1    0    0  501    0  0.00000000000E+00  0.00000000000E+00  0.24511053030E+04  0.24511053030E+04  0.50400001928E-02 0. -1.
       -1   -1    0    0    0  501  0.00000000000E+00  0.00000000000E+00 -0.16181581492E+04  0.16181581492E+04  0.50400001928E-02 0.  1.
    10030    2    1    2    0    0  0.00000000000E+00  0.00000000000E+00  0.83294715382E+03  0.40692634522E+04  0.39831023188E+04 0.  0.
        1    1    3    3  502    0  0.66552842979E+03 -0.98270095534E+03 -0.12173856192E+04  0.17001932256E+04  0.50400001928E-02 0.  1.
       -1    1    3    3    0  502 -0.66552842979E+03  0.98270095534E+03  0.20503327730E+04  0.23690702266E+04  0.50400001928E-02 0. -1.
</event>
<event>
 5   0  0.2666978E-07  0.4020411E+04  0.7818609E-02  0.8000442E-01
       -2   -1    0    0    0  501  0.00000000000E+00  0.00000000000E+00  0.28757466902E+04  0.28757466902E+04  0.25500000920E-02 0.  1.
        2   -1    0    0  501    0  0.00000000000E+00  0.00000000000E+00 -0.14051749038E+04  0.14051749038E+04  0.25500000920E-02 0. -1.
    10030    2    1    2    0    0  0.00000000000E+00  0.00000000000E+00  0.14705717864E+04  0.42809215940E+04  0.40204114609E+04 0.  0.
        4    1    3    3  502    0 -0.47667829534E+03 -0.12075322014E+04 -0.89894986762E+03  0.15790720985E+04  0.12699999809E+01 0. -1.
       -4    1    3    3    0  502  0.47667829534E+03  0.12075322014E+04  0.23695216541E+04  0.27018494956E+04  0.12699999809E+01 0.  1.
</event>
<event>
 5   0  0.8583262E-08  0.3938889E+04  0.7818609E-02  0.8016989E-01
        1   -1    0    0  501    0  0.00000000000E+00  0.00000000000E+00  0.12308834394E+04  0.12308834394E+04  0.50400001928E-02 0.  1.
       -1   -1    0    0    0  501  0.00000000000E+00  0.00000000000E+00 -0.31511600673E+04  0.31511600673E+04  0.50400001928E-02 0. -1.
    10030    2    1    2    0    0  0.00000000000E+00  0.00000000000E+00 -0.19202766279E+04  0.43820435067E+04  0.39388885446E+04 0.  0.
        1    1    3    3  502    0  0.86971994520E+03 -0.13471780505E+04 -0.22322017547E+04  0.27484588693E+04  0.50400001928E-02 0. -1.
       -1    1    3    3    0  502 -0.86971994520E+03  0.13471780505E+04  0.31192512679E+03  0.16335846374E+04  0.50400001928E-02 0.  1.
</event>
<event>
 5   0  0.2704088E-07  0.4012799E+04  0.7818609E-02  0.8001969E-01
        2   -1    0    0  501    0  0.00000000000E+00  0.00000000000E+00  0.17668997509E+04  0.17668997509E+04  0.25500000920E-02 0.  1.
       -2   -1    0    0    0  501  0.00000000000E+00  0.00000000000E+00 -0.22783633140E+04  0.22783633140E+04  0.25500000920E-02 0. -1.
    10030    2    1    2    0    0  0.00000000000E+00  0.00000000000E+00 -0.51146356307E+03  0.40452630649E+04  0.40127993082E+04 0.  0.
        5    1    3    3  502    0 -0.26678256687E+03  0.11846622714E+04 -0.18658443791E+04  0.22262064083E+04  0.46999998093E+01 0. -1.
       -5    1    3    3    0  502  0.26678256687E+03 -0.11846622714E+04  0.13543808160E+04  0.18190566566E+04  0.46999998093E+01 0.  1.
</event>
<event>
 5   0  0.2704088E-07  0.3962809E+04  0.7818609E-02  0.8012091E-01
        2   -1    0    0  501    0  0.00000000000E+00  0.00000000000E+00  0.19263037216E+04  0.19263037216E+04  0.25500000920E-02 0. -1.
       -2   -1    0    0    0  501  0.00000000000E+00  0.00000000000E+00 -0.20380816916E+04  0.20380816916E+04  0.25500000920E-02 0.  1.
    10030    2    1    2    0    0  0.00000000000E+00  0.00000000000E+00 -0.11177796998E+03  0.39643854132E+04  0.39628092800E+04 0.  0.
        5    1    3    3  502    0 -0.16180300634E+04  0.51235333357E+03 -0.10787510417E+04  0.20110328501E+04  0.46999998093E+01 0.  1.
       -5    1    3    3    0  502  0.16180300634E+04 -0.51235333357E+03  0.96697307169E+03  0.19533525631E+04  0.46999998093E+01 0. -1.
</event>
<event>
 5   0  0.2730801E-07  0.4037959E+04  0.7818609E-02  0.7996933E-01
       -2   -1    0    0    0  501  0.00000000000E+00  0.00000000000E+00  0.23310257399E+04  0.23310257399E+04  0.25500000920E-02 0. -1.
        2   -1    0    0  501    0  0.00000000000E+00  0.00000000000E+00 -0.17487056813E+04  0.17487056813E+04  0.25500000920E-02 0.  1.
    10030    2    1    2    0    0  0.00000000000E+00  0.00000000000E+00  0.58232005861E+03  0.40797314211E+04  0.40379588678E+04 0.  0.
        2    1    3    3  502    0  0.10375190566E+03  0.11678745408E+04  0.19518126841E+04  0.22768988021E+04  0.25500000920E-02 0. -1.
       -2    1    3    3    0  502 -0.10375190566E+03 -0.11678745408E+04 -0.13694926255E+04  0.18028326191E+04  0.25500000920E-02 0.  1.
</event>
<event>
 5   0  0.2730801E-07  0.3158144E+04  0.7818609E-02  0.8199959E-01
       -2   -1    0    0    0  501  0.00000000000E+00  0.00000000000E+00  0.22143204406E+04  0.22143204406E+04  0.25500000920E-02 0.  1.
        2   -1    0    0  501    0  0.00000000000E+00  0.00000000000E+00 -0.11260650277E+04  0.11260650278E+04  0.25500000920E-02 0. -1.
    10030    2    1    2    0    0  0.00000000000E+00  0.00000000000E+00  0.10882554128E+04  0.33403854683E+04  0.31581442705E+04 0.  0.
        2    1    3    3  502    0  0.96493436890E+03 -0.52734446315E+03 -0.65452726386E+03  0.12796860780E+04  0.25500000920E-02 0. -1.
       -2    1    3    3    0  502 -0.96493436890E+03  0.52734446315E+03  0.17427826767E+04  0.20606993903E+04  0.25500000920E-02 0.  1.
</event>
<event>
 5   0  0.2661693E-07  0.2975959E+04  0.7818609E-02  0.8250629E-01
       -2   -1    0    0    0  501  0.00000000000E+00  0.00000000000E+00  0.20959004248E+04  0.20959004248E+04  0.25500000920E-02 0.  1.
        2   -1    0    0  501    0  0.00000000000E+00  0.00000000000E+00 -0.10563875439E+04  0.10563875439E+04  0.25500000920E-02 0. -1.
    10030    2    1    2    0    0  0.00000000000E+00  0.00000000000E+00  0.10395128810E+04  0.31522879687E+04  0.29759590736E+04 0.  0.
        1    1    3    3  502    0  0.37351991534E+03 -0.97498995373E+03 -0.60322988270E+03  0.12058228844E+04  0.50400001928E-02 0. -1.
       -1    1    3    3    0  502 -0.37351991534E+03  0.97498995373E+03  0.16427427637E+04  0.19464650844E+04  0.50400001928E-02 0.  1.
</event>
<event>
 5   0  0.8528625E-08  0.3862040E+04  0.7818609E-02  0.8032971E-01
        1   -1    0    0  501    0  0.00000000000E+00  0.00000000000E+00  0.21516138021E+04  0.21516138021E+04  0.50400001928E-02 0. -1.
       -1   -1    0    0    0  501  0.00000000000E+00  0.00000000000E+00 -0.17330426450E+04  0.17330426450E+04  0.50400001928E-02 0.  1.
    10030    2    1    2    0    0  0.00000000000E+00  0.00000000000E+00  0.41857115710E+03  0.38846564472E+04  0.38620401213E+04 0.  0.
        5    1    3    3  502    0 -0.16656440855E+04  0.75598378113E+03 -0.41315541812E+03  0.18752602983E+04  0.46999998093E+01 0.  1.
       -5    1    3    3    0  502  0.16656440855E+04 -0.75598378113E+03  0.83172657522E+03  0.20093961488E+04  0.46999998093E+01 0. -1.
</event>
<event>
 5   0  0.8528625E-08  0.3925473E+04  0.7818609E-02  0.8019752E-01
       -1   -1    0    0    0  501  0.00000000000E+00  0.00000000000E+00  0.19342103464E+04  0.19342103464E+04  0.50400001928E-02 0. -1.
        1   -1    0    0  501    0  0.00000000000E+00  0.00000000000E+00 -0.19916828620E+04  0.19916828620E+04  0.50400001928E-02 0.  1.
    10030    2    1    2    0    0  0.00000000000E+00  0.00000000000E+00 -0.57472515532E+02  0.39258932084E+04  0.39254725058E+04 0.  0.
        3    1    3    3  502    0  0.39955146400E+03  0.17900344301E+04 -0.72771670191E+03  0.19731792219E+04  0.10100000352E+00 0.  1.
       -3    1    3    3    0  502 -0.39955146400E+03 -0.17900344301E+04  0.67024418638E+03  0.19527139865E+04  0.10100000352E+00 0. -1.
</event>
<event>
 5   0  0.2839279E-07  0.4166058E+04  0.7818609E-02  0.7971860E-01
        2   -1    0    0  501    0  0.00000000000E+00  0.00000000000E+00  0.29425783549E+04  0.29425783549E+04  0.25500000920E-02 0.  1.
       -2   -1    0    0    0  501  0.00000000000E+00  0.00000000000E+00 -0.14745604849E+04  0.14745604849E+04  0.25500000920E-02 0. -1.
    10030    2    1    2    0    0  0.00000000000E+00  0.00000000000E+00  0.14680178701E+04  0.44171388398E+04  0.41660579765E+04 0.  0.
        3    1    3    3  502    0  0.15517615327E+04 -0.13002700017E+04  0.12538040864E+04  0.23813211940E+04  0.10100000352E+00 0.  1.
       -3    1    3    3    0  502 -0.15517615327E+04  0.13002700017E+04  0.21421378372E+03  0.20358176458E+04  0.10100000352E+00 0. -1.
</event>
<event>
 5   0  0.8583262E-08  0.3994462E+04  0.7818609E-02  0.8005665E-01
       -1   -1    0    0    0  501  0.00000000000E+00  0.00000000000E+00  0.14876477771E+04  0.14876477771E+04  0.50400001928E-02 0.  1.
        1   -1    0    0  501    0  0.00000000000E+00  0.00000000000E+00 -0.26813688507E+04  0.26813688507E+04  0.50400001928E-02 0. -1.
    10030    2    1    2    0    0  0.00000000000E+00  0.00000000000E+00 -0.11937210736E+04  0.41690166278E+04  0.39944623720E+04 0.  0.
        1    1    3    3  502    0 -0.88515016263E+03 -0.15339795725E+04 -0.15604317905E+04  0.23604091831E+04  0.50400001928E-02 0. -1.
       -1    1    3    3    0  502  0.88515016263E+03  0.15339795725E+04  0.36671071684E+03  0.18086074447E+04  0.50400001928E-02 0.  1.
</event>
<event>
 5   0  0.2730801E-07  0.3999644E+04  0.7818609E-02  0.8004618E-01
        2   -1    0    0  501    0  0.00000000000E+00  0.00000000000E+00  0.14558024526E+04  0.14558024526E+04  0.25500000920E-02 0. -1.
       -2   -1    0    0    0  501  0.00000000000E+00  0.00000000000E+00 -0.27471366285E+04  0.27471366285E+04  0.25500000920E-02 0.  1.
    10030    2    1    2    0    0  0.00000000000E+00  0.00000000000E+00 -0.12913341759E+04  0.42029390812E+04  0.39996441049E+04 0.  0.
        2    1    3    3  502    0  0.75067008355E+03 -0.25845268834E+03 -0.25744407947E+04  0.26940766084E+04  0.25500000920E-02 0.  1.
       -2    1    3    3    0  502 -0.75067008355E+03  0.25845268834E+03  0.12831066188E+04  0.15088624727E+04  0.25500000920E-02 0. -1.
</event>
<event>
 5   0  0.8528625E-08  0.3952086E+04  0.7818609E-02  0.8014283E-01
       -1   -1    0    0    0  501  0.00000000000E+00  0.00000000000E+00  0.19174511903E+04  0.19174511903E+04  0.50400001928E-02 0.  1.
        1   -1    0    0  501    0  0.00000000000E+00  0.00000000000E+00 -0.20364252825E+04  0.20364252825E+04  0.50400001928E-02 0. -1.
    10030    2    1    2    0    0  0.00000000000E+00  0.00000000000E+00 -0.11897409213E+03  0.39538764728E+04  0.39520860729E+04 0.  0.
        4    1    3    3  502    0  0.95688521086E+02  0.13397780569E+04 -0.15094824271E+04  0.20205693122E+04  0.12699999809E+01 0. -1.
       -4    1    3    3    0  502 -0.95688521086E+02 -0.13397780569E+04  0.13905083350E+04  0.19333071606E+04  0.12699999809E+01 0.  1.
</event>
<event>
 5   0  0.8583262E-08  0.3593438E+04  0.7818609E-02  0.8091996E-01
        1   -1    0    0  501    0  0.00000000000E+00  0.00000000000E+00  0.23554767500E+04  0.23554767500E+04  0.50400001928E-02 0. -1.
       -1   -1    0    0    0  501  0.00000000000E+00  0.00000000000E+00 -0.13705076218E+04  0.13705076218E+04  0.50400001928E-02 0.  1.
    10030    2    1    2    0    0  0.00000000000E+00  0.00000000000E+00  0.98496912817E+03  0.37259843718E+04  0.35934378185E+04 0.  0.
        1    1    3    3  502    0  0.71480590536E+03  0.65440355727E+02  0.22003486412E+04  0.23144684196E+04  0.50400001928E-02 0. -1.
       -1    1    3    3    0  502 -0.71480590536E+03 -0.65440355727E+02 -0.12153795131E+04  0.14115159522E+04  0.50400001928E-02 0.  1.
</event>
<event>
 5   0  0.8528625E-08  0.3119254E+04  0.7818609E-02  0.8210474E-01
       -1   -1    0    0    0  501  0.00000000000E+00  0.00000000000E+00  0.11306150318E+04  0.11306150318E+04  0.50400001928E-02 0. -1.
        1   -1    0    0  501    0  0.00000000000E+00  0.00000000000E+00 -0.21514273777E+04  0.21514273777E+04  0.50400001928E-02 0.  1.
    10030    2    1    2    0    0  0.00000000000E+00  0.00000000000E+00 -0.10208123459E+04  0.32820424094E+04  0.31192538422E+04 0.  0.
        2    1    3    3  502    0  0.38982792014E+03  0.65019947622E+03  0.92370408521E+03  0.11949704612E+04  0.25500000920E-02 0. -1.
       -2    1    3    3    0  502 -0.38982792014E+03 -0.65019947622E+03 -0.19445164311E+04  0.20870719482E+04  0.25500000920E-02 0.  1.
</event>
<event>
 5   0  0.8528625E-08  0.3975181E+04  0.7818609E-02  0.8009572E-01
        1   -1    0    0  501    0  0.00000000000E+00  0.00000000000E+00  0.18297873524E+04  0.18297873524E+04  0.50400001928E-02 0. -1.
       -1   -1    0    0    0  501  0.00000000000E+00  0.00000000000E+00 -0.21590028366E+04  0.21590028367E+04  0.50400001928E-02 0.  1.
    10030    2    1    2    0    0  0.00000000000E+00  0.00000000000E+00 -0.32921548428E+03  0.39887901890E+04  0.39751810446E+04 0.  0.
        5    1    3    3  502    0  0.15377019644E+04 -0.56016263461E+03 -0.12963807385E+04  0.20878061734E+04  0.46999998093E+01 0.  1.
       -5    1    3    3    0  502 -0.15377019644E+04  0.56016263461E+03  0.96716525426E+03  0.19009840156E+04  0.46999998093E+01 0. -1.
</event>
<event>
 5   0  0.2666978E-07  0.4098510E+04  0.7818609E-02  0.7984964E-01
        2   -1    0    0  501    0  0.00000000000E+00  0.00000000000E+00  0.16651320081E+04  0.16651320081E+04  0.25500000920E-02 0. -1.
       -2   -1    0    0    0  501  0.00000000000E+00  0.00000000000E+00 -0.25219901448E+04  0.25219901448E+04  0.25500000920E-02 0.  1.
    10030    2    1    2    0    0  0.00000000000E+00  0.00000000000E+00 -0.85685813664E+03  0.41871221529E+04  0.40985102241E+04 0.  0.
        4    1    3    3  502    0  0.18439311641E+04 -0.70830125031E+03 -0.98581842980E+03  0.22076259621E+04  0.12699999809E+01 0. -1.
       -4    1    3    3    0  502 -0.18439311641E+04  0.70830125031E+03  0.12896029316E+03  0.19794961908E+04  0.12699999809E+01 0.  1.
</event>
<event>
 5   0  0.2666978E-07  0.3931855E+04  0.7818609E-02  0.8018436E-01
        2   -1    0    0  501    0  0.00000000000E+00  0.00000000000E+00  0.26201815055E+04  0.26201815055E+04  0.25500000920E-02 0.  1.
       -2   -1    0    0    0  501  0.00000000000E+00  0.00000000000E+00 -0.14750391819E+04  0.14750391819E+04  0.25500000920E-02 0. -1.
    10030    2    1    2    0    0  0.00000000000E+00  0.00000000000E+00  0.11451423236E+04  0.40952206874E+04  0.39318547198E+04 0.  0.
        4    1    3    3  502    0  0.10325125301E+04 -0.53219474277E+03  0.22245207548E+04  0.25095432992E+04  0.12699999809E+01 0.  1.
       -4    1    3    3    0  502 -0.10325125301E+04  0.53219474277E+03 -0.10793784312E+04  0.15856773883E+04  0.12699999809E+01 0. -1.
</event>
<event>
 5   0  0.8528625E-08  0.4075738E+04  0.7818609E-02  0.7989440E-01
       -1   -1    0    0    0  501  0.00000000000E+00  0.00000000000E+00  0.20269263274E+04  0.20269263274E+04  0.50400001928E-02 0.  1.
        1   -1    0    0  501    0  0.00000000000E+00  0.00000000000E+00 -0.20488711572E+04  0.20488711572E+04  0.50400001928E-02 0. -1.
    10030    2    1    2    0    0  0.00000000000E+00  0.00000000000E+00 -0.21944829811E+02  0.40757974847E+04  0.40757384068E+04 0.  0.
        2    1    3    3  502    0 -0.49715435086E+03  0.12727860367E+04  0.15009238816E+04  0.20297584196E+04  0.25500000920E-02 0.  1.
       -2    1    3    3    0  502  0.49715435086E+03 -0.12727860367E+04 -0.15228687114E+04  0.20460390651E+04  0.25500000920E-02 0. -1.
</event>
<event>
 5   0  0.2666978E-07  0.4124658E+04  0.7818609E-02  0.7979861E-01
       -2   -1    0    0    0  501  0.00000000000E+00  0.00000000000E+00  0.12596358135E+04  0.12596358135E+04  0.25500000920E-02 0. -1.
        2   -1    0    0  501    0  0.00000000000E+00  0.00000000000E+00 -0.33765328136E+04  0.33765328136E+04  0.25500000920E-02 0.  1.
    10030    2    1    2    0    0  0.00000000000E+00  0.00000000000E+00 -0.21168970001E+04  0.46361686271E+04  0.41246583652E+04 0.  0.
        4    1    3    3  502    0  0.52885026743E+03  0.13825112598E+04  0.55566671772E+03  0.15810715046E+04  0.12699999809E+01 0. -1.
       -4    1    3    3    0  502 -0.52885026743E+03 -0.13825112598E+04 -0.26725637179E+04  0.30550971225E+04  0.12699999809E+01 0.  1.
</event>
<event>
 5   0  0.2661693E-07  0.3978168E+04  0.7818609E-02  0.8008965E-01
       -2   -1    0    0    0  501  0.00000000000E+00  0.00000000000E+00  0.21456543274E+04  0.21456543274E+04  0.25500000920E-02 0. -1.
        2   -1    0    0  501    0  0.00000000000E+00  0.00000000000E+00 -0.18439390301E+04  0.18439390302E+04  0.25500000920E-02 0.  1.
    10030    2    1    2    0    0  0.00000000000E+00  0.00000000000E+00  0.30171529724E+03  0.39895933575E+04  0.39781683019E+04 0.  0.
        1    1    3    3  502    0  0.17538253674E+04 -0.63746941261E+02 -0.78804082330E+03  0.19237919407E+04  0.50400001928E-02 0.  1.
       -1    1    3    3    0  502 -0.17538253674E+04  0.63746941261E+02  0.10897561205E+04  0.20658014169E+04  0.50400001928E-02 0. -1.
</event>
<event>
 5   0  0.2666978E-07  0.3963575E+04  0.7818609E-02  0.8011935E-01
        2   -1    0    0  501    0  0.00000000000E+00  0.00000000000E+00  0.15447711195E+04  0.15447711195E+04  0.25500000920E-02 0. -1.
       -2   -1    0    0    0  501  0.00000000000E+00  0.00000000000E+00 -0.25424360024E+04  0.25424360024E+04  0.25500000920E-02 0.  1.
    10030    2    1    2    0    0  0.00000000000E+00  0.00000000000E+00 -0.99766488290E+03  0.40872071220E+04  0.39635750074E+04 0.  0.
        4    1    3    3  502    0 -0.61393397466E+03  0.79817216699E+03 -0.22589677702E+04  0.24732429588E+04  0.12699999809E+01 0.  1.
       -4    1    3    3    0  502  0.61393397466E+03 -0.79817216699E+03  0.12613028874E+04  0.16139641632E+04  0.12699999809E+01 0. -1.
</event>
<event>
 5   0  0.8528625E-08  0.4037024E+04  0.7818609E-02  0.7997119E-01
       -1   -1    0    0    0  501  0.00000000000E+00  0.00000000000E+00  0.22094888596E+04  0.22094888596E+04  0.50400001928E-02 0. -1.
        1   -1    0    0  501    0  0.00000000000E+00  0.00000000000E+00 -0.18440425028E+04  0.18440425028E+04  0.50400001928E-02 0.  1.
    10030    2    1    2    0    0  0.00000000000E+00  0.00000000000E+00  0.36544635673E+03  0.40535313624E+04  0.40370243331E+04 0.  0.
        5    1    3    3  502    0 -0.11486160996E+04  0.54884310524E+03 -0.13901498348E+04  0.18849632228E+04  0.46999998093E+01 0.  1.
       -5    1    3    3    0  502  0.11486160996E+04 -0.54884310524E+03  0.17555961915E+04  0.21685681396E+04  0.46999998093E+01 0. -1.
</event>
<event>
 5   0  0.2704088E-07  0.3981033E+04  0.7818609E-02  0.8008384E-01
       -2   -1    0    0    0  501  0.00000000000E+00  0.00000000000E+00  0.20863506061E+04  0.20863506061E+04  0.25500000920E-02 0.  1.
        2   -1    0    0  501    0  0.00000000000E+00  0.00000000000E+00 -0.18990845247E+04  0.18990845247E+04  0.25500000920E-02 0. -1.
    10030    2    1    2    0    0  0.00000000000E+00  0.00000000000E+00  0.18726608143E+03  0.39854351308E+04  0.39810331067E+04 0.  0.
        5    1    3    3  502    0  0.16555067443E+03 -0.58667826174E+03  0.19905991723E+04  0.20818514748E+04  0.46999998093E+01 0.  1.
       -5    1    3    3    0  502 -0.16555067443E+03  0.58667826174E+03 -0.18033330908E+04  0.19035836559E+04  0.46999998093E+01 0. -1.
</event>
<event>
 5   0  0.8528625E-08  0.2963659E+04  0.7818609E-02  0.8254185E-01
        1   -1    0    0  501    0  0.00000000000E+00  0.00000000000E+00  0.21127166820E+04  0.21127166820E+04  0.50400001928E-02 0.  1.
       -1   -1    0    0    0  501  0.00000000000E+00  0.00000000000E+00 -0.10393345327E+04  0.10393345327E+04  0.50400001928E-02 0. -1.
    10030    2    1    2    0    0  0.00000000000E+00  0.00000000000E+00  0.10733821493E+04  0.31520512148E+04  0.29636594983E+04 0.  0.
        5    1    3    3  502    0 -0.11000103695E+04 -0.60017005907E+03  0.13778984209E+04  0.18624857211E+04  0.46999998093E+01 0.  1.
       -5    1    3    3    0  502  0.11000103695E+04  0.60017005907E+03 -0.30451627159E+03  0.12895654937E+04  0.46999998093E+01 0. -1.
</event>
<event>
 5   0  0.8528625E-08  0.4005869E+04  0.7818609E-02  0.8003364E-01
       -1   -1    0    0    0  501  0.00000000000E+00  0.00000000000E+00  0.15954785832E+04  0.15954785832E+04  0.50400001928E-02 0. -1.
        1   -1    0    0  501    0  0.00000000000E+00  0.00000000000E+00 -0.25144472547E+04  0.25144472547E+04  0.50400001928E-02 0.  1.
    10030    2    1    2    0    0  0.00000000000E+00  0.00000000000E+00 -0.91896867156E+03  0.41099258379E+04  0.40058690660E+04 0.  0.
        3    1    3    3  502    0 -0.94583739887E+03 -0.42553276362E+03 -0.22174877506E+04  0.24480478860E+04  0.10100000352E+00 0.  1.
       -3    1    3    3    0  502  0.94583739887E+03  0.42553276362E+03  0.12985190791E+04  0.16618779519E+04  0.10100000352E+00 0. -1.
</event>
<event>
 5   0  0.2839279E-07  0.4016192E+04  0.7818609E-02  0.8001288E-01
       -2   -1    0    0    0  501  0.00000000000E+00  0.00000000000E+00  0.17960961172E+04  0.17960961172E+04  0.25500000920E-02 0.  1.
        2   -1    0    0  501    0  0.00000000000E+00  0.00000000000E+00 -0.22451185514E+04  0.22451185514E+04  0.25500000920E-02 0. -1.
    10030    2    1    2    0    0  0.00000000000E+00  0.00000000000E+00 -0.44902243420E+03  0.40412146686E+04  0.40161915855E+04 0.  0.
        3    1    3    3  502    0 -0.10862140488E+04 -0.30412803961E+03  0.14471929526E+04  0.18348630131E+04  0.10100000352E+00 0.  1.
       -3    1    3    3    0  502  0.10862140488E+04  0.30412803961E+03 -0.18962153868E+04  0.22063516555E+04  0.10100000352E+00 0. -1.
</event>
<event>
 5   0  0.8583262E-08  0.4081529E+04  0.7818609E-02  0.7988299E-01
       -1   -1    0    0    0  501  0.00000000000E+00  0.00000000000E+00  0.14767967220E+04  0.14767967220E+04  0.50400001928E-02 0.  1.
        1   -1    0    0  501    0  0.00000000000E+00  0.00000000000E+00 -0.28201032802E+04  0.28201032802E+04  0.50400001928E-02 0. -1.
    10030    2    1    2    0    0  0.00000000000E+00  0.00000000000E+00 -0.13433065583E+04  0.42969000022E+04  0.40815287724E+04 0.  0.
        1    1    3    3  502    0 -0.12801526911E+04  0.21944416558E+03 -0.23288081961E+04  0.26665135043E+04  0.50400001928E-02 0. -1.
       -1    1    3    3    0  502  0.12801526911E+04 -0.21944416558E+03  0.98550163786E+03  0.16303864979E+04  0.50400001928E-02 0.  1.
</event>
<event>
 5   0  0.8528625E-08  0.3993545E+04  0.7818609E-02  0.8005850E-01
        1   -1    0    0  501    0  0.00000000000E+00  0.00000000000E+00  0.15823522813E+04  0.15823522813E+04  0.50400001928E-02 0. -1.
       -1   -1    0    0    0  501  0.00000000000E+00  0.00000000000E+00 -0.25197293850E+04  0.25197293850E+04  0.50400001928E-02 0.  1.
    10030    2    1    2    0    0  0.00000000000E+00  0.00000000000E+00 -0.93737710366E+03  0.41020816663E+04  0.39935445613E+04 0.  0.
        4    1    3    3  502    0 -0.87633655444E+03 -0.74624520928E+03 -0.21446738569E+04  0.24340244934E+04  0.12699999809E+01 0.  1.
       -4    1    3    3    0  502  0.87633655444E+03  0.74624520928E+03  0.12072967532E+04  0.16680571730E+04  0.12699999809E+01 0. -1.
</event>
<event>
 5   0  0.8528625E-08  0.3985141E+04  0.7818609E-02  0.8007551E-01
       -1   -1    0    0    0  501  0.00000000000E+00  0.00000000000E+00  0.29944339031E+04  0.29944339031E+04  0.50400001928E-02 0.  1.
        1   -1    0    0  501    0  0.00000000000E+00  0.00000000000E+00 -0.13259060319E+04  0.13259060319E+04  0.50400001928E-02 0. -1.
    10030    2    1    2    0    0  0.00000000000E+00  0.00000000000E+00  0.16685278713E+04  0.43203399350E+04  0.39851413898E+04 0.  0.
        5    1    3    3  502    0 -0.12680009138E+04  0.60694534548E+01  0.25005737364E+04  0.28037036678E+04  0.46999998093E+01 0.  1.
       -5    1    3    3    0  502  0.12680009138E+04 -0.60694534548E+01 -0.83204586512E+03  0.15166362673E+04  0.46999998093E+01 0. -1.
</event>
<event>
 5   0  0.8583262E-08  0.3951105E+04  0.7818609E-02  0.8014483E-01
       -1   -1    0    0    0  501  0.00000000000E+00  0.00000000000E+00  0.15042194526E+04  0.15042194526E+04  0.50400001928E-02 0. -1.
        1   -1    0    0  501    0  0.00000000000E+00  0.00000000000E+00 -0.25945734969E+04  0.25945734969E+04  0.50400001928E-02 0.  1.
    10030    2    1    2    0    0  0.00000000000E+00  0.00000000000E+00 -0.10903540444E+04  0.40987929495E+04  0.39511051240E+04 0.  0.
        1    1    3    3  502    0 -0.83941989097E+03  0.17794938779E+04 -0.36081605889E+03  0.20003530797E+04  0.50400001928E-02 0. -1.
       -1    1    3    3    0  502  0.83941989097E+03 -0.17794938779E+04 -0.72953798548E+03  0.20984398698E+04  0.50400001928E-02 0.  1.
</event>
<event>
 5   0  0.8583262E-08  0.3995040E+04  0.7818609E-02  0.8005548E-01
       -1   -1    0    0    0  501  0.00000000000E+00  0.00000000000E+00  0.17000422207E+04  0.17000422207E+04  0.50400001928E-02 0. -1.
        1   -1    0    0  501    0  0.00000000000E+00  0.00000000000E+00 -0.23470516629E+04  0.23470516629E+04  0.50400001928E-02 0.  1.
    10030    2    1    2    0    0  0.00000000000E+00  0.00000000000E+00 -0.64700944222E+03  0.40470938836E+04  0.39950403858E+04 0.  0.
        1    1    3    3  502    0 -0.18062367901E+04 -0.71235250725E+03 -0.79881908818E+03  0.20995355134E+04  0.50400001928E-02 0.  1.
       -1    1    3    3    0  502  0.18062367901E+04  0.71235250725E+03  0.15180964597E+03  0.19475583702E+04  0.50400001928E-02 0. -1.
</event>
<event>
 5   0  0.2666978E-07  0.3954932E+04  0.7818609E-02  0.8013700E-01
       -2   -1    0    0    0  501  0.00000000000E+00  0.00000000000E+00  0.13209641675E+04  0.13209641675E+04  0.25500000920E-02 0. -1.
        2   -1    0    0  501    0  0.00000000000E+00  0.00000000000E+00 -0.29602408871E+04  0.29602408871E+04  0.25500000920E-02 0.  1.
    10030    2    1    2    0    0  0.00000000000E+00  0.00000000000E+00 -0.16392767195E+04  0.42812050546E+04  0.39549321810E+04 0.  0.
        4    1    3    3  502    0 -0.50335275613E+03 -0.18296436471E+04 -0.21750232169E+03  0.19100441736E+04  0.12699999809E+01 0.  1.
       -4    1    3    3    0  502  0.50335275613E+03  0.18296436471E+04 -0.14217743978E+04  0.23711608810E+04  0.12699999809E+01 0. -1.
</event>
<event>
 5   0  0.8528625E-08  0.3910916E+04  0.7818609E-02  0.8022763E-01
       -1   -1    0    0    0  501  0.00000000000E+00  0.00000000000E+00  0.16918297731E+04  0.16918297731E+04  0.50400001928E-02 0. -1.
        1   -1    0    0  501    0  0.00000000000E+00  0.00000000000E+00 -0.22601657087E+04  0.22601657087E+04  0.50400001928E-02 0.  1.
    10030    2    1    2    0    0  0.00000000000E+00  0.00000000000E+00 -0.56833593561E+03  0.39519954818E+04  0.39109158202E+04 0.  0.
        4    1    3    3  502    0 -0.97124172843E+03  0.73484156001E+03 -0.18301105250E+04  0.21983195309E+04  0.12699999809E+01 0.  1.
       -4    1    3    3    0  502  0.97124172843E+03 -0.73484156001E+03  0.12617745894E+04  0.17536759509E+04  0.12699999809E+01 0. -1.
</event>
<event>
 5   0  0.8583262E-08  0.3991775E+04  0.7818609E-02  0.8006208E-01
       -1   -1    0    0    0  501  0.00000000000E+00  0.00000000000E+00  0.34322306714E+04  0.34322306714E+04  0.50400001928E-02 0.  1.
        1   -1    0    0  501    0  0.00000000000E+00  0.00000000000E+00 -0.11606352145E+04  0.11606352145E+04  0.50400001928E-02 0. -1.
    10030    2    1    2    0    0  0.00000000000E+00  0.00000000000E+00  0.22715954569E+04  0.45928658860E+04  0.39917754354E+04 0.  0.
        1    1    3    3  502    0 -0.29460828923E+03 -0.19521819434E+04  0.79885311107E+03  0.21297827770E+04  0.50400001928E-02 0.  1.
       -1    1    3    3    0  502  0.29460828923E+03  0.19521819434E+04  0.14727423458E+04  0.24630831089E+04  0.50400001928E-02 0. -1.
</event>
<event>
 5   0  0.8528625E-08  0.3884699E+04  0.7818609E-02  0.8028219E-01
       -1   -1    0    0    0  501  0.00000000000E+00  0.00000000000E+00  0.18157095337E+04  0.18157095337E+04  0.50400001928E-02 0.  1.
        1   -1    0    0  501    0  0.00000000000E+00  0.00000000000E+00 -0.20778225831E+04  0.20778225831E+04  0.50400001928E-02 0. -1.
    10030    2    1    2    0    0  0.00000000000E+00  0.00000000000E+00 -0.26211304947E+03  0.38935321168E+04  0.38846993569E+04 0.  0.
        3    1    3    3  502    0  0.16230797037E+04  0.95933483549E+03 -0.59903487531E+03  0.19782704171E+04  0.10100000352E+00 0.  1.
       -3    1    3    3    0  502 -0.16230797037E+04 -0.95933483549E+03  0.33692182584E+03  0.19152616997E+04  0.10100000352E+00 0. -1.
</event>
<event>
 5   0  0.8528625E-08  0.3019365E+04  0.7818609E-02  0.8238223E-01
        1   -1    0    0  501    0  0.00000000000E+00  0.00000000000E+00  0.16473372061E+04  0.16473372062E+04  0.50400001928E-02 0.  1.
       -1   -1    0    0    0  501  0.00000000000E+00  0.00000000000E+00 -0.13835304246E+04  0.13835304246E+04  0.50400001928E-02 0. -1.
    10030    2    1    2    0    0  0.00000000000E+00  0.00000000000E+00  0.26380678153E+03  0.30308676308E+04  0.30193649295E+04 0.  0.
        5    1    3    3  502    0 -0.95052790861E+03 -0.91307197445E+02  0.13056649831E+04  0.16175980488E+04  0.46999998093E+01 0.  1.
       -5    1    3    3    0  502  0.95052790861E+03  0.91307197445E+02 -0.10418582015E+04  0.14132695820E+04  0.46999998093E+01 0. -1.
</event>
<event>
 5   0  0.2666978E-07  0.3950596E+04  0.7818609E-02  0.8014588E-01
       -2   -1    0    0    0  501  0.00000000000E+00  0.00000000000E+00  0.33259132112E+04  0.33259132112E+04  0.25500000920E-02 0. -1.
        2   -1    0    0  501    0  0.00000000000E+00  0.00000000000E+00 -0.11731522344E+04  0.11731522344E+04  0.25500000920E-02 0.  1.
    10030    2    1    2    0    0  0.00000000000E+00  0.00000000000E+00  0.21527609768E+04  0.44990654456E+04  0.39505961652E+04 0.  0.
        4    1    3    3  502    0 -0.10180489760E+04  0.11630265562E+04  0.24770727811E+04  0.29197509592E+04  0.12699999809E+01 0. -1.
       -4    1    3    3    0  502  0.10180489760E+04 -0.11630265562E+04 -0.32431180426E+03  0.15793144864E+04  0.12699999809E+01 0.  1.
</event>
<event>
 5   0  0.8528625E-08  0.3822237E+04  0.7818609E-02  0.8041400E-01
       -1   -1    0    0    0  501  0.00000000000E+00  0.00000000000E+00  0.32936676910E+04  0.32936676910E+04  0.50400001928E-02 0.  1.
        1   -1    0    0  501    0  0.00000000000E+00  0.00000000000E+00 -0.11089077333E+04  0.11089077333E+04  0.50400001928E-02 0. -1.
    10030    2    1    2    0    0  0.00000000000E+00  0.00000000000E+00  0.21847599577E+04  0.44025754243E+04  0.38222368182E+04 0.  0.
        2    1    3    3  502    0 -0.19045195893E+04 -0.11461368610E+03  0.12187796450E+04  0.22640130269E+04  0.25500000920E-02 0.  1.
       -2    1    3    3    0  502  0.19045195893E+04  0.11461368610E+03  0.96598031272E+03  0.21385623974E+04  0.25500000920E-02 0. -1.
</event>
<event>
 5   0  0.8528625E-08  0.2922288E+04  0.7818609E-02  0.8266277E-01
       -1   -1    0    0    0  501  0.00000000000E+00  0.00000000000E+00  0.89069916515E+03  0.89069916517E+03  0.50400001928E-02 0.  1.
        1   -1    0    0  501    0  0.00000000000E+00  0.00000000000E+00 -0.23969278536E+04  0.23969278537E+04  0.50400001928E-02 0. -1.
    10030    2    1    2    0    0  0.00000000000E+00  0.00000000000E+00 -0.15062286885E+04  0.32876270188E+04  0.29222878970E+04 0.  0.
        4    1    3    3  502    0 -0.10708817409E+03  0.77438154770E+03 -0.21418650447E+04  0.22800706439E+04  0.12699999809E+01 0. -1.
       -4    1    3    3    0  502  0.10708817409E+03 -0.77438154770E+03  0.63563635621E+03  0.10075563749E+04  0.12699999809E+01 0.  1.
</event>
<event>
 5   0  0.2666978E-07  0.3981090E+04  0.7818609E-02  0.8008372E-01
       -2   -1    0    0    0  501  0.00000000000E+00  0.00000000000E+00  0.14205884510E+04  0.14205884510E+04  0.25500000920E-02 0. -1.
        2   -1    0    0  501    0  0.00000000000E+00  0.00000000000E+00 -0.27891748394E+04  0.27891748394E+04  0.25500000920E-02 0.  1.
    10030    2    1    2    0    0  0.00000000000E+00  0.00000000000E+00 -0.13685863884E+04  0.42097632905E+04  0.39810900843E+04 0.  0.
        4    1    3    3  502    0  0.12951580578E+04  0.72054356152E+03 -0.20893958244E+04  0.25616779545E+04  0.12699999809E+01 0.  1.
       -4    1    3    3    0  502 -0.12951580578E+04 -0.72054356152E+03  0.72080943605E+03  0.16480853360E+04  0.12699999809E+01 0. -1.
</event>
<event>
 5   0  0.2704088E-07  0.3440375E+04  0.7818609E-02  0.8128067E-01
       -2   -1    0    0    0  501  0.00000000000E+00  0.00000000000E+00  0.15642935987E+04  0.15642935987E+04  0.25500000920E-02 0.  1.
        2   -1    0    0  501    0  0.00000000000E+00  0.00000000000E+00 -0.18916175222E+04  0.18916175222E+04  0.25500000920E-02 0. -1.
    10030    2    1    2    0    0  0.00000000000E+00  0.00000000000E+00 -0.32732392350E+03  0.34559111208E+04  0.34403750848E+04 0.  0.
        5    1    3    3  502    0 -0.31738848357E+03 -0.85351041962E+03  0.13023143666E+04  0.15891067571E+04  0.46999998093E+01 0.  1.
       -5    1    3    3    0  502  0.31738848357E+03  0.85351041962E+03 -0.16296382901E+04  0.18668043637E+04  0.46999998093E+01 0. -1.
</event>
<event>
 5   0  0.8528625E-08  0.3354653E+04  0.7818609E-02  0.8149127E-01
       -1   -1    0    0    0  501  0.00000000000E+00  0.00000000000E+00  0.11572722703E+04  0.11572722703E+04  0.50400001928E-02 0.  1.
        1   -1    0    0  501    0  0.00000000000E+00  0.00000000000E+00 -0.24310821217E+04  0.24310821218E+04  0.50400001928E-02 0. -1.
    10030    2    1    2    0    0  0.00000000000E+00  0.00000000000E+00 -0.12738098514E+04  0.35883543921E+04  0.33546528443E+04 0.  0.
        4    1    3    3  502    0  0.15288996057E+04  0.11371551397E+03 -0.13647150867E+04  0.20525384535E+04  0.12699999809E+01 0.  1.
       -4    1    3    3    0  502 -0.15288996057E+04 -0.11371551397E+03  0.90905235317E+02  0.15358159386E+04  0.12699999809E+01 0. -1.
</event>
<event>
 5   0  0.2666978E-07  0.4455688E+04  0.7818609E-02  0.7918441E-01
        2   -1    0    0  501    0  0.00000000000E+00  0.00000000000E+00  0.35758363807E+04  0.35758363807E+04  0.25500000920E-02 0.  1.
       -2   -1    0    0    0  501  0.00000000000E+00  0.00000000000E+00 -0.13880077425E+04  0.13880077425E+04  0.25500000920E-02 0. -1.
    10030    2    1    2    0    0  0.00000000000E+00  0.00000000000E+00  0.21878286382E+04  0.49638441232E+04  0.44556878626E+04 0.  0.
        4    1    3    3  502    0  0.10287938867E+04  0.49390582380E+03  0.32254809799E+04  0.34214162256E+04  0.12699999809E+01 0.  1.
       -4    1    3    3    0  502 -0.10287938867E+04 -0.49390582380E+03 -0.10376523417E+04  0.15424278976E+04  0.12699999809E+01 0. -1.
</event>
<event>
 5   0  0.2839279E-07  0.3993800E+04  0.7818609E-02  0.8005798E-01
        2   -1    0    0  501    0  0.00000000000E+00  0.00000000000E+00  0.18944405499E+04  0.18944405499E+04  0.25500000920E-02 0. -1.
       -2   -1    0    0    0  501  0.00000000000E+00  0.00000000000E+00 -0.21049013926E+04  0.21049013926E+04  0.25500000920E-02 0.  1.
    10030    2    1    2    0    0  0.00000000000E+00  0.00000000000E+00 -0.21046084268E+03  0.39993419426E+04  0.39938004717E+04 0.  0.
        3    1    3    3  502    0 -0.10632717422E+02 -0.82953468350E+03 -0.19241674513E+04  0.20953904735E+04  0.10100000352E+00 0.  1.
       -3    1    3    3    0  502  0.10632717422E+02  0.82953468350E+03  0.17137066086E+04  0.19039514690E+04  0.10100000352E+00 0. -1.
</event>
<event>
 5   0  0.8528625E-08  0.3913695E+04  0.7818609E-02  0.8022187E-01
        1   -1    0    0  501    0  0.00000000000E+00  0.00000000000E+00  0.31792192645E+04  0.31792192645E+04  0.50400001928E-02 0.  1.
       -1   -1    0    0    0  501  0.00000000000E+00  0.00000000000E+00 -0.12044631571E+04  0.12044631571E+04  0.50400001928E-02 0. -1.
    10030    2    1    2    0    0  0.00000000000E+00  0.00000000000E+00  0.19747561074E+04  0.43836824217E+04  0.39136951709E+04 0.  0.
        5    1    3    3  502    0 -0.29002886337E+03  0.11889463827E+04 -0.72291949465E+03  0.14213883805E+04  0.46999998093E+01 0. -1.
       -5    1    3    3    0  502  0.29002886337E+03 -0.11889463827E+04  0.26976756021E+04  0.29622940412E+04  0.46999998093E+01 0.  1.
</event>
<event>
 5   0  0.2730801E-07  0.3715174E+04  0.7818609E-02  0.8064607E-01
        2   -1    0    0  501    0  0.00000000000E+00  0.00000000000E+00  0.12876596652E+04  0.12876596652E+04  0.25500000920E-02 0. -1.
       -2   -1    0    0    0  501  0.00000000000E+00  0.00000000000E+00 -0.26797675869E+04  0.26797675869E+04  0.25500000920E-02 0.  1.
    10030    2    1    2    0    0  0.00000000000E+00  0.00000000000E+00 -0.13921079217E+04  0.39674272520E+04  0.37151735538E+04 0.  0.
        2    1    3    3  502    0  0.44869035576E+03  0.17546759253E+04 -0.25520726313E+03  0.18290274425E+04  0.25500000920E-02 0. -1.
       -2    1    3    3    0  502 -0.44869035576E+03 -0.17546759253E+04 -0.11369006585E+04  0.21383998096E+04  0.25500000920E-02 0.  1.
</event>
<event>
 5   0  0.2730801E-07  0.4003187E+04  0.7818609E-02  0.8003904E-01
       -2   -1    0    0    0  501  0.00000000000E+00  0.00000000000E+00  0.21516905181E+04  0.21516905181E+04  0.25500000920E-02 0. -1.
        2   -1    0    0  501    0  0.00000000000E+00  0.00000000000E+00 -0.18619667180E+04  0.18619667180E+04  0.25500000920E-02 0.  1.
    10030    2    1    2    0    0  0.00000000000E+00  0.00000000000E+00  0.28972380005E+03  0.40136572361E+04  0.40031867966E+04 0.  0.
        2    1    3    3  502    0 -0.10169916470E+04  0.16667710882E+04 -0.29671968809E+03  0.19749532764E+04  0.25500000920E-02 0.  1.
       -2    1    3    3    0  502  0.10169916470E+04 -0.16667710882E+04  0.58644348814E+03  0.20387039597E+04  0.25500000920E-02 0. -1.
</event>
<event>
 5   0  0.8528625E-08  0.4086079E+04  0.7818609E-02  0.7987403E-01
       -1   -1    0    0    0  501  0.00000000000E+00  0.00000000000E+00  0.17469879646E+04  0.17469879646E+04  0.50400001928E-02 0. -1.
        1   -1    0    0  501    0  0.00000000000E+00  0.00000000000E+00 -0.23892614216E+04  0.23892614216E+04  0.50400001928E-02 0.  1.
    10030    2    1    2    0    0  0.00000000000E+00  0.00000000000E+00 -0.64227345700E+03  0.41362493862E+04  0.40860792688E+04 0.  0.
        3    1    3    3  502    0  0.65051291386E+03  0.51216249341E+03 -0.22118312900E+04  0.23617102144E+04  0.10100000352E+00 0.  1.
       -3    1    3    3    0  502 -0.65051291386E+03 -0.51216249341E+03  0.15695578330E+04  0.17745391718E+04  0.10100000352E+00 0. -1.
</event>
<event>
 5   0  0.2839279E-07  0.3850703E+04  0.7818609E-02  0.8035361E-01
       -2   -1    0    0    0  501  0.00000000000E+00  0.00000000000E+00  0.12844930041E+04  0.12844930041E+04  0.25500000920E-02 0.  1.
        2   -1    0    0  501    0  0.00000000000E+00  0.00000000000E+00 -0.28859462380E+04  0.28859462380E+04  0.25500000920E-02 0. -1.
    10030    2    1    2    0    0  0.00000000000E+00  0.00000000000E+00 -0.16014532339E+04  0.41704392421E+04  0.38507026646E+04 0.  0.
        3    1    3    3  502    0 -0.70944761957E+03  0.15338955819E+04 -0.17997191235E+04  0.24688338371E+04  0.10100000352E+00 0. -1.
       -3    1    3    3    0  502  0.70944761957E+03 -0.15338955819E+04  0.19826588959E+03  0.17016054050E+04  0.10100000352E+00 0.  1.
</event>
<event>
 5   0  0.8528625E-08  0.3992248E+04  0.7818609E-02  0.8006112E-01
        1   -1    0    0  501    0  0.00000000000E+00  0.00000000000E+00  0.20977069300E+04  0.20977069300E+04  0.50400001928E-02 0. -1.
       -1   -1    0    0    0  501  0.00000000000E+00  0.00000000000E+00 -0.18994607306E+04  0.18994607306E+04  0.50400001928E-02 0.  1.
    10030    2    1    2    0    0  0.00000000000E+00  0.00000000000E+00  0.19824619942E+03  0.39971676606E+04  0.39922484581E+04 0.  0.
        4    1    3    3  502    0  0.82185508988E+03  0.57512671648E+03  0.18270229685E+04  0.20842819073E+04  0.12699999809E+01 0. -1.
       -4    1    3    3    0  502 -0.82185508988E+03 -0.57512671648E+03 -0.16287767691E+04  0.19128857533E+04  0.12699999809E+01 0.  1.
</event>
<event>
 5   0  0.8528625E-08  0.4035129E+04  0.7818609E-02  0.7997497E-01
       -1   -1    0    0    0  501  0.00000000000E+00  0.00000000000E+00  0.22551632764E+04  0.22551632764E+04  0.50400001928E-02 0.  1.
        1   -1    0    0  501    0  0.00000000000E+00  0.00000000000E+00 -0.18049988043E+04  0.18049988043E+04  0.50400001928E-02 0. -1.
    10030    2    1    2    0    0  0.00000000000E+00  0.00000000000E+00  0.45016447209E+03  0.40601620807E+04  0.40351292507E+04 0.  0.
        3    1    3    3  502    0  0.87903472960E+03 -0.45606918252E+03  0.19937885774E+04  0.22261837428E+04  0.10100000352E+00 0.  1.
       -3    1    3    3    0  502 -0.87903472960E+03  0.45606918252E+03 -0.15436241054E+04  0.18339783379E+04  0.10100000352E+00 0. -1.
</event>
<event>
 5   0  0.2730801E-07  0.4016553E+04  0.7818609E-02  0.8001216E-01
        2   -1    0    0  501    0  0.00000000000E+00  0.00000000000E+00  0.23728780623E+04  0.23728780623E+04  0.25500000920E-02 0.  1.
       -2   -1    0    0    0  501  0.00000000000E+00  0.00000000000E+00 -0.16996972185E+04  0.16996972185E+04  0.25500000920E-02 0. -1.
    10030    2    1    2    0    0  0.00000000000E+00  0.00000000000E+00  0.67318084373E+03  0.40725752808E+04  0.40165528715E+04 0.  0.
        2    1    3    3  502    0  0.52783555685E+02 -0.19032774124E+04  0.98418745689E+03  0.21433329099E+04  0.25500000920E-02 0.  1.
       -2    1    3    3    0  502 -0.52783555685E+02  0.19032774124E+04 -0.31100661316E+03  0.19292423709E+04  0.25500000920E-02 0. -1.
</event>
<event>
 5   0  0.8528625E-08  0.4293659E+04  0.7818609E-02  0.7947792E-01
       -1   -1    0    0    0  501  0.00000000000E+00  0.00000000000E+00  0.16982041640E+04  0.16982041640E+04  0.50400001928E-02 0. -1.
        1   -1    0    0  501    0  0.00000000000E+00  0.00000000000E+00 -0.27139708572E+04  0.27139708572E+04  0.50400001928E-02 0.  1.
    10030    2    1    2    0    0  0.00000000000E+00  0.00000000000E+00 -0.10157666931E+04  0.44121750212E+04  0.42936588643E+04 0.  0.
        5    1    3    3  502    0 -0.12211624826E+04  0.13958657591E+03  0.13008526220E+04  0.17896820542E+04  0.46999998093E+01 0. -1.
       -5    1    3    3    0  502  0.12211624826E+04 -0.13958657591E+03 -0.23166193151E+04  0.26224929670E+04  0.46999998093E+01 0.  1.
</event>
<event>
 5   0  0.2666978E-07  0.3071669E+04  0.7818609E-02  0.8223556E-01
       -2   -1    0    0    0  501  0.00000000000E+00  0.00000000000E+00  0.13507590611E+04  0.13507590611E+04  0.25500000920E-02 0.  1.
        2   -1    0    0  501    0  0.00000000000E+00  0.00000000000E+00 -0.17462678618E+04  0.17462678618E+04  0.25500000920E-02 0. -1.
    10030    2    1    2    0    0  0.00000000000E+00  0.00000000000E+00 -0.39550880070E+03  0.30970269229E+04  0.30716686914E+04 0.  0.
        4    1    3    3  502    0  0.13029231454E+04 -0.60902486704E+03  0.34545631658E+03  0.14791422146E+04  0.12699999809E+01 0.  1.
       -4    1    3    3    0  502 -0.13029231454E+04  0.60902486704E+03 -0.74096511728E+03  0.16178847083E+04  0.12699999809E+01 0. -1.
</event>
<event>
 5   0  0.2839279E-07  0.4034641E+04  0.7818609E-02  0.7997595E-01
        2   -1    0    0  501    0  0.00000000000E+00  0.00000000000E+00  0.25493034322E+04  0.25493034322E+04  0.25500000920E-02 0. -1.
       -2   -1    0    0    0  501  0.00000000000E+00  0.00000000000E+00 -0.15963508583E+04  0.15963508583E+04  0.25500000920E-02 0.  1.
    10030    2    1    2    0    0  0.00000000000E+00  0.00000000000E+00  0.95295257394E+03  0.41456542906E+04  0.40346413581E+04 0.  0.
        3    1    3    3  502    0  0.98364200862E+03  0.52969910070E+03  0.22024108433E+04  0.24695639841E+04  0.10100000352E+00 0. -1.
       -3    1    3    3    0  502 -0.98364200862E+03 -0.52969910070E+03 -0.12494582694E+04  0.16760903065E+04  0.10100000352E+00 0.  1.
</event>
<event>
 5   0  0.2704088E-07  0.4042768E+04  0.7818609E-02  0.7995974E-01
       -2   -1    0    0    0  501  0.00000000000E+00  0.00000000000E+00  0.20285542468E+04  0.20285542468E+04  0.25500000920E-02 0.  1.
        2   -1    0    0  501    0  0.00000000000E+00  0.00000000000E+00 -0.20142395062E+04  0.20142395062E+04  0.25500000920E-02 0. -1.
    10030    2    1    2    0    0  0.00000000000E+00  0.00000000000E+00  0.14314740553E+02  0.40427937530E+04  0.40427684101E+04 0.  0.
        5    1    3    3  502    0 -0.12883042503E+04  0.52501558237E+03  0.14736599357E+04  0.20265894747E+04  0.46999998093E+01 0.  1.
       -5    1    3    3    0  502  0.12883042503E+04 -0.52501558237E+03 -0.14593451952E+04  0.20162042783E+04  0.46999998093E+01 0. -1.
</event>
<event>
 5   0  0.8528625E-08  0.4013238E+04  0.7818609E-02  0.8001881E-01
       -1   -1    0    0    0  501  0.00000000000E+00  0.00000000000E+00  0.17485756909E+04  0.17485756909E+04  0.50400001928E-02 0.  1.
        1   -1    0    0  501    0  0.00000000000E+00  0.00000000000E+00 -0.23027431058E+04  0.23027431058E+04  0.50400001928E-02 0. -1.
    10030    2    1    2    0    0  0.00000000000E+00  0.00000000000E+00 -0.55416741492E+03  0.40513187966E+04  0.40132384016E+04 0.  0.
        4    1    3    3  502    0 -0.32989526129E+03  0.57702852321E+03  0.16342189120E+04  0.17642182023E+04  0.12699999809E+01 0.  1.
       -4    1    3    3    0  502  0.32989526129E+03 -0.57702852321E+03 -0.21883863269E+04  0.22871005944E+04  0.12699999809E+01 0. -1.
</event>
<event>
 5   0  0.8528625E-08  0.3984250E+04  0.7818609E-02  0.8007731E-01
       -1   -1    0    0    0  501  0.00000000000E+00  0.00000000000E+00  0.13991965632E+04  0.13991965632E+04  0.50400001928E-02 0.  1.
        1   -1    0    0  501    0  0.00000000000E+00  0.00000000000E+00 -0.28363155524E+04  0.28363155524E+04  0.50400001928E-02 0. -1.
    10030    2    1    2    0    0  0.00000000000E+00  0.00000000000E+00 -0.14371189893E+04  0.42355121156E+04  0.39842504806E+04 0.  0.
        3    1    3    3  502    0  0.43756048123E+03  0.18223255444E+03 -0.27754971546E+04  0.28156797304E+04  0.10100000352E+00 0. -1.
       -3    1    3    3    0  502 -0.43756048123E+03 -0.18223255444E+03  0.13383781653E+04  0.14198323853E+04  0.10100000352E+00 0.  1.
</event>
<event>
 5   0  0.8528625E-08  0.4005536E+04  0.7818609E-02  0.8003431E-01
       -1   -1    0    0    0  501  0.00000000000E+00  0.00000000000E+00  0.20560559882E+04  0.20560559882E+04  0.50400001928E-02 0.  1.
        1   -1    0    0  501    0  0.00000000000E+00  0.00000000000E+00 -0.19508608664E+04  0.19508608664E+04  0.50400001928E-02 0. -1.
    10030    2    1    2    0    0  0.00000000000E+00  0.00000000000E+00  0.10519512173E+03  0.40069168546E+04  0.40055357527E+04 0.  0.
        5    1    3    3  502    0  0.18776557700E+03  0.19211696303E+04 -0.48135461111E+03  0.19894403766E+04  0.46999998093E+01 0. -1.
       -5    1    3    3    0  502 -0.18776557700E+03 -0.19211696303E+04  0.58654973284E+03  0.20174764780E+04  0.46999998093E+01 0.  1.
</event>
<event>
 5   0  0.2666978E-07  0.4333167E+04  0.7818609E-02  0.7940514E-01
        2   -1    0    0  501    0  0.00000000000E+00  0.00000000000E+00  0.26526682611E+04  0.26526682611E+04  0.25500000920E-02 0.  1.
       -2   -1    0    0    0  501  0.00000000000E+00  0.00000000000E+00 -0.17695705283E+04  0.17695705283E+04  0.25500000920E-02 0. -1.
    10030    2    1    2    0    0  0.00000000000E+00  0.00000000000E+00  0.88309773289E+03  0.44222387894E+04  0.43331667755E+04 0.  0.
        4    1    3    3  502    0  0.19177594106E+04  0.89754959293E+03  0.90998905179E+03  0.23046644259E+04  0.12699999809E+01 0.  1.
       -4    1    3    3    0  502 -0.19177594106E+04 -0.89754959293E+03 -0.26891318895E+02  0.21175743635E+04  0.12699999809E+01 0. -1.
</event>
<event>
 5   0  0.2661693E-07  0.4049641E+04  0.7818609E-02  0.7994607E-01
        2   -1    0    0  501    0  0.00000000000E+00  0.00000000000E+00  0.24845664609E+04  0.24845664609E+04  0.25500000920E-02 0.  1.
       -2   -1    0    0    0  501  0.00000000000E+00  0.00000000000E+00 -0.16501459433E+04  0.16501459433E+04  0.25500000920E-02 0. -1.
    10030    2    1    2    0    0  0.00000000000E+00  0.00000000000E+00  0.83442051753E+03  0.41347124042E+04  0.40496406094E+04 0.  0.
        1    1    3    3  502    0 -0.15816041321E+04  0.12642409548E+04  0.42841549716E+03  0.20696175156E+04  0.50400001928E-02 0.  1.
       -1    1    3    3    0  502  0.15816041321E+04 -0.12642409548E+04  0.40600502036E+03  0.20650948886E+04  0.50400001928E-02 0. -1.
</event>
<event>
 5   0  0.2704088E-07  0.3800573E+04  0.7818609E-02  0.8046032E-01
       -2   -1    0    0    0  501  0.00000000000E+00  0.00000000000E+00  0.14956890882E+04  0.14956890882E+04  0.25500000920E-02 0.  1.
        2   -1    0    0  501    0  0.00000000000E+00  0.00000000000E+00 -0.24143308467E+04  0.24143308467E+04  0.25500000920E-02 0. -1.
    10030    2    1    2    0    0  0.00000000000E+00  0.00000000000E+00 -0.91864175851E+03  0.39100199350E+04  0.38005727478E+04 0.  0.
        5    1    3    3  502    0 -0.65179162407E+03 -0.27710787368E+03  0.13548215037E+04  0.15287852994E+04  0.46999998093E+01 0.  1.
       -5    1    3    3    0  502  0.65179162407E+03  0.27710787368E+03 -0.22734632622E+04  0.23812346355E+04  0.46999998093E+01 0. -1.
</event>
<event>
 5   0  0.2666978E-07  0.3010884E+04  0.7818609E-02  0.8240630E-01
       -2   -1    0    0    0  501  0.00000000000E+00  0.00000000000E+00  0.14604644592E+04  0.14604644592E+04  0.25500000920E-02 0.  1.
        2   -1    0    0  501    0  0.00000000000E+00  0.00000000000E+00 -0.15518042638E+04  0.15518042638E+04  0.25500000920E-02 0. -1.
    10030    2    1    2    0    0  0.00000000000E+00  0.00000000000E+00 -0.91339804590E+02  0.30122687230E+04  0.30108835745E+04 0.  0.
        4    1    3    3  502    0 -0.76421049362E+03 -0.28053050637E+03  0.12212610967E+04  0.14677177259E+04  0.12699999809E+01 0.  1.
       -4    1    3    3    0  502  0.76421049362E+03  0.28053050637E+03 -0.13126009013E+04  0.15445509971E+04  0.12699999809E+01 0. -1.
</event>
<event>
 5   0  0.2730801E-07  0.3975923E+04  0.7818609E-02  0.8009421E-01
        2   -1    0    0  501    0  0.00000000000E+00  0.00000000000E+00  0.27061822839E+04  0.27061822839E+04  0.25500000920E-02 0. -1.
       -2   -1    0    0    0  501  0.00000000000E+00  0.00000000000E+00 -0.14603565423E+04  0.14603565423E+04  0.25500000920E-02 0.  1.
    10030    2    1    2    0    0  0.00000000000E+00  0.00000000000E+00  0.12458257416E+04  0.41665388262E+04  0.39759230390E+04 0.  0.
        2    1    3    3  502    0 -0.68049427803E+03 -0.98341622513E+03 -0.10412419875E+04  0.15856748755E+04  0.25500000920E-02 0.  1.
       -2    1    3    3    0  502  0.68049427803E+03  0.98341622513E+03  0.22870677291E+04  0.25808639507E+04  0.25500000920E-02 0. -1.
</event>
<event>
 5   0  0.2704088E-07  0.4073959E+04  0.7818609E-02  0.7989791E-01
        2   -1    0    0  501    0  0.00000000000E+00  0.00000000000E+00  0.27588621171E+04  0.27588621171E+04  0.25500000920E-02 0.  1.
       -2   -1    0    0    0  501  0.00000000000E+00  0.00000000000E+00 -0.15039843276E+04  0.15039843276E+04  0.25500000920E-02 0. -1.
    10030    2    1    2    0    0  0.00000000000E+00  0.00000000000E+00  0.12548777894E+04  0.42628464447E+04  0.40739589523E+04 0.  0.
        5    1    3    3  502    0  0.61634617168E+03  0.26219517316E+03 -0.13854561458E+04  0.15388761270E+04  0.46999998093E+01 0. -1.
       -5    1    3    3    0  502 -0.61634617168E+03 -0.26219517316E+03  0.26403339353E+04  0.27239703177E+04  0.46999998093E+01 0.  1.
</event>
<event>
 5   0  0.2704088E-07  0.3256878E+04  0.7818609E-02  0.8173955E-01
        2   -1    0    0  501    0  0.00000000000E+00  0.00000000000E+00  0.24144741776E+04  0.24144741776E+04  0.25500000920E-02 0. -1.
       -2   -1    0    0    0  501  0.00000000000E+00  0.00000000000E+00 -0.10982986472E+04  0.10982986472E+04  0.25500000920E-02 0.  1.
    10030    2    1    2    0    0  0.00000000000E+00  0.00000000000E+00  0.13161755304E+04  0.35127728248E+04  0.32568780898E+04 0.  0.
        5    1    3    3  502    0 -0.43261317709E+03 -0.10426538328E+04  0.19239778959E+04  0.22306936612E+04  0.46999998093E+01 0. -1.
       -5    1    3    3    0  502  0.43261317709E+03  0.10426538328E+04 -0.60780236558E+03  0.12820791636E+04  0.46999998093E+01 0.  1.
</event>
<event>
 5   0  0.8528625E-08  0.3998353E+04  0.7818609E-02  0.8004879E-01
        1   -1    0    0  501    0  0.00000000000E+00  0.00000000000E+00  0.17668356053E+04  0.17668356053E+04  0.50400001928E-02 0.  1.
       -1   -1    0    0    0  501  0.00000000000E+00  0.00000000000E+00 -0.22620702517E+04  0.22620702517E+04  0.50400001928E-02 0. -1.
    10030    2    1    2    0    0  0.00000000000E+00  0.00000000000E+00 -0.49523464645E+03  0.40289058570E+04  0.39983527920E+04 0.  0.
        2    1    3    3  502    0 -0.57844751907E+03 -0.18262369211E+03  0.16718677145E+04  0.17785090947E+04  0.25500000920E-02 0.  1.
       -2    1    3    3    0  502  0.57844751907E+03  0.18262369211E+03 -0.21671023609E+04  0.22503967623E+04  0.25500000920E-02 0. -1.
</event>
<event>
 5   0  0.8528625E-08  0.4013993E+04  0.7818609E-02  0.8001730E-01
       -1   -1    0    0    0  501  0.00000000000E+00  0.00000000000E+00  0.13736841545E+04  0.13736841545E+04  0.50400001928E-02 0. -1.
        1   -1    0    0  501    0  0.00000000000E+00  0.00000000000E+00 -0.29322863178E+04  0.29322863178E+04  0.50400001928E-02 0.  1.
    10030    2    1    2    0    0  0.00000000000E+00  0.00000000000E+00 -0.15586021633E+04  0.43059704724E+04  0.40139931496E+04 0.  0.
        2    1    3    3  502    0 -0.22171436005E+03  0.70299909692E+03  0.12232115538E+04  0.14281496746E+04  0.25500000920E-02 0. -1.
       -2    1    3    3    0  502  0.22171436005E+03 -0.70299909692E+03 -0.27818137171E+04  0.28778207978E+04  0.25500000920E-02 0.  1.
</event>
<event>
 5   0  0.8528625E-08  0.4034133E+04  0.7818609E-02  0.7997696E-01
        1   -1    0    0  501    0  0.00000000000E+00  0.00000000000E+00  0.15616613221E+04  0.15616613221E+04  0.50400001928E-02 0.  1.
       -1   -1    0    0    0  501  0.00000000000E+00  0.00000000000E+00 -0.26052750796E+04  0.26052750796E+04  0.50400001928E-02 0. -1.
    10030    2    1    2    0    0  0.00000000000E+00  0.00000000000E+00 -0.10436137574E+04  0.41669364017E+04  0.40341330297E+04 0.  0.
        2    1    3    3  502    0 -0.19462970159E+04 -0.56481478640E+02 -0.10657302870E+04  0.22196944105E+04  0.25500000920E-02 0. -1.
       -2    1    3    3    0  502  0.19462970159E+04  0.56481478640E+02  0.22116529538E+02  0.19472419912E+04  0.25500000920E-02 0.  1.
</event>
<event>
 5   0  0.8528625E-08  0.3956920E+04  0.7818609E-02  0.8013294E-01
        1   -1    0    0  501    0  0.00000000000E+00  0.00000000000E+00  0.31746429265E+04  0.31746429265E+04  0.50400001928E-02 0. -1.
       -1   -1    0    0    0  501  0.00000000000E+00  0.00000000000E+00 -0.12329904660E+04  0.12329904660E+04  0.50400001928E-02 0.  1.
    10030    2    1    2    0    0  0.00000000000E+00  0.00000000000E+00  0.19416524605E+04  0.44076333925E+04  0.39569202475E+04 0.  0.
        5    1    3    3  502    0  0.19549761494E+04 -0.30359881567E+03  0.95594879116E+03  0.21972628807E+04  0.46999998093E+01 0. -1.
       -5    1    3    3    0  502 -0.19549761494E+04  0.30359881567E+03  0.98570366932E+03  0.22103705118E+04  0.46999998093E+01 0.  1.
</event>
<event>
 5   0  0.2839279E-07  0.3831652E+04  0.7818609E-02  0.8039396E-01
       -2   -1    0    0    0  501  0.00000000000E+00  0.00000000000E+00  0.14254347197E+04  0.14254347197E+04  0.25500000920E-02 0. -1.
        2   -1    0    0  501    0  0.00000000000E+00  0.00000000000E+00 -0.25749267190E+04  0.25749267190E+04  0.25500000920E-02 0.  1.
    10030    2    1    2    0    0  0.00000000000E+00  0.00000000000E+00 -0.11494919993E+04  0.40003614386E+04  0.38316523568E+04 0.  0.
        3    1    3    3  502    0  0.13362661432E+04  0.10901568900E+04  0.29646634104E+03  0.17498404361E+04  0.10100000352E+00 0. -1.
       -3    1    3    3    0  502 -0.13362661432E+04 -0.10901568900E+04 -0.14459583404E+04  0.22505210025E+04  0.10100000352E+00 0.  1.
</event>
<event>
 5   0  0.8528625E-08  0.4035858E+04  0.7818609E-02  0.7997352E-01
       -1   -1    0    0    0  501  0.00000000000E+00  0.00000000000E+00  0.24002488552E+04  0.24002488552E+04  0.50400001928E-02 0. -1.
        1   -1    0    0  501    0  0.00000000000E+00  0.00000000000E+00 -0.16965064606E+04  0.16965064606E+04  0.50400001928E-02 0.  1.
    10030    2    1    2    0    0  0.00000000000E+00  0.00000000000E+00  0.70374239464E+03  0.40967553158E+04  0.40358581193E+04 0.  0.
        3    1    3    3  502    0  0.66471478033E+03  0.13225610750E+04  0.17440702074E+04  0.22875302041E+04  0.10100000352E+00 0. -1.
       -3    1    3    3    0  502 -0.66471478033E+03 -0.13225610750E+04 -0.10403278128E+04  0.18092251116E+04  0.10100000352E+00 0.  1.
</event>
<event>
 5   0  0.8528625E-08  0.3867814E+04  0.7818609E-02  0.8031757E-01
        1   -1    0    0  501    0  0.00000000000E+00  0.00000000000E+00  0.13176033141E+04  0.13176033141E+04  0.50400001928E-02 0. -1.
       -1   -1    0    0    0  501  0.00000000000E+00  0.00000000000E+00 -0.28384835547E+04  0.28384835547E+04  0.50400001928E-02 0.  1.
    10030    2    1    2    0    0  0.00000000000E+00  0.00000000000E+00 -0.15208802405E+04  0.41560868688E+04  0.38678135109E+04 0.  0.
        2    1    3    3  502    0 -0.23752139724E+03 -0.87218137444E+03  0.10766246859E+04  0.14057871384E+04  0.25500000920E-02 0. -1.
       -2    1    3    3    0  502  0.23752139724E+03  0.87218137444E+03 -0.25975049265E+04  0.27502997304E+04  0.25500000920E-02 0.  1.
</event>
<event>
 5   0  0.8528625E-08  0.3930272E+04  0.7818609E-02  0.8018763E-01
       -1   -1    0    0    0  501  0.00000000000E+00  0.00000000000E+00  0.22812985057E+04  0.22812985057E+04  0.50400001928E-02 0. -1.
        1   -1    0    0  501    0  0.00000000000E+00  0.00000000000E+00 -0.16927897151E+04  0.16927897151E+04  0.50400001928E-02 0.  1.
    10030    2    1    2    0    0  0.00000000000E+00  0.00000000000E+00  0.58850879054E+03  0.39740882208E+04  0.39302715670E+04 0.  0.
        5    1    3    3  502    0  0.65590178141E+03  0.18007735148E+04 -0.14503599658E+03  0.19219911365E+04  0.46999998093E+01 0.  1.
       -5    1    3    3    0  502 -0.65590178141E+03 -0.18007735148E+04  0.73354478713E+03  0.20520970843E+04  0.46999998093E+01 0. -1.
</event>
<event>
 5   0  0.2730801E-07  0.4054406E+04  0.7818609E-02  0.7993660E-01
       -2   -1    0    0    0  501  0.00000000000E+00  0.00000000000E+00  0.17401342260E+04  0.17401342260E+04  0.25500000920E-02 0.  1.
        2   -1    0    0  501    0  0.00000000000E+00  0.00000000000E+00 -0.23616293671E+04  0.23616293671E+04  0.25500000920E-02 0. -1.
    10030    2    1    2    0    0  0.00000000000E+00  0.00000000000E+00 -0.62149514109E+03  0.41017635930E+04  0.40544060431E+04 0.  0.
        2    1    3    3  502    0 -0.12966068374E+04 -0.11722008180E+04  0.72804095818E+03  0.18934855915E+04  0.25500000920E-02 0.  1.
       -2    1    3    3    0  502  0.12966068374E+04  0.11722008180E+04 -0.13495360993E+04  0.22082780015E+04  0.25500000920E-02 0. -1.
</event>
<event>
 5   0  0.2666978E-07  0.3980023E+04  0.7818609E-02  0.8008589E-01
        2   -1    0    0  501    0  0.00000000000E+00  0.00000000000E+00  0.29901698158E+04  0.29901698158E+04  0.25500000920E-02 0.  1.
       -2   -1    0    0    0  501  0.00000000000E+00  0.00000000000E+00 -0.13243884419E+04  0.13243884419E+04  0.25500000920E-02 0. -1.
    10030    2    1    2    0    0  0.00000000000E+00  0.00000000000E+00  0.16657813739E+04  0.43145582577E+04  0.39800232881E+04 0.  0.
        4    1    3    3  502    0  0.97278119163E+03 -0.17355649381E+04  0.87700286622E+03  0.21743101300E+04  0.12699999809E+01 0.  1.
       -4    1    3    3    0  502 -0.97278119163E+03  0.17355649381E+04  0.78877850764E+03  0.21402481277E+04  0.12699999809E+01 0. -1.
</event>
<event>
 5   0  0.8528625E-08  0.4074258E+04  0.7818609E-02  0.7989732E-01
       -1   -1    0    0    0  501  0.00000000000E+00  0.00000000000E+00  0.21232006902E+04  0.21232006902E+04  0.50400001928E-02 0.  1.
        1   -1    0    0  501    0  0.00000000000E+00  0.00000000000E+00 -0.19545461556E+04  0.19545461556E+04  0.50400001928E-02 0. -1.
    10030    2    1    2    0    0  0.00000000000E+00  0.00000000000E+00  0.16865453463E+03  0.40777468458E+04  0.40742575994E+04 0.  0.
        3    1    3    3  502    0 -0.44499361357E+03  0.15951545116E+04 -0.11030092869E+04  0.19897654960E+04  0.10100000352E+00 0. -1.
       -3    1    3    3    0  502  0.44499361357E+03 -0.15951545116E+04  0.12716638215E+04  0.20879813498E+04  0.10100000352E+00 0.  1.
</event>
<event>
 5   0  0.2730801E-07  0.3924171E+04  0.7818609E-02  0.8020021E-01
       -2   -1    0    0    0  501  0.00000000000E+00  0.00000000000E+00  0.13346287740E+04  0.13346287740E+04  0.25500000920E-02 0.  1.
        2   -1    0    0  501    0  0.00000000000E+00  0.00000000000E+00 -0.28845323781E+04  0.28845323781E+04  0.25500000920E-02 0. -1.
    10030    2    1    2    0    0  0.00000000000E+00  0.00000000000E+00 -0.15499036041E+04  0.42191611520E+04  0.39241712048E+04 0.  0.
        2    1    3    3  502    0 -0.10374956825E+04 -0.99290869421E+03  0.66253215940E+03  0.15815226298E+04  0.25500000920E-02 0.  1.
       -2    1    3    3    0  502  0.10374956825E+04  0.99290869421E+03 -0.22124357635E+04  0.26376385222E+04  0.25500000920E-02 0. -1.
</event>
<event>
 5   0  0.8528625E-08  0.4034190E+04  0.7818609E-02  0.7997685E-01
        1   -1    0    0  501    0  0.00000000000E+00  0.00000000000E+00  0.14988647318E+04  0.14988647318E+04  0.50400001928E-02 0.  1.
       -1   -1    0    0    0  501  0.00000000000E+00  0.00000000000E+00 -0.27145032719E+04  0.27145032719E+04  0.50400001928E-02 0. -1.
    10030    2    1    2    0    0  0.00000000000E+00  0.00000000000E+00 -0.12156385401E+04  0.42133680037E+04  0.40341904856E+04 0.  0.
        5    1    3    3  502    0 -0.24874524245E+03  0.14776075289E+04 -0.20181477298E+04  0.25135911669E+04  0.46999998093E+01 0. -1.
       -5    1    3    3    0  502  0.24874524245E+03 -0.14776075289E+04  0.80250918978E+03  0.16997768367E+04  0.46999998093E+01 0.  1.
</event>
<event>
 5   0  0.8583262E-08  0.3282004E+04  0.7818609E-02  0.8167490E-01
       -1   -1    0    0    0  501  0.00000000000E+00  0.00000000000E+00  0.12968026160E+04  0.12968026160E+04  0.50400001928E-02 0. -1.
        1   -1    0    0  501    0  0.00000000000E+00  0.00000000000E+00 -0.20765588437E+04  0.20765588437E+04  0.50400001928E-02 0.  1.
    10030    2    1    2    0    0  0.00000000000E+00  0.00000000000E+00 -0.77975622776E+03  0.33733614597E+04  0.32820036202E+04 0.  0.
        1    1    3    3  502    0 -0.90064627845E+03 -0.11432569674E+04  0.38930477543E+03  0.15065717443E+04  0.50400001928E-02 0.  1.
       -1    1    3    3    0  502  0.90064627845E+03  0.11432569674E+04 -0.11690610032E+04  0.18667897154E+04  0.50400001928E-02 0. -1.
</event>
<event>
 5   0  0.8528625E-08  0.3964872E+04  0.7818609E-02  0.8011671E-01
        1   -1    0    0  501    0  0.00000000000E+00  0.00000000000E+00  0.18221528626E+04  0.18221528626E+04  0.50400001928E-02 0. -1.
       -1   -1    0    0    0  501  0.00000000000E+00  0.00000000000E+00 -0.21568181834E+04  0.21568181834E+04  0.50400001928E-02 0.  1.
    10030    2    1    2    0    0  0.00000000000E+00  0.00000000000E+00 -0.33466532083E+03  0.39789710461E+04  0.39648719662E+04 0.  0.
        2    1    3    3  502    0  0.31313333399E+03 -0.19148990570E+04  0.24051321841E+03  0.19551822144E+04  0.25500000920E-02 0. -1.
       -2    1    3    3    0  502 -0.31313333399E+03  0.19148990570E+04 -0.57517853924E+03  0.20237888317E+04  0.25500000920E-02 0.  1.
</event>
<event>
 5   0  0.8528625E-08  0.3132314E+04  0.7818609E-02  0.8206925E-01
       -1   -1    0    0    0  501  0.00000000000E+00  0.00000000000E+00  0.13120413390E+04  0.13120413390E+04  0.50400001928E-02 0.  1.
        1   -1    0    0  501    0  0.00000000000E+00  0.00000000000E+00 -0.18694896273E+04  0.18694896273E+04  0.50400001928E-02 0. -1.
    10030    2    1    2    0    0  0.00000000000E+00  0.00000000000E+00 -0.55744828830E+03  0.31815309663E+04  0.31323139523E+04 0.  0.
        5    1    3    3  502    0 -0.15180519676E+02 -0.15616970944E+04 -0.15984964795E+03  0.15699370251E+04  0.46999998093E+01 0. -1.
       -5    1    3    3    0  502  0.15180519676E+02  0.15616970944E+04 -0.39759864036E+03  0.16115939413E+04  0.46999998093E+01 0.  1.
</event>
<event>
 5   0  0.8583262E-08  0.3925264E+04  0.7818609E-02  0.8019795E-01
       -1   -1    0    0    0  501  0.00000000000E+00  0.00000000000E+00  0.26673067977E+04  0.26673067977E+04  0.50400001928E-02 0. -1.
        1   -1    0    0  501    0  0.00000000000E+00  0.00000000000E+00 -0.14441250254E+04  0.14441250254E+04  0.50400001928E-02 0.  1.
    10030    2    1    2    0    0  0.00000000000E+00  0.00000000000E+00  0.12231817723E+04  0.41114318231E+04  0.39252640660E+04 0.  0.
        1    1    3    3  502    0  0.17879010272E+04  0.63381521043E+03  0.84106380304E+02  0.18987853189E+04  0.50400001928E-02 0. -1.
       -1    1    3    3    0  502 -0.17879010272E+04 -0.63381521043E+03  0.11390753920E+04  0.22126465042E+04  0.50400001928E-02 0.  1.
</event>
<event>
 5   0  0.2839279E-07  0.4103912E+04  0.7818609E-02  0.7983906E-01
       -2   -1    0    0    0  501  0.00000000000E+00  0.00000000000E+00  0.29157030754E+04  0.29157030754E+04  0.25500000920E-02 0. -1.
        2   -1    0    0  501    0  0.00000000000E+00  0.00000000000E+00 -0.14440853344E+04  0.14440853344E+04  0.25500000920E-02 0.  1.
    10030    2    1    2    0    0  0.00000000000E+00  0.00000000000E+00  0.14716177410E+04  0.43597884098E+04  0.41039123045E+04 0.  0.
        3    1    3    3  502    0 -0.18966241227E+04  0.63083283989E+03  0.12288475847E+04  0.23463161618E+04  0.10100000352E+00 0. -1.
       -3    1    3    3    0  502  0.18966241227E+04 -0.63083283989E+03  0.24277015627E+03  0.20134722480E+04  0.10100000352E+00 0.  1.
</event>
<event>
 5   0  0.2839279E-07  0.4027980E+04  0.7818609E-02  0.7998926E-01
        2   -1    0    0  501    0  0.00000000000E+00  0.00000000000E+00  0.22025934568E+04  0.22025934568E+04  0.25500000920E-02 0. -1.
       -2   -1    0    0    0  501  0.00000000000E+00  0.00000000000E+00 -0.18415363540E+04  0.18415363540E+04  0.25500000920E-02 0.  1.
    10030    2    1    2    0    0  0.00000000000E+00  0.00000000000E+00  0.36105710281E+03  0.40441298108E+04  0.40279801011E+04 0.  0.
        3    1    3    3  502    0  0.15418444613E+04 -0.95173046037E+03 -0.70224677686E+03  0.19432513368E+04  0.10100000352E+00 0. -1.
       -3    1    3    3    0  502 -0.15418444613E+04  0.95173046037E+03  0.10633038797E+04  0.21008784741E+04  0.10100000352E+00 0.  1.
</event>
<event>
 5   0  0.8528625E-08  0.3298594E+04  0.7818609E-02  0.8163253E-01
        1   -1    0    0  501    0  0.00000000000E+00  0.00000000000E+00  0.13313354260E+04  0.13313354260E+04  0.50400001928E-02 0. -1.
       -1   -1    0    0    0  501  0.00000000000E+00  0.00000000000E+00 -0.20431966051E+04  0.20431966051E+04  0.50400001928E-02 0.  1.
    10030    2    1    2    0    0  0.00000000000E+00  0.00000000000E+00 -0.71186117912E+03  0.33745320312E+04  0.32985936535E+04 0.  0.
        5    1    3    3  502    0 -0.66049728834E+03  0.10066567720E+04  0.79720264576E+03  0.14440113133E+04  0.46999998093E+01 0. -1.
       -5    1    3    3    0  502  0.66049728834E+03 -0.10066567720E+04 -0.15090638249E+04  0.19305207179E+04  0.46999998093E+01 0.  1.
</event>
<event>
 5   0  0.8528625E-08  0.3583416E+04  0.7818609E-02  0.8094301E-01
       -1   -1    0    0    0  501  0.00000000000E+00  0.00000000000E+00  0.17151158081E+04  0.17151158081E+04  0.50400001928E-02 0.  1.
        1   -1    0    0  501    0  0.00000000000E+00  0.00000000000E+00 -0.18717205444E+04  0.18717205445E+04  0.50400001928E-02 0. -1.
    10030    2    1    2    0    0  0.00000000000E+00  0.00000000000E+00 -0.15660473637E+03  0.35868363525E+04  0.35834159648E+04 0.  0.
        3    1    3    3  502    0 -0.60519200884E+03 -0.12836774254E+04  0.10164199262E+04  0.17456215445E+04  0.10100000352E+00 0.  1.
       -3    1    3    3    0  502  0.60519200884E+03  0.12836774254E+04 -0.11730246626E+04  0.18412148080E+04  0.10100000352E+00 0. -1.
</event>
<event>
 5   0  0.8528625E-08  0.3982891E+04  0.7818609E-02  0.8008007E-01
       -1   -1    0    0    0  501  0.00000000000E+00  0.00000000000E+00  0.15838532442E+04  0.15838532442E+04  0.50400001928E-02 0.  1.
        1   -1    0    0  501    0  0.00000000000E+00  0.00000000000E+00 -0.25039282466E+04  0.25039282466E+04  0.50400001928E-02 0. -1.
    10030    2    1    2    0    0  0.00000000000E+00  0.00000000000E+00 -0.92007500244E+03  0.40877814908E+04  0.39828908479E+04 0.  0.
        3    1    3    3  502    0  0.13496941034E+04 -0.99512624202E+02  0.10393529996E+04  0.17064089788E+04  0.10100000352E+00 0.  1.
       -3    1    3    3    0  502 -0.13496941034E+04  0.99512624202E+02 -0.19594280021E+04  0.23813725119E+04  0.10100000352E+00 0. -1.
</event>
<event>
 5   0  0.2730801E-07  0.3973113E+04  0.7818609E-02  0.8009993E-01
        2   -1    0    0  501    0  0.00000000000E+00  0.00000000000E+00  0.17558589027E+04  0.17558589028E+04  0.25500000920E-02 0.  1.
       -2   -1    0    0    0  501  0.00000000000E+00  0.00000000000E+00 -0.22475648708E+04  0.22475648708E+04  0.25500000920E-02 0. -1.
    10030    2    1    2    0    0  0.00000000000E+00  0.00000000000E+00 -0.49170596801E+03  0.40034237735E+04  0.39731130303E+04 0.  0.
        2    1    3    3  502    0 -0.19476664480E+04 -0.33881319036E+03 -0.44281240427E+03  0.20259027114E+04  0.25500000920E-02 0.  1.
       -2    1    3    3    0  502  0.19476664480E+04  0.33881319036E+03 -0.48893563742E+02  0.19775210621E+04  0.25500000920E-02 0. -1.
</event>
<event>
 5   0  0.2730801E-07  0.3761010E+04  0.7818609E-02  0.8054574E-01
       -2   -1    0    0    0  501  0.00000000000E+00  0.00000000000E+00  0.16707839394E+04  0.16707839394E+04  0.25500000920E-02 0. -1.
        2   -1    0    0  501    0  0.00000000000E+00  0.00000000000E+00 -0.21165511003E+04  0.21165511003E+04  0.25500000920E-02 0.  1.
    10030    2    1    2    0    0  0.00000000000E+00  0.00000000000E+00 -0.44576716093E+03  0.37873350398E+04  0.37610102820E+04 0.  0.
        2    1    3    3  502    0  0.18410568770E+04 -0.37948724293E+03 -0.27615559458E+03  0.18999376054E+04  0.25500000920E-02 0.  1.
       -2    1    3    3    0  502 -0.18410568770E+04  0.37948724293E+03 -0.16961156635E+03  0.18873974344E+04  0.25500000920E-02 0. -1.
</event>
<event>
 5   0  0.8528625E-08  0.4015931E+04  0.7818609E-02  0.8001340E-01
        1   -1    0    0  501    0  0.00000000000E+00  0.00000000000E+00  0.13613502060E+04  0.13613502060E+04  0.50400001928E-02 0.  1.
       -1   -1    0    0    0  501  0.00000000000E+00  0.00000000000E+00 -0.29617108651E+04  0.29617108651E+04  0.50400001928E-02 0. -1.
    10030    2    1    2    0    0  0.00000000000E+00  0.00000000000E+00 -0.16003606591E+04  0.43230610712E+04  0.40159311232E+04 0.  0.
        4    1    3    3  502    0 -0.19226598982E+04 -0.57337124333E+03 -0.88729138440E+03  0.21937783116E+04  0.12699999809E+01 0.  1.
       -4    1    3    3    0  502  0.19226598982E+04  0.57337124333E+03 -0.71306927471E+03  0.21292827596E+04  0.12699999809E+01 0. -1.
</event>
<event>
 5   0  0.2661693E-07  0.3948033E+04  0.7818609E-02  0.8015113E-01
       -2   -1    0    0    0  501  0.00000000000E+00  0.00000000000E+00  0.20563311855E+04  0.20563311855E+04  0.25500000920E-02 0. -1.
        2   -1    0    0  501    0  0.00000000000E+00  0.00000000000E+00 -0.18949969818E+04  0.18949969818E+04  0.25500000920E-02 0.  1.
    10030    2    1    2    0    0  0.00000000000E+00  0.00000000000E+00  0.16133420367E+03  0.39513281673E+04  0.39480331255E+04 0.  0.
        1    1    3    3  502    0  0.14089134266E+04  0.11876066117E+04  0.78927982850E+03  0.20045970057E+04  0.50400001928E-02 0.  1.
       -1    1    3    3    0  502 -0.14089134266E+04 -0.11876066117E+04 -0.62794562483E+03  0.19467311616E+04  0.50400001928E-02 0. -1.
</event>
<event>
 5   0  0.2704088E-07  0.3901223E+04  0.7818609E-02  0.8024775E-01
        2   -1    0    0  501    0  0.00000000000E+00  0.00000000000E+00  0.20703539346E+04  0.20703539346E+04  0.25500000920E-02 0.  1.
       -2   -1    0    0    0  501  0.00000000000E+00  0.00000000000E+00 -0.18377944384E+04  0.18377944384E+04  0.25500000920E-02 0. -1.
    10030    2    1    2    0    0  0.00000000000E+00  0.00000000000E+00  0.23255949617E+03  0.39081483731E+04  0.39012228579E+04 0.  0.
        5    1    3    3  502    0 -0.16447327965E+03 -0.13828435086E+04  0.14845577300E+04  0.20354953629E+04  0.46999998093E+01 0.  1.
       -5    1    3    3    0  502  0.16447327965E+03  0.13828435086E+04 -0.12519982338E+04  0.18726530101E+04  0.46999998093E+01 0. -1.
</event>
<event>
 5   0  0.2704088E-07  0.3952943E+04  0.7818609E-02  0.8014107E-01
        2   -1    0    0  501    0  0.00000000000E+00  0.00000000000E+00  0.29712974388E+04  0.29712974388E+04  0.25500000920E-02 0. -1.
       -2   -1    0    0    0  501  0.00000000000E+00  0.00000000000E+00 -0.13147249207E+04  0.13147249207E+04  0.25500000920E-02 0.  1.
    10030    2    1    2    0    0  0.00000000000E+00  0.00000000000E+00  0.16565725180E+04  0.42860223595E+04  0.39529425949E+04 0.  0.
        5    1    3    3  502    0 -0.23609772808E+03  0.22063451762E+03  0.29424552272E+04  0.29601497566E+04  0.46999998093E+01 0. -1.
       -5    1    3    3    0  502  0.23609772808E+03 -0.22063451762E+03 -0.12858827091E+04  0.13258726029E+04  0.46999998093E+01 0.  1.
</event>
<event>
 5   0  0.2730801E-07  0.3947734E+04  0.7818609E-02  0.8015174E-01
       -2   -1    0    0    0  501  0.00000000000E+00  0.00000000000E+00  0.27135431627E+04  0.27135431627E+04  0.25500000920E-02 0. -1.
        2   -1    0    0  501    0  0.00000000000E+00  0.00000000000E+00 -0.14358171235E+04  0.14358171235E+04  0.25500000920E-02 0.  1.
    10030    2    1    2    0    0  0.00000000000E+00  0.00000000000E+00  0.12777260392E+04  0.41493602862E+04  0.39477344076E+04 0.  0.
        2    1    3    3  502    0  0.15025723556E+04  0.11755467698E+04  0.11712065885E+04  0.22386064336E+04  0.25500000920E-02 0. -1.
       -2    1    3    3    0  502 -0.15025723556E+04 -0.11755467698E+04  0.10651945068E+03  0.19107538526E+04  0.25500000920E-02 0.  1.
</event>
<event>
 5   0  0.8528625E-08  0.3990556E+04  0.7818609E-02  0.8006454E-01
        3   -1    0    0  501    0  0.00000000000E+00  0.00000000000E+00  0.14249898535E+04  0.14249898571E+04  0.10100000352E+00 0.  1.
       -3   -1    0    0    0  501  0.00000000000E+00  0.00000000000E+00 -0.27937988760E+04  0.27937988778E+04  0.10100000352E+00 0. -1.
    10030    2    1    2    0    0  0.00000000000E+00  0.00000000000E+00 -0.13688090224E+04  0.42187887349E+04  0.39905563835E+04 0.  0.
        3    1    3    3  502    0 -0.19599577133E+04  0.31108286724E+03 -0.90344580169E+03  0.21804635092E+04  0.10100000352E+00 0.  1.
       -3    1    3    3    0  502  0.19599577133E+04 -0.31108286724E+03 -0.46536322074E+03  0.20383252257E+04  0.10100000352E+00 0. -1.
</event>
<event>
 5   0  0.2839279E-07  0.4081581E+04  0.7818609E-02  0.7988288E-01
       -2   -1    0    0    0  501  0.00000000000E+00  0.00000000000E+00  0.27051343398E+04  0.27051343398E+04  0.25500000920E-02 0.  1.
        2   -1    0    0  501    0  0.00000000000E+00  0.00000000000E+00 -0.15396003353E+04  0.15396003353E+04  0.25500000920E-02 0. -1.
    10030    2    1    2    0    0  0.00000000000E+00  0.00000000000E+00  0.11655340045E+04  0.42447346750E+04  0.40815809371E+04 0.  0.
        3    1    3    3  502    0 -0.19299659270E+04  0.21118519852E+03 -0.71224870450E+02  0.19427919754E+04  0.10100000352E+00 0. -1.
       -3    1    3    3    0  502  0.19299659270E+04 -0.21118519852E+03  0.12367588750E+04  0.23019426996E+04  0.10100000352E+00 0.  1.
</event>
<event>
 5   0  0.8528625E-08  0.2948870E+04  0.7818609E-02  0.8258484E-01
        1   -1    0    0  501    0  0.00000000000E+00  0.00000000000E+00  0.22331002305E+04  0.22331002305E+04  0.50400001928E-02 0.  1.
       -1   -1    0    0    0  501  0.00000000000E+00  0.00000000000E+00 -0.97351597572E+03  0.97351597574E+03  0.50400001928E-02 0. -1.
    10030    2    1    2    0    0  0.00000000000E+00  0.00000000000E+00  0.12595842548E+04  0.32066162062E+04  0.29488701225E+04 0.  0.
        3    1    3    3  502    0 -0.14260422507E+04 -0.30954476430E+03  0.85929456258E+03  0.16934584782E+04  0.10100000352E+00 0.  1.
       -3    1    3    3    0  502  0.14260422507E+04  0.30954476430E+03  0.40028969218E+03  0.15131577280E+04  0.10100000352E+00 0. -1.
</event>
<event>
 5   0  0.2666978E-07  0.4024964E+04  0.7818609E-02  0.7999529E-01
       -2   -1    0    0    0  501  0.00000000000E+00  0.00000000000E+00  0.22256452945E+04  0.22256452945E+04  0.25500000920E-02 0.  1.
        2   -1    0    0  501    0  0.00000000000E+00  0.00000000000E+00 -0.18197346041E+04  0.18197346041E+04  0.25500000920E-02 0. -1.
    10030    2    1    2    0    0  0.00000000000E+00  0.00000000000E+00  0.40591069037E+03  0.40453798986E+04  0.40249639794E+04 0.  0.
        4    1    3    3  502    0 -0.17638742954E+04 -0.90948501654E+02 -0.76659202860E+03  0.19254062198E+04  0.12699999809E+01 0. -1.
       -4    1    3    3    0  502  0.17638742954E+04  0.90948501654E+02  0.11725027190E+04  0.21199736788E+04  0.12699999809E+01 0.  1.
</event>
<event>
 5   0  0.8528625E-08  0.3709289E+04  0.7818609E-02  0.8065906E-01
        1   -1    0    0  501    0  0.00000000000E+00  0.00000000000E+00  0.24277103312E+04  0.24277103312E+04  0.50400001928E-02 0.  1.
       -1   -1    0    0    0  501  0.00000000000E+00  0.00000000000E+00 -0.14168521623E+04  0.14168521623E+04  0.50400001928E-02 0. -1.
    10030    2    1    2    0    0  0.00000000000E+00  0.00000000000E+00  0.10108581689E+04  0.38445624935E+04  0.37092892215E+04 0.  0.
        2    1    3    3  502    0 -0.92510849064E+03 -0.12852737571E+04  0.15060119586E+04  0.21853664154E+04  0.25500000920E-02 0. -1.
       -2    1    3    3    0  502  0.92510849064E+03  0.12852737571E+04 -0.49515378974E+03  0.16591960781E+04  0.25500000920E-02 0.  1.
</event>
<event>
 5   0  0.8583262E-08  0.3512553E+04  0.7818609E-02  0.8110822E-01
       -1   -1    0    0    0  501  0.00000000000E+00  0.00000000000E+00  0.15461382927E+04  0.15461382927E+04  0.50400001928E-02 0.  1.
        1   -1    0    0  501    0  0.00000000000E+00  0.00000000000E+00 -0.19949747763E+04  0.19949747763E+04  0.50400001928E-02 0. -1.
    10030    2    1    2    0    0  0.00000000000E+00  0.00000000000E+00 -0.44883648358E+03  0.35411130690E+04  0.35125528577E+04 0.  0.
        1    1    3    3  502    0 -0.16777823704E+04 -0.40376722109E+03 -0.55345407237E+03  0.18122618634E+04  0.50400001928E-02 0. -1.
       -1    1    3    3    0  502  0.16777823704E+04  0.40376722109E+03  0.10461758879E+03  0.17288512056E+04  0.50400001928E-02 0.  1.
</event>
<event>
 5   0  0.2704088E-07  0.4040889E+04  0.7818609E-02  0.7996348E-01
       -2   -1    0    0    0  501  0.00000000000E+00  0.00000000000E+00  0.15805038283E+04  0.15805038283E+04  0.25500000920E-02 0. -1.
        2   -1    0    0  501    0  0.00000000000E+00  0.00000000000E+00 -0.25828445558E+04  0.25828445558E+04  0.25500000920E-02 0.  1.
    10030    2    1    2    0    0  0.00000000000E+00  0.00000000000E+00 -0.10023407276E+04  0.41633483841E+04  0.40408888667E+04 0.  0.
        5    1    3    3  502    0 -0.17727653866E+04 -0.14803325418E+03 -0.14880943689E+04  0.23192796082E+04  0.46999998093E+01 0.  1.
       -5    1    3    3    0  502  0.17727653866E+04  0.14803325418E+03  0.48575364135E+03  0.18440687759E+04  0.46999998093E+01 0. -1.
</event>
<event>
 5   0  0.8528625E-08  0.3955503E+04  0.7818609E-02  0.8013584E-01
       -1   -1    0    0    0  501  0.00000000000E+00  0.00000000000E+00  0.20151253628E+04  0.20151253628E+04  0.50400001928E-02 0.  1.
        1   -1    0    0  501    0  0.00000000000E+00  0.00000000000E+00 -0.19410706919E+04  0.19410706919E+04  0.50400001928E-02 0. -1.
    10030    2    1    2    0    0  0.00000000000E+00  0.00000000000E+00  0.74054670929E+02  0.39561960547E+04  0.39555028921E+04 0.  0.
        5    1    3    3  502    0  0.18651390115E+04 -0.48230632861E+03 -0.41039406351E+03  0.19697229004E+04  0.46999998093E+01 0. -1.
       -5    1    3    3    0  502 -0.18651390115E+04  0.48230632861E+03  0.48444873444E+03  0.19864731544E+04  0.46999998093E+01 0.  1.
</event>
<event>
 5   0  0.2839279E-07  0.4017290E+04  0.7818609E-02  0.8001068E-01
       -2   -1    0    0    0  501  0.00000000000E+00  0.00000000000E+00  0.25869097260E+04  0.25869097260E+04  0.25500000920E-02 0.  1.
        2   -1    0    0  501    0  0.00000000000E+00  0.00000000000E+00 -0.15596429611E+04  0.15596429611E+04  0.25500000920E-02 0. -1.
    10030    2    1    2    0    0  0.00000000000E+00  0.00000000000E+00  0.10272667649E+04  0.41465526871E+04  0.40172904028E+04 0.  0.
        3    1    3    3  502    0 -0.14412037987E+04 -0.75376248938E+03  0.17303016474E+04  0.23746936815E+04  0.10100000352E+00 0.  1.
       -3    1    3    3    0  502  0.14412037987E+04  0.75376248938E+03 -0.70303488243E+03  0.17718590056E+04  0.10100000352E+00 0. -1.
</event>
<event>
 5   0  0.2661693E-07  0.3930841E+04  0.7818609E-02  0.8018645E-01
       -2   -1    0    0    0  501  0.00000000000E+00  0.00000000000E+00  0.16898548928E+04  0.16898548928E+04  0.25500000920E-02 0.  1.
        2   -1    0    0  501    0  0.00000000000E+00  0.00000000000E+00 -0.22859227581E+04  0.22859227581E+04  0.25500000920E-02 0. -1.
    10030    2    1    2    0    0  0.00000000000E+00  0.00000000000E+00 -0.59606786529E+03  0.39757776509E+04  0.39308410079E+04 0.  0.
        1    1    3    3  502    0  0.10495494443E+04  0.15469992141E+04 -0.91169650628E+03  0.20798920943E+04  0.50400001928E-02 0. -1.
       -1    1    3    3    0  502 -0.10495494443E+04 -0.15469992141E+04  0.31562864099E+03  0.18958855565E+04  0.50400001928E-02 0.  1.
</event>
<event>
 5   0  0.8528625E-08  0.4027227E+04  0.7818609E-02  0.7999076E-01
       -1   -1    0    0    0  501  0.00000000000E+00  0.00000000000E+00  0.18095638232E+04  0.18095638232E+04  0.50400001928E-02 0. -1.
        1   -1    0    0  501    0  0.00000000000E+00  0.00000000000E+00 -0.22406718333E+04  0.22406718333E+04  0.50400001928E-02 0.  1.
    10030    2    1    2    0    0  0.00000000000E+00  0.00000000000E+00 -0.43110801011E+03  0.40502356565E+04  0.40272266831E+04 0.  0.
        2    1    3    3  502    0 -0.18417584636E+04 -0.32514668200E+03 -0.96603728817E+03  0.21049994406E+04  0.25500000920E-02 0.  1.
       -2    1    3    3    0  502  0.18417584636E+04  0.32514668200E+03  0.53492927806E+03  0.19452362159E+04  0.25500000920E-02 0. -1.
</event>
<event>
 5   0  0.8528625E-08  0.3994820E+04  0.7818609E-02  0.8005592E-01
        1   -1    0    0  501    0  0.00000000000E+00  0.00000000000E+00  0.18809583599E+04  0.18809583599E+04  0.50400001928E-02 0. -1.
       -1   -1    0    0    0  501  0.00000000000E+00  0.00000000000E+00 -0.21210716073E+04  0.21210716073E+04  0.50400001928E-02 0.  1.
    10030    2    1    2    0    0  0.00000000000E+00  0.00000000000E+00 -0.24011324742E+03  0.40020299673E+04  0.39948203323E+04 0.  0.
        2    1    3    3  502    0 -0.19256945423E+04 -0.73420180879E+02  0.40620789458E+03  0.19694402369E+04  0.25500000920E-02 0. -1.
       -2    1    3    3    0  502  0.19256945423E+04  0.73420180879E+02 -0.64632114200E+03  0.20325897303E+04  0.25500000920E-02 0.  1.
</event>
<event>
 5   0  0.2839279E-07  0.3752863E+04  0.7818609E-02  0.8056347E-01
       -2   -1    0    0    0  501  0.00000000000E+00  0.00000000000E+00  0.19148075309E+04  0.19148075309E+04  0.25500000920E-02 0.  1.
        2   -1    0    0  501    0  0.00000000000E+00  0.00000000000E+00 -0.18388242149E+04  0.18388242149E+04  0.25500000920E-02 0. -1.
    10030    2    1    2    0    0  0.00000000000E+00  0.00000000000E+00  0.75983316001E+02  0.37536317459E+04  0.37528626166E+04 0.  0.
        3    1    3    3  502    0  0.64418344177E+02  0.76382876903E+03  0.17510628270E+04  0.19114929102E+04  0.10100000352E+00 0.  1.
       -3    1    3    3    0  502 -0.64418344177E+02 -0.76382876903E+03 -0.16750795110E+04  0.18421388357E+04  0.10100000352E+00 0. -1.
</event>
<event>
 5   0  0.2839279E-07  0.3984806E+04  0.7818609E-02  0.8007619E-01
        2   -1    0    0  501    0  0.00000000000E+00  0.00000000000E+00  0.13248063267E+04  0.13248063267E+04  0.25500000920E-02 0.  1.
       -2   -1    0    0    0  501  0.00000000000E+00  0.00000000000E+00 -0.29964155862E+04  0.29964155862E+04  0.25500000920E-02 0. -1.
    10030    2    1    2    0    0  0.00000000000E+00  0.00000000000E+00 -0.16716092595E+04  0.43212219129E+04  0.39848063069E+04 0.  0.
        3    1    3    3  502    0 -0.16479201744E+04 -0.11102353050E+04 -0.99446814647E+03  0.22219879024E+04  0.10100000352E+00 0. -1.
       -3    1    3    3    0  502  0.16479201744E+04  0.11102353050E+04 -0.67714111307E+03  0.20992340105E+04  0.10100000352E+00 0.  1.
</event>
<event>
 5   0  0.8528625E-08  0.3913059E+04  0.7818609E-02  0.8022319E-01
        1   -1    0    0  501    0  0.00000000000E+00  0.00000000000E+00  0.12573653097E+04  0.12573653098E+04  0.50400001928E-02 0.  1.
       -1   -1    0    0    0  501  0.00000000000E+00  0.00000000000E+00 -0.30444668142E+04  0.30444668142E+04  0.50400001928E-02 0. -1.
    10030    2    1    2    0    0  0.00000000000E+00  0.00000000000E+00 -0.17871015044E+04  0.43018321240E+04  0.39130586292E+04 0.  0.
        4    1    3    3  502    0 -0.24144883633E+03  0.35980547621E+01 -0.30280214741E+04  0.30376349595E+04  0.12699999809E+01 0. -1.
       -4    1    3    3    0  502  0.24144883633E+03 -0.35980547621E+01  0.12409199697E+04  0.12641971645E+04  0.12699999809E+01 0.  1.
</event>
<event>
 5   0  0.8528625E-08  0.3090139E+04  0.7818609E-02  0.8218449E-01
        1   -1    0    0  501    0  0.00000000000E+00  0.00000000000E+00  0.23641148519E+04  0.23641148519E+04  0.50400001928E-02 0.  1.
       -1   -1    0    0    0  501  0.00000000000E+00  0.00000000000E+00 -0.10097817327E+04  0.10097817327E+04  0.50400001928E-02 0. -1.
    10030    2    1    2    0    0  0.00000000000E+00  0.00000000000E+00  0.13543331193E+04  0.33738965846E+04  0.30901391499E+04 0.  0.
        4    1    3    3  502    0 -0.70313934966E+03  0.63923275405E+03  0.20073211784E+04  0.22208924749E+04  0.12699999809E+01 0.  1.
       -4    1    3    3    0  502  0.70313934966E+03 -0.63923275405E+03 -0.65298805907E+03  0.11530041097E+04  0.12699999809E+01 0. -1.
</event>
<event>
 5   0  0.8583262E-08  0.3845739E+04  0.7818609E-02  0.8036410E-01
        1   -1    0    0  501    0  0.00000000000E+00  0.00000000000E+00  0.14394686325E+04  0.14394686325E+04  0.50400001928E-02 0. -1.
       -1   -1    0    0    0  501  0.00000000000E+00  0.00000000000E+00 -0.25686057028E+04  0.25686057028E+04  0.50400001928E-02 0.  1.
    10030    2    1    2    0    0  0.00000000000E+00  0.00000000000E+00 -0.11291370703E+04  0.40080743353E+04  0.38457391167E+04 0.  0.
        1    1    3    3  502    0  0.52325783005E+03  0.97530957104E+03 -0.22033283270E+04  0.24657013673E+04  0.50400001928E-02 0.  1.
       -1    1    3    3    0  502 -0.52325783005E+03 -0.97530957104E+03  0.10741912568E+04  0.15423729679E+04  0.50400001928E-02 0. -1.
</event>
<event>
 5   0  0.8583262E-08  0.3216678E+04  0.7818609E-02  0.8184427E-01
       -1   -1    0    0    0  501  0.00000000000E+00  0.00000000000E+00  0.86124901992E+03  0.86124901994E+03  0.50400001928E-02 0.  1.
        1   -1    0    0  501    0  0.00000000000E+00  0.00000000000E+00 -0.30034909963E+04  0.30034909963E+04  0.50400001928E-02 0. -1.
    10030    2    1    2    0    0  0.00000000000E+00  0.00000000000E+00 -0.21422419763E+04  0.38647400162E+04  0.32166775884E+04 0.  0.
        1    1    3    3  502    0  0.83379197390E+03 -0.13735320105E+04 -0.11556897392E+04  0.19792468297E+04  0.50400001928E-02 0.  1.
       -1    1    3    3    0  502 -0.83379197390E+03  0.13735320105E+04 -0.98655223719E+03  0.18854931865E+04  0.50400001928E-02 0. -1.
</event>
<event>
 5   0  0.8528625E-08  0.4017866E+04  0.7818609E-02  0.8000952E-01
        1   -1    0    0  501    0  0.00000000000E+00  0.00000000000E+00  0.19340073130E+04  0.19340073130E+04  0.50400001928E-02 0.  1.
       -1   -1    0    0    0  501  0.00000000000E+00  0.00000000000E+00 -0.20867613297E+04  0.20867613297E+04  0.50400001928E-02 0. -1.
    10030    2    1    2    0    0  0.00000000000E+00  0.00000000000E+00 -0.15275401665E+03  0.40207686427E+04  0.40178659371E+04 0.  0.
        2    1    3    3  502    0  0.13885516164E+04 -0.87272762210E+03 -0.12374231894E+04  0.20544939142E+04  0.25500000920E-02 0. -1.
       -2    1    3    3    0  502 -0.13885516164E+04  0.87272762210E+03  0.10846691728E+04  0.19662747285E+04  0.25500000920E-02 0.  1.
</event>
<event>
 5   0  0.8528625E-08  0.3956169E+04  0.7818609E-02  0.8013448E-01
        1   -1    0    0  501    0  0.00000000000E+00  0.00000000000E+00  0.28621869890E+04  0.28621869890E+04  0.50400001928E-02 0.  1.
       -1   -1    0    0    0  501  0.00000000000E+00  0.00000000000E+00 -0.13670727035E+04  0.13670727035E+04  0.50400001928E-02 0. -1.
    10030    2    1    2    0    0  0.00000000000E+00  0.00000000000E+00  0.14951142855E+04  0.42292596925E+04  0.39561687047E+04 0.  0.
        5    1    3    3  502    0  0.15399229144E+04  0.74113478361E+02 -0.57732335506E+03  0.16462623534E+04  0.46999998093E+01 0. -1.
       -5    1    3    3    0  502 -0.15399229144E+04 -0.74113478361E+02  0.20724376405E+04  0.25829973391E+04  0.46999998093E+01 0.  1.
</event>
<event>
 5   0  0.8528625E-08  0.4001648E+04  0.7818609E-02  0.8004214E-01
        1   -1    0    0  501    0  0.00000000000E+00  0.00000000000E+00  0.21301287250E+04  0.21301287250E+04  0.50400001928E-02 0.  1.
       -1   -1    0    0    0  501  0.00000000000E+00  0.00000000000E+00 -0.18793680418E+04  0.18793680418E+04  0.50400001928E-02 0. -1.
    10030    2    1    2    0    0  0.00000000000E+00  0.00000000000E+00  0.25076068316E+03  0.40094967668E+04  0.40016475860E+04 0.  0.
        2    1    3    3  502    0  0.10440130948E+04  0.12873533467E+04  0.12483167463E+04  0.20749787181E+04  0.25500000920E-02 0.  1.
       -2    1    3    3    0  502 -0.10440130948E+04 -0.12873533467E+04 -0.99755606310E+03  0.19345180487E+04  0.25500000920E-02 0. -1.
</event>
<event>
 5   0  0.2661693E-07  0.4098322E+04  0.7818609E-02  0.7985000E-01
       -2   -1    0    0    0  501  0.00000000000E+00  0.00000000000E+00  0.16439491121E+04  0.16439491121E+04  0.25500000920E-02 0. -1.
        2   -1    0    0  501    0  0.00000000000E+00  0.00000000000E+00 -0.25542518215E+04  0.25542518215E+04  0.25500000920E-02 0.  1.
    10030    2    1    2    0    0  0.00000000000E+00  0.00000000000E+00 -0.91030270934E+03  0.41982009336E+04  0.40983216146E+04 0.  0.
        1    1    3    3  502    0  0.84640548877E+03 -0.17795483948E+04 -0.10308671236E+04  0.22239338496E+04  0.50400001928E-02 0. -1.
       -1    1    3    3    0  502 -0.84640548877E+03  0.17795483948E+04  0.12056441423E+03  0.19742670840E+04  0.50400001928E-02 0.  1.
</event>
<event>
 5   0  0.2661693E-07  0.3965678E+04  0.7818609E-02  0.8011506E-01
        2   -1    0    0  501    0  0.00000000000E+00  0.00000000000E+00  0.19716088423E+04  0.19716088423E+04  0.25500000920E-02 0. -1.
       -2   -1    0    0    0  501  0.00000000000E+00  0.00000000000E+00 -0.19941334757E+04  0.19941334757E+04  0.25500000920E-02 0.  1.
    10030    2    1    2    0    0  0.00000000000E+00  0.00000000000E+00 -0.22524633451E+02  0.39657423180E+04  0.39656783497E+04 0.  0.
        1    1    3    3  502    0 -0.15519348535E+04  0.12663476920E+03 -0.12389274423E+04  0.19898440545E+04  0.50400001928E-02 0.  1.
       -1    1    3    3    0  502  0.15519348535E+04 -0.12663476920E+03  0.12164028088E+04  0.19758982634E+04  0.50400001928E-02 0. -1.
</event>
<event>
 5   0  0.2730801E-07  0.3963589E+04  0.7818609E-02  0.8011932E-01
       -2   -1    0    0    0  501  0.00000000000E+00  0.00000000000E+00  0.13895864067E+04  0.13895864067E+04  0.25500000920E-02 0.  1.
        2   -1    0    0  501    0  0.00000000000E+00  0.00000000000E+00 -0.28263878213E+04  0.28263878213E+04  0.25500000920E-02 0. -1.
    10030    2    1    2    0    0  0.00000000000E+00  0.00000000000E+00 -0.14368014146E+04  0.42159742280E+04  0.39635893311E+04 0.  0.
        2    1    3    3  502    0 -0.10510415166E+04  0.11585761030E+04  0.57584553040E+03  0.16669087950E+04  0.25500000920E-02 0.  1.
       -2    1    3    3    0  502  0.10510415166E+04 -0.11585761030E+04 -0.20126469450E+04  0.25490654329E+04  0.25500000920E-02 0. -1.
</event>
<event>
 5   0  0.8528625E-08  0.3930503E+04  0.7818609E-02  0.8018715E-01
       -1   -1    0    0    0  501  0.00000000000E+00  0.00000000000E+00  0.19433386668E+04  0.19433386668E+04  0.50400001928E-02 0. -1.
        1   -1    0    0  501    0  0.00000000000E+00  0.00000000000E+00 -0.19874117484E+04  0.19874117484E+04  0.50400001928E-02 0.  1.
    10030    2    1    2    0    0  0.00000000000E+00  0.00000000000E+00 -0.44073081613E+02  0.39307504153E+04  0.39305033253E+04 0.  0.
        4    1    3    3  502    0 -0.39000687034E+03 -0.59875124332E+03 -0.18528902987E+04  0.19859034423E+04  0.12699999809E+01 0.  1.
       -4    1    3    3    0  502  0.39000687034E+03  0.59875124332E+03  0.18088172171E+04  0.19448469729E+04  0.12699999809E+01 0. -1.
</event>
<event>
 5   0  0.8528625E-08  0.3789845E+04  0.7818609E-02  0.8048338E-01
        1   -1    0    0  501    0  0.00000000000E+00  0.00000000000E+00  0.26463986502E+04  0.26463986502E+04  0.50400001928E-02 0. -1.
       -1   -1    0    0    0  501  0.00000000000E+00  0.00000000000E+00 -0.13568370098E+04  0.13568370098E+04  0.50400001928E-02 0.  1.
    10030    2    1    2    0    0  0.00000000000E+00  0.00000000000E+00  0.12895616404E+04  0.40032356599E+04  0.37898451848E+04 0.  0.
        4    1    3    3  502    0  0.26656733188E+03  0.13565727406E+04 -0.72409631636E+03  0.15606616646E+04  0.12699999809E+01 0.  1.
       -4    1    3    3    0  502 -0.26656733188E+03 -0.13565727406E+04  0.20136579568E+04  0.24425739953E+04  0.12699999809E+01 0. -1.
</event>
<event>
 5   0  0.8583262E-08  0.3637233E+04  0.7818609E-02  0.8082016E-01
       -1   -1    0    0    0  501  0.00000000000E+00  0.00000000000E+00  0.14845904489E+04  0.14845904489E+04  0.50400001928E-02 0.  1.
        1   -1    0    0  501    0  0.00000000000E+00  0.00000000000E+00 -0.22277968942E+04  0.22277968942E+04  0.50400001928E-02 0. -1.
    10030    2    1    2    0    0  0.00000000000E+00  0.00000000000E+00 -0.74320644532E+03  0.37123873431E+04  0.36372330095E+04 0.  0.
        1    1    3    3  502    0 -0.87331350399E+03 -0.13263825988E+04 -0.12761421322E+04  0.20372790717E+04  0.50400001928E-02 0.  1.
       -1    1    3    3    0  502  0.87331350399E+03  0.13263825988E+04  0.53293568684E+03  0.16751082714E+04  0.50400001928E-02 0. -1.
</event>
<event>
 5   0  0.8528625E-08  0.3981803E+04  0.7818609E-02  0.8008228E-01
        1   -1    0    0  501    0  0.00000000000E+00  0.00000000000E+00  0.16962072305E+04  0.16962072306E+04  0.50400001928E-02 0.  1.
       -1   -1    0    0    0  501  0.00000000000E+00  0.00000000000E+00 -0.23367950369E+04  0.23367950369E+04  0.50400001928E-02 0. -1.
    10030    2    1    2    0    0  0.00000000000E+00  0.00000000000E+00 -0.64058780632E+03  0.40330022674E+04  0.39818029272E+04 0.  0.
        2    1    3    3  502    0  0.19812566617E+04  0.16511116440E+03 -0.42675963188E+03  0.20334117733E+04  0.25500000920E-02 0. -1.
       -2    1    3    3    0  502 -0.19812566617E+04 -0.16511116440E+03 -0.21382817444E+03  0.19995904942E+04  0.25500000920E-02 0.  1.
</event>
<event>
 5   0  0.8528625E-08  0.4131874E+04  0.7818609E-02  0.7978459E-01
        1   -1    0    0  501    0  0.00000000000E+00  0.00000000000E+00  0.15923205410E+04  0.15923205410E+04  0.50400001928E-02 0. -1.
       -1   -1    0    0    0  501  0.00000000000E+00  0.00000000000E+00 -0.26804249423E+04  0.26804249423E+04  0.50400001928E-02 0.  1.
    10030    2    1    2    0    0  0.00000000000E+00  0.00000000000E+00 -0.10881044013E+04  0.42727454834E+04  0.41318740031E+04 0.  0.
        2    1    3    3  502    0  0.89860421419E+03 -0.18584846013E+04 -0.62832385418E+03  0.21578334997E+04  0.25500000920E-02 0.  1.
       -2    1    3    3    0  502 -0.89860421419E+03  0.18584846013E+04 -0.45978054713E+03  0.21149119836E+04  0.25500000920E-02 0. -1.
</event>
<event>
 5   0  0.2839279E-07  0.3961930E+04  0.7818609E-02  0.8012271E-01
        2   -1    0    0  501    0  0.00000000000E+00  0.00000000000E+00  0.22617987735E+04  0.22617987735E+04  0.25500000920E-02 0.  1.
       -2   -1    0    0    0  501  0.00000000000E+00  0.00000000000E+00 -0.17350006129E+04  0.17350006129E+04  0.25500000920E-02 0. -1.
    10030    2    1    2    0    0  0.00000000000E+00  0.00000000000E+00  0.52679816063E+03  0.39967993863E+04  0.39619299631E+04 0.  0.
        3    1    3    3  502    0 -0.15040983205E+04 -0.12751862627E+04  0.72497000404E+02  0.19732378437E+04  0.10100000352E+00 0.  1.
       -3    1    3    3    0  502  0.15040983205E+04  0.12751862627E+04  0.45430116022E+03  0.20235615426E+04  0.10100000352E+00 0. -1.
</event>
<event>
 5   0  0.2661693E-07  0.4007087E+04  0.7818609E-02  0.8003118E-01
       -2   -1    0    0    0  501  0.00000000000E+00  0.00000000000E+00  0.22335315322E+04  0.22335315322E+04  0.25500000920E-02 0. -1.
        2   -1    0    0  501    0  0.00000000000E+00  0.00000000000E+00 -0.17972375975E+04  0.17972375975E+04  0.25500000920E-02 0.  1.
    10030    2    1    2    0    0  0.00000000000E+00  0.00000000000E+00  0.43629393473E+03  0.40307691297E+04  0.40070871440E+04 0.  0.
        1    1    3    3  502    0  0.59677936859E+03 -0.16585729109E+04 -0.73994055199E+03  0.19116803436E+04  0.50400001928E-02 0.  1.
       -1    1    3    3    0  502 -0.59677936859E+03  0.16585729109E+04  0.11762344867E+04  0.21190887861E+04  0.50400001928E-02 0. -1.
</event>
<event>
 5   0  0.2839279E-07  0.4033952E+04  0.7818609E-02  0.7997732E-01
        2   -1    0    0  501    0  0.00000000000E+00  0.00000000000E+00  0.19144342274E+04  0.19144342274E+04  0.25500000920E-02 0. -1.
       -2   -1    0    0    0  501  0.00000000000E+00  0.00000000000E+00 -0.21250102029E+04  0.21250102029E+04  0.25500000920E-02 0.  1.
    10030    2    1    2    0    0  0.00000000000E+00  0.00000000000E+00 -0.21057597547E+03  0.40394444302E+04  0.40339520403E+04 0.  0.
        3    1    3    3  502    0  0.16548630712E+04  0.53452972099E+03  0.91781660331E+03  0.19663878393E+04  0.10100000352E+00 0. -1.
       -3    1    3    3    0  502 -0.16548630712E+04 -0.53452972099E+03 -0.11283925788E+04  0.20730565909E+04  0.10100000352E+00 0.  1.
</event>
<event>
 5   0  0.8583262E-08  0.4036679E+04  0.7818609E-02  0.7997188E-01
       -1   -1    0    0    0  501  0.00000000000E+00  0.00000000000E+00  0.28456029928E+04  0.28456029928E+04  0.50400001928E-02 0. -1.
        1   -1    0    0  501    0  0.00000000000E+00  0.00000000000E+00 -0.14315749865E+04  0.14315749865E+04  0.50400001928E-02 0.  1.
    10030    2    1    2    0    0  0.00000000000E+00  0.00000000000E+00  0.14140280063E+04  0.42771779793E+04  0.40366788656E+04 0.  0.
        1    1    3    3  502    0 -0.19217719396E+04  0.48559043502E+03  0.11100559890E+04  0.22718340074E+04  0.50400001928E-02 0. -1.
       -1    1    3    3    0  502  0.19217719396E+04 -0.48559043502E+03  0.30397201724E+03  0.20053439719E+04  0.50400001928E-02 0.  1.
</event>
<event>
 5   0  0.2730801E-07  0.4042921E+04  0.7818609E-02  0.7995944E-01
       -2   -1    0    0    0  501  0.00000000000E+00  0.00000000000E+00  0.15856918525E+04  0.15856918525E+04  0.25500000920E-02 0.  1.
        2   -1    0    0  501    0  0.00000000000E+00  0.00000000000E+00 -0.25769842253E+04  0.25769842253E+04  0.25500000920E-02 0. -1.
    10030    2    1    2    0    0  0.00000000000E+00  0.00000000000E+00 -0.99129237283E+03  0.41626760778E+04  0.40429211667E+04 0.  0.
        2    1    3    3  502    0  0.93396659472E+03 -0.15556988937E+04  0.42170513989E+03  0.18628816046E+04  0.25500000920E-02 0.  1.
       -2    1    3    3    0  502 -0.93396659472E+03  0.15556988937E+04 -0.14129975127E+04  0.22997944732E+04  0.25500000920E-02 0. -1.
</event>
<event>
 5   0  0.2730801E-07  0.3287614E+04  0.7818609E-02  0.8166054E-01
        2   -1    0    0  501    0  0.00000000000E+00  0.00000000000E+00  0.21725865949E+04  0.21725865949E+04  0.25500000920E-02 0. -1.
       -2   -1    0    0    0  501  0.00000000000E+00  0.00000000000E+00 -0.12437253835E+04  0.12437253835E+04  0.25500000920E-02 0.  1.
    10030    2    1    2    0    0  0.00000000000E+00  0.00000000000E+00  0.92886121135E+03  0.34163119784E+04  0.32876137826E+04 0.  0.
        2    1    3    3  502    0 -0.68784139351E+03 -0.62156360535E+03 -0.94614468252E+03  0.13246346132E+04  0.25500000920E-02 0.  1.
       -2    1    3    3    0  502  0.68784139351E+03  0.62156360535E+03  0.18750058939E+04  0.20916773652E+04  0.25500000920E-02 0. -1.
</event>
<event>
 5   0  0.8583262E-08  0.3946627E+04  0.7818609E-02  0.8015401E-01
        1   -1    0    0  501    0  0.00000000000E+00  0.00000000000E+00  0.15159883549E+04  0.15159883549E+04  0.50400001928E-02 0.  1.
       -1   -1    0    0    0  501  0.00000000000E+00  0.00000000000E+00 -0.25685989508E+04  0.25685989508E+04  0.50400001928E-02 0. -1.
    10030    2    1    2    0    0  0.00000000000E+00  0.00000000000E+00 -0.10526105959E+04  0.40845873057E+04  0.39466269638E+04 0.  0.
        1    1    3    3  502    0  0.11924437735E+04 -0.77747986523E+03  0.88805622567E+03  0.16778083781E+04  0.50400001928E-02 0.  1.
       -1    1    3    3    0  502 -0.11924437735E+04  0.77747986523E+03 -0.19406668216E+04  0.24067789276E+04  0.50400001928E-02 0. -1.
</event>
<event>
 5   0  0.8528625E-08  0.4111935E+04  0.7818609E-02  0.7982339E-01
       -1   -1    0    0    0  501  0.00000000000E+00  0.00000000000E+00  0.33668018430E+04  0.33668018430E+04  0.50400001928E-02 0.  1.
        1   -1    0    0  501    0  0.00000000000E+00  0.00000000000E+00 -0.12554946527E+04  0.12554946528E+04  0.50400001928E-02 0. -1.
    10030    2    1    2    0    0  0.00000000000E+00  0.00000000000E+00  0.21113071902E+04  0.46222964957E+04  0.41119346837E+04 0.  0.
        4    1    3    3  502    0  0.12229026151E+04 -0.98553429894E+03 -0.43575444091E+03  0.16299239878E+04  0.12699999809E+01 0. -1.
       -4    1    3    3    0  502 -0.12229026151E+04  0.98553429894E+03  0.25470616312E+04  0.29923725079E+04  0.12699999809E+01 0.  1.
</event>
<event>
 5   0  0.8528625E-08  0.3095872E+04  0.7818609E-02  0.8216872E-01
        1   -1    0    0  501    0  0.00000000000E+00  0.00000000000E+00  0.11388374792E+04  0.11388374792E+04  0.50400001928E-02 0.  1.
       -1   -1    0    0    0  501  0.00000000000E+00  0.00000000000E+00 -0.21039924056E+04  0.21039924056E+04  0.50400001928E-02 0. -1.
    10030    2    1    2    0    0  0.00000000000E+00  0.00000000000E+00 -0.96515492643E+03  0.32428298849E+04  0.30958717076E+04 0.  0.
        5    1    3    3  502    0 -0.10330379254E+04 -0.68732006582E+03 -0.14519856708E+04  0.19099373567E+04  0.46999998093E+01 0. -1.
       -5    1    3    3    0  502  0.10330379254E+04  0.68732006582E+03  0.48683074437E+03  0.13328925282E+04  0.46999998093E+01 0.  1.
</event>
<event>
 5   0  0.2666978E-07  0.4003958E+04  0.7818609E-02  0.8003749E-01
        2   -1    0    0  501    0  0.00000000000E+00  0.00000000000E+00  0.23921336954E+04  0.23921336954E+04  0.25500000920E-02 0.  1.
       -2   -1    0    0    0  501  0.00000000000E+00  0.00000000000E+00 -0.16754582890E+04  0.16754582890E+04  0.25500000920E-02 0. -1.
    10030    2    1    2    0    0  0.00000000000E+00  0.00000000000E+00  0.71667540644E+03  0.40675919844E+04  0.40039581557E+04 0.  0.
        4    1    3    3  502    0  0.96908988808E+03  0.13262977560E+04  0.15209547743E+04  0.22386393160E+04  0.12699999809E+01 0.  1.
       -4    1    3    3    0  502 -0.96908988808E+03 -0.13262977560E+04 -0.80427936789E+03  0.18289526684E+04  0.12699999809E+01 0. -1.
</event>
<event>
 5   0  0.8528625E-08  0.4015562E+04  0.7818609E-02  0.8001415E-01
        1   -1    0    0  501    0  0.00000000000E+00  0.00000000000E+00  0.12192235306E+04  0.12192235306E+04  0.50400001928E-02 0.  1.
       -1   -1    0    0    0  501  0.00000000000E+00  0.00000000000E+00 -0.33063540299E+04  0.33063540299E+04  0.50400001928E-02 0. -1.
    10030    2    1    2    0    0  0.00000000000E+00  0.00000000000E+00 -0.20871304993E+04  0.45255775604E+04  0.40155620447E+04 0.  0.
        5    1    3    3  502    0  0.16846451100E+04 -0.13089954948E+03 -0.22657337705E+04  0.28264351129E+04  0.46999998093E+01 0. -1.
       -5    1    3    3    0  502 -0.16846451100E+04  0.13089954948E+03  0.17860327115E+03  0.16991424476E+04  0.46999998093E+01 0.  1.
</event>
<event>
 5   0  0.2661693E-07  0.3999512E+04  0.7818609E-02  0.8004645E-01
        2   -1    0    0  501    0  0.00000000000E+00  0.00000000000E+00  0.30670131068E+04  0.30670131068E+04  0.25500000920E-02 0. -1.
       -2   -1    0    0    0  501  0.00000000000E+00  0.00000000000E+00 -0.13038825462E+04  0.13038825462E+04  0.25500000920E-02 0.  1.
    10030    2    1    2    0    0  0.00000000000E+00  0.00000000000E+00  0.17631305606E+04  0.43708956530E+04  0.39995123998E+04 0.  0.
        1    1    3    3  502    0 -0.14883533491E+03 -0.24885654398E+02 -0.12976514734E+04  0.13063960345E+04  0.50400001928E-02 0.  1.
       -1    1    3    3    0  502  0.14883533491E+03  0.24885654398E+02  0.30607820339E+04  0.30644996185E+04  0.50400001928E-02 0. -1.
</event>
<event>
 5   0  0.8528625E-08  0.3960696E+04  0.7818609E-02  0.8012523E-01
        1   -1    0    0  501    0  0.00000000000E+00  0.00000000000E+00  0.20356709868E+04  0.20356709869E+04  0.50400001928E-02 0. -1.
       -1   -1    0    0    0  501  0.00000000000E+00  0.00000000000E+00 -0.19265285243E+04  0.19265285243E+04  0.50400001928E-02 0.  1.
    10030    2    1    2    0    0  0.00000000000E+00  0.00000000000E+00  0.10914246259E+03  0.39621995111E+04  0.39606960106E+04 0.  0.
        5    1    3    3  502    0  0.15646765643E+04 -0.11555295128E+04 -0.31745019443E+03  0.19708520801E+04  0.46999998093E+01 0.  1.
       -5    1    3    3    0  502 -0.15646765643E+04  0.11555295128E+04  0.42659265702E+03  0.19913474310E+04  0.46999998093E+01 0. -1.
</event>
<event>
 5   0  0.8528625E-08  0.4023215E+04  0.7818609E-02  0.7999880E-01
       -1   -1    0    0    0  501  0.00000000000E+00  0.00000000000E+00  0.13380398750E+04  0.13380398750E+04  0.50400001928E-02 0.  1.
        1   -1    0    0  501    0  0.00000000000E+00  0.00000000000E+00 -0.30242483188E+04  0.30242483188E+04  0.50400001928E-02 0. -1.
    10030    2    1    2    0    0  0.00000000000E+00  0.00000000000E+00 -0.16862084438E+04  0.43622881938E+04  0.40232150539E+04 0.  0.
        3    1    3    3  502    0 -0.54957716121E+02 -0.99001298867E+03 -0.27408773384E+04  0.29147134787E+04  0.10100000352E+00 0. -1.
       -3    1    3    3    0  502  0.54957716121E+02  0.99001298867E+03  0.10546688946E+04  0.14475747151E+04  0.10100000352E+00 0.  1.
</event>
<event>
 5   0  0.8528625E-08  0.3844877E+04  0.7818609E-02  0.8036592E-01
       -1   -1    0    0    0  501  0.00000000000E+00  0.00000000000E+00  0.17139751874E+04  0.17139751875E+04  0.50400001928E-02 0. -1.
        1   -1    0    0  501    0  0.00000000000E+00  0.00000000000E+00 -0.21562568415E+04  0.21562568415E+04  0.50400001928E-02 0.  1.
    10030    2    1    2    0    0  0.00000000000E+00  0.00000000000E+00 -0.44228165404E+03  0.38702320289E+04  0.38448774878E+04 0.  0.
        3    1    3    3  502    0  0.99540187663E+03 -0.15506040825E+04  0.33071970234E+03  0.18720505998E+04  0.10100000352E+00 0. -1.
       -3    1    3    3    0  502 -0.99540187663E+03  0.15506040825E+04 -0.77300135639E+03  0.19981814291E+04  0.10100000352E+00 0.  1.
</event>
<event>
 5   0  0.8528625E-08  0.3986087E+04  0.7818609E-02  0.8007359E-01
       -3   -1    0    0    0  501  0.00000000000E+00  0.00000000000E+00  0.18584460349E+04  0.18584460376E+04  0.10100000352E+00 0.  1.
        3   -1    0    0  501    0  0.00000000000E+00  0.00000000000E+00 -0.21373893497E+04  0.21373893521E+04  0.10100000352E+00 0. -1.
    10030    2    1    2    0    0  0.00000000000E+00  0.00000000000E+00 -0.27894331485E+03  0.39958353898E+04  0.39860871904E+04 0.  0.
        1    1    3    3  502    0  0.28604883896E+02 -0.18925475543E+04  0.48628910297E+03  0.19542342686E+04  0.50400001928E-02 0.  1.
       -1    1    3    3    0  502 -0.28604883896E+02  0.18925475543E+04 -0.76523241783E+03  0.20416011212E+04  0.50400001928E-02 0. -1.
</event>
<event>
 5   0  0.2666978E-07  0.3704686E+04  0.7818609E-02  0.8066924E-01
        2   -1    0    0  501    0  0.00000000000E+00  0.00000000000E+00  0.24256669800E+04  0.24256669800E+04  0.25500000920E-02 0.  1.
       -2   -1    0    0    0  501  0.00000000000E+00  0.00000000000E+00 -0.14145280909E+04  0.14145280909E+04  0.25500000920E-02 0. -1.
    10030    2    1    2    0    0  0.00000000000E+00  0.00000000000E+00  0.10111388891E+04  0.38401950709E+04  0.37046857262E+04 0.  0.
        4    1    3    3  502    0 -0.24601809557E+03  0.36113412453E+03  0.23714756701E+04  0.24113981890E+04  0.12699999809E+01 0.  1.
       -4    1    3    3    0  502  0.24601809557E+03 -0.36113412453E+03 -0.13603367810E+04  0.14287968819E+04  0.12699999809E+01 0. -1.
</event>
<event>
 5   0  0.2839279E-07  0.3900860E+04  0.7818609E-02  0.8024850E-01
        2   -1    0    0  501    0  0.00000000000E+00  0.00000000000E+00  0.20343438085E+04  0.20343438085E+04  0.25500000920E-02 0.  1.
       -2   -1    0    0    0  501  0.00000000000E+00  0.00000000000E+00 -0.18699777538E+04  0.18699777538E+04  0.25500000920E-02 0. -1.
    10030    2    1    2    0    0  0.00000000000E+00  0.00000000000E+00  0.16436605472E+03  0.39043215623E+04  0.39008602463E+04 0.  0.
        3    1    3    3  502    0  0.18446733834E+04  0.51940429374E+03  0.44524025307E+03  0.19674449433E+04  0.10100000352E+00 0.  1.
       -3    1    3    3    0  502 -0.18446733834E+04 -0.51940429374E+03 -0.28087419835E+03  0.19368766190E+04  0.10100000352E+00 0. -1.
</event>
<event>
 5   0  0.2730801E-07  0.4055354E+04  0.7818609E-02  0.7993472E-01
        2   -1    0    0  501    0  0.00000000000E+00  0.00000000000E+00  0.21718197262E+04  0.21718197262E+04  0.25500000920E-02 0.  1.
       -2   -1    0    0    0  501  0.00000000000E+00  0.00000000000E+00 -0.18931012783E+04  0.18931012783E+04  0.25500000920E-02 0. -1.
    10030    2    1    2    0    0  0.00000000000E+00  0.00000000000E+00  0.27871844789E+03  0.40649210046E+04  0.40553543372E+04 0.  0.
        2    1    3    3  502    0 -0.88937970182E+03 -0.13573466406E+04 -0.10792754439E+04  0.19489026760E+04  0.25500000920E-02 0. -1.
       -2    1    3    3    0  502  0.88937970182E+03  0.13573466406E+04  0.13579938918E+04  0.21160183286E+04  0.25500000920E-02 0.  1.
</event>
<event>
 5   0  0.2661693E-07  0.4007306E+04  0.7818609E-02  0.8003074E-01
       -2   -1    0    0    0  501  0.00000000000E+00  0.00000000000E+00  0.18403595877E+04  0.18403595877E+04  0.25500000920E-02 0.  1.
        2   -1    0    0  501    0  0.00000000000E+00  0.00000000000E+00 -0.21814352511E+04  0.21814352511E+04  0.25500000920E-02 0. -1.
    10030    2    1    2    0    0  0.00000000000E+00  0.00000000000E+00 -0.34107566333E+03  0.40217948388E+04  0.40073059675E+04 0.  0.
        1    1    3    3  502    0 -0.78064984032E+03 -0.17843638784E+04 -0.64261780933E+03  0.20509330249E+04  0.50400001928E-02 0.  1.
       -1    1    3    3    0  502  0.78064984032E+03  0.17843638784E+04  0.30154214601E+03  0.19708618139E+04  0.50400001928E-02 0. -1.
</event>
<event>
 5   0  0.2704088E-07  0.3953297E+04  0.7818609E-02  0.8014035E-01
       -2   -1    0    0    0  501  0.00000000000E+00  0.00000000000E+00  0.20159794060E+04  0.20159794060E+04  0.25500000920E-02 0. -1.
        2   -1    0    0  501    0  0.00000000000E+00  0.00000000000E+00 -0.19380853936E+04  0.19380853936E+04  0.25500000920E-02 0.  1.
    10030    2    1    2    0    0  0.00000000000E+00  0.00000000000E+00  0.77894012375E+02  0.39540647996E+04  0.39532974796E+04 0.  0.
        5    1    3    3  502    0  0.63447640772E+03  0.67010707931E+03 -0.17093952324E+04  0.19425905282E+04  0.46999998093E+01 0.  1.
       -5    1    3    3    0  502 -0.63447640772E+03 -0.67010707931E+03  0.17872892448E+04  0.20114742713E+04  0.46999998093E+01 0. -1.
</event>
<event>
 5   0  0.2839279E-07  0.3956626E+04  0.7818609E-02  0.8013354E-01
        2   -1    0    0  501    0  0.00000000000E+00  0.00000000000E+00  0.20255606094E+04  0.20255606094E+04  0.25500000920E-02 0.  1.
       -2   -1    0    0    0  501  0.00000000000E+00  0.00000000000E+00 -0.19321677663E+04  0.19321677663E+04  0.25500000920E-02 0. -1.
    10030    2    1    2    0    0  0.00000000000E+00  0.00000000000E+00  0.93392843117E+02  0.39577283757E+04  0.39566262994E+04 0.  0.
        3    1    3    3  502    0  0.87321898805E+03  0.16627291060E+04  0.66859576397E+03  0.19935395123E+04  0.10100000352E+00 0. -1.
       -3    1    3    3    0  502 -0.87321898805E+03 -0.16627291060E+04 -0.57520292085E+03  0.19641888635E+04  0.10100000352E+00 0.  1.
</event>
<event>
 5   0  0.8528625E-08  0.3968186E+04  0.7818609E-02  0.8010995E-01
        1   -1    0    0  501    0  0.00000000000E+00  0.00000000000E+00  0.21198903453E+04  0.21198903453E+04  0.50400001928E-02 0. -1.
       -1   -1    0    0    0  501  0.00000000000E+00  0.00000000000E+00 -0.18569950191E+04  0.18569950191E+04  0.50400001928E-02 0.  1.
    10030    2    1    2    0    0  0.00000000000E+00  0.00000000000E+00  0.26289532626E+03  0.39768853644E+04  0.39681863929E+04 0.  0.
        3    1    3    3  502    0 -0.13173282660E+04  0.97389014086E+03  0.12531913154E+04  0.20625964826E+04  0.10100000352E+00 0. -1.
       -3    1    3    3    0  502  0.13173282660E+04 -0.97389014086E+03 -0.99029598911E+03  0.19142888818E+04  0.10100000352E+00 0.  1.
</event>
<event>
 5   0  0.8528625E-08  0.3985011E+04  0.7818609E-02  0.8007577E-01
        1   -1    0    0  501    0  0.00000000000E+00  0.00000000000E+00  0.20191267955E+04  0.20191267955E+04  0.50400001928E-02 0. -1.
       -1   -1    0    0    0  501  0.00000000000E+00  0.00000000000E+00 -0.19662353418E+04  0.19662353418E+04  0.50400001928E-02 0.  1.
    10030    2    1    2    0    0  0.00000000000E+00  0.00000000000E+00  0.52891453684E+02  0.39853621374E+04  0.39850111493E+04 0.  0.
        3    1    3    3  502    0 -0.13299582480E+04 -0.12376156235E+04 -0.79191546452E+03  0.19818202456E+04  0.10100000352E+00 0.  1.
       -3    1    3    3    0  502  0.13299582480E+04  0.12376156235E+04  0.84480691820E+03  0.20035418918E+04  0.10100000352E+00 0. -1.
</event>
<event>
 5   0  0.8528625E-08  0.3685450E+04  0.7818609E-02  0.8071194E-01
        1   -1    0    0  501    0  0.00000000000E+00  0.00000000000E+00  0.22452540369E+04  0.22452540369E+04  0.50400001928E-02 0. -1.
       -1   -1    0    0    0  501  0.00000000000E+00  0.00000000000E+00 -0.15123615622E+04  0.15123615622E+04  0.50400001928E-02 0.  1.
    10030    2    1    2    0    0  0.00000000000E+00  0.00000000000E+00  0.73289247470E+03  0.37576155991E+04  0.36854502589E+04 0.  0.
        5    1    3    3  502    0 -0.13727060909E+02 -0.15632394684E+04  0.13611038200E+04  0.20728077013E+04  0.46999998093E+01 0. -1.
       -5    1    3    3    0  502  0.13727060909E+02  0.15632394684E+04 -0.62821134534E+03  0.16848078977E+04  0.46999998093E+01 0.  1.
</event>
<event>
 5   0  0.8528625E-08  0.3846139E+04  0.7818609E-02  0.8036325E-01
        1   -1    0    0  501    0  0.00000000000E+00  0.00000000000E+00  0.19372238521E+04  0.19372238521E+04  0.50400001928E-02 0. -1.
       -1   -1    0    0    0  501  0.00000000000E+00  0.00000000000E+00 -0.19090188229E+04  0.19090188229E+04  0.50400001928E-02 0.  1.
    10030    2    1    2    0    0  0.00000000000E+00  0.00000000000E+00  0.28205029137E+02  0.38462426750E+04  0.38461392579E+04 0.  0.
        3    1    3    3  502    0 -0.27887999621E+03  0.18743084602E+04  0.34181627160E+03  0.19255245078E+04  0.10100000352E+00 0.  1.
       -3    1    3    3    0  502  0.27887999621E+03 -0.18743084602E+04 -0.31361124246E+03  0.19207181672E+04  0.10100000352E+00 0. -1.
</event>
<event>
 5   0  0.2730801E-07  0.4003451E+04  0.7818609E-02  0.8003851E-01
       -2   -1    0    0    0  501  0.00000000000E+00  0.00000000000E+00  0.20106299137E+04  0.20106299137E+04  0.25500000920E-02 0. -1.
        2   -1    0    0  501    0  0.00000000000E+00  0.00000000000E+00 -0.19928600303E+04  0.19928600303E+04  0.25500000920E-02 0.  1.
    10030    2    1    2    0    0  0.00000000000E+00  0.00000000000E+00  0.17769883374E+02  0.40034899440E+04  0.40034505071E+04 0.  0.
        2    1    3    3  502    0  0.37920445747E+03  0.66383970842E+03 -0.18411129607E+04  0.19935335746E+04  0.25500000920E-02 0.  1.
       -2    1    3    3    0  502 -0.37920445747E+03 -0.66383970842E+03  0.18588828440E+04  0.20099563694E+04  0.25500000920E-02 0. -1.
</event>
<event>
 5   0  0.2839279E-07  0.3702842E+04  0.7818609E-02  0.8067332E-01
       -2   -1    0    0    0  501  0.00000000000E+00  0.00000000000E+00  0.14029914714E+04  0.14029914714E+04  0.25500000920E-02 0.  1.
        2   -1    0    0  501    0  0.00000000000E+00  0.00000000000E+00 -0.24431791453E+04  0.24431791453E+04  0.25500000920E-02 0. -1.
    10030    2    1    2    0    0  0.00000000000E+00  0.00000000000E+00 -0.10401876739E+04  0.38461706168E+04  0.37028418838E+04 0.  0.
        3    1    3    3  502    0 -0.12154382570E+04 -0.87513052279E+03  0.61043633634E+03  0.16173361183E+04  0.10100000352E+00 0.  1.
       -3    1    3    3    0  502  0.12154382570E+04  0.87513052279E+03 -0.16506240102E+04  0.22288344985E+04  0.10100000352E+00 0. -1.
</event>
<event>
 5   0  0.8528625E-08  0.3964544E+04  0.7818609E-02  0.8011738E-01
       -1   -1    0    0    0  501  0.00000000000E+00  0.00000000000E+00  0.15359078785E+04  0.15359078785E+04  0.50400001928E-02 0.  1.
        1   -1    0    0  501    0  0.00000000000E+00  0.00000000000E+00 -0.25583576741E+04  0.25583576741E+04  0.50400001928E-02 0. -1.
    10030    2    1    2    0    0  0.00000000000E+00  0.00000000000E+00 -0.10224497956E+04  0.40942655526E+04  0.39645437103E+04 0.  0.
        3    1    3    3  502    0 -0.15292782685E+03 -0.19757782233E+04 -0.46153408925E+03  0.20347236259E+04  0.10100000352E+00 0.  1.
       -3    1    3    3    0  502  0.15292782685E+03  0.19757782233E+04 -0.56091570632E+03  0.20595419267E+04  0.10100000352E+00 0. -1.
</event>
<event>
 5   0  0.8528625E-08  0.4025663E+04  0.7818609E-02  0.7999389E-01
       -1   -1    0    0    0  501  0.00000000000E+00  0.00000000000E+00  0.21252793388E+04  0.21252793388E+04  0.50400001928E-02 0. -1.
        1   -1    0    0  501    0  0.00000000000E+00  0.00000000000E+00 -0.19063334876E+04  0.19063334876E+04  0.50400001928E-02 0.  1.
    10030    2    1    2    0    0  0.00000000000E+00  0.00000000000E+00  0.21894585120E+03  0.40316128265E+04  0.40256632617E+04 0.  0.
        2    1    3    3  502    0  0.36033820518E+02 -0.19805312703E+04 -0.24839063571E+03  0.19963718233E+04  0.25500000920E-02 0.  1.
       -2    1    3    3    0  502 -0.36033820518E+02  0.19805312703E+04  0.46733648691E+03  0.20352410032E+04  0.25500000920E-02 0. -1.
</event>
<event>
 5   0  0.2730801E-07  0.3954549E+04  0.7818609E-02  0.8013779E-01
       -2   -1    0    0    0  501  0.00000000000E+00  0.00000000000E+00  0.29372800998E+04  0.29372800998E+04  0.25500000920E-02 0. -1.
        2   -1    0    0  501    0  0.00000000000E+00  0.00000000000E+00 -0.13310324741E+04  0.13310324741E+04  0.25500000920E-02 0.  1.
    10030    2    1    2    0    0  0.00000000000E+00  0.00000000000E+00  0.16062476258E+04  0.42683125739E+04  0.39545493793E+04 0.  0.
        2    1    3    3  502    0 -0.18684198552E+04 -0.45626840832E+02  0.14997309186E+04  0.23963028590E+04  0.25500000920E-02 0.  1.
       -2    1    3    3    0  502  0.18684198552E+04  0.45626840832E+02  0.10651670712E+03  0.18720097149E+04  0.25500000920E-02 0. -1.
</event>
<event>
 5   0  0.8528625E-08  0.3981979E+04  0.7818609E-02  0.8008192E-01
       -1   -1    0    0    0  501  0.00000000000E+00  0.00000000000E+00  0.16776471385E+04  0.16776471385E+04  0.50400001928E-02 0.  1.
        1   -1    0    0  501    0  0.00000000000E+00  0.00000000000E+00 -0.23628560892E+04  0.23628560892E+04  0.50400001928E-02 0. -1.
    10030    2    1    2    0    0  0.00000000000E+00  0.00000000000E+00 -0.68520895074E+03  0.40405032277E+04  0.39819787829E+04 0.  0.
        4    1    3    3  502    0 -0.19131004743E+04  0.53240406640E+03 -0.48834563731E+03  0.20449671364E+04  0.12699999809E+01 0. -1.
       -4    1    3    3    0  502  0.19131004743E+04 -0.53240406640E+03 -0.19686331342E+03  0.19955360913E+04  0.12699999809E+01 0.  1.
</event>
<event>
 5   0  0.2661693E-07  0.3940885E+04  0.7818609E-02  0.8016579E-01
        2   -1    0    0  501    0  0.00000000000E+00  0.00000000000E+00  0.28694832451E+04  0.28694832451E+04  0.25500000920E-02 0. -1.
       -2   -1    0    0    0  501  0.00000000000E+00  0.00000000000E+00 -0.13530809588E+04  0.13530809588E+04  0.25500000920E-02 0.  1.
    10030    2    1    2    0    0  0.00000000000E+00  0.00000000000E+00  0.15164022862E+04  0.42225642039E+04  0.39408847436E+04 0.  0.
        1    1    3    3  502    0 -0.37766867362E+03  0.18927791787E+04  0.11832903278E+04  0.22639396296E+04  0.50400001928E-02 0. -1.
       -1    1    3    3    0  502  0.37766867362E+03 -0.18927791787E+04  0.33311195841E+03  0.19586245744E+04  0.50400001928E-02 0.  1.
</event>
<event>
 5   0  0.8528625E-08  0.4353103E+04  0.7818609E-02  0.7936871E-01
        1   -1    0    0  501    0  0.00000000000E+00  0.00000000000E+00  0.26189275153E+04  0.26189275153E+04  0.50400001928E-02 0.  1.
       -1   -1    0    0    0  501  0.00000000000E+00  0.00000000000E+00 -0.18088991006E+04  0.18088991006E+04  0.50400001928E-02 0. -1.
    10030    2    1    2    0    0  0.00000000000E+00  0.00000000000E+00  0.81002841472E+03  0.44278266160E+04  0.43531026301E+04 0.  0.
        4    1    3    3  502    0 -0.17814757429E+04  0.88750887064E+03  0.13010708991E+04  0.23778382862E+04  0.12699999809E+01 0.  1.
       -4    1    3    3    0  502  0.17814757429E+04 -0.88750887064E+03 -0.49104248433E+03  0.20499883298E+04  0.12699999809E+01 0. -1.
</event>
<event>
 5   0  0.8528625E-08  0.3503786E+04  0.7818609E-02  0.8112893E-01
        1   -1    0    0  501    0  0.00000000000E+00  0.00000000000E+00  0.23208180658E+04  0.23208180658E+04  0.50400001928E-02 0.  1.
       -1   -1    0    0    0  501  0.00000000000E+00  0.00000000000E+00 -0.13224338909E+04  0.13224338909E+04  0.50400001928E-02 0. -1.
    10030    2    1    2    0    0  0.00000000000E+00  0.00000000000E+00  0.99838417482E+03  0.36432519567E+04  0.35037856469E+04 0.  0.
        3    1    3    3  502    0 -0.26884963937E+03  0.47356378963E+03  0.22305791348E+04  0.22960893010E+04  0.10100000352E+00 0.  1.
       -3    1    3    3    0  502  0.26884963937E+03 -0.47356378963E+03 -0.12321949599E+04  0.13471626557E+04  0.10100000352E+00 0. -1.
</event>
<event>
 5   0  0.8528625E-08  0.3998111E+04  0.7818609E-02  0.8004928E-01
        1   -1    0    0  501    0  0.00000000000E+00  0.00000000000E+00  0.21222233329E+04  0.21222233329E+04  0.50400001928E-02 0. -1.
       -1   -1    0    0    0  501  0.00000000000E+00  0.00000000000E+00 -0.18830359400E+04  0.18830359400E+04  0.50400001928E-02 0.  1.
    10030    2    1    2    0    0  0.00000000000E+00  0.00000000000E+00  0.23918739287E+03  0.40052592729E+04  0.39981109582E+04 0.  0.
        2    1    3    3  502    0 -0.35510958176E+02  0.10827646732E+04  0.18026518018E+04  0.21031390549E+04  0.25500000920E-02 0. -1.
       -2    1    3    3    0  502  0.35510958176E+02 -0.10827646732E+04 -0.15634644089E+04  0.19021202180E+04  0.25500000920E-02 0.  1.
</event>
<event>
 5   0  0.2661693E-07  0.4116432E+04  0.7818609E-02  0.7981462E-01
        2   -1    0    0  501    0  0.00000000000E+00  0.00000000000E+00  0.21352201566E+04  0.21352201566E+04  0.25500000920E-02 0.  1.
       -2   -1    0    0    0  501  0.00000000000E+00  0.00000000000E+00 -0.19839890564E+04  0.19839890564E+04  0.25500000920E-02 0. -1.
    10030    2    1    2    0    0  0.00000000000E+00  0.00000000000E+00  0.15123110020E+03  0.41192092130E+04  0.41164321559E+04 0.  0.
        1    1    3    3  502    0 -0.13880488284E+04 -0.11045081540E+03 -0.14411162255E+04  0.20039198856E+04  0.50400001928E-02 0. -1.
       -1    1    3    3    0  502  0.13880488284E+04  0.11045081540E+03  0.15923473257E+04  0.21152893273E+04  0.50400001928E-02 0.  1.
</event>
<event>
 5   0  0.2704088E-07  0.3958384E+04  0.7818609E-02  0.8012995E-01
       -2   -1    0    0    0  501  0.00000000000E+00  0.00000000000E+00  0.25602100412E+04  0.25602100412E+04  0.25500000920E-02 0. -1.
        2   -1    0    0  501    0  0.00000000000E+00  0.00000000000E+00 -0.15300311781E+04  0.15300311781E+04  0.25500000920E-02 0.  1.
    10030    2    1    2    0    0  0.00000000000E+00  0.00000000000E+00  0.10301788631E+04  0.40902412193E+04  0.39583841075E+04 0.  0.
        5    1    3    3  502    0 -0.12187369313E+04  0.10240626275E+04  0.17303416750E+04  0.23511972216E+04  0.46999998093E+01 0. -1.
       -5    1    3    3    0  502  0.12187369313E+04 -0.10240626275E+04 -0.70016281199E+03  0.17390439977E+04  0.46999998093E+01 0.  1.
</event>
<event>
 5   0  0.8528625E-08  0.4012252E+04  0.7818609E-02  0.8002079E-01
       -1   -1    0    0    0  501  0.00000000000E+00  0.00000000000E+00  0.26214189221E+04  0.26214189221E+04  0.50400001928E-02 0.  1.
        1   -1    0    0  501    0  0.00000000000E+00  0.00000000000E+00 -0.15352533202E+04  0.15352533202E+04  0.50400001928E-02 0. -1.
    10030    2    1    2    0    0  0.00000000000E+00  0.00000000000E+00  0.10861656020E+04  0.41566722423E+04  0.40122522871E+04 0.  0.
        5    1    3    3  502    0 -0.19209891749E+04  0.16877287482E+03  0.11160134798E+04  0.22280466490E+04  0.46999998093E+01 0.  1.
       -5    1    3    3    0  502  0.19209891749E+04 -0.16877287482E+03 -0.29847877787E+02  0.19286255933E+04  0.46999998093E+01 0. -1.
</event>
<event>
 5   0  0.2666978E-07  0.4100295E+04  0.7818609E-02  0.7984614E-01
       -2   -1    0    0    0  501  0.00000000000E+00  0.00000000000E+00  0.31308038439E+04  0.31308038439E+04  0.25500000920E-02 0.  1.
        2   -1    0    0  501    0  0.00000000000E+00  0.00000000000E+00 -0.13425004429E+04  0.13425004429E+04  0.25500000920E-02 0. -1.
    10030    2    1    2    0    0  0.00000000000E+00  0.00000000000E+00  0.17883034010E+04  0.44733042868E+04  0.41002953781E+04 0.  0.
        4    1    3    3  502    0 -0.14941250396E+02 -0.38244401124E+03 -0.13031784512E+04  0.13582202882E+04  0.12699999809E+01 0. -1.
       -4    1    3    3    0  502  0.14941250396E+02  0.38244401124E+03  0.30914818522E+04  0.31150839986E+04  0.12699999809E+01 0.  1.
</event>
<event>
 5   0  0.8583262E-08  0.4001906E+04  0.7818609E-02  0.8004162E-01
       -1   -1    0    0    0  501  0.00000000000E+00  0.00000000000E+00  0.17252741168E+04  0.17252741168E+04  0.50400001928E-02 0. -1.
        1   -1    0    0  501    0  0.00000000000E+00  0.00000000000E+00 -0.23206825478E+04  0.23206825478E+04  0.50400001928E-02 0.  1.
    10030    2    1    2    0    0  0.00000000000E+00  0.00000000000E+00 -0.59540843103E+03  0.40459566646E+04  0.40019063123E+04 0.  0.
        1    1    3    3  502    0 -0.29829324943E+03 -0.19414068603E+04  0.88302138597E+02  0.19661731174E+04  0.50400001928E-02 0. -1.
       -1    1    3    3    0  502  0.29829324943E+03  0.19414068603E+04 -0.68371056962E+03  0.20797835472E+04  0.50400001928E-02 0.  1.
</event>
<event>
 5   0  0.8528625E-08  0.4000523E+04  0.7818609E-02  0.8004441E-01
       -1   -1    0    0    0  501  0.00000000000E+00  0.00000000000E+00  0.19611677298E+04  0.19611677298E+04  0.50400001928E-02 0. -1.
        1   -1    0    0  501    0  0.00000000000E+00  0.00000000000E+00 -0.20401347556E+04  0.20401347556E+04  0.50400001928E-02 0.  1.
    10030    2    1    2    0    0  0.00000000000E+00  0.00000000000E+00 -0.78967025823E+02  0.40013024853E+04  0.40005231893E+04 0.  0.
        5    1    3    3  502    0 -0.21588430133E+03  0.23586607515E+03  0.19354353774E+04  0.19616755662E+04  0.46999998093E+01 0. -1.
       -5    1    3    3    0  502  0.21588430133E+03 -0.23586607515E+03 -0.20144024032E+04  0.20396269191E+04  0.46999998093E+01 0.  1.
</event>
<event>
 5   0  0.8528625E-08  0.4049155E+04  0.7818609E-02  0.7994703E-01
       -1   -1    0    0    0  501  0.00000000000E+00  0.00000000000E+00  0.19058531508E+04  0.19058531508E+04  0.50400001928E-02 0.  1.
        1   -1    0    0  501    0  0.00000000000E+00  0.00000000000E+00 -0.21506981727E+04  0.21506981727E+04  0.50400001928E-02 0. -1.
    10030    2    1    2    0    0  0.00000000000E+00  0.00000000000E+00 -0.24484502192E+03  0.40565513235E+04  0.40491554126E+04 0.  0.
        2    1    3    3  502    0 -0.18342578192E+04 -0.45654903861E+03 -0.84898929787E+03  0.20721297256E+04  0.25500000920E-02 0. -1.
       -2    1    3    3    0  502  0.18342578192E+04  0.45654903861E+03  0.60414427595E+03  0.19844215979E+04  0.25500000920E-02 0.  1.
</event>
<event>
 5   0  0.8528625E-08  0.3947707E+04  0.7818609E-02  0.8015180E-01
        1   -1    0    0  501    0  0.00000000000E+00  0.00000000000E+00  0.25929072434E+04  0.25929072434E+04  0.50400001928E-02 0. -1.
       -1   -1    0    0    0  501  0.00000000000E+00  0.00000000000E+00 -0.15025981951E+04  0.15025981951E+04  0.50400001928E-02 0.  1.
    10030    2    1    2    0    0  0.00000000000E+00  0.00000000000E+00  0.10903090483E+04  0.40955054385E+04  0.39477070530E+04 0.  0.
        2    1    3    3  502    0 -0.89525990248E+03  0.11104338974E+04  0.19606198776E+04  0.24245791466E+04  0.25500000920E-02 0. -1.
       -2    1    3    3    0  502  0.89525990248E+03 -0.11104338974E+04 -0.87031082932E+03  0.16709262920E+04  0.25500000920E-02 0.  1.
</event>
<event>
 5   0  0.8528625E-08  0.4036560E+04  0.7818609E-02  0.7997212E-01
       -3   -1    0    0    0  501  0.00000000000E+00  0.00000000000E+00  0.16327678875E+04  0.16327678906E+04  0.10100000352E+00 0.  1.
        3   -1    0    0  501    0  0.00000000000E+00  0.00000000000E+00 -0.24948151152E+04  0.24948151172E+04  0.10100000352E+00 0. -1.
    10030    2    1    2    0    0  0.00000000000E+00  0.00000000000E+00 -0.86204722769E+03  0.41275830078E+04  0.40365599294E+04 0.  0.
        1    1    3    3  502    0  0.36873158194E+02  0.18530638751E+04  0.38589608278E+03  0.18931775251E+04  0.50400001928E-02 0.  1.
       -1    1    3    3    0  502 -0.36873158194E+02 -0.18530638751E+04 -0.12479433105E+04  0.22344054827E+04  0.50400001928E-02 0. -1.
</event>
<event>
 5   0  0.8528625E-08  0.4090340E+04  0.7818609E-02  0.7986566E-01
        3   -1    0    0  501    0  0.00000000000E+00  0.00000000000E+00  0.21239005946E+04  0.21239005970E+04  0.10100000352E+00 0. -1.
       -3   -1    0    0    0  501  0.00000000000E+00  0.00000000000E+00 -0.19693583104E+04  0.19693583130E+04  0.10100000352E+00 0.  1.
    10030    2    1    2    0    0  0.00000000000E+00  0.00000000000E+00  0.15454228422E+03  0.40932589100E+04  0.40903404732E+04 0.  0.
        4    1    3    3  502    0 -0.53765366372E+03 -0.19347335880E+04  0.46543211182E+03  0.20612845951E+04  0.12699999809E+01 0. -1.
       -4    1    3    3    0  502  0.53765366372E+03  0.19347335880E+04 -0.31088982760E+03  0.20319743149E+04  0.12699999809E+01 0.  1.
</event>
<event>
 5   0  0.8528625E-08  0.3412349E+04  0.7818609E-02  0.8134882E-01
        1   -1    0    0  501    0  0.00000000000E+00  0.00000000000E+00  0.21657094009E+04  0.21657094009E+04  0.50400001928E-02 0. -1.
       -1   -1    0    0    0  501  0.00000000000E+00  0.00000000000E+00 -0.13441469340E+04  0.13441469340E+04  0.50400001928E-02 0.  1.
    10030    2    1    2    0    0  0.00000000000E+00  0.00000000000E+00  0.82156246688E+03  0.35098563348E+04  0.34123491328E+04 0.  0.
        2    1    3    3  502    0 -0.43639708225E+03  0.79520475582E+03 -0.10755853881E+04  0.14070099304E+04  0.25500000920E-02 0.  1.
       -2    1    3    3    0  502  0.43639708225E+03 -0.79520475582E+03  0.18971478550E+04  0.21028464045E+04  0.25500000920E-02 0. -1.
</event>
<event>
 5   0  0.8528625E-08  0.3972057E+04  0.7818609E-02  0.8010207E-01
        1   -1    0    0  501    0  0.00000000000E+00  0.00000000000E+00  0.13480252987E+04  0.13480252987E+04  0.50400001928E-02 0. -1.
       -1   -1    0    0    0  501  0.00000000000E+00  0.00000000000E+00 -0.29259902911E+04  0.29259902911E+04  0.50400001928E-02 0.  1.
    10030    2    1    2    0    0  0.00000000000E+00  0.00000000000E+00 -0.15779649925E+04  0.42740155898E+04  0.39720568657E+04 0.  0.
        2    1    3    3  502    0  0.17927229821E+04  0.81050439877E+03 -0.10807723911E+04  0.22447365174E+04  0.25500000920E-02 0.  1.
       -2    1    3    3    0  502 -0.17927229821E+04 -0.81050439877E+03 -0.49719260138E+03  0.20292790725E+04  0.25500000920E-02 0. -1.
</event>
<event>
 5   0  0.8528625E-08  0.3404384E+04  0.7818609E-02  0.8136831E-01
        1   -1    0    0  501    0  0.00000000000E+00  0.00000000000E+00  0.22075716798E+04  0.22075716799E+04  0.50400001928E-02 0. -1.
       -1   -1    0    0    0  501  0.00000000000E+00  0.00000000000E+00 -0.13125086556E+04  0.13125086556E+04  0.50400001928E-02 0.  1.
    10030    2    1    2    0    0  0.00000000000E+00  0.00000000000E+00  0.89506302426E+03  0.35200803354E+04  0.34043836080E+04 0.  0.
        2    1    3    3  502    0 -0.15333397032E+04 -0.41859896713E+03  0.10774150556E+04  0.19202028389E+04  0.25500000920E-02 0. -1.
       -2    1    3    3    0  502  0.15333397032E+04  0.41859896713E+03 -0.18235203134E+03  0.15998774965E+04  0.25500000920E-02 0.  1.
</event>
<event>
 5   0  0.2661693E-07  0.3659284E+04  0.7818609E-02  0.8077045E-01
       -2   -1    0    0    0  501  0.00000000000E+00  0.00000000000E+00  0.12065573587E+04  0.12065573587E+04  0.25500000920E-02 0. -1.
        2   -1    0    0  501    0  0.00000000000E+00  0.00000000000E+00 -0.27744974650E+04  0.27744974650E+04  0.25500000920E-02 0.  1.
    10030    2    1    2    0    0  0.00000000000E+00  0.00000000000E+00 -0.15679401063E+04  0.39810548237E+04  0.36592842651E+04 0.  0.
        1    1    3    3  502    0  0.98930122112E+03  0.11855136018E+04 -0.18518250934E+04  0.24111025658E+04  0.50400001928E-02 0.  1.
       -1    1    3    3    0  502 -0.98930122112E+03 -0.11855136018E+04  0.28388498712E+03  0.15699522579E+04  0.50400001928E-02 0. -1.
</event>
<event>
 5   0  0.8528625E-08  0.3975672E+04  0.7818609E-02  0.8009472E-01
       -1   -1    0    0    0  501  0.00000000000E+00  0.00000000000E+00  0.17814500507E+04  0.17814500507E+04  0.50400001928E-02 0. -1.
        1   -1    0    0  501    0  0.00000000000E+00  0.00000000000E+00 -0.22181321496E+04  0.22181321496E+04  0.50400001928E-02 0.  1.
    10030    2    1    2    0    0  0.00000000000E+00  0.00000000000E+00 -0.43668209887E+03  0.39995822003E+04  0.39756718328E+04 0.  0.
        5    1    3    3  502    0 -0.13007313999E+04 -0.14138296358E+04 -0.73195352903E+03  0.20558683013E+04  0.46999998093E+01 0.  1.
       -5    1    3    3    0  502  0.13007313999E+04  0.14138296358E+04  0.29527143017E+03  0.19437138990E+04  0.46999998093E+01 0. -1.
</event>
<event>
 5   0  0.8528625E-08  0.3771142E+04  0.7818609E-02  0.8052376E-01
        1   -1    0    0  501    0  0.00000000000E+00  0.00000000000E+00  0.19502741391E+04  0.19502741391E+04  0.50400001928E-02 0.  1.
       -1   -1    0    0    0  501  0.00000000000E+00  0.00000000000E+00 -0.18230144259E+04  0.18230144259E+04  0.50400001928E-02 0. -1.
    10030    2    1    2    0    0  0.00000000000E+00  0.00000000000E+00  0.12725971320E+03  0.37732885650E+04  0.37711419438E+04 0.  0.
        2    1    3    3  502    0  0.10499333178E+04 -0.15248069565E+04 -0.29431902978E+03  0.18745719292E+04  0.25500000920E-02 0.  1.
       -2    1    3    3    0  502 -0.10499333178E+04  0.15248069565E+04  0.42157874298E+03  0.18987166358E+04  0.25500000920E-02 0. -1.
</event>
<event>
 5   0  0.8583262E-08  0.3985180E+04  0.7818609E-02  0.8007543E-01
       -1   -1    0    0    0  501  0.00000000000E+00  0.00000000000E+00  0.30253976594E+04  0.30253976594E+04  0.50400001928E-02 0. -1.
        1   -1    0    0  501    0  0.00000000000E+00  0.00000000000E+00 -0.13123611761E+04  0.13123611761E+04  0.50400001928E-02 0.  1.
    10030    2    1    2    0    0  0.00000000000E+00  0.00000000000E+00  0.17130364834E+04  0.43377588355E+04  0.39851797603E+04 0.  0.
        1    1    3    3  502    0  0.11635518515E+04  0.12097871771E+03  0.26122773493E+04  0.28622511614E+04  0.50400001928E-02 0. -1.
       -1    1    3    3    0  502 -0.11635518515E+04 -0.12097871771E+03 -0.89924086599E+03  0.14755076741E+04  0.50400001928E-02 0.  1.
</event>
<event>
 5   0  0.2704088E-07  0.4037385E+04  0.7818609E-02  0.7997047E-01
        2   -1    0    0  501    0  0.00000000000E+00  0.00000000000E+00  0.27930442751E+04  0.27930442751E+04  0.25500000920E-02 0. -1.
       -2   -1    0    0    0  501  0.00000000000E+00  0.00000000000E+00 -0.14590240664E+04  0.14590240664E+04  0.25500000920E-02 0.  1.
    10030    2    1    2    0    0  0.00000000000E+00  0.00000000000E+00  0.13340202086E+04  0.42520683415E+04  0.40373847060E+04 0.  0.
        5    1    3    3  502    0 -0.10368029939E+04 -0.13893601980E+04 -0.42230705843E+03  0.17842778790E+04  0.46999998093E+01 0. -1.
       -5    1    3    3    0  502  0.10368029939E+04  0.13893601980E+04  0.17563272671E+04  0.24677904625E+04  0.46999998093E+01 0.  1.
</event>
<event>
 5   0  0.2704088E-07  0.3997837E+04  0.7818609E-02  0.8004983E-01
       -2   -1    0    0    0  501  0.00000000000E+00  0.00000000000E+00  0.19841176757E+04  0.19841176757E+04  0.25500000920E-02 0.  1.
        2   -1    0    0  501    0  0.00000000000E+00  0.00000000000E+00 -0.20138292661E+04  0.20138292661E+04  0.25500000920E-02 0. -1.
    10030    2    1    2    0    0  0.00000000000E+00  0.00000000000E+00 -0.29711590407E+02  0.39979469418E+04  0.39978365363E+04 0.  0.
        5    1    3    3  502    0 -0.45103262257E+03  0.64669774903E+03  0.18220410732E+04  0.19853221823E+04  0.46999998093E+01 0.  1.
       -5    1    3    3    0  502  0.45103262257E+03 -0.64669774903E+03 -0.18517526636E+04  0.20126247595E+04  0.46999998093E+01 0. -1.
</event>
<event>
 5   0  0.2666978E-07  0.3778380E+04  0.7818609E-02  0.8050810E-01
       -2   -1    0    0    0  501  0.00000000000E+00  0.00000000000E+00  0.22099593539E+04  0.22099593539E+04  0.25500000920E-02 0. -1.
        2   -1    0    0  501    0  0.00000000000E+00  0.00000000000E+00 -0.16149795722E+04  0.16149795722E+04  0.25500000920E-02 0.  1.
    10030    2    1    2    0    0  0.00000000000E+00  0.00000000000E+00  0.59497978165E+03  0.38249389261E+04  0.37783801884E+04 0.  0.
        4    1    3    3  502    0  0.14911047057E+04 -0.96836323232E+03  0.94404382012E+03  0.20130427070E+04  0.12699999809E+01 0. -1.
       -4    1    3    3    0  502 -0.14911047057E+04  0.96836323232E+03 -0.34906403847E+03  0.18118962191E+04  0.12699999809E+01 0.  1.
</event>
<event>
 5   0  0.8528625E-08  0.3724867E+04  0.7818609E-02  0.8062473E-01
        1   -1    0    0  501    0  0.00000000000E+00  0.00000000000E+00  0.10982182261E+04  0.10982182261E+04  0.50400001928E-02 0. -1.
       -1   -1    0    0    0  501  0.00000000000E+00  0.00000000000E+00 -0.31584413688E+04  0.31584413688E+04  0.50400001928E-02 0.  1.
    10030    2    1    2    0    0  0.00000000000E+00  0.00000000000E+00 -0.20602231427E+04  0.42566595949E+04  0.37248666432E+04 0.  0.
        5    1    3    3  502    0  0.40847727893E+03 -0.17766451835E+04 -0.14657356818E+04  0.23391718566E+04  0.46999998093E+01 0.  1.
       -5    1    3    3    0  502 -0.40847727893E+03  0.17766451835E+04 -0.59448746085E+03  0.19174877383E+04  0.46999998093E+01 0. -1.
</event>
<event>
 5   0  0.2730801E-07  0.3988947E+04  0.7818609E-02  0.8006780E-01
        2   -1    0    0  501    0  0.00000000000E+00  0.00000000000E+00  0.12629743302E+04  0.12629743302E+04  0.25500000920E-02 0. -1.
       -2   -1    0    0    0  501  0.00000000000E+00  0.00000000000E+00 -0.31496473643E+04  0.31496473643E+04  0.25500000920E-02 0.  1.
    10030    2    1    2    0    0  0.00000000000E+00  0.00000000000E+00 -0.18866730341E+04  0.44126216945E+04  0.39889466130E+04 0.  0.
        2    1    3    3  502    0 -0.33627821186E+03 -0.22135898141E+03  0.12175581782E+04  0.12823925888E+04  0.25500000920E-02 0. -1.
       -2    1    3    3    0  502  0.33627821186E+03  0.22135898141E+03 -0.31042312124E+04  0.31302291057E+04  0.25500000920E-02 0.  1.
</event>
<event>
 5   0  0.8528625E-08  0.4019138E+04  0.7818609E-02  0.8000697E-01
       -1   -1    0    0    0  501  0.00000000000E+00  0.00000000000E+00  0.12514940778E+04  0.12514940778E+04  0.50400001928E-02 0.  1.
        1   -1    0    0  501    0  0.00000000000E+00  0.00000000000E+00 -0.32268376109E+04  0.32268376110E+04  0.50400001928E-02 0. -1.
    10030    2    1    2    0    0  0.00000000000E+00  0.00000000000E+00 -0.19753435332E+04  0.44783316887E+04  0.40191382957E+04 0.  0.
        2    1    3    3  502    0 -0.10214529013E+04 -0.83116466219E+03 -0.26790483886E+04  0.29852137266E+04  0.25500000920E-02 0. -1.
       -2    1    3    3    0  502  0.10214529013E+04  0.83116466219E+03  0.70370485543E+03  0.14931179621E+04  0.25500000920E-02 0.  1.
</event>
<event>
 5   0  0.2730801E-07  0.3965542E+04  0.7818609E-02  0.8011534E-01
       -2   -1    0    0    0  501  0.00000000000E+00  0.00000000000E+00  0.21646016770E+04  0.21646016770E+04  0.25500000920E-02 0.  1.
        2   -1    0    0  501    0  0.00000000000E+00  0.00000000000E+00 -0.18162148004E+04  0.18162148004E+04  0.25500000920E-02 0. -1.
    10030    2    1    2    0    0  0.00000000000E+00  0.00000000000E+00  0.34838687666E+03  0.39808164774E+04  0.39655423855E+04 0.  0.
        2    1    3    3  502    0  0.16828694753E+04  0.10431275284E+04  0.67875679107E+02  0.19811036872E+04  0.25500000920E-02 0.  1.
       -2    1    3    3    0  502 -0.16828694753E+04 -0.10431275284E+04  0.28051119755E+03  0.19997127902E+04  0.25500000920E-02 0. -1.
</event>
<event>
 5   0  0.8528625E-08  0.3903099E+04  0.7818609E-02  0.8024385E-01
       -1   -1    0    0    0  501  0.00000000000E+00  0.00000000000E+00  0.18853059935E+04  0.18853059935E+04  0.50400001928E-02 0. -1.
        1   -1    0    0  501    0  0.00000000000E+00  0.00000000000E+00 -0.20201203171E+04  0.20201203171E+04  0.50400001928E-02 0.  1.
    10030    2    1    2    0    0  0.00000000000E+00  0.00000000000E+00 -0.13481432360E+03  0.39054263106E+04  0.39030987389E+04 0.  0.
        5    1    3    3  502    0 -0.10205794929E+04 -0.47328929040E+03 -0.16630172050E+04  0.20077932084E+04  0.46999998093E+01 0.  1.
       -5    1    3    3    0  502  0.10205794929E+04  0.47328929040E+03  0.15282028814E+04  0.18976331022E+04  0.46999998093E+01 0. -1.
</event>
<event>
 5   0  0.2666978E-07  0.4036905E+04  0.7818609E-02  0.7997143E-01
        2   -1    0    0  501    0  0.00000000000E+00  0.00000000000E+00  0.32259515075E+04  0.32259515075E+04  0.25500000920E-02 0.  1.
       -2   -1    0    0    0  501  0.00000000000E+00  0.00000000000E+00 -0.12629297216E+04  0.12629297216E+04  0.25500000920E-02 0. -1.
    10030    2    1    2    0    0  0.00000000000E+00  0.00000000000E+00  0.19630217859E+04  0.44888812292E+04  0.40369047744E+04 0.  0.
        4    1    3    3  502    0  0.26648478391E+03  0.65130398091E+03 -0.11221060558E+04  0.13245129781E+04  0.12699999809E+01 0. -1.
       -4    1    3    3    0  502 -0.26648478391E+03 -0.65130398091E+03  0.30851278418E+04  0.31643682511E+04  0.12699999809E+01 0.  1.
</event>
<event>
 5   0  0.8583262E-08  0.4058868E+04  0.7818609E-02  0.7992775E-01
        1   -1    0    0  501    0  0.00000000000E+00  0.00000000000E+00  0.18196296415E+04  0.18196296415E+04  0.50400001928E-02 0. -1.
       -1   -1    0    0    0  501  0.00000000000E+00  0.00000000000E+00 -0.22634285794E+04  0.22634285794E+04  0.50400001928E-02 0.  1.
    10030    2    1    2    0    0  0.00000000000E+00  0.00000000000E+00 -0.44379893787E+03  0.40830582210E+04  0.40588676917E+04 0.  0.
        1    1    3    3  502    0  0.27757673884E+03  0.14730040741E+04  0.11543963113E+04  0.18919356998E+04  0.50400001928E-02 0. -1.
       -1    1    3    3    0  502 -0.27757673884E+03 -0.14730040741E+04 -0.15981952492E+04  0.21911225212E+04  0.50400001928E-02 0.  1.
</event>
<event>
 5   0  0.8528625E-08  0.4005263E+04  0.7818609E-02  0.8003486E-01
        1   -1    0    0  501    0  0.00000000000E+00  0.00000000000E+00  0.19900683003E+04  0.19900683003E+04  0.50400001928E-02 0.  1.
       -1   -1    0    0    0  501  0.00000000000E+00  0.00000000000E+00 -0.20152736447E+04  0.20152736448E+04  0.50400001928E-02 0. -1.
    10030    2    1    2    0    0  0.00000000000E+00  0.00000000000E+00 -0.25205344409E+02  0.40053419451E+04  0.40052626366E+04 0.  0.
        5    1    3    3  502    0 -0.11726243560E+04  0.10626183203E+04 -0.12399429614E+04  0.20103945415E+04  0.46999998093E+01 0. -1.
       -5    1    3    3    0  502  0.11726243560E+04 -0.10626183203E+04  0.12147376170E+04  0.19949474036E+04  0.46999998093E+01 0.  1.
</event>
<event>
 5   0  0.8583262E-08  0.3979097E+04  0.7818609E-02  0.8008777E-01
        1   -1    0    0  501    0  0.00000000000E+00  0.00000000000E+00  0.17393644539E+04  0.17393644539E+04  0.50400001928E-02 0.  1.
       -1   -1    0    0    0  501  0.00000000000E+00  0.00000000000E+00 -0.22757177714E+04  0.22757177714E+04  0.50400001928E-02 0. -1.
    10030    2    1    2    0    0  0.00000000000E+00  0.00000000000E+00 -0.53635331753E+03  0.40150822253E+04  0.39790966808E+04 0.  0.
        1    1    3    3  502    0 -0.13337753387E+04 -0.14587057116E+04 -0.39135772319E+02  0.19769447681E+04  0.50400001928E-02 0.  1.
       -1    1    3    3    0  502  0.13337753387E+04  0.14587057116E+04 -0.49721754521E+03  0.20381374572E+04  0.50400001928E-02 0. -1.
</event>
<event>
 5   0  0.2730801E-07  0.3759308E+04  0.7818609E-02  0.8054944E-01
       -2   -1    0    0    0  501  0.00000000000E+00  0.00000000000E+00  0.17777246490E+04  0.17777246490E+04  0.25500000920E-02 0. -1.
        2   -1    0    0  501    0  0.00000000000E+00  0.00000000000E+00 -0.19874277364E+04  0.19874277364E+04  0.25500000920E-02 0.  1.
    10030    2    1    2    0    0  0.00000000000E+00  0.00000000000E+00 -0.20970308740E+03  0.37651523854E+04  0.37593080614E+04 0.  0.
        2    1    3    3  502    0  0.84426802834E+03  0.13428137904E+04 -0.11149638988E+04  0.19388351851E+04  0.25500000920E-02 0.  1.
       -2    1    3    3    0  502 -0.84426802834E+03 -0.13428137904E+04  0.90526081141E+03  0.18263172003E+04  0.25500000920E-02 0. -1.
</event>
<event>
 5   0  0.2839279E-07  0.3982055E+04  0.7818609E-02  0.8008176E-01
       -2   -1    0    0    0  501  0.00000000000E+00  0.00000000000E+00  0.30342677926E+04  0.30342677926E+04  0.25500000920E-02 0. -1.
        2   -1    0    0  501    0  0.00000000000E+00  0.00000000000E+00 -0.13064735942E+04  0.13064735942E+04  0.25500000920E-02 0.  1.
    10030    2    1    2    0    0  0.00000000000E+00  0.00000000000E+00  0.17277941984E+04  0.43407413868E+04  0.39820551221E+04 0.  0.
        3    1    3    3  502    0  0.54255059104E+03  0.32464862077E+03  0.29219278730E+04  0.29895518688E+04  0.10100000352E+00 0. -1.
       -3    1    3    3    0  502 -0.54255059104E+03 -0.32464862077E+03 -0.11941336746E+04  0.13511895181E+04  0.10100000352E+00 0.  1.
</event>
<event>
 5   0  0.8528625E-08  0.3924515E+04  0.7818609E-02  0.8019950E-01
       -1   -1    0    0    0  501  0.00000000000E+00  0.00000000000E+00  0.31883211029E+04  0.31883211029E+04  0.50400001928E-02 0.  1.
        1   -1    0    0  501    0  0.00000000000E+00  0.00000000000E+00 -0.12076747662E+04  0.12076747662E+04  0.50400001928E-02 0. -1.
    10030    2    1    2    0    0  0.00000000000E+00  0.00000000000E+00  0.19806463367E+04  0.43959958691E+04  0.39245152274E+04 0.  0.
        5    1    3    3  502    0  0.18797607925E+04  0.56238667162E+03  0.10189568040E+04  0.22108990171E+04  0.46999998093E+01 0. -1.
       -5    1    3    3    0  502 -0.18797607925E+04 -0.56238667162E+03  0.96168953267E+03  0.21850968520E+04  0.46999998093E+01 0.  1.
</event>
<event>
 5   0  0.2704088E-07  0.4133219E+04  0.7818609E-02  0.7978198E-01
       -2   -1    0    0    0  501  0.00000000000E+00  0.00000000000E+00  0.28121567798E+04  0.28121567798E+04  0.25500000920E-02 0. -1.
        2   -1    0    0  501    0  0.00000000000E+00  0.00000000000E+00 -0.15187183992E+04  0.15187183992E+04  0.25500000920E-02 0.  1.
    10030    2    1    2    0    0  0.00000000000E+00  0.00000000000E+00  0.12934383806E+04  0.43308751790E+04  0.41332187181E+04 0.  0.
        5    1    3    3  502    0 -0.12319962578E+04 -0.56754808066E+03  0.22804225341E+04  0.26533515838E+04  0.46999998093E+01 0. -1.
       -5    1    3    3    0  502  0.12319962578E+04  0.56754808066E+03 -0.98698415353E+03  0.16775235952E+04  0.46999998093E+01 0.  1.
</event>
<event>
 5   0  0.2704088E-07  0.3981171E+04  0.7818609E-02  0.8008356E-01
        2   -1    0    0  501    0  0.00000000000E+00  0.00000000000E+00  0.26834770204E+04  0.26834770204E+04  0.25500000920E-02 0.  1.
       -2   -1    0    0    0  501  0.00000000000E+00  0.00000000000E+00 -0.14766034492E+04  0.14766034492E+04  0.25500000920E-02 0. -1.
    10030    2    1    2    0    0  0.00000000000E+00  0.00000000000E+00  0.12068735712E+04  0.41600804696E+04  0.39811713976E+04 0.  0.
        5    1    3    3  502    0  0.97877744511E+03 -0.31521031150E+03 -0.11775774912E+04  0.15633533399E+04  0.46999998093E+01 0. -1.
       -5    1    3    3    0  502 -0.97877744511E+03  0.31521031150E+03  0.23844510624E+04  0.25967271297E+04  0.46999998093E+01 0.  1.
</event>
<event>
 5   0  0.2704088E-07  0.3970324E+04  0.7818609E-02  0.8010560E-01
        2   -1    0    0  501    0  0.00000000000E+00  0.00000000000E+00  0.26310312783E+04  0.26310312783E+04  0.25500000920E-02 0.  1.
       -2   -1    0    0    0  501  0.00000000000E+00  0.00000000000E+00 -0.14978419508E+04  0.14978419508E+04  0.25500000920E-02 0. -1.
    10030    2    1    2    0    0  0.00000000000E+00  0.00000000000E+00  0.11331893275E+04  0.41288732291E+04  0.39703244313E+04 0.  0.
        5    1    3    3  502    0 -0.84658845302E+03  0.15672484464E+04 -0.34467858152E+03  0.18143332428E+04  0.46999998093E+01 0. -1.
       -5    1    3    3    0  502  0.84658845302E+03 -0.15672484464E+04  0.14778679091E+04  0.23145399863E+04  0.46999998093E+01 0.  1.
</event>
<event>
 5   0  0.8583262E-08  0.3363323E+04  0.7818609E-02  0.8146967E-01
        1   -1    0    0  501    0  0.00000000000E+00  0.00000000000E+00  0.20840497866E+04  0.20840497866E+04  0.50400001928E-02 0.  1.
       -1   -1    0    0    0  501  0.00000000000E+00  0.00000000000E+00 -0.13569665406E+04  0.13569665406E+04  0.50400001928E-02 0. -1.
    10030    2    1    2    0    0  0.00000000000E+00  0.00000000000E+00  0.72708324603E+03  0.34410163272E+04  0.33633232550E+04 0.  0.
        1    1    3    3  502    0 -0.12782931232E+04  0.18614076648E+03  0.14651235846E+04  0.19532713104E+04  0.50400001928E-02 0.  1.
       -1    1    3    3    0  502  0.12782931232E+04 -0.18614076648E+03 -0.73804033853E+03  0.14877450168E+04  0.50400001928E-02 0. -1.
</event>
<event>
 5   0  0.2666978E-07  0.3970151E+04  0.7818609E-02  0.8010595E-01
        2   -1    0    0  501    0  0.00000000000E+00  0.00000000000E+00  0.22719113692E+04  0.22719113692E+04  0.25500000920E-02 0.  1.
       -2   -1    0    0    0  501  0.00000000000E+00  0.00000000000E+00 -0.17344538771E+04  0.17344538771E+04  0.25500000920E-02 0. -1.
    10030    2    1    2    0    0  0.00000000000E+00  0.00000000000E+00  0.53745749211E+03  0.40063652464E+04  0.39701513739E+04 0.  0.
        4    1    3    3  502    0  0.45597933625E+02 -0.17398995764E+04  0.12320007501E+04  0.21324064267E+04  0.12699999809E+01 0.  1.
       -4    1    3    3    0  502 -0.45597933625E+02  0.17398995764E+04 -0.69454325804E+03  0.18739588196E+04  0.12699999809E+01 0. -1.
</event>
<event>
 5   0  0.8583262E-08  0.4027173E+04  0.7818609E-02  0.7999087E-01
       -1   -1    0    0    0  501  0.00000000000E+00  0.00000000000E+00  0.13497980586E+04  0.13497980586E+04  0.50400001928E-02 0. -1.
        1   -1    0    0  501    0  0.00000000000E+00  0.00000000000E+00 -0.30038052229E+04  0.30038052229E+04  0.50400001928E-02 0.  1.
    10030    2    1    2    0    0  0.00000000000E+00  0.00000000000E+00 -0.16540071643E+04  0.43536032814E+04  0.40271729330E+04 0.  0.
        1    1    3    3  502    0 -0.45615195023E+03 -0.13809429026E+04  0.67852204528E+03  0.16048271146E+04  0.50400001928E-02 0. -1.
       -1    1    3    3    0  502  0.45615195023E+03  0.13809429026E+04 -0.23325292096E+04  0.27487761668E+04  0.50400001928E-02 0.  1.
</event>
<event>
 5   0  0.8528625E-08  0.3814785E+04  0.7818609E-02  0.8042990E-01
        1   -1    0    0  501    0  0.00000000000E+00  0.00000000000E+00  0.24605172631E+04  0.24605172631E+04  0.50400001928E-02 0.  1.
       -1   -1    0    0    0  501  0.00000000000E+00  0.00000000000E+00 -0.14786101361E+04  0.14786101361E+04  0.50400001928E-02 0. -1.
    10030    2    1    2    0    0  0.00000000000E+00  0.00000000000E+00  0.98190712704E+03  0.39391273992E+04  0.38147847987E+04 0.  0.
        3    1    3    3  502    0  0.15142271597E+04 -0.10300492016E+04 -0.59585634921E+02  0.18323306761E+04  0.10100000352E+00 0. -1.
       -3    1    3    3    0  502 -0.15142271597E+04  0.10300492016E+04  0.10414927620E+04  0.21067967230E+04  0.10100000352E+00 0.  1.
</event>
<event>
 5   0  0.8528625E-08  0.3489130E+04  0.7818609E-02  0.8116371E-01
        1   -1    0    0  501    0  0.00000000000E+00  0.00000000000E+00  0.99341276760E+03  0.99341276762E+03  0.50400001928E-02 0. -1.
       -1   -1    0    0    0  501  0.00000000000E+00  0.00000000000E+00 -0.30636880417E+04  0.30636880417E+04  0.50400001928E-02 0.  1.
    10030    2    1    2    0    0  0.00000000000E+00  0.00000000000E+00 -0.20702752741E+04  0.40571008094E+04  0.34891298724E+04 0.  0.
        4    1    3    3  502    0 -0.10250178831E+04 -0.10235884351E+04 -0.21655578190E+04  0.26053861951E+04  0.12699999809E+01 0.  1.
       -4    1    3    3    0  502  0.10250178831E+04  0.10235884351E+04  0.95282544880E+02  0.14517146143E+04  0.12699999809E+01 0. -1.
</event>
<event>
 5   0  0.2666978E-07  0.3980037E+04  0.7818609E-02  0.8008586E-01
       -2   -1    0    0    0  501  0.00000000000E+00  0.00000000000E+00  0.22344865900E+04  0.22344865900E+04  0.25500000920E-02 0. -1.
        2   -1    0    0  501    0  0.00000000000E+00  0.00000000000E+00 -0.17722965010E+04  0.17722965010E+04  0.25500000920E-02 0.  1.
    10030    2    1    2    0    0  0.00000000000E+00  0.00000000000E+00  0.46219008899E+03  0.40067830910E+04  0.39800365651E+04 0.  0.
        4    1    3    3  502    0  0.17819118425E+04 -0.76235846961E+03 -0.22334841132E+03  0.19509706241E+04  0.12699999809E+01 0.  1.
       -4    1    3    3    0  502 -0.17819118425E+04  0.76235846961E+03  0.68553850031E+03  0.20558124668E+04  0.12699999809E+01 0. -1.
</event>
<event>
 5   0  0.8528625E-08  0.3982817E+04  0.7818609E-02  0.8008022E-01
       -1   -1    0    0    0  501  0.00000000000E+00  0.00000000000E+00  0.18110777119E+04  0.18110777119E+04  0.50400001928E-02 0. -1.
        1   -1    0    0  501    0  0.00000000000E+00  0.00000000000E+00 -0.21896954287E+04  0.21896954287E+04  0.50400001928E-02 0.  1.
    10030    2    1    2    0    0  0.00000000000E+00  0.00000000000E+00 -0.37861771685E+03  0.40007731407E+04  0.39828173882E+04 0.  0.
        4    1    3    3  502    0  0.13519673766E+04 -0.14148190959E+04  0.18137799743E+03  0.19653061981E+04  0.12699999809E+01 0. -1.
       -4    1    3    3    0  502 -0.13519673766E+04  0.14148190959E+04 -0.55999571427E+03  0.20354669426E+04  0.12699999809E+01 0.  1.
</event>
<event>
 5   0  0.8528625E-08  0.3916363E+04  0.7818609E-02  0.8021635E-01
       -1   -1    0    0    0  501  0.00000000000E+00  0.00000000000E+00  0.18138694248E+04  0.18138694248E+04  0.50400001928E-02 0.  1.
        1   -1    0    0  501    0  0.00000000000E+00  0.00000000000E+00 -0.21139745977E+04  0.21139745978E+04  0.50400001928E-02 0. -1.
    10030    2    1    2    0    0  0.00000000000E+00  0.00000000000E+00 -0.30010517292E+03  0.39278440226E+04  0.39163625408E+04 0.  0.
        3    1    3    3  502    0  0.26679055011E+03 -0.64530109972E+03 -0.19848647972E+04  0.21041100210E+04  0.10100000352E+00 0. -1.
       -3    1    3    3    0  502 -0.26679055011E+03  0.64530109972E+03  0.16847596243E+04  0.18237340016E+04  0.10100000352E+00 0.  1.
</event>
<event>
 5   0  0.2661693E-07  0.4078020E+04  0.7818609E-02  0.7988990E-01
        2   -1    0    0  501    0  0.00000000000E+00  0.00000000000E+00  0.15271155633E+04  0.15271155633E+04  0.25500000920E-02 0.  1.
       -2   -1    0    0    0  501  0.00000000000E+00  0.00000000000E+00 -0.27224934672E+04  0.27224934672E+04  0.25500000920E-02 0. -1.
    10030    2    1    2    0    0  0.00000000000E+00  0.00000000000E+00 -0.11953779039E+04  0.42496090305E+04  0.40780201789E+04 0.  0.
        1    1    3    3  502    0 -0.62666120229E+02 -0.39907274475E+03  0.14849984027E+04  0.15389627528E+04  0.50400001928E-02 0.  1.
       -1    1    3    3    0  502  0.62666120229E+02  0.39907274475E+03 -0.26803763066E+04  0.27106462778E+04  0.50400001928E-02 0. -1.
</event>
<event>
 5   0  0.2704088E-07  0.3996746E+04  0.7818609E-02  0.8005203E-01
       -2   -1    0    0    0  501  0.00000000000E+00  0.00000000000E+00  0.28357232906E+04  0.28357232906E+04  0.25500000920E-02 0. -1.
        2   -1    0    0  501    0  0.00000000000E+00  0.00000000000E+00 -0.14082806858E+04  0.14082806858E+04  0.25500000920E-02 0.  1.
    10030    2    1    2    0    0  0.00000000000E+00  0.00000000000E+00  0.14274426048E+04  0.42440039764E+04  0.39967458465E+04 0.  0.
        5    1    3    3  502    0  0.33995822358E+02 -0.10572860907E+03 -0.14049952796E+04  0.14093857103E+04  0.46999998093E+01 0.  1.
       -5    1    3    3    0  502 -0.33995822358E+02  0.10572860907E+03  0.28324378845E+04  0.28346182660E+04  0.46999998093E+01 0. -1.
</event>
<event>
 5   0  0.8528625E-08  0.3488177E+04  0.7818609E-02  0.8116598E-01
        1   -1    0    0  501    0  0.00000000000E+00  0.00000000000E+00  0.12996503006E+04  0.12996503006E+04  0.50400001928E-02 0. -1.
       -1   -1    0    0    0  501  0.00000000000E+00  0.00000000000E+00 -0.23405103899E+04  0.23405103899E+04  0.50400001928E-02 0.  1.
    10030    2    1    2    0    0  0.00000000000E+00  0.00000000000E+00 -0.10408600893E+04  0.36401606905E+04  0.34881771926E+04 0.  0.
        4    1    3    3  502    0  0.48775238183E+02 -0.17422810162E+04 -0.45508170034E+03  0.18013947736E+04  0.12699999809E+01 0.  1.
       -4    1    3    3    0  502 -0.48775238183E+02  0.17422810162E+04 -0.58577838899E+03  0.18387659169E+04  0.12699999809E+01 0. -1.
</event>
<event>
 5   0  0.2666978E-07  0.3973284E+04  0.7818609E-02  0.8009958E-01
       -2   -1    0    0    0  501  0.00000000000E+00  0.00000000000E+00  0.17459046372E+04  0.17459046372E+04  0.25500000920E-02 0.  1.
        2   -1    0    0  501    0  0.00000000000E+00  0.00000000000E+00 -0.22605733943E+04  0.22605733943E+04  0.25500000920E-02 0. -1.
    10030    2    1    2    0    0  0.00000000000E+00  0.00000000000E+00 -0.51466875713E+03  0.40064780315E+04  0.39732835650E+04 0.  0.
        4    1    3    3  502    0 -0.78494079069E+03 -0.15433512292E+04 -0.12394730802E+04  0.21294037173E+04  0.12699999809E+01 0. -1.
       -4    1    3    3    0  502  0.78494079069E+03  0.15433512292E+04  0.72480432307E+03  0.18770743143E+04  0.12699999809E+01 0.  1.
</event>
<event>
 5   0  0.2730801E-07  0.3998537E+04  0.7818609E-02  0.8004842E-01
        2   -1    0    0  501    0  0.00000000000E+00  0.00000000000E+00  0.27484352523E+04  0.27484352523E+04  0.25500000920E-02 0. -1.
       -2   -1    0    0    0  501  0.00000000000E+00  0.00000000000E+00 -0.14543089070E+04  0.14543089070E+04  0.25500000920E-02 0.  1.
    10030    2    1    2    0    0  0.00000000000E+00  0.00000000000E+00  0.12941263453E+04  0.42027441592E+04  0.39985366661E+04 0.  0.
        2    1    3    3  502    0  0.11890683751E+04  0.50961606989E+03 -0.95508065598E+03  0.16080333326E+04  0.25500000920E-02 0.  1.
       -2    1    3    3    0  502 -0.11890683751E+04 -0.50961606989E+03  0.22492070013E+04  0.25947108267E+04  0.25500000920E-02 0. -1.
</event>
<event>
 5   0  0.8583262E-08  0.4008138E+04  0.7818609E-02  0.8002907E-01
        1   -1    0    0  501    0  0.00000000000E+00  0.00000000000E+00  0.22154252632E+04  0.22154252632E+04  0.50400001928E-02 0. -1.
       -1   -1    0    0    0  501  0.00000000000E+00  0.00000000000E+00 -0.18128763377E+04  0.18128763377E+04  0.50400001928E-02 0.  1.
    10030    2    1    2    0    0  0.00000000000E+00  0.00000000000E+00  0.40254892552E+03  0.40283016009E+04  0.40081377410E+04 0.  0.
        1    1    3    3  502    0  0.18311449938E+04 -0.81370261796E+03  0.16812217314E+03  0.20108378860E+04  0.50400001928E-02 0.  1.
       -1    1    3    3    0  502 -0.18311449938E+04  0.81370261796E+03  0.23442675238E+03  0.20174637149E+04  0.50400001928E-02 0. -1.
</event>
<event>
 5   0  0.2730801E-07  0.3867629E+04  0.7818609E-02  0.8031796E-01
       -2   -1    0    0    0  501  0.00000000000E+00  0.00000000000E+00  0.16706489481E+04  0.16706489481E+04  0.25500000920E-02 0.  1.
        2   -1    0    0  501    0  0.00000000000E+00  0.00000000000E+00 -0.22384349769E+04  0.22384349769E+04  0.25500000920E-02 0. -1.
    10030    2    1    2    0    0  0.00000000000E+00  0.00000000000E+00 -0.56778602876E+03  0.39090839250E+04  0.38676292684E+04 0.  0.
        2    1    3    3  502    0 -0.64706733356E+03  0.12069201771E+04  0.10961305252E+04  0.17540965128E+04  0.25500000920E-02 0.  1.
       -2    1    3    3    0  502  0.64706733356E+03 -0.12069201771E+04 -0.16639165539E+04  0.21549874121E+04  0.25500000920E-02 0. -1.
</event>
<event>
 5   0  0.8528625E-08  0.4011573E+04  0.7818609E-02  0.8002216E-01
       -1   -1    0    0    0  501  0.00000000000E+00  0.00000000000E+00  0.18109878212E+04  0.18109878212E+04  0.50400001928E-02 0.  1.
        1   -1    0    0  501    0  0.00000000000E+00  0.00000000000E+00 -0.22215381933E+04  0.22215381933E+04  0.50400001928E-02 0. -1.
    10030    2    1    2    0    0  0.00000000000E+00  0.00000000000E+00 -0.41055037216E+03  0.40325260145E+04  0.40115725657E+04 0.  0.
        2    1    3    3  502    0  0.11637365835E+04 -0.75218487758E+03 -0.16630616053E+04  0.21646798444E+04  0.25500000920E-02 0. -1.
       -2    1    3    3    0  502 -0.11637365835E+04  0.75218487758E+03  0.12525112331E+04  0.18678461701E+04  0.25500000920E-02 0.  1.
</event>
<event>
 5   0  0.8583262E-08  0.3986900E+04  0.7818609E-02  0.8007194E-01
       -1   -1    0    0    0  501  0.00000000000E+00  0.00000000000E+00  0.23328987033E+04  0.23328987033E+04  0.50400001928E-02 0.  1.
        1   -1    0    0  501    0  0.00000000000E+00  0.00000000000E+00 -0.17033928072E+04  0.17033928072E+04  0.50400001928E-02 0. -1.
    10030    2    1    2    0    0  0.00000000000E+00  0.00000000000E+00  0.62950589608E+03  0.40362915105E+04  0.39868999843E+04 0.  0.
        1    1    3    3  502    0  0.31589944348E+03  0.13328930613E+04  0.17809509705E+04  0.22468161319E+04  0.50400001928E-02 0.  1.
       -1    1    3    3    0  502 -0.31589944348E+03 -0.13328930613E+04 -0.11514450744E+04  0.17894753786E+04  0.50400001928E-02 0. -1.
</event>
<event>
 5   0  0.2661693E-07  0.3995161E+04  0.7818609E-02  0.8005524E-01
        2   -1    0    0  501    0  0.00000000000E+00  0.00000000000E+00  0.21982295659E+04  0.21982295659E+04  0.25500000920E-02 0. -1.
       -2   -1    0    0    0  501  0.00000000000E+00  0.00000000000E+00 -0.18152458708E+04  0.18152458708E+04  0.25500000920E-02 0.  1.
    10030    2    1    2    0    0  0.00000000000E+00  0.00000000000E+00  0.38298369509E+03  0.40134754367E+04  0.39951606438E+04 0.  0.
        1    1    3    3  502    0 -0.51396814823E+03 -0.69424452371E+03  0.20009118953E+04  0.21794006352E+04  0.50400001928E-02 0. -1.
       -1    1    3    3    0  502  0.51396814823E+03  0.69424452371E+03 -0.16179282002E+04  0.18340748014E+04  0.50400001928E-02 0.  1.
</event>
<event>
 5   0  0.2730801E-07  0.4083778E+04  0.7818609E-02  0.7987856E-01
       -2   -1    0    0    0  501  0.00000000000E+00  0.00000000000E+00  0.19848064974E+04  0.19848064974E+04  0.25500000920E-02 0.  1.
        2   -1    0    0  501    0  0.00000000000E+00  0.00000000000E+00 -0.21006132629E+04  0.21006132629E+04  0.25500000920E-02 0. -1.
    10030    2    1    2    0    0  0.00000000000E+00  0.00000000000E+00 -0.11580676553E+03  0.40854197603E+04  0.40837780805E+04 0.  0.
        2    1    3    3  502    0  0.55393970813E+03 -0.19457192482E+04  0.21904406561E+03  0.20348594290E+04  0.25500000920E-02 0.  1.
       -2    1    3    3    0  502 -0.55393970813E+03  0.19457192482E+04 -0.33485083114E+03  0.20505603313E+04  0.25500000920E-02 0. -1.
</event>
<event>
 5   0  0.8583262E-08  0.3983521E+04  0.7818609E-02  0.8007879E-01
       -1   -1    0    0    0  501  0.00000000000E+00  0.00000000000E+00  0.13616291941E+04  0.13616291941E+04  0.50400001928E-02 0.  1.
        1   -1    0    0  501    0  0.00000000000E+00  0.00000000000E+00 -0.29135030104E+04  0.29135030104E+04  0.50400001928E-02 0. -1.
    10030    2    1    2    0    0  0.00000000000E+00  0.00000000000E+00 -0.15518738163E+04  0.42751322044E+04  0.39835214351E+04 0.  0.
        1    1    3    3  502    0  0.19055152447E+04  0.46690812558E+03 -0.11447808530E+04  0.22714565255E+04  0.50400001928E-02 0. -1.
       -1    1    3    3    0  502 -0.19055152447E+04 -0.46690812558E+03 -0.40709296334E+03  0.20036756790E+04  0.50400001928E-02 0.  1.
</event>
<event>
 5   0  0.8528625E-08  0.3994533E+04  0.7818609E-02  0.8005650E-01
       -1   -1    0    0    0  501  0.00000000000E+00  0.00000000000E+00  0.29450964526E+04  0.29450964526E+04  0.50400001928E-02 0.  1.
        1   -1    0    0  501    0  0.00000000000E+00  0.00000000000E+00 -0.13544795805E+04  0.13544795805E+04  0.50400001928E-02 0. -1.
    10030    2    1    2    0    0  0.00000000000E+00  0.00000000000E+00  0.15906168721E+04  0.42995760332E+04  0.39945327676E+04 0.  0.
        2    1    3    3  502    0  0.45531550239E+03  0.13797143475E+04  0.22704193658E+04  0.26955014346E+04  0.25500000920E-02 0.  1.
       -2    1    3    3    0  502 -0.45531550239E+03 -0.13797143475E+04 -0.67980249371E+03  0.16040745986E+04  0.25500000920E-02 0. -1.
</event>
<event>
 5   0  0.2661693E-07  0.3144894E+04  0.7818609E-02  0.8203524E-01
       -2   -1    0    0    0  501  0.00000000000E+00  0.00000000000E+00  0.11149714557E+04  0.11149714557E+04  0.25500000920E-02 0.  1.
        2   -1    0    0  501    0  0.00000000000E+00  0.00000000000E+00 -0.22176258224E+04  0.22176258224E+04  0.25500000920E-02 0. -1.
    10030    2    1    2    0    0  0.00000000000E+00  0.00000000000E+00 -0.11026543667E+04  0.33325972781E+04  0.31448939514E+04 0.  0.
        1    1    3    3  502    0  0.21826063364E+03  0.15530925049E+04 -0.43117805878E+03  0.16265449737E+04  0.50400001928E-02 0.  1.
       -1    1    3    3    0  502 -0.21826063364E+03 -0.15530925049E+04 -0.67147630794E+03  0.17060523044E+04  0.50400001928E-02 0. -1.
</event>
<event>
 5   0  0.8528625E-08  0.4024387E+04  0.7818609E-02  0.7999645E-01
        1   -1    0    0  501    0  0.00000000000E+00  0.00000000000E+00  0.25923529521E+04  0.25923529521E+04  0.50400001928E-02 0.  1.
       -1   -1    0    0    0  501  0.00000000000E+00  0.00000000000E+00 -0.15618717072E+04  0.15618717072E+04  0.50400001928E-02 0. -1.
    10030    2    1    2    0    0  0.00000000000E+00  0.00000000000E+00  0.10304812449E+04  0.41542246593E+04  0.40243870246E+04 0.  0.
        2    1    3    3  502    0  0.74919316521E+03 -0.36023170380E+03 -0.13763270552E+04  0.16078972113E+04  0.25500000920E-02 0. -1.
       -2    1    3    3    0  502 -0.74919316521E+03  0.36023170380E+03  0.24068083000E+04  0.25463274480E+04  0.25500000920E-02 0.  1.
</event>
<event>
 5   0  0.8528625E-08  0.3990837E+04  0.7818609E-02  0.8006398E-01
        1   -1    0    0  501    0  0.00000000000E+00  0.00000000000E+00  0.22819597426E+04  0.22819597426E+04  0.50400001928E-02 0.  1.
       -1   -1    0    0    0  501  0.00000000000E+00  0.00000000000E+00 -0.17448572856E+04  0.17448572856E+04  0.50400001928E-02 0. -1.
    10030    2    1    2    0    0  0.00000000000E+00  0.00000000000E+00  0.53710245700E+03  0.40268170282E+04  0.39908365450E+04 0.  0.
        3    1    3    3  502    0  0.14240370204E+03  0.19114742962E+04 -0.29113998327E+03  0.19387561217E+04  0.10100000352E+00 0. -1.
       -3    1    3    3    0  502 -0.14240370204E+03 -0.19114742962E+04  0.82824244027E+03  0.20880609065E+04  0.10100000352E+00 0.  1.
</event>
<event>
 5   0  0.2666978E-07  0.3917680E+04  0.7818609E-02  0.8021362E-01
        2   -1    0    0  501    0  0.00000000000E+00  0.00000000000E+00  0.25431043243E+04  0.25431043243E+04  0.25500000920E-02 0. -1.
       -2   -1    0    0    0  501  0.00000000000E+00  0.00000000000E+00 -0.15088068644E+04  0.15088068644E+04  0.25500000920E-02 0.  1.
    10030    2    1    2    0    0  0.00000000000E+00  0.00000000000E+00  0.10342974600E+04  0.40519111887E+04  0.39176795486E+04 0.  0.
        4    1    3    3  502    0 -0.49915480815E+03  0.13019504293E+04 -0.90578870384E+03  0.16627342637E+04  0.12699999809E+01 0.  1.
       -4    1    3    3    0  502  0.49915480815E+03 -0.13019504293E+04  0.19400861638E+04  0.23891769250E+04  0.12699999809E+01 0. -1.
</event>
<event>
 5   0  0.2666978E-07  0.3988795E+04  0.7818609E-02  0.8006811E-01
        2   -1    0    0  501    0  0.00000000000E+00  0.00000000000E+00  0.24990933232E+04  0.24990933232E+04  0.25500000920E-02 0.  1.
       -2   -1    0    0    0  501  0.00000000000E+00  0.00000000000E+00 -0.15916256959E+04  0.15916256959E+04  0.25500000920E-02 0. -1.
    10030    2    1    2    0    0  0.00000000000E+00  0.00000000000E+00  0.90746762734E+03  0.40907190191E+04  0.39887948805E+04 0.  0.
        4    1    3    3  502    0  0.10070443737E+04 -0.14116646242E+02  0.22191391271E+04  0.24369894806E+04  0.12699999809E+01 0.  1.
       -4    1    3    3    0  502 -0.10070443737E+04  0.14116646242E+02 -0.13116714998E+04  0.16537295385E+04  0.12699999809E+01 0. -1.
</event>
<event>
 5   0  0.2666978E-07  0.4014515E+04  0.7818609E-02  0.8001625E-01
        2   -1    0    0  501    0  0.00000000000E+00  0.00000000000E+00  0.25451470612E+04  0.25451470612E+04  0.25500000920E-02 0. -1.
       -2   -1    0    0    0  501  0.00000000000E+00  0.00000000000E+00 -0.15830449262E+04  0.15830449262E+04  0.25500000920E-02 0.  1.
    10030    2    1    2    0    0  0.00000000000E+00  0.00000000000E+00  0.96210213508E+03  0.41281919874E+04  0.40145147361E+04 0.  0.
        4    1    3    3  502    0 -0.59197710143E+02  0.20039850070E+04  0.38019081717E+03  0.20405898529E+04  0.12699999809E+01 0.  1.
       -4    1    3    3    0  502  0.59197710143E+02 -0.20039850070E+04  0.58191131791E+03  0.20876021345E+04  0.12699999809E+01 0. -1.
</event>
<event>
 5   0  0.2839279E-07  0.3998718E+04  0.7818609E-02  0.8004805E-01
       -2   -1    0    0    0  501  0.00000000000E+00  0.00000000000E+00  0.15594844649E+04  0.15594844649E+04  0.25500000920E-02 0.  1.
        2   -1    0    0  501    0  0.00000000000E+00  0.00000000000E+00 -0.25633069368E+04  0.25633069368E+04  0.25500000920E-02 0. -1.
    10030    2    1    2    0    0  0.00000000000E+00  0.00000000000E+00 -0.10038224719E+04  0.41227914017E+04  0.39987184681E+04 0.  0.
        3    1    3    3  502    0  0.18594652535E+04  0.64616057682E+03 -0.86248054886E+03  0.21491875738E+04  0.10100000352E+00 0. -1.
       -3    1    3    3    0  502 -0.18594652535E+04 -0.64616057682E+03 -0.14134192300E+03  0.19736038279E+04  0.10100000352E+00 0.  1.
</event>
<event>
 5   0  0.8583262E-08  0.4034357E+04  0.7818609E-02  0.7997651E-01
       -1   -1    0    0    0  501  0.00000000000E+00  0.00000000000E+00  0.22596565024E+04  0.22596565024E+04  0.50400001928E-02 0. -1.
        1   -1    0    0  501    0  0.00000000000E+00  0.00000000000E+00 -0.18007202506E+04  0.18007202506E+04  0.50400001928E-02 0.  1.
    10030    2    1    2    0    0  0.00000000000E+00  0.00000000000E+00  0.45893625176E+03  0.40603767530E+04  0.40343570607E+04 0.  0.
        1    1    3    3  502    0 -0.14817205900E+04 -0.86433554829E+03 -0.83871453988E+03  0.19094538293E+04  0.50400001928E-02 0. -1.
       -1    1    3    3    0  502  0.14817205900E+04  0.86433554829E+03  0.12976507916E+04  0.21509229237E+04  0.50400001928E-02 0.  1.
</event>
<event>
 5   0  0.2730801E-07  0.3988906E+04  0.7818609E-02  0.8006788E-01
       -2   -1    0    0    0  501  0.00000000000E+00  0.00000000000E+00  0.16359521521E+04  0.16359521521E+04  0.25500000920E-02 0.  1.
        2   -1    0    0  501    0  0.00000000000E+00  0.00000000000E+00 -0.24315151370E+04  0.24315151370E+04  0.25500000920E-02 0. -1.
    10030    2    1    2    0    0  0.00000000000E+00  0.00000000000E+00 -0.79556298493E+03  0.40674672891E+04  0.39889058255E+04 0.  0.
        2    1    3    3  502    0  0.13246849359E+04  0.80516458732E+03 -0.16773919500E+04  0.22840148743E+04  0.25500000920E-02 0. -1.
       -2    1    3    3    0  502 -0.13246849359E+04 -0.80516458732E+03  0.88182896503E+03  0.17834524148E+04  0.25500000920E-02 0.  1.
</event>
<event>
 5   0  0.2661693E-07  0.3986456E+04  0.7818609E-02  0.8007284E-01
       -2   -1    0    0    0  501  0.00000000000E+00  0.00000000000E+00  0.22348263630E+04  0.22348263630E+04  0.25500000920E-02 0.  1.
        2   -1    0    0  501    0  0.00000000000E+00  0.00000000000E+00 -0.17777480764E+04  0.17777480764E+04  0.25500000920E-02 0. -1.
    10030    2    1    2    0    0  0.00000000000E+00  0.00000000000E+00  0.45707828660E+03  0.40125744394E+04  0.39864562046E+04 0.  0.
        1    1    3    3  502    0 -0.13759337486E+04  0.14315755796E+04  0.53168054557E+02  0.19863104397E+04  0.50400001928E-02 0.  1.
       -1    1    3    3    0  502  0.13759337486E+04 -0.14315755796E+04  0.40391023204E+03  0.20262639997E+04  0.50400001928E-02 0. -1.
</event>
<event>
 5   0  0.8528625E-08  0.3958797E+04  0.7818609E-02  0.8012911E-01
        1   -1    0    0  501    0  0.00000000000E+00  0.00000000000E+00  0.28050579702E+04  0.28050579702E+04  0.50400001928E-02 0. -1.
       -1   -1    0    0    0  501  0.00000000000E+00  0.00000000000E+00 -0.13967688900E+04  0.13967688900E+04  0.50400001928E-02 0.  1.
    10030    2    1    2    0    0  0.00000000000E+00  0.00000000000E+00  0.14082890802E+04  0.42018268602E+04  0.39587966391E+04 0.  0.
        2    1    3    3  502    0  0.19453396541E+04 -0.24601285698E+03  0.41708023597E+03  0.20047006307E+04  0.25500000920E-02 0. -1.
       -2    1    3    3    0  502 -0.19453396541E+04  0.24601285698E+03  0.99120884424E+03  0.21971262295E+04  0.25500000920E-02 0.  1.
</event>
<event>
 5   0  0.8528625E-08  0.4026098E+04  0.7818609E-02  0.7999302E-01
        1   -1    0    0  501    0  0.00000000000E+00  0.00000000000E+00  0.12971949521E+04  0.12971949521E+04  0.50400001928E-02 0. -1.
       -1   -1    0    0    0  501  0.00000000000E+00  0.00000000000E+00 -0.31239448890E+04  0.31239448890E+04  0.50400001928E-02 0.  1.
    10030    2    1    2    0    0  0.00000000000E+00  0.00000000000E+00 -0.18267499369E+04  0.44211398411E+04  0.40260976345E+04 0.  0.
        2    1    3    3  502    0 -0.15693120254E+03  0.53869571443E+03 -0.30363416015E+04  0.30877484995E+04  0.25500000920E-02 0.  1.
       -2    1    3    3    0  502  0.15693120254E+03 -0.53869571443E+03  0.12095916645E+04  0.13333913417E+04  0.25500000920E-02 0. -1.
</event>
<event>
 5   0  0.2666978E-07  0.4025603E+04  0.7818609E-02  0.7999401E-01
       -2   -1    0    0    0  501  0.00000000000E+00  0.00000000000E+00  0.22971533394E+04  0.22971533394E+04  0.25500000920E-02 0.  1.
        2   -1    0    0  501    0  0.00000000000E+00  0.00000000000E+00 -0.17636480210E+04  0.17636480210E+04  0.25500000920E-02 0. -1.
    10030    2    1    2    0    0  0.00000000000E+00  0.00000000000E+00  0.53350531842E+03  0.40608013604E+04  0.40256030311E+04 0.  0.
        4    1    3    3  502    0 -0.15087628832E+04 -0.13233839572E+04  0.42190841987E+03  0.20507849384E+04  0.12699999809E+01 0.  1.
       -4    1    3    3    0  502  0.15087628832E+04  0.13233839572E+04  0.11159689854E+03  0.20100164220E+04  0.12699999809E+01 0. -1.
</event>
<event>
 5   0  0.2666978E-07  0.4012879E+04  0.7818609E-02  0.8001953E-01
       -2   -1    0    0    0  501  0.00000000000E+00  0.00000000000E+00  0.19260106598E+04  0.19260106598E+04  0.25500000920E-02 0. -1.
        2   -1    0    0  501    0  0.00000000000E+00  0.00000000000E+00 -0.20902271895E+04  0.20902271895E+04  0.25500000920E-02 0.  1.
    10030    2    1    2    0    0  0.00000000000E+00  0.00000000000E+00 -0.16421652962E+03  0.40162378493E+04  0.40128791900E+04 0.  0.
        4    1    3    3  502    0 -0.86681100588E+03  0.92183809765E+03 -0.16405407647E+04  0.20718403441E+04  0.12699999809E+01 0.  1.
       -4    1    3    3    0  502  0.86681100588E+03 -0.92183809765E+03  0.14763242350E+04  0.19443975052E+04  0.12699999809E+01 0. -1.
</event>
<event>
 5   0  0.2666978E-07  0.3995634E+04  0.7818609E-02  0.8005428E-01
       -2   -1    0    0    0  501  0.00000000000E+00  0.00000000000E+00  0.13653988155E+04  0.13653988155E+04  0.25500000920E-02 0.  1.
        2   -1    0    0  501    0  0.00000000000E+00  0.00000000000E+00 -0.29231549304E+04  0.29231549304E+04  0.25500000920E-02 0. -1.
    10030    2    1    2    0    0  0.00000000000E+00  0.00000000000E+00 -0.15577561150E+04  0.42885537459E+04  0.39956337567E+04 0.  0.
        4    1    3    3  502    0 -0.11975281318E+04 -0.65143339867E+03  0.78860719535E+03  0.15749101628E+04  0.12699999809E+01 0.  1.
       -4    1    3    3    0  502  0.11975281318E+04  0.65143339867E+03 -0.23463633103E+04  0.27136435831E+04  0.12699999809E+01 0. -1.
</event>
<event>
 5   0  0.8528625E-08  0.3977571E+04  0.7818609E-02  0.8009087E-01
        1   -1    0    0  501    0  0.00000000000E+00  0.00000000000E+00  0.20111830385E+04  0.20111830385E+04  0.50400001928E-02 0.  1.
       -1   -1    0    0    0  501  0.00000000000E+00  0.00000000000E+00 -0.19666370418E+04  0.19666370418E+04  0.50400001928E-02 0. -1.
    10030    2    1    2    0    0  0.00000000000E+00  0.00000000000E+00  0.44545996713E+02  0.39778200804E+04  0.39775706462E+04 0.  0.
        3    1    3    3  502    0  0.14830440234E+04  0.12627713895E+04  0.42386497928E+03  0.19934073062E+04  0.10100000352E+00 0.  1.
       -3    1    3    3    0  502 -0.14830440234E+04 -0.12627713895E+04 -0.37931898256E+03  0.19844127742E+04  0.10100000352E+00 0. -1.
</event>
<event>
 5   0  0.8528625E-08  0.3930100E+04  0.7818609E-02  0.8018798E-01
       -1   -1    0    0    0  501  0.00000000000E+00  0.00000000000E+00  0.22484899088E+04  0.22484899088E+04  0.50400001928E-02 0. -1.
        1   -1    0    0  501    0  0.00000000000E+00  0.00000000000E+00 -0.17173403003E+04  0.17173403003E+04  0.50400001928E-02 0.  1.
    10030    2    1    2    0    0  0.00000000000E+00  0.00000000000E+00  0.53114960847E+03  0.39658302091E+04  0.39301004238E+04 0.  0.
        5    1    3    3  502    0  0.31307285413E+03  0.17847438494E+04 -0.50164988902E+03  0.18801595467E+04  0.46999998093E+01 0.  1.
       -5    1    3    3    0  502 -0.31307285413E+03 -0.17847438494E+04  0.10327994975E+04  0.20856706624E+04  0.46999998093E+01 0. -1.
</event>
<event>
 5   0  0.2730801E-07  0.3341117E+04  0.7818609E-02  0.8152511E-01
        2   -1    0    0  501    0  0.00000000000E+00  0.00000000000E+00  0.25785822208E+04  0.25785822208E+04  0.25500000920E-02 0. -1.
       -2   -1    0    0    0  501  0.00000000000E+00  0.00000000000E+00 -0.10822866273E+04  0.10822866273E+04  0.25500000920E-02 0.  1.
    10030    2    1    2    0    0  0.00000000000E+00  0.00000000000E+00  0.14962955935E+04  0.36608688480E+04  0.33411166126E+04 0.  0.
        2    1    3    3  502    0 -0.15842678215E+03  0.73771958666E+03  0.23812351738E+04  0.24979211731E+04  0.25500000920E-02 0. -1.
       -2    1    3    3    0  502  0.15842678215E+03 -0.73771958666E+03 -0.88493958031E+03  0.11629476749E+04  0.25500000920E-02 0.  1.
</event>
<event>
 5   0  0.8528625E-08  0.3304675E+04  0.7818609E-02  0.8161707E-01
        1   -1    0    0  501    0  0.00000000000E+00  0.00000000000E+00  0.21613773958E+04  0.21613773958E+04  0.50400001928E-02 0.  1.
       -1   -1    0    0    0  501  0.00000000000E+00  0.00000000000E+00 -0.12631846743E+04  0.12631846743E+04  0.50400001928E-02 0. -1.
    10030    2    1    2    0    0  0.00000000000E+00  0.00000000000E+00  0.89819272147E+03  0.34245620701E+04  0.33046747505E+04 0.  0.
        2    1    3    3  502    0 -0.91806827261E+03 -0.11462037916E+04 -0.33573384822E+03  0.15064360929E+04  0.25500000920E-02 0. -1.
       -2    1    3    3    0  502  0.91806827261E+03  0.11462037916E+04  0.12339265697E+04  0.19181259772E+04  0.25500000920E-02 0.  1.
</event>
<event>
 5   0  0.8528625E-08  0.4000641E+04  0.7818609E-02  0.8004417E-01
       -1   -1    0    0    0  501  0.00000000000E+00  0.00000000000E+00  0.15372070636E+04  0.15372070636E+04  0.50400001928E-02 0.  1.
        1   -1    0    0  501    0  0.00000000000E+00  0.00000000000E+00 -0.26029559129E+04  0.26029559129E+04  0.50400001928E-02 0. -1.
    10030    2    1    2    0    0  0.00000000000E+00  0.00000000000E+00 -0.10657488493E+04  0.41401629766E+04  0.40006410565E+04 0.  0.
        2    1    3    3  502    0 -0.18653135845E+03  0.70289609094E+03  0.13955574846E+04  0.15736700910E+04  0.25500000920E-02 0.  1.
       -2    1    3    3    0  502  0.18653135845E+03 -0.70289609094E+03 -0.24613063339E+04  0.25664928856E+04  0.25500000920E-02 0. -1.
</event>
<event>
 5   0  0.8583262E-08  0.4101263E+04  0.7818609E-02  0.7984424E-01
       -1   -1    0    0    0  501  0.00000000000E+00  0.00000000000E+00  0.25879669978E+04  0.25879669978E+04  0.50400001928E-02 0.  1.
        1   -1    0    0  501    0  0.00000000000E+00  0.00000000000E+00 -0.16248624726E+04  0.16248624726E+04  0.50400001928E-02 0. -1.
    10030    2    1    2    0    0  0.00000000000E+00  0.00000000000E+00  0.96310452515E+03  0.42128294704E+04  0.41012634420E+04 0.  0.
        1    1    3    3  502    0 -0.18674101480E+04  0.79780495444E+03  0.18852557168E+03  0.20394252371E+04  0.50400001928E-02 0. -1.
       -1    1    3    3    0  502  0.18674101480E+04 -0.79780495444E+03  0.77457895346E+03  0.21734042333E+04  0.50400001928E-02 0.  1.
</event>
<event>
 5   0  0.2730801E-07  0.3407612E+04  0.7818609E-02  0.8136041E-01
        2   -1    0    0  501    0  0.00000000000E+00  0.00000000000E+00  0.17741518450E+04  0.17741518450E+04  0.25500000920E-02 0. -1.
       -2   -1    0    0    0  501  0.00000000000E+00  0.00000000000E+00 -0.16362495716E+04  0.16362495716E+04  0.25500000920E-02 0.  1.
    10030    2    1    2    0    0  0.00000000000E+00  0.00000000000E+00  0.13790227336E+03  0.34104014166E+04  0.34076121823E+04 0.  0.
        2    1    3    3  502    0  0.71352384923E+03 -0.41776796298E+03  0.15599050168E+04  0.17654886054E+04  0.25500000920E-02 0. -1.
       -2    1    3    3    0  502 -0.71352384923E+03  0.41776796298E+03 -0.14220027434E+04  0.16449128112E+04  0.25500000920E-02 0.  1.
</event>
<event>
 5   0  0.2666978E-07  0.3026841E+04  0.7818609E-02  0.8236107E-01
        2   -1    0    0  501    0  0.00000000000E+00  0.00000000000E+00  0.13303912754E+04  0.13303912754E+04  0.25500000920E-02 0. -1.
       -2   -1    0    0    0  501  0.00000000000E+00  0.00000000000E+00 -0.17216305066E+04  0.17216305066E+04  0.25500000920E-02 0.  1.
    10030    2    1    2    0    0  0.00000000000E+00  0.00000000000E+00 -0.39123923122E+03  0.30520217820E+04  0.30268413935E+04 0.  0.
        4    1    3    3  502    0 -0.10835435113E+04 -0.10120321318E+04  0.11049285001E+03  0.14867702779E+04  0.12699999809E+01 0. -1.
       -4    1    3    3    0  502  0.10835435113E+04  0.10120321318E+04 -0.50173208123E+03  0.15652515040E+04  0.12699999809E+01 0.  1.
</event>
<event>
 5   0  0.8528625E-08  0.3439846E+04  0.7818609E-02  0.8128195E-01
        1   -1    0    0  501    0  0.00000000000E+00  0.00000000000E+00  0.20063921254E+04  0.20063921254E+04  0.50400001928E-02 0. -1.
       -1   -1    0    0    0  501  0.00000000000E+00  0.00000000000E+00 -0.14743557898E+04  0.14743557898E+04  0.50400001928E-02 0.  1.
    10030    2    1    2    0    0  0.00000000000E+00  0.00000000000E+00  0.53203633565E+03  0.34807479152E+04  0.34398464191E+04 0.  0.
        3    1    3    3  502    0  0.12090046128E+04 -0.12063315857E+04  0.60607416475E+02  0.17089766872E+04  0.10100000352E+00 0. -1.
       -3    1    3    3    0  502 -0.12090046128E+04  0.12063315857E+04  0.47142891917E+03  0.17717712280E+04  0.10100000352E+00 0.  1.
</event>
<event>
 5   0  0.2661693E-07  0.4270279E+04  0.7818609E-02  0.7952137E-01
        2   -1    0    0  501    0  0.00000000000E+00  0.00000000000E+00  0.14427381360E+04  0.14427381360E+04  0.25500000920E-02 0.  1.
       -2   -1    0    0    0  501  0.00000000000E+00  0.00000000000E+00 -0.31598388198E+04  0.31598388198E+04  0.25500000920E-02 0. -1.
    10030    2    1    2    0    0  0.00000000000E+00  0.00000000000E+00 -0.17171006838E+04  0.46025769558E+04  0.42702786649E+04 0.  0.
        1    1    3    3  502    0  0.11306826206E+04 -0.17020284624E+04 -0.15259928711E+04  0.25502937709E+04  0.50400001928E-02 0. -1.
       -1    1    3    3    0  502 -0.11306826206E+04  0.17020284624E+04 -0.19110781269E+03  0.20522831850E+04  0.50400001928E-02 0.  1.
</event>
<event>
 5   0  0.8528625E-08  0.3930847E+04  0.7818609E-02  0.8018644E-01
       -1   -1    0    0    0  501  0.00000000000E+00  0.00000000000E+00  0.18708540386E+04  0.18708540387E+04  0.50400001928E-02 0. -1.
        1   -1    0    0  501    0  0.00000000000E+00  0.00000000000E+00 -0.20647735717E+04  0.20647735717E+04  0.50400001928E-02 0.  1.
    10030    2    1    2    0    0  0.00000000000E+00  0.00000000000E+00 -0.19391953308E+03  0.39356276104E+04  0.39308472245E+04 0.  0.
        2    1    3    3  502    0 -0.14556134645E+04  0.76094150077E+03 -0.11776460533E+04  0.20210622832E+04  0.25500000920E-02 0.  1.
       -2    1    3    3    0  502  0.14556134645E+04 -0.76094150077E+03  0.98372652018E+03  0.19145653272E+04  0.25500000920E-02 0. -1.
</event>
<event>
 5   0  0.8583262E-08  0.4010266E+04  0.7818609E-02  0.8002479E-01
       -1   -1    0    0    0  501  0.00000000000E+00  0.00000000000E+00  0.24823104569E+04  0.24823104569E+04  0.50400001928E-02 0. -1.
        1   -1    0    0  501    0  0.00000000000E+00  0.00000000000E+00 -0.16196841059E+04  0.16196841059E+04  0.50400001928E-02 0.  1.
    10030    2    1    2    0    0  0.00000000000E+00  0.00000000000E+00  0.86262635106E+03  0.41019945628E+04  0.40102662220E+04 0.  0.
        1    1    3    3  502    0 -0.12997503948E+04 -0.89559826091E+03 -0.83354387979E+03  0.17850049673E+04  0.50400001928E-02 0.  1.
       -1    1    3    3    0  502  0.12997503948E+04  0.89559826091E+03  0.16961702309E+04  0.23169895955E+04  0.50400001928E-02 0. -1.
</event>
<event>
 5   0  0.8528625E-08  0.3990756E+04  0.7818609E-02  0.8006414E-01
        1   -1    0    0  501    0  0.00000000000E+00  0.00000000000E+00  0.20376515834E+04  0.20376515834E+04  0.50400001928E-02 0. -1.
       -1   -1    0    0    0  501  0.00000000000E+00  0.00000000000E+00 -0.19539810250E+04  0.19539810250E+04  0.50400001928E-02 0.  1.
    10030    2    1    2    0    0  0.00000000000E+00  0.00000000000E+00  0.83670558415E+02  0.39916326084E+04  0.39907555823E+04 0.  0.
        3    1    3    3  502    0 -0.19857479090E+04 -0.87217998967E+02 -0.13350521933E+03  0.19921409065E+04  0.10100000352E+00 0.  1.
       -3    1    3    3    0  502  0.19857479090E+04  0.87217998967E+02  0.21717577775E+03  0.19994917019E+04  0.10100000352E+00 0. -1.
</event>
<event>
 5   0  0.8583262E-08  0.3268176E+04  0.7818609E-02  0.8171040E-01
       -1   -1    0    0    0  501  0.00000000000E+00  0.00000000000E+00  0.16677238137E+04  0.16677238137E+04  0.50400001928E-02 0.  1.
        1   -1    0    0  501    0  0.00000000000E+00  0.00000000000E+00 -0.16011309073E+04  0.16011309073E+04  0.50400001928E-02 0. -1.
    10030    2    1    2    0    0  0.00000000000E+00  0.00000000000E+00  0.66592906416E+02  0.32688547210E+04  0.32681763373E+04 0.  0.
        1    1    3    3  502    0  0.48103679879E+03  0.48984396735E+03  0.15164733093E+04  0.16646425478E+04  0.50400001928E-02 0.  1.
       -1    1    3    3    0  502 -0.48103679879E+03 -0.48984396735E+03 -0.14498804028E+04  0.16042121732E+04  0.50400001928E-02 0. -1.
</event>
<event>
 5   0  0.8583262E-08  0.3784895E+04  0.7818609E-02  0.8049404E-01
       -1   -1    0    0    0  501  0.00000000000E+00  0.00000000000E+00  0.11615421058E+04  0.11615421058E+04  0.50400001928E-02 0. -1.
        1   -1    0    0  501    0  0.00000000000E+00  0.00000000000E+00 -0.30832781824E+04  0.30832781824E+04  0.50400001928E-02 0.  1.
    10030    2    1    2    0    0  0.00000000000E+00  0.00000000000E+00 -0.19217360766E+04  0.42448202882E+04  0.37848949433E+04 0.  0.
        1    1    3    3  502    0 -0.12306106308E+04  0.22808019282E+03 -0.25528418806E+04  0.28431364312E+04  0.50400001928E-02 0.  1.
       -1    1    3    3    0  502  0.12306106308E+04 -0.22808019282E+03  0.63110580405E+03  0.14016838570E+04  0.50400001928E-02 0. -1.
</event>
<event>
 5   0  0.8528625E-08  0.3997950E+04  0.7818609E-02  0.8004960E-01
        1   -1    0    0  501    0  0.00000000000E+00  0.00000000000E+00  0.22186683870E+04  0.22186683870E+04  0.50400001928E-02 0.  1.
       -1   -1    0    0    0  501  0.00000000000E+00  0.00000000000E+00 -0.18010353305E+04  0.18010353305E+04  0.50400001928E-02 0. -1.
    10030    2    1    2    0    0  0.00000000000E+00  0.00000000000E+00  0.41763305646E+03  0.40197037175E+04  0.39979495502E+04 0.  0.
        2    1    3    3  502    0 -0.40478743595E+02  0.19061213215E+04 -0.39525470745E+03  0.19470909852E+04  0.25500000920E-02 0. -1.
       -2    1    3    3    0  502  0.40478743595E+02 -0.19061213215E+04  0.81288776391E+03  0.20726127322E+04  0.25500000920E-02 0.  1.
</event>
<event>
 5   0  0.8583262E-08  0.3999442E+04  0.7818609E-02  0.8004659E-01
       -1   -1    0    0    0  501  0.00000000000E+00  0.00000000000E+00  0.16735400343E+04  0.16735400343E+04  0.50400001928E-02 0.  1.
        1   -1    0    0  501    0  0.00000000000E+00  0.00000000000E+00 -0.23894760179E+04  0.23894760179E+04  0.50400001928E-02 0. -1.
    10030    2    1    2    0    0  0.00000000000E+00  0.00000000000E+00 -0.71593598368E+03  0.40630160522E+04  0.39994418495E+04 0.  0.
        1    1    3    3  502    0 -0.11020534477E+04 -0.10494311112E+04  0.95998061614E+03  0.17992749212E+04  0.50400001928E-02 0.  1.
       -1    1    3    3    0  502  0.11020534477E+04  0.10494311112E+04 -0.16759165998E+04  0.22637411310E+04  0.50400001928E-02 0. -1.
</event>
<event>
 5   0  0.2730801E-07  0.3985674E+04  0.7818609E-02  0.8007443E-01
        2   -1    0    0  501    0  0.00000000000E+00  0.00000000000E+00  0.20097504459E+04  0.20097504459E+04  0.25500000920E-02 0.  1.
       -2   -1    0    0    0  501  0.00000000000E+00  0.00000000000E+00 -0.19760660120E+04  0.19760660120E+04  0.25500000920E-02 0. -1.
    10030    2    1    2    0    0  0.00000000000E+00  0.00000000000E+00  0.33684433862E+02  0.39858164579E+04  0.39856741205E+04 0.  0.
        2    1    3    3  502    0  0.17282570612E+03  0.86782416997E+03  0.18025184947E+04  0.20079991131E+04  0.25500000920E-02 0.  1.
       -2    1    3    3    0  502 -0.17282570612E+03 -0.86782416997E+03 -0.17688340608E+04  0.19778173448E+04  0.25500000920E-02 0. -1.
</event>
<event>
 5   0  0.8528625E-08  0.4017994E+04  0.7818609E-02  0.8000926E-01
       -1   -1    0    0    0  501  0.00000000000E+00  0.00000000000E+00  0.13748634701E+04  0.13748634701E+04  0.50400001928E-02 0.  1.
        1   -1    0    0  501    0  0.00000000000E+00  0.00000000000E+00 -0.29356139274E+04  0.29356139274E+04  0.50400001928E-02 0. -1.
    10030    2    1    2    0    0  0.00000000000E+00  0.00000000000E+00 -0.15607504572E+04  0.43104773975E+04  0.40179937039E+04 0.  0.
        2    1    3    3  502    0  0.10510886276E+04 -0.55029055911E+03 -0.25196448754E+04  0.27849986177E+04  0.25500000920E-02 0. -1.
       -2    1    3    3    0  502 -0.10510886276E+04  0.55029055911E+03  0.95889441811E+03  0.15254787798E+04  0.25500000920E-02 0.  1.
</event>
<event>
 5   0  0.8528625E-08  0.4043913E+04  0.7818609E-02  0.7995746E-01
        1   -1    0    0  501    0  0.00000000000E+00  0.00000000000E+00  0.20004313609E+04  0.20004313609E+04  0.50400001928E-02 0.  1.
       -1   -1    0    0    0  501  0.00000000000E+00  0.00000000000E+00 -0.20437129971E+04  0.20437129971E+04  0.50400001928E-02 0. -1.
    10030    2    1    2    0    0  0.00000000000E+00  0.00000000000E+00 -0.43281636167E+02  0.40441443580E+04  0.40439127449E+04 0.  0.
        5    1    3    3  502    0 -0.10885654980E+04 -0.33619361064E+03 -0.16921509582E+04  0.20399504756E+04  0.46999998093E+01 0. -1.
       -5    1    3    3    0  502  0.10885654980E+04  0.33619361064E+03  0.16488693221E+04  0.20041938825E+04  0.46999998093E+01 0.  1.
</event>
<event>
 5   0  0.2661693E-07  0.3837552E+04  0.7818609E-02  0.8038144E-01
       -2   -1    0    0    0  501  0.00000000000E+00  0.00000000000E+00  0.15260242219E+04  0.15260242219E+04  0.25500000920E-02 0.  1.
        2   -1    0    0  501    0  0.00000000000E+00  0.00000000000E+00 -0.24126103237E+04  0.24126103237E+04  0.25500000920E-02 0. -1.
    10030    2    1    2    0    0  0.00000000000E+00  0.00000000000E+00 -0.88658610184E+03  0.39386345456E+04  0.38375522365E+04 0.  0.
        1    1    3    3  502    0  0.30618475016E+03 -0.13371653147E+03 -0.23825256733E+04  0.24058382730E+04  0.50400001928E-02 0. -1.
       -1    1    3    3    0  502 -0.30618475016E+03  0.13371653147E+03  0.14959395714E+04  0.15327962726E+04  0.50400001928E-02 0.  1.
</event>
<event>
 5   0  0.2661693E-07  0.4019920E+04  0.7818609E-02  0.8000540E-01
       -2   -1    0    0    0  501  0.00000000000E+00  0.00000000000E+00  0.20284197865E+04  0.20284197865E+04  0.25500000920E-02 0.  1.
        2   -1    0    0  501    0  0.00000000000E+00  0.00000000000E+00 -0.19916684991E+04  0.19916684991E+04  0.25500000920E-02 0. -1.
    10030    2    1    2    0    0  0.00000000000E+00  0.00000000000E+00  0.36751287374E+02  0.40200882856E+04  0.40199202936E+04 0.  0.
        1    1    3    3  502    0  0.10855954593E+04 -0.14020569650E+04 -0.92805629673E+03  0.20013919467E+04  0.50400001928E-02 0.  1.
       -1    1    3    3    0  502 -0.10855954593E+04  0.14020569650E+04  0.96480758411E+03  0.20186963389E+04  0.50400001928E-02 0. -1.
</event>
<event>
 5   0  0.2730801E-07  0.3991270E+04  0.7818609E-02  0.8006310E-01
        2   -1    0    0  501    0  0.00000000000E+00  0.00000000000E+00  0.16371645902E+04  0.16371645902E+04  0.25500000920E-02 0. -1.
       -2   -1    0    0    0  501  0.00000000000E+00  0.00000000000E+00 -0.24325954559E+04  0.24325954559E+04  0.25500000920E-02 0.  1.
    10030    2    1    2    0    0  0.00000000000E+00  0.00000000000E+00 -0.79543086564E+03  0.40697600461E+04  0.39912700449E+04 0.  0.
        2    1    3    3  502    0  0.80221235687E+03 -0.72290560429E+03  0.13135073454E+04  0.17004231017E+04  0.25500000920E-02 0. -1.
       -2    1    3    3    0  502 -0.80221235687E+03  0.72290560429E+03 -0.21089382111E+04  0.23693369445E+04  0.25500000920E-02 0.  1.
</event>
<event>
 5   0  0.2704088E-07  0.3939533E+04  0.7818609E-02  0.8016857E-01
        2   -1    0    0  501    0  0.00000000000E+00  0.00000000000E+00  0.31280476717E+04  0.31280476717E+04  0.25500000920E-02 0.  1.
       -2   -1    0    0    0  501  0.00000000000E+00  0.00000000000E+00 -0.12403838547E+04  0.12403838547E+04  0.25500000920E-02 0. -1.
    10030    2    1    2    0    0  0.00000000000E+00  0.00000000000E+00  0.18876638170E+04  0.43684315264E+04  0.39395328802E+04 0.  0.
        5    1    3    3  502    0 -0.57266637602E+03 -0.55917553870E+03  0.29395934349E+04  0.30466138111E+04  0.46999998093E+01 0.  1.
       -5    1    3    3    0  502  0.57266637602E+03  0.55917553870E+03 -0.10519296179E+04  0.13218177153E+04  0.46999998093E+01 0. -1.
</event>
<event>
 5   0  0.8528625E-08  0.4013417E+04  0.7818609E-02  0.8001845E-01
       -1   -1    0    0    0  501  0.00000000000E+00  0.00000000000E+00  0.14171317642E+04  0.14171317642E+04  0.50400001928E-02 0. -1.
        1   -1    0    0  501    0  0.00000000000E+00  0.00000000000E+00 -0.28415695164E+04  0.28415695164E+04  0.50400001928E-02 0.  1.
    10030    2    1    2    0    0  0.00000000000E+00  0.00000000000E+00 -0.14244377522E+04  0.42587012806E+04  0.40134167100E+04 0.  0.
        4    1    3    3  502    0  0.61505586428E+03 -0.75349167182E+03  0.11502843353E+04  0.15063860995E+04  0.12699999809E+01 0. -1.
       -4    1    3    3    0  502 -0.61505586428E+03  0.75349167182E+03 -0.25747220875E+04  0.27523151812E+04  0.12699999809E+01 0.  1.
</event>
<event>
 5   0  0.2661693E-07  0.4026716E+04  0.7818609E-02  0.7999179E-01
       -2   -1    0    0    0  501  0.00000000000E+00  0.00000000000E+00  0.29364022658E+04  0.29364022658E+04  0.25500000920E-02 0.  1.
        2   -1    0    0  501    0  0.00000000000E+00  0.00000000000E+00 -0.13804680757E+04  0.13804680757E+04  0.25500000920E-02 0. -1.
    10030    2    1    2    0    0  0.00000000000E+00  0.00000000000E+00  0.15559341901E+04  0.43168703415E+04  0.40267155774E+04 0.  0.
        1    1    3    3  502    0  0.99417463182E+03  0.54525108309E+03 -0.10056244970E+04  0.15155733473E+04  0.50400001928E-02 0. -1.
       -1    1    3    3    0  502 -0.99417463182E+03 -0.54525108309E+03  0.25615586871E+04  0.28012969942E+04  0.50400001928E-02 0.  1.
</event>
<event>
 5   0  0.8583262E-08  0.3952947E+04  0.7818609E-02  0.8014106E-01
        1   -1    0    0  501    0  0.00000000000E+00  0.00000000000E+00  0.19702455578E+04  0.19702455578E+04  0.50400001928E-02 0.  1.
       -1   -1    0    0    0  501  0.00000000000E+00  0.00000000000E+00 -0.19827211368E+04  0.19827211369E+04  0.50400001928E-02 0. -1.
    10030    2    1    2    0    0  0.00000000000E+00  0.00000000000E+00 -0.12475579080E+02  0.39529666946E+04  0.39529470081E+04 0.  0.
        1    1    3    3  502    0 -0.34225988643E+03 -0.10219687317E+04 -0.16630156666E+04  0.19817121451E+04  0.50400001928E-02 0. -1.
       -1    1    3    3    0  502  0.34225988643E+03  0.10219687317E+04  0.16505400875E+04  0.19712545495E+04  0.50400001928E-02 0.  1.
</event>
<event>
 5   0  0.8528625E-08  0.4061448E+04  0.7818609E-02  0.7992264E-01
        1   -1    0    0  501    0  0.00000000000E+00  0.00000000000E+00  0.19620688443E+04  0.19620688444E+04  0.50400001928E-02 0.  1.
       -1   -1    0    0    0  501  0.00000000000E+00  0.00000000000E+00 -0.21017816379E+04  0.21017816379E+04  0.50400001928E-02 0. -1.
    10030    2    1    2    0    0  0.00000000000E+00  0.00000000000E+00 -0.13971279351E+03  0.40638504822E+04  0.40614481503E+04 0.  0.
        2    1    3    3  502    0 -0.13820257639E+04 -0.14456087699E+04 -0.42228674090E+03  0.20440415894E+04  0.25500000920E-02 0. -1.
       -2    1    3    3    0  502  0.13820257639E+04  0.14456087699E+04  0.28257394739E+03  0.20198088928E+04  0.25500000920E-02 0.  1.
</event>
<event>
 5   0  0.8528625E-08  0.3994802E+04  0.7818609E-02  0.8005596E-01
        1   -1    0    0  501    0  0.00000000000E+00  0.00000000000E+00  0.20913620427E+04  0.20913620427E+04  0.50400001928E-02 0. -1.
       -1   -1    0    0    0  501  0.00000000000E+00  0.00000000000E+00 -0.19076617561E+04  0.19076617561E+04  0.50400001928E-02 0.  1.
    10030    2    1    2    0    0  0.00000000000E+00  0.00000000000E+00  0.18370028656E+03  0.39990237988E+04  0.39948023165E+04 0.  0.
        3    1    3    3  502    0  0.11568109883E+04 -0.10446364462E+04 -0.11585231915E+04  0.19420743968E+04  0.10100000352E+00 0.  1.
       -3    1    3    3    0  502 -0.11568109883E+04  0.10446364462E+04  0.13422234780E+04  0.20569494020E+04  0.10100000352E+00 0. -1.
</event>
<event>
 5   0  0.8528625E-08  0.3994046E+04  0.7818609E-02  0.8005749E-01
       -1   -1    0    0    0  501  0.00000000000E+00  0.00000000000E+00  0.25291561349E+04  0.25291561349E+04  0.50400001928E-02 0.  1.
        1   -1    0    0  501    0  0.00000000000E+00  0.00000000000E+00 -0.15768506623E+04  0.15768506623E+04  0.50400001928E-02 0. -1.
    10030    2    1    2    0    0  0.00000000000E+00  0.00000000000E+00  0.95230547264E+03  0.41060067973E+04  0.39940463325E+04 0.  0.
        5    1    3    3  502    0  0.19942049999E+04  0.15351950348E+02  0.36838002288E+03  0.20280076911E+04  0.46999998093E+01 0. -1.
       -5    1    3    3    0  502 -0.19942049999E+04 -0.15351950348E+02  0.58392544977E+03  0.20779991061E+04  0.46999998093E+01 0.  1.
</event>
<event>
 5   0  0.8528625E-08  0.3861964E+04  0.7818609E-02  0.8032987E-01
        1   -1    0    0  501    0  0.00000000000E+00  0.00000000000E+00  0.28825473460E+04  0.28825473460E+04  0.50400001928E-02 0.  1.
       -1   -1    0    0    0  501  0.00000000000E+00  0.00000000000E+00 -0.12935406706E+04  0.12935406706E+04  0.50400001928E-02 0. -1.
    10030    2    1    2    0    0  0.00000000000E+00  0.00000000000E+00  0.15890066754E+04  0.41760880166E+04  0.38619643846E+04 0.  0.
        2    1    3    3  502    0  0.17948263670E+04 -0.70858530709E+03  0.87246023261E+03  0.21177067036E+04  0.25500000920E-02 0.  1.
       -2    1    3    3    0  502 -0.17948263670E+04  0.70858530709E+03  0.71654644282E+03  0.20583813130E+04  0.25500000920E-02 0. -1.
</event>
<event>
 5   0  0.2661693E-07  0.4053633E+04  0.7818609E-02  0.7993814E-01
       -2   -1    0    0    0  501  0.00000000000E+00  0.00000000000E+00  0.28606862198E+04  0.28606862198E+04  0.25500000920E-02 0. -1.
        2   -1    0    0  501    0  0.00000000000E+00  0.00000000000E+00 -0.14360137544E+04  0.14360137544E+04  0.25500000920E-02 0.  1.
    10030    2    1    2    0    0  0.00000000000E+00  0.00000000000E+00  0.14246724654E+04  0.42966999742E+04  0.40536328194E+04 0.  0.
        1    1    3    3  502    0 -0.44102587101E+03  0.18043302526E+04 -0.14739310173E+03  0.18632863993E+04  0.50400001928E-02 0.  1.
       -1    1    3    3    0  502  0.44102587101E+03 -0.18043302526E+04  0.15720655672E+04  0.24334135750E+04  0.50400001928E-02 0. -1.
</event>
<event>
 5   0  0.2839279E-07  0.4102086E+04  0.7818609E-02  0.7984263E-01
       -2   -1    0    0    0  501  0.00000000000E+00  0.00000000000E+00  0.28362734271E+04  0.28362734271E+04  0.25500000920E-02 0.  1.
        2   -1    0    0  501    0  0.00000000000E+00  0.00000000000E+00 -0.14832057250E+04  0.14832057250E+04  0.25500000920E-02 0. -1.
    10030    2    1    2    0    0  0.00000000000E+00  0.00000000000E+00  0.13530677021E+04  0.43194791521E+04  0.41020858034E+04 0.  0.
        3    1    3    3  502    0 -0.15057433612E+04 -0.10918171598E+04 -0.23383519157E+03  0.18745684002E+04  0.10100000352E+00 0. -1.
       -3    1    3    3    0  502  0.15057433612E+04  0.10918171598E+04  0.15869028937E+04  0.24449107518E+04  0.10100000352E+00 0.  1.
</event>
<event>
 5   0  0.8583262E-08  0.3406977E+04  0.7818609E-02  0.8136196E-01
       -1   -1    0    0    0  501  0.00000000000E+00  0.00000000000E+00  0.18019302526E+04  0.18019302526E+04  0.50400001928E-02 0. -1.
        1   -1    0    0  501    0  0.00000000000E+00  0.00000000000E+00 -0.16104246919E+04  0.16104246919E+04  0.50400001928E-02 0.  1.
    10030    2    1    2    0    0  0.00000000000E+00  0.00000000000E+00  0.19150556069E+03  0.34123549444E+04  0.34069769425E+04 0.  0.
        1    1    3    3  502    0  0.46199835825E+03  0.12834853859E+04 -0.92619885282E+03  0.16488242884E+04  0.50400001928E-02 0.  1.
       -1    1    3    3    0  502 -0.46199835825E+03 -0.12834853859E+04  0.11177044135E+04  0.17635306561E+04  0.50400001928E-02 0. -1.
</event>
<event>
 5   0  0.8528625E-08  0.3991072E+04  0.7818609E-02  0.8006350E-01
       -1   -1    0    0    0  501  0.00000000000E+00  0.00000000000E+00  0.17473050509E+04  0.17473050509E+04  0.50400001928E-02 0. -1.
        1   -1    0    0  501    0  0.00000000000E+00  0.00000000000E+00 -0.22790320232E+04  0.22790320232E+04  0.50400001928E-02 0.  1.
    10030    2    1    2    0    0  0.00000000000E+00  0.00000000000E+00 -0.53172697235E+03  0.40263370741E+04  0.39910721192E+04 0.  0.
        2    1    3    3  502    0  0.75694013564E+03 -0.30949559251E+03 -0.21022271298E+04  0.22556827782E+04  0.25500000920E-02 0.  1.
       -2    1    3    3    0  502 -0.75694013564E+03  0.30949559251E+03  0.15705001575E+04  0.17706542958E+04  0.25500000920E-02 0. -1.
</event>
<event>
 5   0  0.8583262E-08  0.3903664E+04  0.7818609E-02  0.8024268E-01
        1   -1    0    0  501    0  0.00000000000E+00  0.00000000000E+00  0.26283533327E+04  0.26283533327E+04  0.50400001928E-02 0.  1.
       -1   -1    0    0    0  501  0.00000000000E+00  0.00000000000E+00 -0.14494426100E+04  0.14494426100E+04  0.50400001928E-02 0. -1.
    10030    2    1    2    0    0  0.00000000000E+00  0.00000000000E+00  0.11789107227E+04  0.40777959427E+04  0.39036635687E+04 0.  0.
        1    1    3    3  502    0  0.13395307036E+04  0.70490555678E+03 -0.69775065044E+03  0.16667604267E+04  0.50400001928E-02 0. -1.
       -1    1    3    3    0  502 -0.13395307036E+04 -0.70490555678E+03  0.18766613731E+04  0.24110355160E+04  0.50400001928E-02 0.  1.
</event>
<event>
 5   0  0.8528625E-08  0.3987057E+04  0.7818609E-02  0.8007163E-01
        1   -1    0    0  501    0  0.00000000000E+00  0.00000000000E+00  0.14441934944E+04  0.14441934944E+04  0.50400001928E-02 0. -1.
       -1   -1    0    0    0  501  0.00000000000E+00  0.00000000000E+00 -0.27518172538E+04  0.27518172538E+04  0.50400001928E-02 0.  1.
    10030    2    1    2    0    0  0.00000000000E+00  0.00000000000E+00 -0.13076237595E+04  0.41960107482E+04  0.39870573488E+04 0.  0.
        4    1    3    3  502    0 -0.10821948401E+04  0.78792085320E+03 -0.22084538644E+04  0.25824862104E+04  0.12699999809E+01 0.  1.
       -4    1    3    3    0  502  0.10821948401E+04 -0.78792085320E+03  0.90083010497E+03  0.16135245377E+04  0.12699999809E+01 0. -1.
</event>
<event>
 5   0  0.8528625E-08  0.3899942E+04  0.7818609E-02  0.8025041E-01
       -1   -1    0    0    0  501  0.00000000000E+00  0.00000000000E+00  0.21899605827E+04  0.21899605827E+04  0.50400001928E-02 0.  1.
        1   -1    0    0  501    0  0.00000000000E+00  0.00000000000E+00 -0.17362813423E+04  0.17362813423E+04  0.50400001928E-02 0. -1.
    10030    2    1    2    0    0  0.00000000000E+00  0.00000000000E+00  0.45367924041E+03  0.39262419250E+04  0.38999424099E+04 0.  0.
        5    1    3    3  502    0  0.41188281714E+02  0.98653253868E+03 -0.14659938276E+04  0.17675132013E+04  0.46999998093E+01 0. -1.
       -5    1    3    3    0  502 -0.41188281714E+02 -0.98653253868E+03  0.19196730680E+04  0.21587287237E+04  0.46999998093E+01 0.  1.
</event>
<event>
 5   0  0.2661693E-07  0.4056770E+04  0.7818609E-02  0.7993191E-01
       -2   -1    0    0    0  501  0.00000000000E+00  0.00000000000E+00  0.34839325834E+04  0.34839325834E+04  0.25500000920E-02 0. -1.
        2   -1    0    0  501    0  0.00000000000E+00  0.00000000000E+00 -0.11809485769E+04  0.11809485769E+04  0.25500000920E-02 0.  1.
    10030    2    1    2    0    0  0.00000000000E+00  0.00000000000E+00  0.23029840065E+04  0.46648811603E+04  0.40567697624E+04 0.  0.
        1    1    3    3  502    0  0.14209586623E+04  0.60626171478E+03  0.26629303057E+04  0.30786156953E+04  0.50400001928E-02 0. -1.
       -1    1    3    3    0  502 -0.14209586623E+04 -0.60626171478E+03 -0.35994629916E+03  0.15862654649E+04  0.50400001928E-02 0.  1.
</event>
<event>
 5   0  0.8528625E-08  0.3876112E+04  0.7818609E-02  0.8030016E-01
        1   -1    0    0  501    0  0.00000000000E+00  0.00000000000E+00  0.21979282197E+04  0.21979282197E+04  0.50400001928E-02 0.  1.
       -1   -1    0    0    0  501  0.00000000000E+00  0.00000000000E+00 -0.17089099784E+04  0.17089099784E+04  0.50400001928E-02 0. -1.
    10030    2    1    2    0    0  0.00000000000E+00  0.00000000000E+00  0.48901824138E+03  0.39068381981E+04  0.38761122102E+04 0.  0.
        5    1    3    3  502    0  0.99186004485E+02 -0.16832785033E+04  0.12074751151E+04  0.20739533811E+04  0.46999998093E+01 0.  1.
       -5    1    3    3    0  502 -0.99186004485E+02  0.16832785033E+04 -0.71845687370E+03  0.18328848171E+04  0.46999998093E+01 0. -1.
</event>
<event>
 5   0  0.2730801E-07  0.4093402E+04  0.7818609E-02  0.7985965E-01
        2   -1    0    0  501    0  0.00000000000E+00  0.00000000000E+00  0.15132095492E+04  0.15132095492E+04  0.25500000920E-02 0. -1.
       -2   -1    0    0    0  501  0.00000000000E+00  0.00000000000E+00 -0.27682784910E+04  0.27682784910E+04  0.25500000920E-02 0.  1.
    10030    2    1    2    0    0  0.00000000000E+00  0.00000000000E+00 -0.12550689418E+04  0.42814880401E+04  0.40934022267E+04 0.  0.
        2    1    3    3  502    0  0.18813745857E+04 -0.21715932256E+03  0.18417613752E+03  0.19028003975E+04  0.25500000920E-02 0.  1.
       -2    1    3    3    0  502 -0.18813745857E+04  0.21715932256E+03 -0.14392450793E+04  0.23786876427E+04  0.25500000920E-02 0. -1.
</event>
<event>
 5   0  0.8528625E-08  0.4013194E+04  0.7818609E-02  0.8001890E-01
        1   -1    0    0  501    0  0.00000000000E+00  0.00000000000E+00  0.26380192799E+04  0.26380192799E+04  0.50400001928E-02 0.  1.
       -1   -1    0    0    0  501  0.00000000000E+00  0.00000000000E+00 -0.15263088129E+04  0.15263088129E+04  0.50400001928E-02 0. -1.
    10030    2    1    2    0    0  0.00000000000E+00  0.00000000000E+00  0.11117104670E+04  0.41643280928E+04  0.40131942766E+04 0.  0.
        4    1    3    3  502    0 -0.13880186198E+04  0.13606731019E+04  0.10730255563E+04  0.22202280145E+04  0.12699999809E+01 0.  1.
       -4    1    3    3    0  502  0.13880186198E+04 -0.13606731019E+04  0.38684910719E+02  0.19441000783E+04  0.12699999809E+01 0. -1.
</event>
<event>
 5   0  0.2839279E-07  0.3844824E+04  0.7818609E-02  0.8036604E-01
       -2   -1    0    0    0  501  0.00000000000E+00  0.00000000000E+00  0.16662969311E+04  0.16662969311E+04  0.25500000920E-02 0.  1.
        2   -1    0    0  501    0  0.00000000000E+00  0.00000000000E+00 -0.22178925959E+04  0.22178925959E+04  0.25500000920E-02 0. -1.
    10030    2    1    2    0    0  0.00000000000E+00  0.00000000000E+00 -0.55159566482E+03  0.38841895270E+04  0.38448238586E+04 0.  0.
        3    1    3    3  502    0 -0.10911343630E+04  0.12359045261E+03  0.13182738135E+04  0.17157198651E+04  0.10100000352E+00 0.  1.
       -3    1    3    3    0  502  0.10911343630E+04 -0.12359045261E+03 -0.18698694783E+04  0.21684696618E+04  0.10100000352E+00 0. -1.
</event>
<event>
 5   0  0.8583262E-08  0.3909851E+04  0.7818609E-02  0.8022983E-01
        1   -1    0    0  501    0  0.00000000000E+00  0.00000000000E+00  0.12375051191E+04  0.12375051191E+04  0.50400001928E-02 0.  1.
       -1   -1    0    0    0  501  0.00000000000E+00  0.00000000000E+00 -0.30882569482E+04  0.30882569483E+04  0.50400001928E-02 0. -1.
    10030    2    1    2    0    0  0.00000000000E+00  0.00000000000E+00 -0.18507518292E+04  0.43257620673E+04  0.39098510368E+04 0.  0.
        1    1    3    3  502    0 -0.14397268447E+04  0.10121979043E+04  0.16262966010E+02  0.17600063832E+04  0.50400001928E-02 0. -1.
       -1    1    3    3    0  502  0.14397268447E+04 -0.10121979043E+04 -0.18670147952E+04  0.25657556841E+04  0.50400001928E-02 0.  1.
</event>
<event>
 5   0  0.2839279E-07  0.3946494E+04  0.7818609E-02  0.8015428E-01
       -2   -1    0    0    0  501  0.00000000000E+00  0.00000000000E+00  0.22162513825E+04  0.22162513825E+04  0.25500000920E-02 0.  1.
        2   -1    0    0  501    0  0.00000000000E+00  0.00000000000E+00 -0.17568872238E+04  0.17568872238E+04  0.25500000920E-02 0. -1.
    10030    2    1    2    0    0  0.00000000000E+00  0.00000000000E+00  0.45936415870E+03  0.39731386063E+04  0.39464940079E+04 0.  0.
        3    1    3    3  502    0  0.11878166874E+04  0.11861865344E+04 -0.81450738849E+03  0.18658427784E+04  0.10100000352E+00 0. -1.
       -3    1    3    3    0  502 -0.11878166874E+04 -0.11861865344E+04  0.12738715472E+04  0.21072958279E+04  0.10100000352E+00 0.  1.
</event>
<event>
 5   0  0.8528625E-08  0.2860532E+04  0.7818609E-02  0.8284718E-01
       -1   -1    0    0    0  501  0.00000000000E+00  0.00000000000E+00  0.15412511506E+04  0.15412511506E+04  0.50400001928E-02 0.  1.
        1   -1    0    0  501    0  0.00000000000E+00  0.00000000000E+00 -0.13272726862E+04  0.13272726862E+04  0.50400001928E-02 0. -1.
    10030    2    1    2    0    0  0.00000000000E+00  0.00000000000E+00  0.21397846437E+03  0.28685238368E+04  0.28605318070E+04 0.  0.
        5    1    3    3  502    0 -0.13240688728E+03  0.16486592955E+03 -0.13115038013E+04  0.13284489713E+04  0.46999998093E+01 0. -1.
       -5    1    3    3    0  502  0.13240688728E+03 -0.16486592955E+03  0.15254822656E+04  0.15400748655E+04  0.46999998093E+01 0.  1.
</event>
<event>
 5   0  0.8528625E-08  0.4131032E+04  0.7818609E-02  0.7978623E-01
        1   -1    0    0  501    0  0.00000000000E+00  0.00000000000E+00  0.25758553708E+04  0.25758553708E+04  0.50400001928E-02 0.  1.
       -1   -1    0    0    0  501  0.00000000000E+00  0.00000000000E+00 -0.16562871849E+04  0.16562871849E+04  0.50400001928E-02 0. -1.
    10030    2    1    2    0    0  0.00000000000E+00  0.00000000000E+00  0.91956818592E+03  0.42321425558E+04  0.41310319490E+04 0.  0.
        5    1    3    3  502    0 -0.17323691508E+04 -0.10248428390E+04 -0.15166757054E+02  0.20128730312E+04  0.46999998093E+01 0. -1.
       -5    1    3    3    0  502  0.17323691508E+04  0.10248428390E+04  0.93473494297E+03  0.22192695246E+04  0.46999998093E+01 0.  1.
</event>
<event>
 5   0  0.8528625E-08  0.3163209E+04  0.7818609E-02  0.8198602E-01
        1   -1    0    0  501    0  0.00000000000E+00  0.00000000000E+00  0.21358951255E+04  0.21358951255E+04  0.50400001928E-02 0. -1.
       -1   -1    0    0    0  501  0.00000000000E+00  0.00000000000E+00 -0.11711588197E+04  0.11711588197E+04  0.50400001928E-02 0.  1.
    10030    2    1    2    0    0  0.00000000000E+00  0.00000000000E+00  0.96473630578E+03  0.33070539453E+04  0.31632087597E+04 0.  0.
        3    1    3    3  502    0  0.53211182605E+03  0.90915411756E+03  0.17157480885E+04  0.20133295106E+04  0.10100000352E+00 0. -1.
       -3    1    3    3    0  502 -0.53211182605E+03 -0.90915411756E+03 -0.75101178271E+03  0.12937244347E+04  0.10100000352E+00 0.  1.
</event>
<event>
 5   0  0.2704088E-07  0.4147836E+04  0.7818609E-02  0.7975370E-01
        2   -1    0    0  501    0  0.00000000000E+00  0.00000000000E+00  0.19254472056E+04  0.19254472056E+04  0.25500000920E-02 0. -1.
       -2   -1    0    0    0  501  0.00000000000E+00  0.00000000000E+00 -0.22338377304E+04  0.22338377304E+04  0.25500000920E-02 0.  1.
    10030    2    1    2    0    0  0.00000000000E+00  0.00000000000E+00 -0.30839052484E+03  0.41592849360E+04  0.41478363592E+04 0.  0.
        5    1    3    3  502    0  0.14317473766E+04  0.24643031202E+03  0.13299188932E+04  0.19696027014E+04  0.46999998093E+01 0. -1.
       -5    1    3    3    0  502 -0.14317473766E+04 -0.24643031202E+03 -0.16383094180E+04  0.21896822345E+04  0.46999998093E+01 0.  1.
</event>
<event>
 5   0  0.2661693E-07  0.3993177E+04  0.7818609E-02  0.8005924E-01
       -2   -1    0    0    0  501  0.00000000000E+00  0.00000000000E+00  0.28287285701E+04  0.28287285701E+04  0.25500000920E-02 0.  1.
        2   -1    0    0  501    0  0.00000000000E+00  0.00000000000E+00 -0.14092429711E+04  0.14092429711E+04  0.25500000920E-02 0. -1.
    10030    2    1    2    0    0  0.00000000000E+00  0.00000000000E+00  0.14194855991E+04  0.42379715412E+04  0.39931771083E+04 0.  0.
        1    1    3    3  502    0  0.11842565524E+04 -0.15731564331E+04  0.35922164251E+03  0.20015806088E+04  0.50400001928E-02 0.  1.
       -1    1    3    3    0  502 -0.11842565524E+04  0.15731564331E+04  0.10602639566E+04  0.22363909324E+04  0.50400001928E-02 0. -1.
</event>
<event>
 5   0  0.2661693E-07  0.4116062E+04  0.7818609E-02  0.7981534E-01
        2   -1    0    0  501    0  0.00000000000E+00  0.00000000000E+00  0.20943221125E+04  0.20943221125E+04  0.25500000920E-02 0. -1.
       -2   -1    0    0    0  501  0.00000000000E+00  0.00000000000E+00 -0.20223690132E+04  0.20223690132E+04  0.25500000920E-02 0.  1.
    10030    2    1    2    0    0  0.00000000000E+00  0.00000000000E+00  0.71953099286E+02  0.41166911257E+04  0.41160622658E+04 0.  0.
        1    1    3    3  502    0  0.17892214720E+04  0.99002180161E+03 -0.19651433788E+03  0.20542819983E+04  0.50400001928E-02 0.  1.
       -1    1    3    3    0  502 -0.17892214720E+04 -0.99002180161E+03  0.26846743717E+03  0.20624091273E+04  0.50400001928E-02 0. -1.
</event>
<event>
 5   0  0.8528625E-08  0.3974282E+04  0.7818609E-02  0.8009755E-01
        1   -1    0    0  501    0  0.00000000000E+00  0.00000000000E+00  0.21082599805E+04  0.21082599805E+04  0.50400001928E-02 0. -1.
       -1   -1    0    0    0  501  0.00000000000E+00  0.00000000000E+00 -0.18729804282E+04  0.18729804282E+04  0.50400001928E-02 0.  1.
    10030    2    1    2    0    0  0.00000000000E+00  0.00000000000E+00  0.23527955227E+03  0.39812404087E+04  0.39742821646E+04 0.  0.
        2    1    3    3  502    0  0.17483382589E+04  0.23397883322E+03  0.10342811425E+04  0.20447910024E+04  0.25500000920E-02 0. -1.
       -2    1    3    3    0  502 -0.17483382589E+04 -0.23397883322E+03 -0.79900159026E+03  0.19364494063E+04  0.25500000920E-02 0.  1.
</event>
<event>
 5   0  0.8528625E-08  0.3674223E+04  0.7818609E-02  0.8073698E-01
        1   -1    0    0  501    0  0.00000000000E+00  0.00000000000E+00  0.14785682241E+04  0.14785682241E+04  0.50400001928E-02 0.  1.
       -1   -1    0    0    0  501  0.00000000000E+00  0.00000000000E+00 -0.22825990818E+04  0.22825990818E+04  0.50400001928E-02 0. -1.
    10030    2    1    2    0    0  0.00000000000E+00  0.00000000000E+00 -0.80403085777E+03  0.37611673059E+04  0.36742228951E+04 0.  0.
        2    1    3    3  502    0  0.92527099456E+03  0.75173949045E+03  0.10288227329E+04  0.15747110499E+04  0.25500000920E-02 0.  1.
       -2    1    3    3    0  502 -0.92527099456E+03 -0.75173949045E+03 -0.18328535907E+04  0.21864562561E+04  0.25500000920E-02 0. -1.
</event>
<event>
 5   0  0.2730801E-07  0.3914462E+04  0.7818609E-02  0.8022028E-01
        2   -1    0    0  501    0  0.00000000000E+00  0.00000000000E+00  0.22452019039E+04  0.22452019039E+04  0.25500000920E-02 0. -1.
       -2   -1    0    0    0  501  0.00000000000E+00  0.00000000000E+00 -0.17061956243E+04  0.17061956243E+04  0.25500000920E-02 0.  1.
    10030    2    1    2    0    0  0.00000000000E+00  0.00000000000E+00  0.53900627964E+03  0.39513975282E+04  0.39144622436E+04 0.  0.
        2    1    3    3  502    0  0.10991389271E+04  0.16051298673E+04  0.48648575802E+03  0.20052971512E+04  0.25500000920E-02 0.  1.
       -2    1    3    3    0  502 -0.10991389271E+04 -0.16051298673E+04  0.52520521626E+02  0.19461003770E+04  0.25500000920E-02 0. -1.
</event>
<event>
 5   0  0.8528625E-08  0.3991652E+04  0.7818609E-02  0.8006233E-01
        1   -1    0    0  501    0  0.00000000000E+00  0.00000000000E+00  0.18025665775E+04  0.18025665775E+04  0.50400001928E-02 0.  1.
       -1   -1    0    0    0  501  0.00000000000E+00  0.00000000000E+00 -0.22098054493E+04  0.22098054493E+04  0.50400001928E-02 0. -1.
    10030    2    1    2    0    0  0.00000000000E+00  0.00000000000E+00 -0.40723887185E+03  0.40123720269E+04  0.39916520118E+04 0.  0.
        5    1    3    3  502    0 -0.36897547534E+03 -0.13270342335E+04  0.12482243567E+04  0.18588299796E+04  0.46999998093E+01 0.  1.
       -5    1    3    3    0  502  0.36897547534E+03  0.13270342335E+04 -0.16554632286E+04  0.21535420473E+04  0.46999998093E+01 0. -1.
</event>
<event>
 5   0  0.8528625E-08  0.3744936E+04  0.7818609E-02  0.8058076E-01
        1   -1    0    0  501    0  0.00000000000E+00  0.00000000000E+00  0.15757538972E+04  0.15757538972E+04  0.50400001928E-02 0. -1.
       -1   -1    0    0    0  501  0.00000000000E+00  0.00000000000E+00 -0.22250531108E+04  0.22250531108E+04  0.50400001928E-02 0.  1.
    10030    2    1    2    0    0  0.00000000000E+00  0.00000000000E+00 -0.64929921360E+03  0.38008070079E+04  0.37449358396E+04 0.  0.
        4    1    3    3  502    0  0.45989145548E+03 -0.17602475313E+04  0.12486101323E+03  0.18236127352E+04  0.12699999809E+01 0.  1.
       -4    1    3    3    0  502 -0.45989145548E+03  0.17602475313E+04 -0.77416022683E+03  0.19771942727E+04  0.12699999809E+01 0. -1.
</event>
<event>
 5   0  0.8528625E-08  0.4030076E+04  0.7818609E-02  0.7998507E-01
       -1   -1    0    0    0  501  0.00000000000E+00  0.00000000000E+00  0.20437328871E+04  0.20437328871E+04  0.50400001928E-02 0.  1.
        1   -1    0    0  501    0  0.00000000000E+00  0.00000000000E+00 -0.19867455732E+04  0.19867455732E+04  0.50400001928E-02 0. -1.
    10030    2    1    2    0    0  0.00000000000E+00  0.00000000000E+00  0.56987313892E+02  0.40304784603E+04  0.40300755656E+04 0.  0.
        3    1    3    3  502    0  0.10866027959E+04  0.10861995152E+04  0.13324039772E+04  0.20336753407E+04  0.10100000352E+00 0.  1.
       -3    1    3    3    0  502 -0.10866027959E+04 -0.10861995152E+04 -0.12754166633E+04  0.19968031195E+04  0.10100000352E+00 0. -1.
</event>
<event>
 5   0  0.8528625E-08  0.4043580E+04  0.7818609E-02  0.7995812E-01
        1   -1    0    0  501    0  0.00000000000E+00  0.00000000000E+00  0.20294261239E+04  0.20294261239E+04  0.50400001928E-02 0.  1.
       -1   -1    0    0    0  501  0.00000000000E+00  0.00000000000E+00 -0.20141822393E+04  0.20141822393E+04  0.50400001928E-02 0. -1.
    10030    2    1    2    0    0  0.00000000000E+00  0.00000000000E+00  0.15243884542E+02  0.40436083632E+04  0.40435796294E+04 0.  0.
        5    1    3    3  502    0 -0.14529275786E+04 -0.10152544159E+04 -0.96494442050E+03  0.20181377313E+04  0.46999998093E+01 0. -1.
       -5    1    3    3    0  502  0.14529275786E+04  0.10152544159E+04  0.98018830504E+03  0.20254706320E+04  0.46999998093E+01 0.  1.
</event>
<event>
 5   0  0.2730801E-07  0.3621365E+04  0.7818609E-02  0.8085615E-01
       -2   -1    0    0    0  501  0.00000000000E+00  0.00000000000E+00  0.22536707352E+04  0.22536707352E+04  0.25500000920E-02 0. -1.
        2   -1    0    0  501    0  0.00000000000E+00  0.00000000000E+00 -0.14547696949E+04  0.14547696949E+04  0.25500000920E-02 0.  1.
    10030    2    1    2    0    0  0.00000000000E+00  0.00000000000E+00  0.79890104023E+03  0.37084404301E+04  0.36213654264E+04 0.  0.
        2    1    3    3  502    0  0.19376241230E+03 -0.75136426881E+03  0.20747827258E+04  0.22151332908E+04  0.25500000920E-02 0. -1.
       -2    1    3    3    0  502 -0.19376241230E+03  0.75136426881E+03 -0.12758816855E+04  0.14933071393E+04  0.25500000920E-02 0.  1.
</event>
<event>
 5   0  0.2730801E-07  0.3647200E+04  0.7818609E-02  0.8079765E-01
        2   -1    0    0  501    0  0.00000000000E+00  0.00000000000E+00  0.17303748859E+04  0.17303748859E+04  0.25500000920E-02 0. -1.
       -2   -1    0    0    0  501  0.00000000000E+00  0.00000000000E+00 -0.19218476831E+04  0.19218476832E+04  0.25500000920E-02 0.  1.
    10030    2    1    2    0    0  0.00000000000E+00  0.00000000000E+00 -0.19147279723E+03  0.36522225691E+04  0.36472000030E+04 0.  0.
        2    1    3    3  502    0  0.15777604228E+04  0.26833450007E+03 -0.97111733394E+03  0.18720043355E+04  0.25500000920E-02 0.  1.
       -2    1    3    3    0  502 -0.15777604228E+04 -0.26833450007E+03  0.77964453671E+03  0.17802182336E+04  0.25500000920E-02 0. -1.
</event>
<event>
 5   0  0.8528625E-08  0.3965404E+04  0.7818609E-02  0.8011562E-01
       -1   -1    0    0    0  501  0.00000000000E+00  0.00000000000E+00  0.16335420229E+04  0.16335420229E+04  0.50400001928E-02 0.  1.
        1   -1    0    0  501    0  0.00000000000E+00  0.00000000000E+00 -0.24064934015E+04  0.24064934015E+04  0.50400001928E-02 0. -1.
    10030    2    1    2    0    0  0.00000000000E+00  0.00000000000E+00 -0.77295137863E+03  0.40400354244E+04  0.39654044430E+04 0.  0.
        4    1    3    3  502    0 -0.37718607103E+03  0.59479106283E+03  0.15017977967E+04  0.16587477131E+04  0.12699999809E+01 0.  1.
       -4    1    3    3    0  502  0.37718607103E+03 -0.59479106283E+03 -0.22747491753E+04  0.23812877113E+04  0.12699999809E+01 0. -1.
</event>
<event>
 5   0  0.8528625E-08  0.4004185E+04  0.7818609E-02  0.8003703E-01
       -1   -1    0    0    0  501  0.00000000000E+00  0.00000000000E+00  0.20491971007E+04  0.20491971007E+04  0.50400001928E-02 0. -1.
        1   -1    0    0  501    0  0.00000000000E+00  0.00000000000E+00 -0.19560710541E+04  0.19560710541E+04  0.50400001928E-02 0.  1.
    10030    2    1    2    0    0  0.00000000000E+00  0.00000000000E+00  0.93126046599E+02  0.40052681548E+04  0.40041853767E+04 0.  0.
        3    1    3    3  502    0  0.19476124350E+04 -0.31373681408E+03 -0.29521656479E+03  0.19946873980E+04  0.10100000352E+00 0.  1.
       -3    1    3    3    0  502 -0.19476124350E+04  0.31373681408E+03  0.38834261139E+03  0.20105807568E+04  0.10100000352E+00 0. -1.
</event>
<event>
 5   0  0.8583262E-08  0.4015097E+04  0.7818609E-02  0.8001508E-01
       -1   -1    0    0    0  501  0.00000000000E+00  0.00000000000E+00  0.27541285802E+04  0.27541285802E+04  0.50400001928E-02 0.  1.
        1   -1    0    0  501    0  0.00000000000E+00  0.00000000000E+00 -0.14633485935E+04  0.14633485935E+04  0.50400001928E-02 0. -1.
    10030    2    1    2    0    0  0.00000000000E+00  0.00000000000E+00  0.12907799868E+04  0.42174771737E+04  0.40150966037E+04 0.  0.
        1    1    3    3  502    0  0.20060679726E+04  0.76963451344E+02  0.64985891816E+03  0.21101063237E+04  0.50400001928E-02 0. -1.
       -1    1    3    3    0  502 -0.20060679726E+04 -0.76963451344E+02  0.64092106860E+03  0.21073708501E+04  0.50400001928E-02 0.  1.
</event>
<event>
 5   0  0.8528625E-08  0.4033375E+04  0.7818609E-02  0.7997847E-01
        1   -1    0    0  501    0  0.00000000000E+00  0.00000000000E+00  0.21717167972E+04  0.21717167972E+04  0.50400001928E-02 0.  1.
       -1   -1    0    0    0  501  0.00000000000E+00  0.00000000000E+00 -0.18727253314E+04  0.18727253314E+04  0.50400001928E-02 0. -1.
    10030    2    1    2    0    0  0.00000000000E+00  0.00000000000E+00  0.29899146580E+03  0.40444421286E+04  0.40333752906E+04 0.  0.
        5    1    3    3  502    0 -0.10736231268E+04  0.27377725482E+03 -0.15401756098E+04  0.18973095696E+04  0.46999998093E+01 0. -1.
       -5    1    3    3    0  502  0.10736231268E+04 -0.27377725482E+03  0.18391670756E+04  0.21471325590E+04  0.46999998093E+01 0.  1.
</event>
<event>
 5   0  0.2666978E-07  0.3555588E+04  0.7818609E-02  0.8100741E-01
       -2   -1    0    0    0  501  0.00000000000E+00  0.00000000000E+00  0.13426710428E+04  0.13426710428E+04  0.25500000920E-02 0. -1.
        2   -1    0    0  501    0  0.00000000000E+00  0.00000000000E+00 -0.23539278610E+04  0.23539278610E+04  0.25500000920E-02 0.  1.
    10030    2    1    2    0    0  0.00000000000E+00  0.00000000000E+00 -0.10112568182E+04  0.36965989038E+04  0.35555875890E+04 0.  0.
        4    1    3    3  502    0  0.15697327515E+04  0.68154035945E+03 -0.48720098630E+01  0.17113104693E+04  0.12699999809E+01 0. -1.
       -4    1    3    3    0  502 -0.15697327515E+04 -0.68154035945E+03 -0.10063848084E+04  0.19852884345E+04  0.12699999809E+01 0.  1.
</event>
<event>
 5   0  0.2839279E-07  0.4004835E+04  0.7818609E-02  0.8003572E-01
        2   -1    0    0  501    0  0.00000000000E+00  0.00000000000E+00  0.25052467828E+04  0.25052467828E+04  0.25500000920E-02 0. -1.
       -2   -1    0    0    0  501  0.00000000000E+00  0.00000000000E+00 -0.16005109532E+04  0.16005109532E+04  0.25500000920E-02 0.  1.
    10030    2    1    2    0    0  0.00000000000E+00  0.00000000000E+00  0.90473582963E+03  0.41057577360E+04  0.40048345366E+04 0.  0.
        3    1    3    3  502    0 -0.38406334314E+03 -0.32484172024E+02  0.24668578998E+04  0.24967874922E+04  0.10100000352E+00 0. -1.
       -3    1    3    3    0  502  0.38406334314E+03  0.32484172024E+02 -0.15621220702E+04  0.16089702438E+04  0.10100000352E+00 0.  1.
</event>
<event>
 5   0  0.2661693E-07  0.3934814E+04  0.7818609E-02  0.8017827E-01
        2   -1    0    0  501    0  0.00000000000E+00  0.00000000000E+00  0.26174287321E+04  0.26174287321E+04  0.25500000920E-02 0.  1.
       -2   -1    0    0    0  501  0.00000000000E+00  0.00000000000E+00 -0.14788139063E+04  0.14788139063E+04  0.25500000920E-02 0. -1.
    10030    2    1    2    0    0  0.00000000000E+00  0.00000000000E+00  0.11386148259E+04  0.40962426384E+04  0.39348138496E+04 0.  0.
        1    1    3    3  502    0 -0.10464262414E+04 -0.11233673984E+04  0.18501193854E+04  0.24041430762E+04  0.50400001928E-02 0.  1.
       -1    1    3    3    0  502  0.10464262414E+04  0.11233673984E+04 -0.71150455953E+03  0.16920995623E+04  0.50400001928E-02 0. -1.
</event>
<event>
 5   0  0.2839279E-07  0.3802366E+04  0.7818609E-02  0.8045647E-01
        2   -1    0    0  501    0  0.00000000000E+00  0.00000000000E+00  0.22814880034E+04  0.22814880034E+04  0.25500000920E-02 0. -1.
       -2   -1    0    0    0  501  0.00000000000E+00  0.00000000000E+00 -0.15842720464E+04  0.15842720464E+04  0.25500000920E-02 0.  1.
    10030    2    1    2    0    0  0.00000000000E+00  0.00000000000E+00  0.69721595699E+03  0.38657600498E+04  0.38023664568E+04 0.  0.
        3    1    3    3  502    0 -0.17231833197E+04 -0.15553143012E+03  0.11497474833E+04  0.20773709502E+04  0.10100000352E+00 0. -1.
       -3    1    3    3    0  502  0.17231833197E+04  0.15553143012E+03 -0.45253152630E+03  0.17883890996E+04  0.10100000352E+00 0.  1.
</event>
<event>
 5   0  0.2704088E-07  0.3952439E+04  0.7818609E-02  0.8014210E-01
        2   -1    0    0  501    0  0.00000000000E+00  0.00000000000E+00  0.23580199946E+04  0.23580199946E+04  0.25500000920E-02 0.  1.
       -2   -1    0    0    0  501  0.00000000000E+00  0.00000000000E+00 -0.16562382735E+04  0.16562382735E+04  0.25500000920E-02 0. -1.
    10030    2    1    2    0    0  0.00000000000E+00  0.00000000000E+00  0.70178172110E+03  0.40142582681E+04  0.39524387230E+04 0.  0.
        5    1    3    3  502    0 -0.31387033675E+02 -0.95278275028E+03  0.21090472618E+04  0.23144940177E+04  0.46999998093E+01 0.  1.
       -5    1    3    3    0  502  0.31387033675E+02  0.95278275028E+03 -0.14072655407E+04  0.16997642505E+04  0.46999998093E+01 0. -1.
</event>
<event>
 5   0  0.8528625E-08  0.4006574E+04  0.7818609E-02  0.8003222E-01
       -1   -1    0    0    0  501  0.00000000000E+00  0.00000000000E+00  0.25954550607E+04  0.25954550607E+04  0.50400001928E-02 0.  1.
        1   -1    0    0  501    0  0.00000000000E+00  0.00000000000E+00 -0.15462258509E+04  0.15462258510E+04  0.50400001928E-02 0. -1.
    10030    2    1    2    0    0  0.00000000000E+00  0.00000000000E+00  0.10492292097E+04  0.41416809116E+04  0.40065744520E+04 0.  0.
        2    1    3    3  502    0  0.51308548360E+03  0.17924701023E+04  0.12820959316E+04  0.22627363432E+04  0.25500000920E-02 0.  1.
       -2    1    3    3    0  502 -0.51308548360E+03 -0.17924701023E+04 -0.23286672190E+03  0.18789445684E+04  0.25500000920E-02 0. -1.
</event>
<event>
 5   0  0.8528625E-08  0.3050282E+04  0.7818609E-02  0.8229517E-01
        1   -1    0    0  501    0  0.00000000000E+00  0.00000000000E+00  0.11590964638E+04  0.11590964638E+04  0.50400001928E-02 0.  1.
       -1   -1    0    0    0  501  0.00000000000E+00  0.00000000000E+00 -0.20067830772E+04  0.20067830772E+04  0.50400001928E-02 0. -1.
    10030    2    1    2    0    0  0.00000000000E+00  0.00000000000E+00 -0.84768661342E+03  0.31658795410E+04  0.30502820646E+04 0.  0.
        3    1    3    3  502    0 -0.54078678741E+03 -0.21193593122E+03 -0.18874948954E+04  0.19748428238E+04  0.10100000352E+00 0. -1.
       -3    1    3    3    0  502  0.54078678741E+03  0.21193593122E+03  0.10398082820E+04  0.11910367172E+04  0.10100000352E+00 0.  1.
</event>
<event>
 5   0  0.2661693E-07  0.3957046E+04  0.7818609E-02  0.8013268E-01
       -2   -1    0    0    0  501  0.00000000000E+00  0.00000000000E+00  0.15268996479E+04  0.15268996479E+04  0.25500000920E-02 0. -1.
        2   -1    0    0  501    0  0.00000000000E+00  0.00000000000E+00 -0.25637271291E+04  0.25637271291E+04  0.25500000920E-02 0.  1.
    10030    2    1    2    0    0  0.00000000000E+00  0.00000000000E+00 -0.10368274812E+04  0.40906267769E+04  0.39570463988E+04 0.  0.
        1    1    3    3  502    0  0.46905235216E+03 -0.17932141138E+04  0.19699363446E+03  0.18639832239E+04  0.50400001928E-02 0.  1.
       -1    1    3    3    0  502 -0.46905235216E+03  0.17932141138E+04 -0.12338211156E+04  0.22266435530E+04  0.50400001928E-02 0. -1.
</event>
<event>
 5   0  0.8528625E-08  0.3274942E+04  0.7818609E-02  0.8169301E-01
        1   -1    0    0  501    0  0.00000000000E+00  0.00000000000E+00  0.18654438978E+04  0.18654438978E+04  0.50400001928E-02 0.  1.
       -1   -1    0    0    0  501  0.00000000000E+00  0.00000000000E+00 -0.14373587281E+04  0.14373587281E+04  0.50400001928E-02 0. -1.
    10030    2    1    2    0    0  0.00000000000E+00  0.00000000000E+00  0.42808516972E+03  0.33028026258E+04  0.32749424839E+04 0.  0.
        3    1    3    3  502    0  0.15116310078E+04  0.57274549289E+03  0.47750500263E+03  0.16855493885E+04  0.10100000352E+00 0. -1.
       -3    1    3    3    0  502 -0.15116310078E+04 -0.57274549289E+03 -0.49419832907E+02  0.16172532373E+04  0.10100000352E+00 0.  1.
</event>
<event>
 5   0  0.8528625E-08  0.4031722E+04  0.7818609E-02  0.7998178E-01
       -1   -1    0    0    0  501  0.00000000000E+00  0.00000000000E+00  0.25198080800E+04  0.25198080800E+04  0.50400001928E-02 0. -1.
        1   -1    0    0  501    0  0.00000000000E+00  0.00000000000E+00 -0.16127008122E+04  0.16127008122E+04  0.50400001928E-02 0.  1.
    10030    2    1    2    0    0  0.00000000000E+00  0.00000000000E+00  0.90710726778E+03  0.41325088923E+04  0.40317224792E+04 0.  0.
        2    1    3    3  502    0 -0.19338017087E+04  0.56920835009E+03  0.44283552138E+03  0.20639017645E+04  0.25500000920E-02 0. -1.
       -2    1    3    3    0  502  0.19338017087E+04 -0.56920835009E+03  0.46427174640E+03  0.20686071278E+04  0.25500000920E-02 0.  1.
</event>
<event>
 5   0  0.8528625E-08  0.3878877E+04  0.7818609E-02  0.8029437E-01
        1   -1    0    0  501    0  0.00000000000E+00  0.00000000000E+00  0.22657870090E+04  0.22657870090E+04  0.50400001928E-02 0. -1.
       -1   -1    0    0    0  501  0.00000000000E+00  0.00000000000E+00 -0.16600948848E+04  0.16600948848E+04  0.50400001928E-02 0.  1.
    10030    2    1    2    0    0  0.00000000000E+00  0.00000000000E+00  0.60569212423E+03  0.39258818938E+04  0.38788768600E+04 0.  0.
        4    1    3    3  502    0 -0.18235597979E+03 -0.88503960309E+03 -0.14340121878E+04  0.16949753302E+04  0.12699999809E+01 0.  1.
       -4    1    3    3    0  502  0.18235597979E+03  0.88503960309E+03  0.20397043120E+04  0.22309065636E+04  0.12699999809E+01 0. -1.
</event>
<event>
 5   0  0.2666978E-07  0.4060584E+04  0.7818609E-02  0.7992435E-01
        2   -1    0    0  501    0  0.00000000000E+00  0.00000000000E+00  0.16328877011E+04  0.16328877011E+04  0.25500000920E-02 0. -1.
       -2   -1    0    0    0  501  0.00000000000E+00  0.00000000000E+00 -0.25244152365E+04  0.25244152365E+04  0.25500000920E-02 0.  1.
    10030    2    1    2    0    0  0.00000000000E+00  0.00000000000E+00 -0.89152753533E+03  0.41573029376E+04  0.40605844861E+04 0.  0.
        4    1    3    3  502    0 -0.18166776808E+04  0.10487371132E+03  0.47611031404E+03  0.18809569201E+04  0.12699999809E+01 0. -1.
       -4    1    3    3    0  502  0.18166776808E+04 -0.10487371132E+03 -0.13676378494E+04  0.22763460175E+04  0.12699999809E+01 0.  1.
</event>
<event>
 5   0  0.8528625E-08  0.3981756E+04  0.7818609E-02  0.8008237E-01
        3   -1    0    0  501    0  0.00000000000E+00  0.00000000000E+00  0.14050468971E+04  0.14050469007E+04  0.10100000352E+00 0.  1.
       -3   -1    0    0    0  501  0.00000000000E+00  0.00000000000E+00 -0.28209700673E+04  0.28209700691E+04  0.10100000352E+00 0. -1.
    10030    2    1    2    0    0  0.00000000000E+00  0.00000000000E+00 -0.14159231702E+04  0.42260169698E+04  0.39817560203E+04 0.  0.
        3    1    3    3  502    0 -0.12411092000E+04 -0.31347752755E+02  0.94387475409E+03  0.15595622108E+04  0.10100000352E+00 0.  1.
       -3    1    3    3    0  502  0.12411092000E+04  0.31347752755E+02 -0.23597979243E+04  0.26664547590E+04  0.10100000352E+00 0. -1.
</event>
<event>
 5   0  0.8528625E-08  0.4017259E+04  0.7818609E-02  0.8001074E-01
       -1   -1    0    0    0  501  0.00000000000E+00  0.00000000000E+00  0.18101519256E+04  0.18101519256E+04  0.50400001928E-02 0.  1.
        1   -1    0    0  501    0  0.00000000000E+00  0.00000000000E+00 -0.22288698508E+04  0.22288698509E+04  0.50400001928E-02 0. -1.
    10030    2    1    2    0    0  0.00000000000E+00  0.00000000000E+00 -0.41871792524E+03  0.40390217765E+04  0.40172592908E+04 0.  0.
        5    1    3    3  502    0 -0.84499808475E+03  0.18134167515E+04 -0.29310980255E+02  0.20008456466E+04  0.46999998093E+01 0.  1.
       -5    1    3    3    0  502  0.84499808475E+03 -0.18134167515E+04 -0.38940694499E+03  0.20381761299E+04  0.46999998093E+01 0. -1.
</event>
<event>
 5   0  0.8528625E-08  0.3937515E+04  0.7818609E-02  0.8017272E-01
        1   -1    0    0  501    0  0.00000000000E+00  0.00000000000E+00  0.21522208420E+04  0.21522208420E+04  0.50400001928E-02 0.  1.
       -1   -1    0    0    0  501  0.00000000000E+00  0.00000000000E+00 -0.18009335437E+04  0.18009335437E+04  0.50400001928E-02 0. -1.
    10030    2    1    2    0    0  0.00000000000E+00  0.00000000000E+00  0.35128729829E+03  0.39531543858E+04  0.39375153120E+04 0.  0.
        5    1    3    3  502    0  0.15240448992E+04 -0.43063458459E+02  0.14261498083E+04  0.20877003334E+04  0.46999998093E+01 0.  1.
       -5    1    3    3    0  502 -0.15240448992E+04  0.43063458459E+02 -0.10748625100E+04  0.18654540524E+04  0.46999998093E+01 0. -1.
</event>
<event>
 5   0  0.2704088E-07  0.3977606E+04  0.7818609E-02  0.8009079E-01
       -2   -1    0    0    0  501  0.00000000000E+00  0.00000000000E+00  0.14971142454E+04  0.14971142454E+04  0.25500000920E-02 0.  1.
        2   -1    0    0  501    0  0.00000000000E+00  0.00000000000E+00 -0.26419738448E+04  0.26419738448E+04  0.25500000920E-02 0. -1.
    10030    2    1    2    0    0  0.00000000000E+00  0.00000000000E+00 -0.11448595994E+04  0.41390880902E+04  0.39776056512E+04 0.  0.
        5    1    3    3  502    0  0.16628721373E+04 -0.90415213996E+02 -0.17037640534E+04  0.23824677743E+04  0.46999998093E+01 0.  1.
       -5    1    3    3    0  502 -0.16628721373E+04  0.90415213996E+02  0.55890445392E+03  0.17566203160E+04  0.46999998093E+01 0. -1.
</event>
<event>
 5   0  0.2661693E-07  0.3279308E+04  0.7818609E-02  0.8168181E-01
       -2   -1    0    0    0  501  0.00000000000E+00  0.00000000000E+00  0.19321277605E+04  0.19321277605E+04  0.25500000920E-02 0.  1.
        2   -1    0    0  501    0  0.00000000000E+00  0.00000000000E+00 -0.13914531381E+04  0.13914531381E+04  0.25500000920E-02 0. -1.
    10030    2    1    2    0    0  0.00000000000E+00  0.00000000000E+00  0.54067462240E+03  0.33235808985E+04  0.32793079974E+04 0.  0.
        1    1    3    3  502    0 -0.16122406751E+04 -0.19003100466E+03  0.36938295754E+02  0.16238214850E+04  0.50400001928E-02 0.  1.
       -1    1    3    3    0  502  0.16122406751E+04  0.19003100466E+03  0.50373632665E+03  0.16997594136E+04  0.50400001928E-02 0. -1.
</event>
<event>
 5   0  0.8528625E-08  0.3984702E+04  0.7818609E-02  0.8007640E-01
       -1   -1    0    0    0  501  0.00000000000E+00  0.00000000000E+00  0.15915467200E+04  0.15915467201E+04  0.50400001928E-02 0. -1.
        1   -1    0    0  501    0  0.00000000000E+00  0.00000000000E+00 -0.24940906520E+04  0.24940906520E+04  0.50400001928E-02 0.  1.
    10030    2    1    2    0    0  0.00000000000E+00  0.00000000000E+00 -0.90254393197E+03  0.40856373721E+04  0.39847016434E+04 0.  0.
        2    1    3    3  502    0  0.71076067881E+03  0.12693431837E+04  0.94447744348E+03  0.17344885418E+04  0.25500000920E-02 0. -1.
       -2    1    3    3    0  502 -0.71076067881E+03 -0.12693431837E+04 -0.18470213754E+04  0.23511488302E+04  0.25500000920E-02 0.  1.
</event>
<event>
 5   0  0.8528625E-08  0.3938456E+04  0.7818609E-02  0.8017078E-01
       -4   -1    0    0    0  501  0.00000000000E+00  0.00000000000E+00  0.17455888060E+04  0.17455892680E+04  0.12699999809E+01 0.  1.
        4   -1    0    0  501    0  0.00000000000E+00  0.00000000000E+00 -0.22215184397E+04  0.22215188027E+04  0.12699999809E+01 0. -1.
    10030    2    1    2    0    0  0.00000000000E+00  0.00000000000E+00 -0.47592963373E+03  0.39671080707E+04  0.39384562240E+04 0.  0.
        1    1    3    3  502    0 -0.16044155441E+04 -0.67802551108E+03  0.68740866912E+03  0.18725379863E+04  0.50400001928E-02 0. -1.
       -1    1    3    3    0  502  0.16044155441E+04  0.67802551108E+03 -0.11633383028E+04  0.20945700844E+04  0.50400001928E-02 0.  1.
</event>
<event>
 5   0  0.2661693E-07  0.4014303E+04  0.7818609E-02  0.8001667E-01
        2   -1    0    0  501    0  0.00000000000E+00  0.00000000000E+00  0.21893648642E+04  0.21893648642E+04  0.25500000920E-02 0. -1.
       -2   -1    0    0    0  501  0.00000000000E+00  0.00000000000E+00 -0.18401029392E+04  0.18401029392E+04  0.25500000920E-02 0.  1.
    10030    2    1    2    0    0  0.00000000000E+00  0.00000000000E+00  0.34926192498E+03  0.40294678034E+04  0.40143027896E+04 0.  0.
        1    1    3    3  502    0  0.14372417732E+04  0.10608605722E+04  0.10932755298E+04  0.20943591985E+04  0.50400001928E-02 0. -1.
       -1    1    3    3    0  502 -0.14372417732E+04 -0.10608605722E+04 -0.74401360477E+03  0.19351086049E+04  0.50400001928E-02 0.  1.
</event>
<event>
 5   0  0.2661693E-07  0.4011739E+04  0.7818609E-02  0.8002183E-01
       -2   -1    0    0    0  501  0.00000000000E+00  0.00000000000E+00  0.15670367300E+04  0.15670367300E+04  0.25500000920E-02 0.  1.
        2   -1    0    0  501    0  0.00000000000E+00  0.00000000000E+00 -0.25675930459E+04  0.25675930459E+04  0.25500000920E-02 0. -1.
    10030    2    1    2    0    0  0.00000000000E+00  0.00000000000E+00 -0.10005563159E+04  0.41346297760E+04  0.40117390796E+04 0.  0.
        1    1    3    3  502    0  0.17579419773E+04  0.27464334107E+03 -0.14547819135E+04  0.22982992355E+04  0.50400001928E-02 0. -1.
       -1    1    3    3    0  502 -0.17579419773E+04 -0.27464334107E+03  0.45422559760E+03  0.18363305404E+04  0.50400001928E-02 0.  1.
</event>
<event>
 5   0  0.2839279E-07  0.3980804E+04  0.7818609E-02  0.8008430E-01
       -2   -1    0    0    0  501  0.00000000000E+00  0.00000000000E+00  0.13626382686E+04  0.13626382686E+04  0.25500000920E-02 0. -1.
        2   -1    0    0  501    0  0.00000000000E+00  0.00000000000E+00 -0.29073747215E+04  0.29073747215E+04  0.25500000920E-02 0.  1.
    10030    2    1    2    0    0  0.00000000000E+00  0.00000000000E+00 -0.15447364529E+04  0.42700129901E+04  0.39808039674E+04 0.  0.
        3    1    3    3  502    0 -0.13600725857E+04  0.66349424739E+03  0.61449846298E+03  0.16332882250E+04  0.10100000352E+00 0. -1.
       -3    1    3    3    0  502  0.13600725857E+04 -0.66349424739E+03 -0.21592349158E+04  0.26367247651E+04  0.10100000352E+00 0.  1.
</event>
<event>
 5   0  0.8528625E-08  0.3988811E+04  0.7818609E-02  0.8006808E-01
       -1   -1    0    0    0  501  0.00000000000E+00  0.00000000000E+00  0.14346047850E+04  0.14346047850E+04  0.50400001928E-02 0.  1.
        1   -1    0    0  501    0  0.00000000000E+00  0.00000000000E+00 -0.27726476038E+04  0.27726476038E+04  0.50400001928E-02 0. -1.
    10030    2    1    2    0    0  0.00000000000E+00  0.00000000000E+00 -0.13380428188E+04  0.42072523888E+04  0.39888111108E+04 0.  0.
        4    1    3    3  502    0 -0.15669722319E+04  0.42953072131E+03  0.55093161707E+03  0.17156415347E+04  0.12699999809E+01 0.  1.
       -4    1    3    3    0  502  0.15669722319E+04 -0.42953072131E+03 -0.18889744358E+04  0.24916108541E+04  0.12699999809E+01 0. -1.
</event>
<event>
 5   0  0.8528625E-08  0.3998447E+04  0.7818609E-02  0.8004860E-01
       -1   -1    0    0    0  501  0.00000000000E+00  0.00000000000E+00  0.14732128767E+04  0.14732128767E+04  0.50400001928E-02 0.  1.
        1   -1    0    0  501    0  0.00000000000E+00  0.00000000000E+00 -0.27130457613E+04  0.27130457614E+04  0.50400001928E-02 0. -1.
    10030    2    1    2    0    0  0.00000000000E+00  0.00000000000E+00 -0.12398328846E+04  0.41862586381E+04  0.39984466738E+04 0.  0.
        4    1    3    3  502    0 -0.12796171425E+04 -0.22133024523E+03  0.97150918203E+03  0.16218011014E+04  0.12699999809E+01 0.  1.
       -4    1    3    3    0  502  0.12796171425E+04  0.22133024523E+03 -0.22113420666E+04  0.25644575367E+04  0.12699999809E+01 0. -1.
</event>
<event>
 5   0  0.8583262E-08  0.3821664E+04  0.7818609E-02  0.8041522E-01
        1   -1    0    0  501    0  0.00000000000E+00  0.00000000000E+00  0.27931351356E+04  0.27931351357E+04  0.50400001928E-02 0. -1.
       -1   -1    0    0    0  501  0.00000000000E+00  0.00000000000E+00 -0.13072333907E+04  0.13072333907E+04  0.50400001928E-02 0.  1.
    10030    2    1    2    0    0  0.00000000000E+00  0.00000000000E+00  0.14859017450E+04  0.41003685264E+04  0.38216643045E+04 0.  0.
        1    1    3    3  502    0  0.54280915480E+03  0.26734149755E+03 -0.12017330881E+04  0.13454648527E+04  0.50400001928E-02 0.  1.
       -1    1    3    3    0  502 -0.54280915480E+03 -0.26734149755E+03  0.26876348331E+04  0.27549036736E+04  0.50400001928E-02 0. -1.
</event>
<event>
 5   0  0.2704088E-07  0.3922367E+04  0.7818609E-02  0.8020393E-01
        2   -1    0    0  501    0  0.00000000000E+00  0.00000000000E+00  0.19760047859E+04  0.19760047859E+04  0.25500000920E-02 0.  1.
       -2   -1    0    0    0  501  0.00000000000E+00  0.00000000000E+00 -0.19464733268E+04  0.19464733268E+04  0.25500000920E-02 0. -1.
    10030    2    1    2    0    0  0.00000000000E+00  0.00000000000E+00  0.29531459139E+02  0.39224781127E+04  0.39223669432E+04 0.  0.
        5    1    3    3  502    0 -0.24787623046E+03  0.37375039454E+02 -0.19303803995E+04  0.19465944868E+04  0.46999998093E+01 0. -1.
       -5    1    3    3    0  502  0.24787623046E+03 -0.37375039454E+02  0.19599118587E+04  0.19758836259E+04  0.46999998093E+01 0.  1.
</event>
<event>
 5   0  0.8528625E-08  0.4008348E+04  0.7818609E-02  0.8002865E-01
       -1   -1    0    0    0  501  0.00000000000E+00  0.00000000000E+00  0.15137722659E+04  0.15137722659E+04  0.50400001928E-02 0.  1.
        1   -1    0    0  501    0  0.00000000000E+00  0.00000000000E+00 -0.26534459312E+04  0.26534459312E+04  0.50400001928E-02 0. -1.
    10030    2    1    2    0    0  0.00000000000E+00  0.00000000000E+00 -0.11396736653E+04  0.41672181971E+04  0.40083477193E+04 0.  0.
        3    1    3    3  502    0  0.78855398589E+03  0.10526849155E+04 -0.21419731093E+04  0.25135655414E+04  0.10100000352E+00 0. -1.
       -3    1    3    3    0  502 -0.78855398589E+03 -0.10526849155E+04  0.10022994440E+04  0.16536526557E+04  0.10100000352E+00 0.  1.
</event>
<event>
 5   0  0.2704088E-07  0.3906649E+04  0.7818609E-02  0.8023648E-01
        2   -1    0    0  501    0  0.00000000000E+00  0.00000000000E+00  0.19014163362E+04  0.19014163362E+04  0.25500000920E-02 0. -1.
       -2   -1    0    0    0  501  0.00000000000E+00  0.00000000000E+00 -0.20066498363E+04  0.20066498363E+04  0.25500000920E-02 0.  1.
    10030    2    1    2    0    0  0.00000000000E+00  0.00000000000E+00 -0.10523350004E+03  0.39080661725E+04  0.39066490908E+04 0.  0.
        5    1    3    3  502    0  0.76496671593E+03  0.65082740571E+03  0.16233130979E+04  0.19089048934E+04  0.46999998093E+01 0. -1.
       -5    1    3    3    0  502 -0.76496671593E+03 -0.65082740571E+03 -0.17285465979E+04  0.19991612790E+04  0.46999998093E+01 0.  1.
</event>
<event>
 5   0  0.2661693E-07  0.3882057E+04  0.7818609E-02  0.8028771E-01
       -2   -1    0    0    0  501  0.00000000000E+00  0.00000000000E+00  0.12504609007E+04  0.12504609007E+04  0.25500000920E-02 0. -1.
        2   -1    0    0  501    0  0.00000000000E+00  0.00000000000E+00 -0.30129624883E+04  0.30129624883E+04  0.25500000920E-02 0.  1.
    10030    2    1    2    0    0  0.00000000000E+00  0.00000000000E+00 -0.17625015875E+04  0.42634233890E+04  0.38820570768E+04 0.  0.
        1    1    3    3  502    0  0.84161090358E+03  0.16483060780E+04 -0.15238561850E+04  0.23973651187E+04  0.50400001928E-02 0. -1.
       -1    1    3    3    0  502 -0.84161090358E+03 -0.16483060780E+04 -0.23864540251E+03  0.18660582703E+04  0.50400001928E-02 0.  1.
</event>
<event>
 5   0  0.2666978E-07  0.3493313E+04  0.7818609E-02  0.8115376E-01
        2   -1    0    0  501    0  0.00000000000E+00  0.00000000000E+00  0.24237062778E+04  0.24237062778E+04  0.25500000920E-02 0.  1.
       -2   -1    0    0    0  501  0.00000000000E+00  0.00000000000E+00 -0.12587372922E+04  0.12587372922E+04  0.25500000920E-02 0. -1.
    10030    2    1    2    0    0  0.00000000000E+00  0.00000000000E+00  0.11649689855E+04  0.36824435700E+04  0.34933133139E+04 0.  0.
        4    1    3    3  502    0 -0.13207398528E+04  0.10837147018E+04  0.96549681991E+03  0.19623906431E+04  0.12699999809E+01 0. -1.
       -4    1    3    3    0  502  0.13207398528E+04 -0.10837147018E+04  0.19947216561E+03  0.17200529270E+04  0.12699999809E+01 0.  1.
</event>
<event>
 5   0  0.2704088E-07  0.4018213E+04  0.7818609E-02  0.8000882E-01
        2   -1    0    0  501    0  0.00000000000E+00  0.00000000000E+00  0.24442165435E+04  0.24442165435E+04  0.25500000920E-02 0. -1.
       -2   -1    0    0    0  501  0.00000000000E+00  0.00000000000E+00 -0.16514530012E+04  0.16514530012E+04  0.25500000920E-02 0.  1.
    10030    2    1    2    0    0  0.00000000000E+00  0.00000000000E+00  0.79276354228E+03  0.40956695447E+04  0.40182129094E+04 0.  0.
        5    1    3    3  502    0  0.61996733982E+03 -0.56545281960E+03  0.22570540722E+04  0.24079891130E+04  0.46999998093E+01 0. -1.
       -5    1    3    3    0  502 -0.61996733982E+03  0.56545281960E+03 -0.14642905299E+04  0.16876804317E+04  0.46999998093E+01 0.  1.
</event>
<event>
 5   0  0.8528625E-08  0.3335921E+04  0.7818609E-02  0.8153815E-01
       -1   -1    0    0    0  501  0.00000000000E+00  0.00000000000E+00  0.13506229715E+04  0.13506229715E+04  0.50400001928E-02 0.  1.
        1   -1    0    0  501    0  0.00000000000E+00  0.00000000000E+00 -0.20598582705E+04  0.20598582705E+04  0.50400001928E-02 0. -1.
    10030    2    1    2    0    0  0.00000000000E+00  0.00000000000E+00 -0.70923529898E+03  0.34104812420E+04  0.33359208013E+04 0.  0.
        4    1    3    3  502    0 -0.66919817041E+03  0.11024288912E+04  0.72681234433E+03  0.14803490967E+04  0.12699999809E+01 0.  1.
       -4    1    3    3    0  502  0.66919817041E+03 -0.11024288912E+04 -0.14360476433E+04  0.19301321453E+04  0.12699999809E+01 0. -1.
</event>
<event>
 5   0  0.2661693E-07  0.4047052E+04  0.7818609E-02  0.7995121E-01
       -2   -1    0    0    0  501  0.00000000000E+00  0.00000000000E+00  0.24568998209E+04  0.24568998209E+04  0.25500000920E-02 0.  1.
        2   -1    0    0  501    0  0.00000000000E+00  0.00000000000E+00 -0.16665955724E+04  0.16665955724E+04  0.25500000920E-02 0. -1.
    10030    2    1    2    0    0  0.00000000000E+00  0.00000000000E+00  0.79030424845E+03  0.41234953933E+04  0.40470524402E+04 0.  0.
        1    1    3    3  502    0  0.14098812872E+04  0.60775912710E+03  0.17382010484E+04  0.23191548644E+04  0.50400001928E-02 0.  1.
       -1    1    3    3    0  502 -0.14098812872E+04 -0.60775912710E+03 -0.94789679996E+03  0.18043405288E+04  0.50400001928E-02 0. -1.
</event>
<event>
 5   0  0.8583262E-08  0.3294199E+04  0.7818609E-02  0.8164373E-01
        1   -1    0    0  501    0  0.00000000000E+00  0.00000000000E+00  0.20004011099E+04  0.20004011099E+04  0.50400001928E-02 0.  1.
       -1   -1    0    0    0  501  0.00000000000E+00  0.00000000000E+00 -0.13561967035E+04  0.13561967035E+04  0.50400001928E-02 0. -1.
    10030    2    1    2    0    0  0.00000000000E+00  0.00000000000E+00  0.64420440642E+03  0.33565978134E+04  0.32941993813E+04 0.  0.
        1    1    3    3  502    0 -0.93917249762E+03  0.88777174549E+02 -0.10536622166E+04  0.14142596769E+04  0.50400001928E-02 0. -1.
       -1    1    3    3    0  502  0.93917249762E+03 -0.88777174549E+02  0.16978666230E+04  0.19423381365E+04  0.50400001928E-02 0.  1.
</event>
<event>
 5   0  0.8528625E-08  0.2943754E+04  0.7818609E-02  0.8259977E-01
       -1   -1    0    0    0  501  0.00000000000E+00  0.00000000000E+00  0.10449883478E+04  0.10449883478E+04  0.50400001928E-02 0.  1.
        1   -1    0    0  501    0  0.00000000000E+00  0.00000000000E+00 -0.20731534579E+04  0.20731534580E+04  0.50400001928E-02 0. -1.
    10030    2    1    2    0    0  0.00000000000E+00  0.00000000000E+00 -0.10281651101E+04  0.31181418058E+04  0.29437535269E+04 0.  0.
        2    1    3    3  502    0  0.71012394980E+03 -0.74017157545E+03 -0.16322163443E+04  0.19277604052E+04  0.25500000920E-02 0. -1.
       -2    1    3    3    0  502 -0.71012394980E+03  0.74017157545E+03  0.60405123420E+03  0.11903814005E+04  0.25500000920E-02 0.  1.
</event>
<event>
 5   0  0.8528625E-08  0.4006489E+04  0.7818609E-02  0.8003239E-01
        1   -1    0    0  501    0  0.00000000000E+00  0.00000000000E+00  0.18550537993E+04  0.18550537993E+04  0.50400001928E-02 0.  1.
       -1   -1    0    0    0  501  0.00000000000E+00  0.00000000000E+00 -0.21632732132E+04  0.21632732132E+04  0.50400001928E-02 0. -1.
    10030    2    1    2    0    0  0.00000000000E+00  0.00000000000E+00 -0.30821941393E+03  0.40183270125E+04  0.40064888334E+04 0.  0.
        2    1    3    3  502    0  0.13422523981E+03  0.18262290404E+04  0.66060771122E+03  0.19466718961E+04  0.25500000920E-02 0.  1.
       -2    1    3    3    0  502 -0.13422523981E+03 -0.18262290404E+04 -0.96882712515E+03  0.20716551164E+04  0.25500000920E-02 0. -1.
</event>
<event>
 5   0  0.8583262E-08  0.3896160E+04  0.7818609E-02  0.8025828E-01
       -1   -1    0    0    0  501  0.00000000000E+00  0.00000000000E+00  0.29735690059E+04  0.29735690059E+04  0.50400001928E-02 0.  1.
        1   -1    0    0  501    0  0.00000000000E+00  0.00000000000E+00 -0.12762490891E+04  0.12762490892E+04  0.50400001928E-02 0. -1.
    10030    2    1    2    0    0  0.00000000000E+00  0.00000000000E+00  0.16973199167E+04  0.42498180951E+04  0.38961595118E+04 0.  0.
        1    1    3    3  502    0 -0.13992212119E+04  0.87067901463E+03  0.19817568082E+04  0.25774526171E+04  0.50400001928E-02 0.  1.
       -1    1    3    3    0  502  0.13992212119E+04 -0.87067901463E+03 -0.28443689151E+03  0.16723654779E+04  0.50400001928E-02 0. -1.
</event>
<event>
 5   0  0.8528625E-08  0.4019363E+04  0.7818609E-02  0.8000652E-01
       -1   -1    0    0    0  501  0.00000000000E+00  0.00000000000E+00  0.14029338717E+04  0.14029338717E+04  0.50400001928E-02 0. -1.
        1   -1    0    0  501    0  0.00000000000E+00  0.00000000000E+00 -0.28788378786E+04  0.28788378786E+04  0.50400001928E-02 0.  1.
    10030    2    1    2    0    0  0.00000000000E+00  0.00000000000E+00 -0.14759040069E+04  0.42817717502E+04  0.40193627211E+04 0.  0.
        4    1    3    3  502    0 -0.18058375815E+04  0.27107522922E+03 -0.16319590989E+04  0.24490453781E+04  0.12699999809E+01 0.  1.
       -4    1    3    3    0  502  0.18058375815E+04 -0.27107522922E+03  0.15605509196E+03  0.18327263722E+04  0.12699999809E+01 0. -1.
</event>
<event>
 5   0  0.2666978E-07  0.3537675E+04  0.7818609E-02  0.8104919E-01
        2   -1    0    0  501    0  0.00000000000E+00  0.00000000000E+00  0.17138649312E+04  0.17138649312E+04  0.25500000920E-02 0. -1.
       -2   -1    0    0    0  501  0.00000000000E+00  0.00000000000E+00 -0.18255736660E+04  0.18255736660E+04  0.25500000920E-02 0.  1.
    10030    2    1    2    0    0  0.00000000000E+00  0.00000000000E+00 -0.11170873476E+03  0.35394385972E+04  0.35376753302E+04 0.  0.
        4    1    3    3  502    0 -0.36668656164E+03  0.17790516193E+03 -0.17779547921E+04  0.18240707598E+04  0.12699999809E+01 0.  1.
       -4    1    3    3    0  502  0.36668656164E+03 -0.17790516193E+03  0.16662460573E+04  0.17153678374E+04  0.12699999809E+01 0. -1.
</event>
<event>
 5   0  0.2666978E-07  0.3980070E+04  0.7818609E-02  0.8008579E-01
       -2   -1    0    0    0  501  0.00000000000E+00  0.00000000000E+00  0.18965664064E+04  0.18965664064E+04  0.25500000920E-02 0.  1.
        2   -1    0    0  501    0  0.00000000000E+00  0.00000000000E+00 -0.20881098409E+04  0.20881098409E+04  0.25500000920E-02 0. -1.
    10030    2    1    2    0    0  0.00000000000E+00  0.00000000000E+00 -0.19154343452E+03  0.39846762473E+04  0.39800698372E+04 0.  0.
        4    1    3    3  502    0  0.35712069425E+03 -0.12422582037E+04 -0.16106312427E+04  0.20651574390E+04  0.12699999809E+01 0. -1.
       -4    1    3    3    0  502 -0.35712069425E+03  0.12422582037E+04  0.14190878082E+04  0.19195188083E+04  0.12699999809E+01 0.  1.
</event>
<event>
 5   0  0.8528625E-08  0.3934149E+04  0.7818609E-02  0.8017964E-01
        1   -1    0    0  501    0  0.00000000000E+00  0.00000000000E+00  0.20268475661E+04  0.20268475661E+04  0.50400001928E-02 0.  1.
       -1   -1    0    0    0  501  0.00000000000E+00  0.00000000000E+00 -0.19090645246E+04  0.19090645246E+04  0.50400001928E-02 0. -1.
    10030    2    1    2    0    0  0.00000000000E+00  0.00000000000E+00  0.11778304150E+03  0.39359120907E+04  0.39341493542E+04 0.  0.
        5    1    3    3  502    0 -0.13283800422E+04 -0.14334612403E+04 -0.16471708396E+03  0.19612645083E+04  0.46999998093E+01 0. -1.
       -5    1    3    3    0  502  0.13283800422E+04  0.14334612403E+04  0.28250012547E+03  0.19746475824E+04  0.46999998093E+01 0.  1.
</event>
<event>
 5   0  0.2730801E-07  0.2904783E+04  0.7818609E-02  0.8271456E-01
       -2   -1    0    0    0  501  0.00000000000E+00  0.00000000000E+00  0.98971361686E+03  0.98971361687E+03  0.25500000920E-02 0. -1.
        2   -1    0    0  501    0  0.00000000000E+00  0.00000000000E+00 -0.21313657298E+04  0.21313657298E+04  0.25500000920E-02 0.  1.
    10030    2    1    2    0    0  0.00000000000E+00  0.00000000000E+00 -0.11416521130E+04  0.31210793467E+04  0.29047834242E+04 0.  0.
        2    1    3    3  502    0  0.47289953618E+03  0.63175678062E+03 -0.18809169281E+04  0.20397546646E+04  0.25500000920E-02 0.  1.
       -2    1    3    3    0  502 -0.47289953618E+03 -0.63175678062E+03  0.73926481517E+03  0.10813246821E+04  0.25500000920E-02 0. -1.
</event>
<event>
 5   0  0.8528625E-08  0.4043649E+04  0.7818609E-02  0.7995799E-01
        3   -1    0    0  501    0  0.00000000000E+00  0.00000000000E+00  0.21259421973E+04  0.21259421997E+04  0.10100000352E+00 0. -1.
       -3   -1    0    0    0  501  0.00000000000E+00  0.00000000000E+00 -0.19228054782E+04  0.19228054809E+04  0.10100000352E+00 0.  1.
    10030    2    1    2    0    0  0.00000000000E+00  0.00000000000E+00  0.20313671904E+03  0.40487476805E+04  0.40436485077E+04 0.  0.
        1    1    3    3  502    0 -0.13966534645E+04  0.10965484007E+04  0.10695936251E+04  0.20729423093E+04  0.50400001928E-02 0. -1.
       -1    1    3    3    0  502  0.13966534645E+04 -0.10965484007E+04 -0.86645690609E+03  0.19758053712E+04  0.50400001928E-02 0.  1.
</event>
<event>
 5   0  0.2661693E-07  0.3999261E+04  0.7818609E-02  0.8004696E-01
       -2   -1    0    0    0  501  0.00000000000E+00  0.00000000000E+00  0.13908480089E+04  0.13908480089E+04  0.25500000920E-02 0.  1.
        2   -1    0    0  501    0  0.00000000000E+00  0.00000000000E+00 -0.28748810761E+04  0.28748810761E+04  0.25500000920E-02 0. -1.
    10030    2    1    2    0    0  0.00000000000E+00  0.00000000000E+00 -0.14840330672E+04  0.42657290850E+04  0.39992612420E+04 0.  0.
        1    1    3    3  502    0 -0.48953599533E+03  0.43592250281E+01  0.13259402705E+04  0.14134291968E+04  0.50400001928E-02 0.  1.
       -1    1    3    3    0  502  0.48953599533E+03 -0.43592250281E+01 -0.28099733377E+04  0.28522998882E+04  0.50400001928E-02 0. -1.
</event>
<event>
 5   0  0.2666978E-07  0.3984035E+04  0.7818609E-02  0.8007775E-01
       -2   -1    0    0    0  501  0.00000000000E+00  0.00000000000E+00  0.17246711326E+04  0.17246711326E+04  0.25500000920E-02 0. -1.
        2   -1    0    0  501    0  0.00000000000E+00  0.00000000000E+00 -0.23008057107E+04  0.23008057107E+04  0.25500000920E-02 0.  1.
    10030    2    1    2    0    0  0.00000000000E+00  0.00000000000E+00 -0.57613457814E+03  0.40254768433E+04  0.39840347343E+04 0.  0.
        4    1    3    3  502    0  0.66088385470E+03  0.14729512852E+04  0.89102411254E+03  0.18439844197E+04  0.12699999809E+01 0. -1.
       -4    1    3    3    0  502 -0.66088385470E+03 -0.14729512852E+04 -0.14671586907E+04  0.21814924237E+04  0.12699999809E+01 0.  1.
</event>
<event>
 5   0  0.8528625E-08  0.3934487E+04  0.7818609E-02  0.8017894E-01
       -1   -1    0    0    0  501  0.00000000000E+00  0.00000000000E+00  0.19517164873E+04  0.19517164873E+04  0.50400001928E-02 0. -1.
        1   -1    0    0  501    0  0.00000000000E+00  0.00000000000E+00 -0.19828943207E+04  0.19828943207E+04  0.50400001928E-02 0.  1.
    10030    2    1    2    0    0  0.00000000000E+00  0.00000000000E+00 -0.31177833365E+02  0.39346108080E+04  0.39344872796E+04 0.  0.
        5    1    3    3  502    0  0.30074397356E+02  0.11981518639E+04 -0.15756228592E+04  0.19796671040E+04  0.46999998093E+01 0.  1.
       -5    1    3    3    0  502 -0.30074397356E+02 -0.11981518639E+04  0.15444450258E+04  0.19549437040E+04  0.46999998093E+01 0. -1.
</event>
<event>
 5   0  0.2666978E-07  0.3976859E+04  0.7818609E-02  0.8009231E-01
       -2   -1    0    0    0  501  0.00000000000E+00  0.00000000000E+00  0.17897141540E+04  0.17897141540E+04  0.25500000920E-02 0.  1.
        2   -1    0    0  501    0  0.00000000000E+00  0.00000000000E+00 -0.22092083783E+04  0.22092083783E+04  0.25500000920E-02 0. -1.
    10030    2    1    2    0    0  0.00000000000E+00  0.00000000000E+00 -0.41949422425E+03  0.39989225323E+04  0.39768588126E+04 0.  0.
        4    1    3    3  502    0 -0.10627116191E+04  0.13798413061E+04 -0.11745136544E+04  0.21006670257E+04  0.12699999809E+01 0. -1.
       -4    1    3    3    0  502  0.10627116191E+04 -0.13798413061E+04  0.75501943019E+03  0.18982555066E+04  0.12699999809E+01 0.  1.
</event>
<event>
 5   0  0.2704088E-07  0.3940953E+04  0.7818609E-02  0.8016565E-01
        2   -1    0    0  501    0  0.00000000000E+00  0.00000000000E+00  0.19075838948E+04  0.19075838948E+04  0.25500000920E-02 0.  1.
       -2   -1    0    0    0  501  0.00000000000E+00  0.00000000000E+00 -0.20354421499E+04  0.20354421499E+04  0.25500000920E-02 0. -1.
    10030    2    1    2    0    0  0.00000000000E+00  0.00000000000E+00 -0.12785825509E+03  0.39430260447E+04  0.39409525062E+04 0.  0.
        5    1    3    3  502    0 -0.10991754389E+04 -0.14828053381E+04 -0.75411543187E+03  0.19938932997E+04  0.46999998093E+01 0. -1.
       -5    1    3    3    0  502  0.10991754389E+04  0.14828053381E+04  0.62625717678E+03  0.19491327450E+04  0.46999998093E+01 0.  1.
</event>
<event>
 5   0  0.2661693E-07  0.4073934E+04  0.7818609E-02  0.7989796E-01
        2   -1    0    0  501    0  0.00000000000E+00  0.00000000000E+00  0.21511736005E+04  0.21511736005E+04  0.25500000920E-02 0.  1.
       -2   -1    0    0    0  501  0.00000000000E+00  0.00000000000E+00 -0.19288234662E+04  0.19288234662E+04  0.25500000920E-02 0. -1.
    10030    2    1    2    0    0  0.00000000000E+00  0.00000000000E+00  0.22235013436E+03  0.40799970667E+04  0.40739337847E+04 0.  0.
        1    1    3    3  502    0  0.24611309995E+03  0.68051466865E+03 -0.17957497374E+04  0.19360756678E+04  0.50400001928E-02 0. -1.
       -1    1    3    3    0  502 -0.24611309995E+03 -0.68051466865E+03  0.20180998717E+04  0.21439213989E+04  0.50400001928E-02 0.  1.
</event>
<event>
 5   0  0.8528625E-08  0.4009747E+04  0.7818609E-02  0.8002583E-01
       -1   -1    0    0    0  501  0.00000000000E+00  0.00000000000E+00  0.21719123079E+04  0.21719123079E+04  0.50400001928E-02 0.  1.
        1   -1    0    0  501    0  0.00000000000E+00  0.00000000000E+00 -0.18506812114E+04  0.18506812114E+04  0.50400001928E-02 0. -1.
    10030    2    1    2    0    0  0.00000000000E+00  0.00000000000E+00  0.32123109650E+03  0.40225935193E+04  0.40097467755E+04 0.  0.
        4    1    3    3  502    0  0.13868404986E+04  0.67742220003E+03  0.14442807835E+04  0.21138060460E+04  0.12699999809E+01 0.  1.
       -4    1    3    3    0  502 -0.13868404986E+04 -0.67742220003E+03 -0.11230496870E+04  0.19087874733E+04  0.12699999809E+01 0. -1.
</event>
<event>
 5   0  0.2661693E-07  0.3295153E+04  0.7818609E-02  0.8164130E-01
        2   -1    0    0  501    0  0.00000000000E+00  0.00000000000E+00  0.22851467960E+04  0.22851467960E+04  0.25500000920E-02 0. -1.
       -2   -1    0    0    0  501  0.00000000000E+00  0.00000000000E+00 -0.11878922267E+04  0.11878922267E+04  0.25500000920E-02 0.  1.
    10030    2    1    2    0    0  0.00000000000E+00  0.00000000000E+00  0.10972545694E+04  0.34730390227E+04  0.32951528740E+04 0.  0.
        1    1    3    3  502    0 -0.16293961491E+04 -0.16672774395E+03  0.73651504969E+03  0.17958798316E+04  0.50400001928E-02 0.  1.
       -1    1    3    3    0  502  0.16293961491E+04  0.16672774395E+03  0.36073951968E+03  0.16771591911E+04  0.50400001928E-02 0. -1.
</event>
<event>
 5   0  0.8528625E-08  0.4025112E+04  0.7818609E-02  0.7999500E-01
       -1   -1    0    0    0  501  0.00000000000E+00  0.00000000000E+00  0.22637294286E+04  0.22637294286E+04  0.50400001928E-02 0. -1.
        1   -1    0    0  501    0  0.00000000000E+00  0.00000000000E+00 -0.17892512444E+04  0.17892512444E+04  0.50400001928E-02 0.  1.
    10030    2    1    2    0    0  0.00000000000E+00  0.00000000000E+00  0.47447818420E+03  0.40529806731E+04  0.40251115251E+04 0.  0.
        2    1    3    3  502    0  0.59780074878E+03  0.42276739069E+03 -0.16503826099E+04  0.18055084494E+04  0.25500000920E-02 0.  1.
       -2    1    3    3    0  502 -0.59780074878E+03 -0.42276739069E+03  0.21248607941E+04  0.22474722237E+04  0.25500000920E-02 0. -1.
</event>
<event>
 5   0  0.2839279E-07  0.4002308E+04  0.7818609E-02  0.8004081E-01
       -2   -1    0    0    0  501  0.00000000000E+00  0.00000000000E+00  0.32602175337E+04  0.32602175337E+04  0.25500000920E-02 0.  1.
        2   -1    0    0  501    0  0.00000000000E+00  0.00000000000E+00 -0.12283284811E+04  0.12283284812E+04  0.25500000920E-02 0. -1.
    10030    2    1    2    0    0  0.00000000000E+00  0.00000000000E+00  0.20318890526E+04  0.44885460149E+04  0.40023083596E+04 0.  0.
        3    1    3    3  502    0 -0.24122596711E+03 -0.18596119670E+04  0.23228795112E+03  0.18895248973E+04  0.10100000352E+00 0. -1.
       -3    1    3    3    0  502  0.24122596711E+03  0.18596119670E+04  0.17996011014E+04  0.25990211176E+04  0.10100000352E+00 0.  1.
</event>
<event>
 5   0  0.8528625E-08  0.4018658E+04  0.7818609E-02  0.8000793E-01
        1   -1    0    0  501    0  0.00000000000E+00  0.00000000000E+00  0.17251951659E+04  0.17251951660E+04  0.50400001928E-02 0.  1.
       -1   -1    0    0    0  501  0.00000000000E+00  0.00000000000E+00 -0.23402582767E+04  0.23402582767E+04  0.50400001928E-02 0. -1.
    10030    2    1    2    0    0  0.00000000000E+00  0.00000000000E+00 -0.61506311078E+03  0.40654534427E+04  0.40186576197E+04 0.  0.
        4    1    3    3  502    0  0.11914500968E+04  0.11179478356E+03  0.13253735968E+04  0.17856842360E+04  0.12699999809E+01 0.  1.
       -4    1    3    3    0  502 -0.11914500968E+04 -0.11179478356E+03 -0.19404367076E+04  0.22797692067E+04  0.12699999809E+01 0. -1.
</event>
<event>
 5   0  0.8583262E-08  0.4196836E+04  0.7818609E-02  0.7965974E-01
       -1   -1    0    0    0  501  0.00000000000E+00  0.00000000000E+00  0.15665899449E+04  0.15665899449E+04  0.50400001928E-02 0. -1.
        1   -1    0    0  501    0  0.00000000000E+00  0.00000000000E+00 -0.28107912327E+04  0.28107912327E+04  0.50400001928E-02 0.  1.
    10030    2    1    2    0    0  0.00000000000E+00  0.00000000000E+00 -0.12442012879E+04  0.43773811776E+04  0.41968356091E+04 0.  0.
        1    1    3    3  502    0  0.41397102003E+03  0.81617810432E+03 -0.25916789301E+04  0.27485120302E+04  0.50400001928E-02 0.  1.
       -1    1    3    3    0  502 -0.41397102003E+03 -0.81617810432E+03  0.13474776422E+04  0.16288691475E+04  0.50400001928E-02 0. -1.
</event>
<event>
 5   0  0.2661693E-07  0.3969238E+04  0.7818609E-02  0.8010781E-01
       -2   -1    0    0    0  501  0.00000000000E+00  0.00000000000E+00  0.12723659077E+04  0.12723659078E+04  0.25500000920E-02 0. -1.
        2   -1    0    0  501    0  0.00000000000E+00  0.00000000000E+00 -0.30955809204E+04  0.30955809205E+04  0.25500000920E-02 0.  1.
    10030    2    1    2    0    0  0.00000000000E+00  0.00000000000E+00 -0.18232150127E+04  0.43679468282E+04  0.39692375227E+04 0.  0.
        1    1    3    3  502    0 -0.14483017307E+04 -0.42805393528E+03 -0.23285423689E+04  0.27754130572E+04  0.50400001928E-02 0.  1.
       -1    1    3    3    0  502  0.14483017307E+04  0.42805393528E+03  0.50532735616E+03  0.15925337710E+04  0.50400001928E-02 0. -1.
</event>
<event>
 5   0  0.2666978E-07  0.3048888E+04  0.7818609E-02  0.8229907E-01
       -2   -1    0    0    0  501  0.00000000000E+00  0.00000000000E+00  0.10536534911E+04  0.10536534911E+04  0.25500000920E-02 0.  1.
        2   -1    0    0  501    0  0.00000000000E+00  0.00000000000E+00 -0.22055914603E+04  0.22055914603E+04  0.25500000920E-02 0. -1.
    10030    2    1    2    0    0  0.00000000000E+00  0.00000000000E+00 -0.11519379693E+04  0.32592449514E+04  0.30488877592E+04 0.  0.
        4    1    3    3  502    0  0.97130071120E+03  0.10740777218E+03  0.67478501475E+03  0.11875596533E+04  0.12699999809E+01 0.  1.
       -4    1    3    3    0  502 -0.97130071120E+03 -0.10740777218E+03 -0.18267229840E+04  0.20716852981E+04  0.12699999809E+01 0. -1.
</event>
<event>
 5   0  0.8528625E-08  0.4041448E+04  0.7818609E-02  0.7996237E-01
       -3   -1    0    0    0  501  0.00000000000E+00  0.00000000000E+00  0.17286737390E+04  0.17286737420E+04  0.10100000352E+00 0. -1.
        3   -1    0    0  501    0  0.00000000000E+00  0.00000000000E+00 -0.23621151011E+04  0.23621151032E+04  0.10100000352E+00 0.  1.
    10030    2    1    2    0    0  0.00000000000E+00  0.00000000000E+00 -0.63344136204E+03  0.40907888452E+04  0.40414484305E+04 0.  0.
        1    1    3    3  502    0 -0.72429707109E+03 -0.15615580491E+04  0.75462289689E+03  0.18795013978E+04  0.50400001928E-02 0. -1.
       -1    1    3    3    0  502  0.72429707109E+03  0.15615580491E+04 -0.13880642589E+04  0.22112874474E+04  0.50400001928E-02 0.  1.
</event>
<event>
 5   0  0.2661693E-07  0.4012289E+04  0.7818609E-02  0.8002072E-01
        2   -1    0    0  501    0  0.00000000000E+00  0.00000000000E+00  0.22539357000E+04  0.22539357000E+04  0.25500000920E-02 0. -1.
       -2   -1    0    0    0  501  0.00000000000E+00  0.00000000000E+00 -0.17855943793E+04  0.17855943793E+04  0.25500000920E-02 0.  1.
    10030    2    1    2    0    0  0.00000000000E+00  0.00000000000E+00  0.46834132062E+03  0.40395300793E+04  0.40122885824E+04 0.  0.
        1    1    3    3  502    0 -0.61293711115E+03 -0.14132192264E+02  0.21573029029E+04  0.22427321364E+04  0.50400001928E-02 0. -1.
       -1    1    3    3    0  502  0.61293711115E+03  0.14132192264E+02 -0.16889615822E+04  0.17967979428E+04  0.50400001928E-02 0.  1.
</event>
<event>
 5   0  0.2839279E-07  0.3971900E+04  0.7818609E-02  0.8010239E-01
        2   -1    0    0  501    0  0.00000000000E+00  0.00000000000E+00  0.22935696761E+04  0.22935696761E+04  0.25500000920E-02 0. -1.
       -2   -1    0    0    0  501  0.00000000000E+00  0.00000000000E+00 -0.17195891556E+04  0.17195891556E+04  0.25500000920E-02 0.  1.
    10030    2    1    2    0    0  0.00000000000E+00  0.00000000000E+00  0.57398052055E+03  0.40131588317E+04  0.39719000706E+04 0.  0.
        3    1    3    3  502    0 -0.15352371535E+04 -0.89358918845E+03 -0.61023328923E+03  0.18782543578E+04  0.10100000352E+00 0.  1.
       -3    1    3    3    0  502  0.15352371535E+04  0.89358918845E+03  0.11842138098E+04  0.21349044739E+04  0.10100000352E+00 0. -1.
</event>
<event>
 5   0  0.8583262E-08  0.3467640E+04  0.7818609E-02  0.8121502E-01
       -1   -1    0    0    0  501  0.00000000000E+00  0.00000000000E+00  0.13603658541E+04  0.13603658541E+04  0.50400001928E-02 0. -1.
        1   -1    0    0  501    0  0.00000000000E+00  0.00000000000E+00 -0.22097963842E+04  0.22097963843E+04  0.50400001928E-02 0.  1.
    10030    2    1    2    0    0  0.00000000000E+00  0.00000000000E+00 -0.84943053011E+03  0.35701622384E+04  0.34676398577E+04 0.  0.
        1    1    3    3  502    0 -0.14919597730E+04 -0.76723600444E+03  0.25872851511E+02  0.16778749820E+04  0.50400001928E-02 0. -1.
       -1    1    3    3    0  502  0.14919597730E+04  0.76723600444E+03 -0.87530338162E+03  0.18922872564E+04  0.50400001928E-02 0.  1.
</event>
<event>
 5   0  0.8583262E-08  0.4052094E+04  0.7818609E-02  0.7994119E-01
       -1   -1    0    0    0  501  0.00000000000E+00  0.00000000000E+00  0.14856298503E+04  0.14856298503E+04  0.50400001928E-02 0.  1.
        1   -1    0    0  501    0  0.00000000000E+00  0.00000000000E+00 -0.27630485804E+04  0.27630485804E+04  0.50400001928E-02 0. -1.
    10030    2    1    2    0    0  0.00000000000E+00  0.00000000000E+00 -0.12774187301E+04  0.42486784306E+04  0.40520944948E+04 0.  0.
        1    1    3    3  502    0 -0.16311400548E+04 -0.78813138861E+03  0.31255274459E+03  0.18383302702E+04  0.50400001928E-02 0. -1.
       -1    1    3    3    0  502  0.16311400548E+04  0.78813138861E+03 -0.15899714747E+04  0.24103481604E+04  0.50400001928E-02 0.  1.
</event>
<event>
 5   0  0.8528625E-08  0.4043951E+04  0.7818609E-02  0.7995739E-01
        1   -1    0    0  501    0  0.00000000000E+00  0.00000000000E+00  0.15722908560E+04  0.15722908560E+04  0.50400001928E-02 0.  1.
       -1   -1    0    0    0  501  0.00000000000E+00  0.00000000000E+00 -0.26002724736E+04  0.26002724736E+04  0.50400001928E-02 0. -1.
    10030    2    1    2    0    0  0.00000000000E+00  0.00000000000E+00 -0.10279816176E+04  0.41725633297E+04  0.40439508570E+04 0.  0.
        3    1    3    3  502    0  0.11832995985E+04  0.14403811265E+04 -0.13221565197E+04  0.22853869699E+04  0.10100000352E+00 0. -1.
       -3    1    3    3    0  502 -0.11832995985E+04 -0.14403811265E+04  0.29417490211E+03  0.18871763597E+04  0.10100000352E+00 0.  1.
</event>
<event>
 5   0  0.8528625E-08  0.3999008E+04  0.7818609E-02  0.8004747E-01
       -1   -1    0    0    0  501  0.00000000000E+00  0.00000000000E+00  0.27195478549E+04  0.27195478549E+04  0.50400001928E-02 0. -1.
        1   -1    0    0  501    0  0.00000000000E+00  0.00000000000E+00 -0.14701032844E+04  0.14701032844E+04  0.50400001928E-02 0.  1.
    10030    2    1    2    0    0  0.00000000000E+00  0.00000000000E+00  0.12494445706E+04  0.41896511393E+04  0.39990079937E+04 0.  0.
        5    1    3    3  502    0 -0.62383361412E+03 -0.10736621237E+04 -0.10171767140E+04  0.16051757821E+04  0.46999998093E+01 0.  1.
       -5    1    3    3    0  502  0.62383361412E+03  0.10736621237E+04  0.22666212846E+04  0.25844753572E+04  0.46999998093E+01 0. -1.
</event>
<event>
 5   0  0.8528625E-08  0.3896732E+04  0.7818609E-02  0.8025709E-01
       -1   -1    0    0    0  501  0.00000000000E+00  0.00000000000E+00  0.16800225934E+04  0.16800225934E+04  0.50400001928E-02 0. -1.
        1   -1    0    0  501    0  0.00000000000E+00  0.00000000000E+00 -0.22595709099E+04  0.22595709100E+04  0.50400001928E-02 0.  1.
    10030    2    1    2    0    0  0.00000000000E+00  0.00000000000E+00 -0.57954831659E+03  0.39395935033E+04  0.38967320565E+04 0.  0.
        5    1    3    3  502    0  0.10252420286E+04  0.55692814913E+03 -0.18673277150E+04  0.22018685396E+04  0.46999998093E+01 0.  1.
       -5    1    3    3    0  502 -0.10252420286E+04 -0.55692814913E+03  0.12877793984E+04  0.17377249637E+04  0.46999998093E+01 0. -1.
</event>
<event>
 5   0  0.2666978E-07  0.3940071E+04  0.7818609E-02  0.8016746E-01
        2   -1    0    0  501    0  0.00000000000E+00  0.00000000000E+00  0.17143756609E+04  0.17143756609E+04  0.25500000920E-02 0. -1.
       -2   -1    0    0    0  501  0.00000000000E+00  0.00000000000E+00 -0.22638212396E+04  0.22638212396E+04  0.25500000920E-02 0.  1.
    10030    2    1    2    0    0  0.00000000000E+00  0.00000000000E+00 -0.54944557863E+03  0.39781969005E+04  0.39400710825E+04 0.  0.
        4    1    3    3  502    0  0.95896592174E+03 -0.91268111025E+03 -0.17477559133E+04  0.21925452774E+04  0.12699999809E+01 0. -1.
       -4    1    3    3    0  502 -0.95896592174E+03  0.91268111025E+03  0.11983103347E+04  0.17856516231E+04  0.12699999809E+01 0.  1.
</event>
<event>
 5   0  0.2661693E-07  0.4665150E+04  0.7818609E-02  0.7882345E-01
       -2   -1    0    0    0  501  0.00000000000E+00  0.00000000000E+00  0.27042162907E+04  0.27042162907E+04  0.25500000920E-02 0.  1.
        2   -1    0    0  501    0  0.00000000000E+00  0.00000000000E+00 -0.20120088486E+04  0.20120088486E+04  0.25500000920E-02 0. -1.
    10030    2    1    2    0    0  0.00000000000E+00  0.00000000000E+00  0.69220744208E+03  0.47162251393E+04  0.46651504179E+04 0.  0.
        1    1    3    3  502    0 -0.78376042782E+03  0.33999968842E+03  0.25403565662E+04  0.26801663530E+04  0.50400001928E-02 0.  1.
       -1    1    3    3    0  502  0.78376042782E+03 -0.33999968842E+03 -0.18481491241E+04  0.20360587863E+04  0.50400001928E-02 0. -1.
</event>
<event>
 5   0  0.8528625E-08  0.3999495E+04  0.7818609E-02  0.8004648E-01
       -1   -1    0    0    0  501  0.00000000000E+00  0.00000000000E+00  0.29127785489E+04  0.29127785489E+04  0.50400001928E-02 0.  1.
        1   -1    0    0  501    0  0.00000000000E+00  0.00000000000E+00 -0.13729124077E+04  0.13729124077E+04  0.50400001928E-02 0. -1.
    10030    2    1    2    0    0  0.00000000000E+00  0.00000000000E+00  0.15398661413E+04  0.42856909566E+04  0.39994948734E+04 0.  0.
        2    1    3    3  502    0  0.12517992167E+04  0.81165503138E+03  0.21968383208E+04  0.26555383215E+04  0.25500000920E-02 0.  1.
       -2    1    3    3    0  502 -0.12517992167E+04 -0.81165503138E+03 -0.65697217956E+03  0.16301526351E+04  0.25500000920E-02 0. -1.
</event>
<event>
 5   0  0.2704088E-07  0.3966938E+04  0.7818609E-02  0.8011250E-01
        2   -1    0    0  501    0  0.00000000000E+00  0.00000000000E+00  0.19442890024E+04  0.19442890024E+04  0.25500000920E-02 0.  1.
       -2   -1    0    0    0  501  0.00000000000E+00  0.00000000000E+00 -0.20234383011E+04  0.20234383011E+04  0.25500000920E-02 0. -1.
    10030    2    1    2    0    0  0.00000000000E+00  0.00000000000E+00 -0.79149298756E+02  0.39677273035E+04  0.39669377792E+04 0.  0.
        5    1    3    3  502    0  0.38944924930E+03  0.11322961368E+04 -0.16211424982E+04  0.20154131955E+04  0.46999998093E+01 0. -1.
       -5    1    3    3    0  502 -0.38944924930E+03 -0.11322961368E+04  0.15419931994E+04  0.19523141080E+04  0.46999998093E+01 0.  1.
</event>
<event>
 5   0  0.8528625E-08  0.3605774E+04  0.7818609E-02  0.8089170E-01
       -1   -1    0    0    0  501  0.00000000000E+00  0.00000000000E+00  0.17847940083E+04  0.17847940083E+04  0.50400001928E-02 0.  1.
        1   -1    0    0  501    0  0.00000000000E+00  0.00000000000E+00 -0.18211637141E+04  0.18211637141E+04  0.50400001928E-02 0. -1.
    10030    2    1    2    0    0  0.00000000000E+00  0.00000000000E+00 -0.36369705832E+02  0.36059577224E+04  0.36057743052E+04 0.  0.
        2    1    3    3  502    0 -0.12328485931E+03  0.15849301214E+03  0.17735767050E+04  0.17849071461E+04  0.25500000920E-02 0.  1.
       -2    1    3    3    0  502  0.12328485931E+03 -0.15849301214E+03 -0.18099464109E+04  0.18210505763E+04  0.25500000920E-02 0. -1.
</event>
<event>
 5   0  0.2730801E-07  0.3823756E+04  0.7818609E-02  0.8041076E-01
        2   -1    0    0  501    0  0.00000000000E+00  0.00000000000E+00  0.20858711323E+04  0.20858711323E+04  0.25500000920E-02 0.  1.
       -2   -1    0    0    0  501  0.00000000000E+00  0.00000000000E+00 -0.17523988604E+04  0.17523988604E+04  0.25500000920E-02 0. -1.
    10030    2    1    2    0    0  0.00000000000E+00  0.00000000000E+00  0.33347227197E+03  0.38382699927E+04  0.38237563705E+04 0.  0.
        2    1    3    3  502    0  0.46962917133E+03 -0.15896893560E+04  0.11230401819E+04  0.20022195328E+04  0.25500000920E-02 0.  1.
       -2    1    3    3    0  502 -0.46962917133E+03  0.15896893560E+04 -0.78956790997E+03  0.18360504600E+04  0.25500000920E-02 0. -1.
</event>
<event>
 5   0  0.2839279E-07  0.2866951E+04  0.7818609E-02  0.8282779E-01
       -2   -1    0    0    0  501  0.00000000000E+00  0.00000000000E+00  0.15894502802E+04  0.15894502802E+04  0.25500000920E-02 0. -1.
        2   -1    0    0  501    0  0.00000000000E+00  0.00000000000E+00 -0.12928065480E+04  0.12928065480E+04  0.25500000920E-02 0.  1.
    10030    2    1    2    0    0  0.00000000000E+00  0.00000000000E+00  0.29664373226E+03  0.28822568282E+04  0.28669508053E+04 0.  0.
        3    1    3    3  502    0  0.79480122969E+03 -0.10497114664E+04  0.71813575705E+03  0.14997740274E+04  0.10100000352E+00 0. -1.
       -3    1    3    3    0  502 -0.79480122969E+03  0.10497114664E+04 -0.42149202479E+03  0.13824828008E+04  0.10100000352E+00 0.  1.
</event>
<event>
 5   0  0.2661693E-07  0.3976656E+04  0.7818609E-02  0.8009272E-01
        2   -1    0    0  501    0  0.00000000000E+00  0.00000000000E+00  0.15664467552E+04  0.15664467552E+04  0.25500000920E-02 0.  1.
       -2   -1    0    0    0  501  0.00000000000E+00  0.00000000000E+00 -0.25238317794E+04  0.25238317794E+04  0.25500000920E-02 0. -1.
    10030    2    1    2    0    0  0.00000000000E+00  0.00000000000E+00 -0.95738502427E+03  0.40902785346E+04  0.39766559326E+04 0.  0.
        1    1    3    3  502    0 -0.15722443298E+04  0.11633372654E+04 -0.84689022184E+03  0.21313209222E+04  0.50400001928E-02 0. -1.
       -1    1    3    3    0  502  0.15722443298E+04 -0.11633372654E+04 -0.11049480243E+03  0.19589576124E+04  0.50400001928E-02 0.  1.
</event>
<event>
 5   0  0.2666978E-07  0.4071598E+04  0.7818609E-02  0.7990257E-01
       -2   -1    0    0    0  501  0.00000000000E+00  0.00000000000E+00  0.21004855700E+04  0.21004855700E+04  0.25500000920E-02 0. -1.
        2   -1    0    0  501    0  0.00000000000E+00  0.00000000000E+00 -0.19731045587E+04  0.19731045587E+04  0.25500000920E-02 0.  1.
    10030    2    1    2    0    0  0.00000000000E+00  0.00000000000E+00  0.12738101134E+03  0.40735901287E+04  0.40715980419E+04 0.  0.
        4    1    3    3  502    0 -0.70466765604E+03  0.25319614428E+02 -0.18470288066E+04  0.19770469427E+04  0.12699999809E+01 0.  1.
       -4    1    3    3    0  502  0.70466765604E+03 -0.25319614428E+02  0.19744098180E+04  0.20965431859E+04  0.12699999809E+01 0. -1.
</event>
<event>
 5   0  0.8528625E-08  0.3951038E+04  0.7818609E-02  0.8014497E-01
        1   -1    0    0  501    0  0.00000000000E+00  0.00000000000E+00  0.16401773791E+04  0.16401773791E+04  0.50400001928E-02 0. -1.
       -1   -1    0    0    0  501  0.00000000000E+00  0.00000000000E+00 -0.23794226827E+04  0.23794226828E+04  0.50400001928E-02 0.  1.
    10030    2    1    2    0    0  0.00000000000E+00  0.00000000000E+00 -0.73924530363E+03  0.40196000619E+04  0.39510379698E+04 0.  0.
        5    1    3    3  502    0 -0.18393365910E+04  0.10885766180E+03  0.35523262633E+03  0.18764917784E+04  0.46999998093E+01 0. -1.
       -5    1    3    3    0  502  0.18393365910E+04 -0.10885766180E+03 -0.10944779300E+04  0.21431082835E+04  0.46999998093E+01 0.  1.
</event>
<event>
 5   0  0.8528625E-08  0.3977878E+04  0.7818609E-02  0.8009024E-01
       -1   -1    0    0    0  501  0.00000000000E+00  0.00000000000E+00  0.29369247470E+04  0.29369247470E+04  0.50400001928E-02 0. -1.
        1   -1    0    0  501    0  0.00000000000E+00  0.00000000000E+00 -0.13469459069E+04  0.13469459069E+04  0.50400001928E-02 0.  1.
    10030    2    1    2    0    0  0.00000000000E+00  0.00000000000E+00  0.15899788401E+04  0.42838706540E+04  0.39778782118E+04 0.  0.
        4    1    3    3  502    0 -0.11696477576E+04 -0.15200042674E+04  0.22779893089E+03  0.19314198962E+04  0.12699999809E+01 0.  1.
       -4    1    3    3    0  502  0.11696477576E+04  0.15200042674E+04  0.13621799092E+04  0.23524507577E+04  0.12699999809E+01 0. -1.
</event>
<event>
 5   0  0.8528625E-08  0.3997092E+04  0.7818609E-02  0.8005133E-01
        3   -1    0    0  501    0  0.00000000000E+00  0.00000000000E+00  0.16987168355E+04  0.16987168385E+04  0.10100000352E+00 0. -1.
       -3   -1    0    0    0  501  0.00000000000E+00  0.00000000000E+00 -0.23512960318E+04  0.23512960340E+04  0.10100000352E+00 0.  1.
    10030    2    1    2    0    0  0.00000000000E+00  0.00000000000E+00 -0.65257919633E+03  0.40500128725E+04  0.39970920254E+04 0.  0.
        5    1    3    3  502    0  0.11255236496E+04 -0.93197239170E+03 -0.17077142197E+04  0.22475955977E+04  0.46999998093E+01 0.  1.
       -5    1    3    3    0  502 -0.11255236496E+04  0.93197239170E+03  0.10551350234E+04  0.18024172748E+04  0.46999998093E+01 0. -1.
</event>
<event>
 5   0  0.2839279E-07  0.4032265E+04  0.7818609E-02  0.7998069E-01
        2   -1    0    0  501    0  0.00000000000E+00  0.00000000000E+00  0.16626676779E+04  0.16626676779E+04  0.25500000920E-02 0. -1.
       -2   -1    0    0    0  501  0.00000000000E+00  0.00000000000E+00 -0.24447396743E+04  0.24447396743E+04  0.25500000920E-02 0.  1.
    10030    2    1    2    0    0  0.00000000000E+00  0.00000000000E+00 -0.78207199639E+03  0.41074073523E+04  0.40322646924E+04 0.  0.
        3    1    3    3  502    0 -0.50495279572E+03 -0.11122860272E+04  0.12427967053E+04  0.17426133229E+04  0.10100000352E+00 0. -1.
       -3    1    3    3    0  502  0.50495279572E+03  0.11122860272E+04 -0.20248687017E+04  0.23647940294E+04  0.10100000352E+00 0.  1.
</event>
<event>
 5   0  0.2730801E-07  0.3988275E+04  0.7818609E-02  0.8006916E-01
        2   -1    0    0  501    0  0.00000000000E+00  0.00000000000E+00  0.19983264839E+04  0.19983264839E+04  0.25500000920E-02 0.  1.
       -2   -1    0    0    0  501  0.00000000000E+00  0.00000000000E+00 -0.19899571875E+04  0.19899571875E+04  0.25500000920E-02 0. -1.
    10030    2    1    2    0    0  0.00000000000E+00  0.00000000000E+00  0.83692964218E+01  0.39882836714E+04  0.39882748901E+04 0.  0.
        2    1    3    3  502    0 -0.19953509694E+03  0.12284264888E+03  0.19845121080E+04  0.19982974949E+04  0.25500000920E-02 0.  1.
       -2    1    3    3    0  502  0.19953509694E+03 -0.12284264888E+03 -0.19761428116E+04  0.19899861766E+04  0.25500000920E-02 0. -1.
</event>
<event>
 5   0  0.2704088E-07  0.3918599E+04  0.7818609E-02  0.8021172E-01
       -2   -1    0    0    0  501  0.00000000000E+00  0.00000000000E+00  0.23221728123E+04  0.23221728123E+04  0.25500000920E-02 0. -1.
        2   -1    0    0  501    0  0.00000000000E+00  0.00000000000E+00 -0.16531306077E+04  0.16531306077E+04  0.25500000920E-02 0.  1.
    10030    2    1    2    0    0  0.00000000000E+00  0.00000000000E+00  0.66904220455E+03  0.39753034200E+04  0.39185992153E+04 0.  0.
        5    1    3    3  502    0 -0.57534200584E+03 -0.15994563258E+04 -0.65403027655E+03  0.18212788514E+04  0.46999998093E+01 0.  1.
       -5    1    3    3    0  502  0.57534200584E+03  0.15994563258E+04  0.13230724811E+04  0.21540245686E+04  0.46999998093E+01 0. -1.
</event>
<event>
 5   0  0.8528625E-08  0.3498561E+04  0.7818609E-02  0.8114131E-01
       -1   -1    0    0    0  501  0.00000000000E+00  0.00000000000E+00  0.14796036085E+04  0.14796036085E+04  0.50400001928E-02 0.  1.
        1   -1    0    0  501    0  0.00000000000E+00  0.00000000000E+00 -0.20681096833E+04  0.20681096833E+04  0.50400001928E-02 0. -1.
    10030    2    1    2    0    0  0.00000000000E+00  0.00000000000E+00 -0.58850607488E+03  0.35477132918E+04  0.34985611615E+04 0.  0.
        4    1    3    3  502    0  0.87628220607E+03  0.13459495747E+04  0.40868877478E+03  0.16572504005E+04  0.12699999809E+01 0.  1.
       -4    1    3    3    0  502 -0.87628220607E+03 -0.13459495747E+04 -0.99719484966E+03  0.18904628913E+04  0.12699999809E+01 0. -1.
</event>
<event>
 5   0  0.8583262E-08  0.2898630E+04  0.7818609E-02  0.8273285E-01
        1   -1    0    0  501    0  0.00000000000E+00  0.00000000000E+00  0.14142507515E+04  0.14142507515E+04  0.50400001928E-02 0.  1.
       -1   -1    0    0    0  501  0.00000000000E+00  0.00000000000E+00 -0.14852490384E+04  0.14852490385E+04  0.50400001928E-02 0. -1.
    10030    2    1    2    0    0  0.00000000000E+00  0.00000000000E+00 -0.70998286927E+02  0.28994997900E+04  0.28986304137E+04 0.  0.
        1    1    3    3  502    0  0.13207968566E+04 -0.33215223112E+03  0.46031586735E+03  0.14376091745E+04  0.50400001928E-02 0.  1.
       -1    1    3    3    0  502 -0.13207968566E+04  0.33215223112E+03 -0.53131415428E+03  0.14618906154E+04  0.50400001928E-02 0. -1.
</event>
<event>
 5   0  0.2730801E-07  0.3987799E+04  0.7818609E-02  0.8007012E-01
        2   -1    0    0  501    0  0.00000000000E+00  0.00000000000E+00  0.21775654349E+04  0.21775654349E+04  0.25500000920E-02 0.  1.
       -2   -1    0    0    0  501  0.00000000000E+00  0.00000000000E+00 -0.18257248284E+04  0.18257248284E+04  0.25500000920E-02 0. -1.
    10030    2    1    2    0    0  0.00000000000E+00  0.00000000000E+00  0.35184060657E+03  0.40032902633E+04  0.39877990320E+04 0.  0.
        2    1    3    3  502    0  0.19005702175E+04  0.60118034076E+03  0.13046387707E+03  0.19976500637E+04  0.25500000920E-02 0.  1.
       -2    1    3    3    0  502 -0.19005702175E+04 -0.60118034076E+03  0.22137672950E+03  0.20056401996E+04  0.25500000920E-02 0. -1.
</event>
<event>
 5   0  0.8528625E-08  0.3945411E+04  0.7818609E-02  0.8015650E-01
       -1   -1    0    0    0  501  0.00000000000E+00  0.00000000000E+00  0.29014901043E+04  0.29014901043E+04  0.50400001928E-02 0. -1.
        1   -1    0    0  501    0  0.00000000000E+00  0.00000000000E+00 -0.13412304133E+04  0.13412304133E+04  0.50400001928E-02 0.  1.
    10030    2    1    2    0    0  0.00000000000E+00  0.00000000000E+00  0.15602596910E+04  0.42427205176E+04  0.39454108895E+04 0.  0.
        4    1    3    3  502    0  0.18018620539E+04 -0.23474799171E+02  0.16433045171E+04  0.24387925857E+04  0.12699999809E+01 0. -1.
       -4    1    3    3    0  502 -0.18018620539E+04  0.23474799171E+02 -0.83044826063E+02  0.18039279319E+04  0.12699999809E+01 0.  1.
</event>
<event>
 5   0  0.2666978E-07  0.4086637E+04  0.7818609E-02  0.7987294E-01
       -2   -1    0    0    0  501  0.00000000000E+00  0.00000000000E+00  0.14760297033E+04  0.14760297033E+04  0.25500000920E-02 0. -1.
        2   -1    0    0  501    0  0.00000000000E+00  0.00000000000E+00 -0.28286361583E+04  0.28286361583E+04  0.25500000920E-02 0.  1.
    10030    2    1    2    0    0  0.00000000000E+00  0.00000000000E+00 -0.13526064551E+04  0.43046658616E+04  0.40866372432E+04 0.  0.
        4    1    3    3  502    0 -0.68653262254E+03 -0.81559353871E+03  0.11598640074E+04  0.15753748731E+04  0.12699999809E+01 0. -1.
       -4    1    3    3    0  502  0.68653262254E+03  0.81559353871E+03 -0.25124704625E+04  0.27292909885E+04  0.12699999809E+01 0.  1.
</event>
<event>
 5   0  0.8528625E-08  0.3939416E+04  0.7818609E-02  0.8016881E-01
       -1   -1    0    0    0  501  0.00000000000E+00  0.00000000000E+00  0.20106029268E+04  0.20106029268E+04  0.50400001928E-02 0.  1.
        1   -1    0    0  501    0  0.00000000000E+00  0.00000000000E+00 -0.19296445263E+04  0.19296445263E+04  0.50400001928E-02 0. -1.
    10030    2    1    2    0    0  0.00000000000E+00  0.00000000000E+00  0.80958400497E+02  0.39402474532E+04  0.39394156584E+04 0.  0.
        5    1    3    3  502    0  0.20866239465E+02  0.44831677882E+02  0.20099763662E+04  0.20105900532E+04  0.46999998093E+01 0.  1.
       -5    1    3    3    0  502 -0.20866239465E+02 -0.44831677882E+02 -0.19290179657E+04  0.19296574000E+04  0.46999998093E+01 0. -1.
</event>
<event>
 5   0  0.2839279E-07  0.3998886E+04  0.7818609E-02  0.8004771E-01
       -2   -1    0    0    0  501  0.00000000000E+00  0.00000000000E+00  0.26655553521E+04  0.26655553521E+04  0.25500000920E-02 0. -1.
        2   -1    0    0  501    0  0.00000000000E+00  0.00000000000E+00 -0.14997897819E+04  0.14997897819E+04  0.25500000920E-02 0.  1.
    10030    2    1    2    0    0  0.00000000000E+00  0.00000000000E+00  0.11657655702E+04  0.41653451340E+04  0.39988861851E+04 0.  0.
        3    1    3    3  502    0  0.61790264187E+03  0.18602516665E+04  0.17222204129E+03  0.19677399166E+04  0.10100000352E+00 0.  1.
       -3    1    3    3    0  502 -0.61790264187E+03 -0.18602516665E+04  0.99354352887E+03  0.21976052174E+04  0.10100000352E+00 0. -1.
</event>
<event>
 5   0  0.2661693E-07  0.3880907E+04  0.7818609E-02  0.8029012E-01
       -2   -1    0    0    0  501  0.00000000000E+00  0.00000000000E+00  0.21105128145E+04  0.21105128145E+04  0.25500000920E-02 0. -1.
        2   -1    0    0  501    0  0.00000000000E+00  0.00000000000E+00 -0.17840972221E+04  0.17840972221E+04  0.25500000920E-02 0.  1.
    10030    2    1    2    0    0  0.00000000000E+00  0.00000000000E+00  0.32641559242E+03  0.38946100366E+04  0.38809071360E+04 0.  0.
        1    1    3    3  502    0  0.16922884176E+03 -0.17427245591E+04 -0.67618607937E+03  0.18769536233E+04  0.50400001928E-02 0.  1.
       -1    1    3    3    0  502 -0.16922884176E+03  0.17427245591E+04  0.10026016718E+04  0.20176564133E+04  0.50400001928E-02 0. -1.
</event>
<event>
 5   0  0.8528625E-08  0.3885700E+04  0.7818609E-02  0.8028010E-01
       -1   -1    0    0    0  501  0.00000000000E+00  0.00000000000E+00  0.17607794417E+04  0.17607794417E+04  0.50400001928E-02 0. -1.
        1   -1    0    0  501    0  0.00000000000E+00  0.00000000000E+00 -0.21437474078E+04  0.21437474078E+04  0.50400001928E-02 0.  1.
    10030    2    1    2    0    0  0.00000000000E+00  0.00000000000E+00 -0.38296796610E+03  0.39045268496E+04  0.38857001243E+04 0.  0.
        3    1    3    3  502    0  0.11445461955E+04  0.15652754097E+04 -0.70096145887E+02  0.19403573335E+04  0.10100000352E+00 0.  1.
       -3    1    3    3    0  502 -0.11445461955E+04 -0.15652754097E+04 -0.31287182021E+03  0.19641695161E+04  0.10100000352E+00 0. -1.
</event>
<event>
 5   0  0.8528625E-08  0.3907144E+04  0.7818609E-02  0.8023545E-01
       -1   -1    0    0    0  501  0.00000000000E+00  0.00000000000E+00  0.19132981006E+04  0.19132981006E+04  0.50400001928E-02 0.  1.
        1   -1    0    0  501    0  0.00000000000E+00  0.00000000000E+00 -0.19946935120E+04  0.19946935120E+04  0.50400001928E-02 0. -1.
    10030    2    1    2    0    0  0.00000000000E+00  0.00000000000E+00 -0.81395411447E+02  0.39079916126E+04  0.39071438713E+04 0.  0.
        4    1    3    3  502    0  0.63994763132E+03  0.61104499789E+03 -0.17827795814E+04  0.19902797816E+04  0.12699999809E+01 0. -1.
       -4    1    3    3    0  502 -0.63994763132E+03 -0.61104499789E+03  0.17013841699E+04  0.19177118310E+04  0.12699999809E+01 0.  1.
</event>
<event>
 5   0  0.8528625E-08  0.4070704E+04  0.7818609E-02  0.7990433E-01
        1   -1    0    0  501    0  0.00000000000E+00  0.00000000000E+00  0.24159959812E+04  0.24159959812E+04  0.50400001928E-02 0. -1.
       -1   -1    0    0    0  501  0.00000000000E+00  0.00000000000E+00 -0.17146791260E+04  0.17146791260E+04  0.50400001928E-02 0.  1.
    10030    2    1    2    0    0  0.00000000000E+00  0.00000000000E+00  0.70131685523E+03  0.41306751071E+04  0.40707040557E+04 0.  0.
        4    1    3    3  502    0 -0.45494616658E+03  0.19768695373E+04  0.18187368312E+03  0.20366808369E+04  0.12699999809E+01 0.  1.
       -4    1    3    3    0  502  0.45494616658E+03 -0.19768695373E+04  0.51944317211E+03  0.20939942702E+04  0.12699999809E+01 0. -1.
</event>
<event>
 5   0  0.8528625E-08  0.3995456E+04  0.7818609E-02  0.8005464E-01
       -1   -1    0    0    0  501  0.00000000000E+00  0.00000000000E+00  0.15949828416E+04  0.15949828416E+04  0.50400001928E-02 0. -1.
        1   -1    0    0  501    0  0.00000000000E+00  0.00000000000E+00 -0.25021699507E+04  0.25021699507E+04  0.50400001928E-02 0.  1.
    10030    2    1    2    0    0  0.00000000000E+00  0.00000000000E+00 -0.90718710915E+03  0.40971527923E+04  0.39954564887E+04 0.  0.
        4    1    3    3  502    0 -0.15523624811E+04  0.20965389603E+03 -0.17249619366E+04  0.23300813987E+04  0.12699999809E+01 0.  1.
       -4    1    3    3    0  502  0.15523624811E+04 -0.20965389603E+03  0.81777482744E+03  0.17670713936E+04  0.12699999809E+01 0. -1.
</event>
<event>
 5   0  0.8528625E-08  0.4060405E+04  0.7818609E-02  0.7992471E-01
       -1   -1    0    0    0  501  0.00000000000E+00  0.00000000000E+00  0.25057799440E+04  0.25057799440E+04  0.50400001928E-02 0.  1.
        1   -1    0    0  501    0  0.00000000000E+00  0.00000000000E+00 -0.16448862901E+04  0.16448862901E+04  0.50400001928E-02 0. -1.
    10030    2    1    2    0    0  0.00000000000E+00  0.00000000000E+00  0.86089365396E+03  0.41506662341E+04  0.40604054358E+04 0.  0.
        3    1    3    3  502    0 -0.12727928505E+04  0.14999986168E+04  0.94332247931E+03  0.21817091467E+04  0.10100000352E+00 0.  1.
       -3    1    3    3    0  502  0.12727928505E+04 -0.14999986168E+04 -0.82428825355E+02  0.19689570874E+04  0.10100000352E+00 0. -1.
</event>
<event>
 5   0  0.2704088E-07  0.4027775E+04  0.7818609E-02  0.7998967E-01
       -2   -1    0    0    0  501  0.00000000000E+00  0.00000000000E+00  0.18272174515E+04  0.18272174515E+04  0.25500000920E-02 0. -1.
        2   -1    0    0  501    0  0.00000000000E+00  0.00000000000E+00 -0.22196276449E+04  0.22196276449E+04  0.25500000920E-02 0.  1.
    10030    2    1    2    0    0  0.00000000000E+00  0.00000000000E+00 -0.39241019335E+03  0.40468450964E+04  0.40277747547E+04 0.  0.
        5    1    3    3  502    0 -0.10050752256E+04  0.15097254288E+04  0.68330984818E+03  0.19381386736E+04  0.46999998093E+01 0. -1.
       -5    1    3    3    0  502  0.10050752256E+04 -0.15097254288E+04 -0.10757200415E+04  0.21087064228E+04  0.46999998093E+01 0.  1.
</event>
<event>
 5   0  0.2730801E-07  0.3977907E+04  0.7818609E-02  0.8009018E-01
       -2   -1    0    0    0  501  0.00000000000E+00  0.00000000000E+00  0.24266491233E+04  0.24266491233E+04  0.25500000920E-02 0.  1.
        2   -1    0    0  501    0  0.00000000000E+00  0.00000000000E+00 -0.16302052999E+04  0.16302052999E+04  0.25500000920E-02 0. -1.
    10030    2    1    2    0    0  0.00000000000E+00  0.00000000000E+00  0.79644382340E+03  0.40568544232E+04  0.39779071190E+04 0.  0.
        2    1    3    3  502    0  0.61337488578E+02 -0.71230819472E+03  0.22910720222E+04  0.24000325545E+04  0.25500000920E-02 0.  1.
       -2    1    3    3    0  502 -0.61337488578E+02  0.71230819472E+03 -0.14946281988E+04  0.16568218687E+04  0.25500000920E-02 0. -1.
</event>
<event>
 5   0  0.8528625E-08  0.3917417E+04  0.7818609E-02  0.8021417E-01
        1   -1    0    0  501    0  0.00000000000E+00  0.00000000000E+00  0.15157095914E+04  0.15157095914E+04  0.50400001928E-02 0. -1.
       -1   -1    0    0    0  501  0.00000000000E+00  0.00000000000E+00 -0.25311831049E+04  0.25311831049E+04  0.50400001928E-02 0.  1.
    10030    2    1    2    0    0  0.00000000000E+00  0.00000000000E+00 -0.10154735134E+04  0.40468926963E+04  0.39174167558E+04 0.  0.
        2    1    3    3  502    0 -0.12353201285E+04  0.25792304934E+03  0.10397722421E+04  0.16351349898E+04  0.25500000920E-02 0. -1.
       -2    1    3    3    0  502  0.12353201285E+04 -0.25792304934E+03 -0.20552457556E+04  0.24117577065E+04  0.25500000920E-02 0.  1.
</event>
<event>
 5   0  0.8583262E-08  0.3985482E+04  0.7818609E-02  0.8007482E-01
       -1   -1    0    0    0  501  0.00000000000E+00  0.00000000000E+00  0.25182412602E+04  0.25182412602E+04  0.50400001928E-02 0.  1.
        1   -1    0    0  501    0  0.00000000000E+00  0.00000000000E+00 -0.15769005653E+04  0.15769005653E+04  0.50400001928E-02 0. -1.
    10030    2    1    2    0    0  0.00000000000E+00  0.00000000000E+00  0.94134069490E+03  0.40951418255E+04  0.39854816857E+04 0.  0.
        1    1    3    3  502    0  0.19756690022E+04 -0.25938178172E+03  0.49292622881E+03  0.20526868203E+04  0.50400001928E-02 0. -1.
       -1    1    3    3    0  502 -0.19756690022E+04  0.25938178172E+03  0.44841446609E+03  0.20424550052E+04  0.50400001928E-02 0.  1.
</event>
<event>
 5   0  0.8528625E-08  0.3788705E+04  0.7818609E-02  0.8048583E-01
        1   -1    0    0  501    0  0.00000000000E+00  0.00000000000E+00  0.27306144374E+04  0.27306144374E+04  0.50400001928E-02 0. -1.
       -1   -1    0    0    0  501  0.00000000000E+00  0.00000000000E+00 -0.13141992440E+04  0.13141992440E+04  0.50400001928E-02 0.  1.
    10030    2    1    2    0    0  0.00000000000E+00  0.00000000000E+00  0.14164151934E+04  0.40448136813E+04  0.37887050184E+04 0.  0.
        3    1    3    3  502    0  0.63824720115E+03  0.17830073529E+04  0.75709272517E+03  0.20395254632E+04  0.10100000352E+00 0. -1.
       -3    1    3    3    0  502 -0.63824720115E+03 -0.17830073529E+04  0.65932246825E+03  0.20052882181E+04  0.10100000352E+00 0.  1.
</event>
<event>
 5   0  0.8583262E-08  0.4037062E+04  0.7818609E-02  0.7997111E-01
        1   -1    0    0  501    0  0.00000000000E+00  0.00000000000E+00  0.17382513910E+04  0.17382513910E+04  0.50400001928E-02 0. -1.
       -1   -1    0    0    0  501  0.00000000000E+00  0.00000000000E+00 -0.23440039773E+04  0.23440039773E+04  0.50400001928E-02 0.  1.
    10030    2    1    2    0    0  0.00000000000E+00  0.00000000000E+00 -0.60575258635E+03  0.40822553683E+04  0.40370623845E+04 0.  0.
        1    1    3    3  502    0 -0.14456546644E+04  0.82316366561E+03  0.85314167485E+03  0.18695899407E+04  0.50400001928E-02 0. -1.
       -1    1    3    3    0  502  0.14456546644E+04 -0.82316366561E+03 -0.14588942612E+04  0.22126654276E+04  0.50400001928E-02 0.  1.
</event>
<event>
 5   0  0.8528625E-08  0.3953621E+04  0.7818609E-02  0.8013969E-01
        1   -1    0    0  501    0  0.00000000000E+00  0.00000000000E+00  0.18171356947E+04  0.18171356947E+04  0.50400001928E-02 0. -1.
       -1   -1    0    0    0  501  0.00000000000E+00  0.00000000000E+00 -0.21505164339E+04  0.21505164339E+04  0.50400001928E-02 0.  1.
    10030    2    1    2    0    0  0.00000000000E+00  0.00000000000E+00 -0.33338073913E+03  0.39676521286E+04  0.39536212131E+04 0.  0.
        4    1    3    3  502    0 -0.15700316095E+04  0.19209857877E+03 -0.13565952906E+04  0.20838074561E+04  0.12699999809E+01 0.  1.
       -4    1    3    3    0  502  0.15700316095E+04 -0.19209857877E+03  0.10232145514E+04  0.18838446725E+04  0.12699999809E+01 0. -1.
</event>
<event>
 5   0  0.8528625E-08  0.3973643E+04  0.7818609E-02  0.8009885E-01
       -1   -1    0    0    0  501  0.00000000000E+00  0.00000000000E+00  0.18849165984E+04  0.18849165984E+04  0.50400001928E-02 0.  1.
        1   -1    0    0  501    0  0.00000000000E+00  0.00000000000E+00 -0.20942356104E+04  0.20942356104E+04  0.50400001928E-02 0. -1.
    10030    2    1    2    0    0  0.00000000000E+00  0.00000000000E+00 -0.20931901208E+03  0.39791522088E+04  0.39736428944E+04 0.  0.
        4    1    3    3  502    0  0.51160538325E+02  0.13404275753E+04  0.13630104183E+04  0.19123709103E+04  0.12699999809E+01 0.  1.
       -4    1    3    3    0  502 -0.51160538325E+02 -0.13404275753E+04 -0.15723294304E+04  0.20667812985E+04  0.12699999809E+01 0. -1.
</event>
<event>
 5   0  0.8528625E-08  0.4009015E+04  0.7818609E-02  0.8002730E-01
        1   -1    0    0  501    0  0.00000000000E+00  0.00000000000E+00  0.17836863029E+04  0.17836863029E+04  0.50400001928E-02 0. -1.
       -1   -1    0    0    0  501  0.00000000000E+00  0.00000000000E+00 -0.22526662056E+04  0.22526662056E+04  0.50400001928E-02 0.  1.
    10030    2    1    2    0    0  0.00000000000E+00  0.00000000000E+00 -0.46897990275E+03  0.40363525085E+04  0.40090147697E+04 0.  0.
        3    1    3    3  502    0  0.57252909020E+03 -0.23556280596E+03 -0.21539979483E+04  0.22412020360E+04  0.10100000352E+00 0.  1.
       -3    1    3    3    0  502 -0.57252909020E+03  0.23556280596E+03  0.16850180456E+04  0.17951504725E+04  0.10100000352E+00 0. -1.
</event>
<event>
 5   0  0.2730801E-07  0.4020324E+04  0.7818609E-02  0.8000459E-01
       -2   -1    0    0    0  501  0.00000000000E+00  0.00000000000E+00  0.21006284675E+04  0.21006284675E+04  0.25500000920E-02 0.  1.
        2   -1    0    0  501    0  0.00000000000E+00  0.00000000000E+00 -0.19235919153E+04  0.19235919153E+04  0.25500000920E-02 0. -1.
    10030    2    1    2    0    0  0.00000000000E+00  0.00000000000E+00  0.17703655227E+03  0.40242203828E+04  0.40203243337E+04 0.  0.
        2    1    3    3  502    0  0.53300580012E+03  0.19151395379E+04  0.38696372653E+03  0.20252396298E+04  0.25500000920E-02 0.  1.
       -2    1    3    3    0  502 -0.53300580012E+03 -0.19151395379E+04 -0.20992717426E+03  0.19989807530E+04  0.25500000920E-02 0. -1.
</event>
<event>
 5   0  0.8528625E-08  0.4004877E+04  0.7818609E-02  0.8003563E-01
       -3   -1    0    0    0  501  0.00000000000E+00  0.00000000000E+00  0.23838730648E+04  0.23838730670E+04  0.10100000352E+00 0.  1.
        3   -1    0    0  501    0  0.00000000000E+00  0.00000000000E+00 -0.16820358623E+04  0.16820358653E+04  0.10100000352E+00 0. -1.
    10030    2    1    2    0    0  0.00000000000E+00  0.00000000000E+00  0.70183720252E+03  0.40659089323E+04  0.40048770252E+04 0.  0.
        3    1    3    3  502    0  0.14062247663E+04  0.81419742123E+03 -0.83711732163E+03  0.18278815483E+04  0.10100000352E+00 0.  1.
       -3    1    3    3    0  502 -0.14062247663E+04 -0.81419742123E+03  0.15389545241E+04  0.22380273840E+04  0.10100000352E+00 0. -1.
</event>
<event>
 5   0  0.2661693E-07  0.4065245E+04  0.7818609E-02  0.7991512E-01
       -2   -1    0    0    0  501  0.00000000000E+00  0.00000000000E+00  0.25311760231E+04  0.25311760231E+04  0.25500000920E-02 0. -1.
        2   -1    0    0  501    0  0.00000000000E+00  0.00000000000E+00 -0.16322664107E+04  0.16322664107E+04  0.25500000920E-02 0.  1.
    10030    2    1    2    0    0  0.00000000000E+00  0.00000000000E+00  0.89890961242E+03  0.41634424338E+04  0.40652446923E+04 0.  0.
        1    1    3    3  502    0  0.12057824810E+03  0.82584323911E+03 -0.14486888646E+04  0.16719017902E+04  0.50400001928E-02 0.  1.
       -1    1    3    3    0  502 -0.12057824810E+03 -0.82584323911E+03  0.23475984770E+04  0.24915406436E+04  0.50400001928E-02 0. -1.
</event>
<event>
 5   0  0.8528625E-08  0.4009351E+04  0.7818609E-02  0.8002663E-01
        1   -1    0    0  501    0  0.00000000000E+00  0.00000000000E+00  0.15210091068E+04  0.15210091068E+04  0.50400001928E-02 0.  1.
       -1   -1    0    0    0  501  0.00000000000E+00  0.00000000000E+00 -0.26421436756E+04  0.26421436757E+04  0.50400001928E-02 0. -1.
    10030    2    1    2    0    0  0.00000000000E+00  0.00000000000E+00 -0.11211345688E+04  0.41631527825E+04  0.40093513651E+04 0.  0.
        3    1    3    3  502    0  0.15179622237E+04 -0.11847190172E+04 -0.11395929113E+04  0.22375076483E+04  0.10100000352E+00 0. -1.
       -3    1    3    3    0  502 -0.15179622237E+04  0.11847190172E+04  0.18458342519E+02  0.19256451342E+04  0.10100000352E+00 0.  1.
</event>
<event>
 5   0  0.2661693E-07  0.3585130E+04  0.7818609E-02  0.8093906E-01
        2   -1    0    0  501    0  0.00000000000E+00  0.00000000000E+00  0.20420409449E+04  0.20420409449E+04  0.25500000920E-02 0.  1.
       -2   -1    0    0    0  501  0.00000000000E+00  0.00000000000E+00 -0.15735676870E+04  0.15735676870E+04  0.25500000920E-02 0. -1.
    10030    2    1    2    0    0  0.00000000000E+00  0.00000000000E+00  0.46847325795E+03  0.36156086319E+04  0.35851302048E+04 0.  0.
        1    1    3    3  502    0  0.35731178596E+03 -0.15276069393E+04 -0.64033523278E+03  0.16944863186E+04  0.50400001928E-02 0. -1.
       -1    1    3    3    0  502 -0.35731178596E+03  0.15276069393E+04  0.11088084907E+04  0.19211223133E+04  0.50400001928E-02 0.  1.
</event>
<event>
 5   0  0.8583262E-08  0.4024206E+04  0.7818609E-02  0.7999681E-01
        1   -1    0    0  501    0  0.00000000000E+00  0.00000000000E+00  0.19805759640E+04  0.19805759640E+04  0.50400001928E-02 0.  1.
       -1   -1    0    0    0  501  0.00000000000E+00  0.00000000000E+00 -0.20441320632E+04  0.20441320632E+04  0.50400001928E-02 0. -1.
    10030    2    1    2    0    0  0.00000000000E+00  0.00000000000E+00 -0.63556099199E+02  0.40247080272E+04  0.40242061734E+04 0.  0.
        1    1    3    3  502    0 -0.14226303615E+04 -0.68025959266E+02  0.13896852891E+04  0.19899070027E+04  0.50400001928E-02 0.  1.
       -1    1    3    3    0  502  0.14226303615E+04  0.68025959266E+02 -0.14532413883E+04  0.20348010245E+04  0.50400001928E-02 0. -1.
</event>
<event>
 5   0  0.2704088E-07  0.3742552E+04  0.7818609E-02  0.8058597E-01
       -2   -1    0    0    0  501  0.00000000000E+00  0.00000000000E+00  0.12559837405E+04  0.12559837405E+04  0.25500000920E-02 0. -1.
        2   -1    0    0  501    0  0.00000000000E+00  0.00000000000E+00 -0.27879937116E+04  0.27879937116E+04  0.25500000920E-02 0.  1.
    10030    2    1    2    0    0  0.00000000000E+00  0.00000000000E+00 -0.15320099710E+04  0.40439774521E+04  0.37425524822E+04 0.  0.
        5    1    3    3  502    0 -0.28575244133E+03 -0.46542141142E+03  0.11679445298E+04  0.12893362877E+04  0.46999998093E+01 0. -1.
       -5    1    3    3    0  502  0.28575244133E+03  0.46542141142E+03 -0.26999545009E+04  0.27546411644E+04  0.46999998093E+01 0.  1.
</event>
<event>
 5   0  0.8528625E-08  0.3796070E+04  0.7818609E-02  0.8046999E-01
       -1   -1    0    0    0  501  0.00000000000E+00  0.00000000000E+00  0.10800198228E+04  0.10800198228E+04  0.50400001928E-02 0.  1.
        1   -1    0    0  501    0  0.00000000000E+00  0.00000000000E+00 -0.33356209752E+04  0.33356209752E+04  0.50400001928E-02 0. -1.
    10030    2    1    2    0    0  0.00000000000E+00  0.00000000000E+00 -0.22556011525E+04  0.44156407981E+04  0.37960699544E+04 0.  0.
        2    1    3    3  502    0 -0.64483732637E+02  0.16689776666E+04 -0.79040851868E+02  0.16720921206E+04  0.25500000920E-02 0.  1.
       -2    1    3    3    0  502  0.64483732637E+02 -0.16689776666E+04 -0.21765603006E+04  0.27435486775E+04  0.25500000920E-02 0. -1.
</event>
<event>
 5   0  0.2839279E-07  0.4042521E+04  0.7818609E-02  0.7996023E-01
        2   -1    0    0  501    0  0.00000000000E+00  0.00000000000E+00  0.23380001534E+04  0.23380001534E+04  0.25500000920E-02 0. -1.
       -2   -1    0    0    0  501  0.00000000000E+00  0.00000000000E+00 -0.17474310027E+04  0.17474310027E+04  0.25500000920E-02 0.  1.
    10030    2    1    2    0    0  0.00000000000E+00  0.00000000000E+00  0.59056915064E+03  0.40854311561E+04  0.40425209720E+04 0.  0.
        3    1    3    3  502    0  0.50149819832E+01 -0.55226152397E+03  0.22602678478E+04  0.23267635666E+04  0.10100000352E+00 0. -1.
       -3    1    3    3    0  502 -0.50149819832E+01  0.55226152397E+03 -0.16696986971E+04  0.17586675895E+04  0.10100000352E+00 0.  1.
</event>
<event>
 5   0  0.2730801E-07  0.3989215E+04  0.7818609E-02  0.8006726E-01
        2   -1    0    0  501    0  0.00000000000E+00  0.00000000000E+00  0.28869625853E+04  0.28869625853E+04  0.25500000920E-02 0.  1.
       -2   -1    0    0    0  501  0.00000000000E+00  0.00000000000E+00 -0.13780775692E+04  0.13780775692E+04  0.25500000920E-02 0. -1.
    10030    2    1    2    0    0  0.00000000000E+00  0.00000000000E+00  0.15088850161E+04  0.42650401545E+04  0.39892146505E+04 0.  0.
        2    1    3    3  502    0 -0.80126822840E+03 -0.43671248068E+03  0.26506901243E+04  0.28033741634E+04  0.25500000920E-02 0.  1.
       -2    1    3    3    0  502  0.80126822840E+03  0.43671248068E+03 -0.11418051082E+04  0.14616659912E+04  0.25500000920E-02 0. -1.
</event>
<event>
 5   0  0.8528625E-08  0.3995875E+04  0.7818609E-02  0.8005379E-01
       -1   -1    0    0    0  501  0.00000000000E+00  0.00000000000E+00  0.14153716811E+04  0.14153716811E+04  0.50400001928E-02 0.  1.
        1   -1    0    0  501    0  0.00000000000E+00  0.00000000000E+00 -0.28202866022E+04  0.28202866022E+04  0.50400001928E-02 0. -1.
    10030    2    1    2    0    0  0.00000000000E+00  0.00000000000E+00 -0.14049149211E+04  0.42356582833E+04  0.39958747675E+04 0.  0.
        2    1    3    3  502    0  0.61048682360E+03 -0.29034917311E+03 -0.26953726973E+04  0.27788542210E+04  0.25500000920E-02 0. -1.
       -2    1    3    3    0  502 -0.61048682360E+03  0.29034917311E+03  0.12904577761E+04  0.14568040624E+04  0.25500000920E-02 0.  1.
</event>
<event>
 5   0  0.2704088E-07  0.3959070E+04  0.7818609E-02  0.8012855E-01
        2   -1    0    0  501    0  0.00000000000E+00  0.00000000000E+00  0.26563306072E+04  0.26563306072E+04  0.25500000920E-02 0.  1.
       -2   -1    0    0    0  501  0.00000000000E+00  0.00000000000E+00 -0.14751774099E+04  0.14751774099E+04  0.25500000920E-02 0. -1.
    10030    2    1    2    0    0  0.00000000000E+00  0.00000000000E+00  0.11811531973E+04  0.41315080171E+04  0.39590700448E+04 0.  0.
        5    1    3    3  502    0 -0.10196161277E+04 -0.10939068960E+04  0.19440992230E+04  0.24527114025E+04  0.46999998093E+01 0.  1.
       -5    1    3    3    0  502  0.10196161277E+04  0.10939068960E+04 -0.76294602572E+03  0.16787966146E+04  0.46999998093E+01 0. -1.
</event>
<event>
 5   0  0.2704088E-07  0.3592595E+04  0.7818609E-02  0.8092190E-01
       -2   -1    0    0    0  501  0.00000000000E+00  0.00000000000E+00  0.16970175991E+04  0.16970175991E+04  0.25500000920E-02 0.  1.
        2   -1    0    0  501    0  0.00000000000E+00  0.00000000000E+00 -0.19013858045E+04  0.19013858045E+04  0.25500000920E-02 0. -1.
    10030    2    1    2    0    0  0.00000000000E+00  0.00000000000E+00 -0.20436820539E+03  0.35984034037E+04  0.35925952586E+04 0.  0.
        5    1    3    3  502    0  0.17266653764E+04  0.29415201375E+03  0.29691252349E+03  0.17765353545E+04  0.46999998093E+01 0. -1.
       -5    1    3    3    0  502 -0.17266653764E+04 -0.29415201375E+03 -0.50128072888E+03  0.18218680491E+04  0.46999998093E+01 0.  1.
</event>
<event>
 5   0  0.2839279E-07  0.3239571E+04  0.7818609E-02  0.8178444E-01
       -2   -1    0    0    0  501  0.00000000000E+00  0.00000000000E+00  0.15349713177E+04  0.15349713177E+04  0.25500000920E-02 0. -1.
        2   -1    0    0  501    0  0.00000000000E+00  0.00000000000E+00 -0.17092856354E+04  0.17092856354E+04  0.25500000920E-02 0.  1.
    10030    2    1    2    0    0  0.00000000000E+00  0.00000000000E+00 -0.17431431772E+03  0.32442569530E+04  0.32395706036E+04 0.  0.
        3    1    3    3  502    0  0.46725348737E+03 -0.79811003474E+01  0.14659941425E+04  0.15386774696E+04  0.10100000352E+00 0. -1.
       -3    1    3    3    0  502 -0.46725348737E+03  0.79811003474E+01 -0.16403084602E+04  0.17055794834E+04  0.10100000352E+00 0.  1.
</event>
<event>
 5   0  0.2661693E-07  0.4048294E+04  0.7818609E-02  0.7994874E-01
       -2   -1    0    0    0  501  0.00000000000E+00  0.00000000000E+00  0.15615034941E+04  0.15615034941E+04  0.25500000920E-02 0. -1.
        2   -1    0    0  501    0  0.00000000000E+00  0.00000000000E+00 -0.26238626945E+04  0.26238626945E+04  0.25500000920E-02 0.  1.
    10030    2    1    2    0    0  0.00000000000E+00  0.00000000000E+00 -0.10623592004E+04  0.41853661887E+04  0.40482938459E+04 0.  0.
        1    1    3    3  502    0  0.29865185864E+03 -0.10142006765E+04 -0.23157102227E+04  0.25456452582E+04  0.50400001928E-02 0.  1.
       -1    1    3    3    0  502 -0.29865185864E+03  0.10142006765E+04  0.12533510223E+04  0.16397209305E+04  0.50400001928E-02 0. -1.
</event>
<event>
 5   0  0.8528625E-08  0.3523071E+04  0.7818609E-02  0.8108344E-01
       -1   -1    0    0    0  501  0.00000000000E+00  0.00000000000E+00  0.17825297741E+04  0.17825297741E+04  0.50400001928E-02 0. -1.
        1   -1    0    0  501    0  0.00000000000E+00  0.00000000000E+00 -0.17407883794E+04  0.17407883794E+04  0.50400001928E-02 0.  1.
    10030    2    1    2    0    0  0.00000000000E+00  0.00000000000E+00  0.41741394751E+02  0.35233181535E+04  0.35230708859E+04 0.  0.
        5    1    3    3  502    0  0.25141697604E+03 -0.15357008206E+04 -0.80465529982E+03  0.17518789192E+04  0.46999998093E+01 0.  1.
       -5    1    3    3    0  502 -0.25141697604E+03  0.15357008206E+04  0.84639669457E+03  0.17714392343E+04  0.46999998093E+01 0. -1.
</event>
<event>
 5   0  0.8583262E-08  0.3991879E+04  0.7818609E-02  0.8006187E-01
       -1   -1    0    0    0  501  0.00000000000E+00  0.00000000000E+00  0.12608508418E+04  0.12608508418E+04  0.50400001928E-02 0.  1.
        1   -1    0    0  501    0  0.00000000000E+00  0.00000000000E+00 -0.31595929782E+04  0.31595929782E+04  0.50400001928E-02 0. -1.
    10030    2    1    2    0    0  0.00000000000E+00  0.00000000000E+00 -0.18987421365E+04  0.44204438200E+04  0.39918794903E+04 0.  0.
        1    1    3    3  502    0 -0.16237826836E+04  0.11212865205E+04 -0.12812497331E+04  0.23527759229E+04  0.50400001928E-02 0. -1.
       -1    1    3    3    0  502  0.16237826836E+04 -0.11212865205E+04 -0.61749240334E+03  0.20676678971E+04  0.50400001928E-02 0.  1.
</event>
<event>
 5   0  0.2730801E-07  0.3937953E+04  0.7818609E-02  0.8017182E-01
       -2   -1    0    0    0  501  0.00000000000E+00  0.00000000000E+00  0.16326878368E+04  0.16326878368E+04  0.25500000920E-02 0. -1.
        2   -1    0    0  501    0  0.00000000000E+00  0.00000000000E+00 -0.23745310836E+04  0.23745310836E+04  0.25500000920E-02 0.  1.
    10030    2    1    2    0    0  0.00000000000E+00  0.00000000000E+00 -0.74184324679E+03  0.40072189204E+04  0.39379527769E+04 0.  0.
        2    1    3    3  502    0 -0.65630027261E+03 -0.22514399333E+03 -0.22460073030E+04  0.23507378992E+04  0.25500000920E-02 0.  1.
       -2    1    3    3    0  502  0.65630027261E+03  0.22514399333E+03  0.15041640562E+04  0.16564810212E+04  0.25500000920E-02 0. -1.
</event>
<event>
 5   0  0.8528625E-08  0.3819670E+04  0.7818609E-02  0.8041947E-01
        1   -1    0    0  501    0  0.00000000000E+00  0.00000000000E+00  0.21683502464E+04  0.21683502464E+04  0.50400001928E-02 0. -1.
       -1   -1    0    0    0  501  0.00000000000E+00  0.00000000000E+00 -0.16821401510E+04  0.16821401510E+04  0.50400001928E-02 0.  1.
    10030    2    1    2    0    0  0.00000000000E+00  0.00000000000E+00  0.48621009536E+03  0.38504903974E+04  0.38196696249E+04 0.  0.
        2    1    3    3  502    0 -0.77208211352E+03  0.11245433437E+03 -0.15141509386E+04  0.17033525273E+04  0.25500000920E-02 0.  1.
       -2    1    3    3    0  502  0.77208211352E+03 -0.11245433437E+03  0.20003610339E+04  0.21471378702E+04  0.25500000920E-02 0. -1.
</event>
<event>
 5   0  0.2661693E-07  0.3858798E+04  0.7818609E-02  0.8033653E-01
        2   -1    0    0  501    0  0.00000000000E+00  0.00000000000E+00  0.14316298057E+04  0.14316298057E+04  0.25500000920E-02 0.  1.
       -2   -1    0    0    0  501  0.00000000000E+00  0.00000000000E+00 -0.26002397013E+04  0.26002397013E+04  0.25500000920E-02 0. -1.
    10030    2    1    2    0    0  0.00000000000E+00  0.00000000000E+00 -0.11686098956E+04  0.40318695071E+04  0.38587980815E+04 0.  0.
        1    1    3    3  502    0 -0.14234217672E+04  0.67249392578E+03  0.58116222272E+03  0.16781320379E+04  0.50400001928E-02 0.  1.
       -1    1    3    3    0  502  0.14234217672E+04 -0.67249392578E+03 -0.17497721183E+04  0.23537374691E+04  0.50400001928E-02 0. -1.
</event>
<event>
 5   0  0.2704088E-07  0.3972598E+04  0.7818609E-02  0.8010097E-01
       -2   -1    0    0    0  501  0.00000000000E+00  0.00000000000E+00  0.13430238781E+04  0.13430238781E+04  0.25500000920E-02 0.  1.
        2   -1    0    0  501    0  0.00000000000E+00  0.00000000000E+00 -0.29376874851E+04  0.29376874851E+04  0.25500000920E-02 0. -1.
    10030    2    1    2    0    0  0.00000000000E+00  0.00000000000E+00 -0.15946636069E+04  0.42807113632E+04  0.39725983633E+04 0.  0.
        5    1    3    3  502    0 -0.11555628856E+04  0.54873508357E+03 -0.24346999876E+04  0.27503130538E+04  0.46999998093E+01 0. -1.
       -5    1    3    3    0  502  0.11555628856E+04 -0.54873508357E+03  0.84003638068E+03  0.15303983094E+04  0.46999998093E+01 0.  1.
</event>
<event>
 5   0  0.8528625E-08  0.3193745E+04  0.7818609E-02  0.8190471E-01
       -1   -1    0    0    0  501  0.00000000000E+00  0.00000000000E+00  0.11513408466E+04  0.11513408466E+04  0.50400001928E-02 0.  1.
        1   -1    0    0  501    0  0.00000000000E+00  0.00000000000E+00 -0.22148108117E+04  0.22148108118E+04  0.50400001928E-02 0. -1.
    10030    2    1    2    0    0  0.00000000000E+00  0.00000000000E+00 -0.10634699651E+04  0.33661516584E+04  0.31937452341E+04 0.  0.
        5    1    3    3  502    0  0.87012602037E+03 -0.61284027670E+03 -0.17864999890E+04  0.20794943608E+04  0.46999998093E+01 0. -1.
       -5    1    3    3    0  502 -0.87012602037E+03  0.61284027670E+03  0.72303002383E+03  0.12866572976E+04  0.46999998093E+01 0.  1.
</event>
<event>
 5   0  0.8528625E-08  0.4028476E+04  0.7818609E-02  0.7998826E-01
        1   -1    0    0  501    0  0.00000000000E+00  0.00000000000E+00  0.24291602669E+04  0.24291602669E+04  0.50400001928E-02 0. -1.
       -1   -1    0    0    0  501  0.00000000000E+00  0.00000000000E+00 -0.16701884554E+04  0.16701884554E+04  0.50400001928E-02 0.  1.
    10030    2    1    2    0    0  0.00000000000E+00  0.00000000000E+00  0.75897181153E+03  0.40993487223E+04  0.40284763542E+04 0.  0.
        5    1    3    3  502    0  0.15773884630E+04 -0.11764543385E+04 -0.58119448408E+02  0.19686541428E+04  0.46999998093E+01 0. -1.
       -5    1    3    3    0  502 -0.15773884630E+04  0.11764543385E+04  0.81709125994E+03  0.21306945795E+04  0.46999998093E+01 0.  1.
</event>
<event>
 5   0  0.2661693E-07  0.4017868E+04  0.7818609E-02  0.8000952E-01
       -2   -1    0    0    0  501  0.00000000000E+00  0.00000000000E+00  0.15481156291E+04  0.15481156291E+04  0.25500000920E-02 0.  1.
        2   -1    0    0  501    0  0.00000000000E+00  0.00000000000E+00 -0.26069220498E+04  0.26069220498E+04  0.25500000920E-02 0. -1.
    10030    2    1    2    0    0  0.00000000000E+00  0.00000000000E+00 -0.10588064207E+04  0.41550376789E+04  0.40178684743E+04 0.  0.
        1    1    3    3  502    0 -0.81794517946E+03  0.64625585251E+03  0.12465300378E+04  0.16249671008E+04  0.50400001928E-02 0.  1.
       -1    1    3    3    0  502  0.81794517946E+03 -0.64625585251E+03 -0.23053364585E+04  0.25300705781E+04  0.50400001928E-02 0. -1.
</event>
<event>
 5   0  0.2666978E-07  0.4240328E+04  0.7818609E-02  0.7957745E-01
       -2   -1    0    0    0  501  0.00000000000E+00  0.00000000000E+00  0.21303781657E+04  0.21303781657E+04  0.25500000920E-02 0. -1.
        2   -1    0    0  501    0  0.00000000000E+00  0.00000000000E+00 -0.21099984439E+04  0.21099984439E+04  0.25500000920E-02 0.  1.
    10030    2    1    2    0    0  0.00000000000E+00  0.00000000000E+00  0.20379721805E+02  0.42403766096E+04  0.42403276357E+04 0.  0.
        4    1    3    3  502    0 -0.88316514344E+02  0.56564242373E+03 -0.20312405459E+04  0.21103769631E+04  0.12699999809E+01 0.  1.
       -4    1    3    3    0  502  0.88316514344E+02 -0.56564242373E+03  0.20516202677E+04  0.21299996465E+04  0.12699999809E+01 0. -1.
</event>
<event>
 5   0  0.8528625E-08  0.3877856E+04  0.7818609E-02  0.8029650E-01
        1   -1    0    0  501    0  0.00000000000E+00  0.00000000000E+00  0.22594431551E+04  0.22594431551E+04  0.50400001928E-02 0. -1.
       -1   -1    0    0    0  501  0.00000000000E+00  0.00000000000E+00 -0.16638801080E+04  0.16638801080E+04  0.50400001928E-02 0.  1.
    10030    2    1    2    0    0  0.00000000000E+00  0.00000000000E+00  0.59556304713E+03  0.39233232631E+04  0.38778563774E+04 0.  0.
        2    1    3    3  502    0  0.16996502068E+04 -0.34416699083E+01 -0.64622860856E+03  0.18183602737E+04  0.25500000920E-02 0. -1.
       -2    1    3    3    0  502 -0.16996502068E+04  0.34416699083E+01  0.12417916557E+04  0.21049629894E+04  0.25500000920E-02 0.  1.
</event>
<event>
 5   0  0.8528625E-08  0.3990777E+04  0.7818609E-02  0.8006410E-01
       -1   -1    0    0    0  501  0.00000000000E+00  0.00000000000E+00  0.15044751613E+04  0.15044751614E+04  0.50400001928E-02 0. -1.
        1   -1    0    0  501    0  0.00000000000E+00  0.00000000000E+00 -0.26464881835E+04  0.26464881835E+04  0.50400001928E-02 0.  1.
    10030    2    1    2    0    0  0.00000000000E+00  0.00000000000E+00 -0.11420130221E+04  0.41509633448E+04  0.39907772360E+04 0.  0.
        4    1    3    3  502    0 -0.14665414931E+04  0.13464281677E+04 -0.43160706567E+03  0.20371300975E+04  0.12699999809E+01 0.  1.
       -4    1    3    3    0  502  0.14665414931E+04 -0.13464281677E+04 -0.71040595646E+03  0.21138332474E+04  0.12699999809E+01 0. -1.
</event>
<event>
 5   0  0.2839279E-07  0.3984946E+04  0.7818609E-02  0.8007590E-01
       -2   -1    0    0    0  501  0.00000000000E+00  0.00000000000E+00  0.16300214918E+04  0.16300214918E+04  0.25500000920E-02 0.  1.
        2   -1    0    0  501    0  0.00000000000E+00  0.00000000000E+00 -0.24355188392E+04  0.24355188392E+04  0.25500000920E-02 0. -1.
    10030    2    1    2    0    0  0.00000000000E+00  0.00000000000E+00 -0.80549734740E+03  0.40655403310E+04  0.39849456968E+04 0.  0.
        3    1    3    3  502    0  0.17462431452E+04 -0.50547000479E+03 -0.12347687151E+04  0.21976166267E+04  0.10100000352E+00 0. -1.
       -3    1    3    3    0  502 -0.17462431452E+04  0.50547000479E+03  0.42927136766E+03  0.18679237043E+04  0.10100000352E+00 0.  1.
</event>
<event>
 5   0  0.8583262E-08  0.4055907E+04  0.7818609E-02  0.7993362E-01
        1   -1    0    0  501    0  0.00000000000E+00  0.00000000000E+00  0.16042595112E+04  0.16042595112E+04  0.50400001928E-02 0.  1.
       -1   -1    0    0    0  501  0.00000000000E+00  0.00000000000E+00 -0.25635479853E+04  0.25635479853E+04  0.50400001928E-02 0. -1.
    10030    2    1    2    0    0  0.00000000000E+00  0.00000000000E+00 -0.95928847407E+03  0.41678074966E+04  0.40559074141E+04 0.  0.
        1    1    3    3  502    0 -0.38818856876E+03 -0.16970967401E+04  0.58913200189E+03  0.18379075673E+04  0.50400001928E-02 0. -1.
       -1    1    3    3    0  502  0.38818856876E+03  0.16970967401E+04 -0.15484204760E+04  0.23298999293E+04  0.50400001928E-02 0.  1.
</event>
<event>
 5   0  0.2704088E-07  0.4110832E+04  0.7818609E-02  0.7982554E-01
        2   -1    0    0  501    0  0.00000000000E+00  0.00000000000E+00  0.16977331053E+04  0.16977331053E+04  0.25500000920E-02 0. -1.
       -2   -1    0    0    0  501  0.00000000000E+00  0.00000000000E+00 -0.24884564777E+04  0.24884564777E+04  0.25500000920E-02 0.  1.
    10030    2    1    2    0    0  0.00000000000E+00  0.00000000000E+00 -0.79072337233E+03  0.41861895830E+04  0.41108320050E+04 0.  0.
        5    1    3    3  502    0 -0.77292850539E+03 -0.44149468949E+03 -0.22819912848E+04  0.24494575622E+04  0.46999998093E+01 0.  1.
       -5    1    3    3    0  502  0.77292850539E+03  0.44149468949E+03  0.14912679124E+04  0.17367320208E+04  0.46999998093E+01 0. -1.
</event>
<event>
 5   0  0.8528625E-08  0.3972498E+04  0.7818609E-02  0.8010118E-01
        1   -1    0    0  501    0  0.00000000000E+00  0.00000000000E+00  0.25935131281E+04  0.25935131281E+04  0.50400001928E-02 0.  1.
       -1   -1    0    0    0  501  0.00000000000E+00  0.00000000000E+00 -0.15211742963E+04  0.15211742963E+04  0.50400001928E-02 0. -1.
    10030    2    1    2    0    0  0.00000000000E+00  0.00000000000E+00  0.10723388318E+04  0.41146874244E+04  0.39724982102E+04 0.  0.
        2    1    3    3  502    0 -0.16515120906E+04 -0.79217887103E+03 -0.25953699605E+03  0.18499727029E+04  0.25500000920E-02 0. -1.
       -2    1    3    3    0  502  0.16515120906E+04  0.79217887103E+03  0.13318758278E+04  0.22647147215E+04  0.25500000920E-02 0.  1.
</event>
<event>
 5   0  0.2661693E-07  0.3912671E+04  0.7818609E-02  0.8022399E-01
       -2   -1    0    0    0  501  0.00000000000E+00  0.00000000000E+00  0.10786564913E+04  0.10786564913E+04  0.25500000920E-02 0. -1.
        2   -1    0    0  501    0  0.00000000000E+00  0.00000000000E+00 -0.35481632378E+04  0.35481632378E+04  0.25500000920E-02 0.  1.
    10030    2    1    2    0    0  0.00000000000E+00  0.00000000000E+00 -0.24695067465E+04  0.46268197292E+04  0.39126713681E+04 0.  0.
        1    1    3    3  502    0 -0.10975370818E+03 -0.17320304820E+04 -0.23024821816E+04  0.28832966659E+04  0.50400001928E-02 0.  1.
       -1    1    3    3    0  502  0.10975370818E+03  0.17320304820E+04 -0.16702456492E+03  0.17435230633E+04  0.50400001928E-02 0. -1.
</event>
<event>
 5   0  0.2730801E-07  0.4000756E+04  0.7818609E-02  0.8004394E-01
       -2   -1    0    0    0  501  0.00000000000E+00  0.00000000000E+00  0.17642339539E+04  0.17642339539E+04  0.25500000920E-02 0. -1.
        2   -1    0    0  501    0  0.00000000000E+00  0.00000000000E+00 -0.22681300515E+04  0.22681300515E+04  0.25500000920E-02 0.  1.
    10030    2    1    2    0    0  0.00000000000E+00  0.00000000000E+00 -0.50389609757E+03  0.40323640054E+04  0.40007559530E+04 0.  0.
        2    1    3    3  502    0 -0.14137877182E+04  0.62786770678E+03 -0.15302339432E+04  0.21759203777E+04  0.25500000920E-02 0.  1.
       -2    1    3    3    0  502  0.14137877182E+04 -0.62786770678E+03  0.10263378456E+04  0.18564436277E+04  0.25500000920E-02 0. -1.
</event>
<event>
 5   0  0.8528625E-08  0.3961438E+04  0.7818609E-02  0.8012371E-01
       -1   -1    0    0    0  501  0.00000000000E+00  0.00000000000E+00  0.17521462756E+04  0.17521462756E+04  0.50400001928E-02 0.  1.
        1   -1    0    0  501    0  0.00000000000E+00  0.00000000000E+00 -0.22391094345E+04  0.22391094345E+04  0.50400001928E-02 0. -1.
    10030    2    1    2    0    0  0.00000000000E+00  0.00000000000E+00 -0.48696315888E+03  0.39912557101E+04  0.39614377472E+04 0.  0.
        4    1    3    3  502    0 -0.99262112909E+03  0.72358331765E+03  0.13220404414E+04  0.18046224162E+04  0.12699999809E+01 0.  1.
       -4    1    3    3    0  502  0.99262112909E+03 -0.72358331765E+03 -0.18090036002E+04  0.21866332939E+04  0.12699999809E+01 0. -1.
</event>
<event>
 5   0  0.2666978E-07  0.4030002E+04  0.7818609E-02  0.7998521E-01
       -2   -1    0    0    0  501  0.00000000000E+00  0.00000000000E+00  0.14990174252E+04  0.14990174252E+04  0.25500000920E-02 0.  1.
        2   -1    0    0  501    0  0.00000000000E+00  0.00000000000E+00 -0.27085941050E+04  0.27085941050E+04  0.25500000920E-02 0. -1.
    10030    2    1    2    0    0  0.00000000000E+00  0.00000000000E+00 -0.12095766798E+04  0.42076115302E+04  0.40300023629E+04 0.  0.
        4    1    3    3  502    0 -0.93404501901E+03 -0.16538317420E+04  0.97638894049E+02  0.19018765719E+04  0.12699999809E+01 0.  1.
       -4    1    3    3    0  502  0.93404501901E+03  0.16538317420E+04 -0.13072155738E+04  0.23057349582E+04  0.12699999809E+01 0. -1.
</event>
<event>
 5   0  0.2704088E-07  0.4026526E+04  0.7818609E-02  0.7999217E-01
       -2   -1    0    0    0  501  0.00000000000E+00  0.00000000000E+00  0.24595136508E+04  0.24595136508E+04  0.25500000920E-02 0. -1.
        2   -1    0    0  501    0  0.00000000000E+00  0.00000000000E+00 -0.16479794958E+04  0.16479794958E+04  0.25500000920E-02 0.  1.
    10030    2    1    2    0    0  0.00000000000E+00  0.00000000000E+00  0.81153415498E+03  0.41074931467E+04  0.40265260790E+04 0.  0.
        5    1    3    3  502    0  0.13960498566E+04  0.13179863199E+04  0.10238911940E+04  0.21758718733E+04  0.46999998093E+01 0. -1.
       -5    1    3    3    0  502 -0.13960498566E+04 -0.13179863199E+04 -0.21235703905E+03  0.19316212734E+04  0.46999998093E+01 0.  1.
</event>
<event>
 5   0  0.8583262E-08  0.3650794E+04  0.7818609E-02  0.8078955E-01
        1   -1    0    0  501    0  0.00000000000E+00  0.00000000000E+00  0.18245991235E+04  0.18245991235E+04  0.50400001928E-02 0. -1.
       -1   -1    0    0    0  501  0.00000000000E+00  0.00000000000E+00 -0.18261947492E+04  0.18261947492E+04  0.50400001928E-02 0.  1.
    10030    2    1    2    0    0  0.00000000000E+00  0.00000000000E+00 -0.15956257712E+01  0.36507938727E+04  0.36507935240E+04 0.  0.
        1    1    3    3  502    0  0.74291398603E+03  0.74523515561E+03  0.14907708701E+04  0.18247450273E+04  0.50400001928E-02 0. -1.
       -1    1    3    3    0  502 -0.74291398603E+03 -0.74523515561E+03 -0.14923664958E+04  0.18260488454E+04  0.50400001928E-02 0.  1.
</event>
<event>
 5   0  0.2666978E-07  0.3996264E+04  0.7818609E-02  0.8005301E-01
       -2   -1    0    0    0  501  0.00000000000E+00  0.00000000000E+00  0.24751505518E+04  0.24751505518E+04  0.25500000920E-02 0.  1.
        2   -1    0    0  501    0  0.00000000000E+00  0.00000000000E+00 -0.16130460673E+04  0.16130460673E+04  0.25500000920E-02 0. -1.
    10030    2    1    2    0    0  0.00000000000E+00  0.00000000000E+00  0.86210448451E+03  0.40881966192E+04  0.39962641873E+04 0.  0.
        4    1    3    3  502    0 -0.15276616058E+02  0.16803695564E+04 -0.67486021454E+03  0.18108873911E+04  0.12699999809E+01 0. -1.
       -4    1    3    3    0  502  0.15276616058E+02 -0.16803695564E+04  0.15369646991E+04  0.22773092281E+04  0.12699999809E+01 0.  1.
</event>
<event>
 5   0  0.8528625E-08  0.3940803E+04  0.7818609E-02  0.8016596E-01
       -1   -1    0    0    0  501  0.00000000000E+00  0.00000000000E+00  0.13841209581E+04  0.13841209581E+04  0.50400001928E-02 0. -1.
        1   -1    0    0  501    0  0.00000000000E+00  0.00000000000E+00 -0.28050168942E+04  0.28050168942E+04  0.50400001928E-02 0.  1.
    10030    2    1    2    0    0  0.00000000000E+00  0.00000000000E+00 -0.14208959361E+04  0.41891378523E+04  0.39408033044E+04 0.  0.
        3    1    3    3  502    0  0.13759883838E+04  0.14029774260E+04 -0.86373244095E+03  0.21465608377E+04  0.10100000352E+00 0.  1.
       -3    1    3    3    0  502 -0.13759883838E+04 -0.14029774260E+04 -0.55716349516E+03  0.20425770146E+04  0.10100000352E+00 0. -1.
</event>
<event>
 5   0  0.8528625E-08  0.4025544E+04  0.7818609E-02  0.7999413E-01
       -1   -1    0    0    0  501  0.00000000000E+00  0.00000000000E+00  0.23899096918E+04  0.23899096918E+04  0.50400001928E-02 0. -1.
        1   -1    0    0  501    0  0.00000000000E+00  0.00000000000E+00 -0.16951478290E+04  0.16951478290E+04  0.50400001928E-02 0.  1.
    10030    2    1    2    0    0  0.00000000000E+00  0.00000000000E+00  0.69476186281E+03  0.40850575208E+04  0.40255435536E+04 0.  0.
        2    1    3    3  502    0  0.18947121759E+04  0.58604341527E+03  0.69577732536E+03  0.21017819108E+04  0.25500000920E-02 0.  1.
       -2    1    3    3    0  502 -0.18947121759E+04 -0.58604341527E+03 -0.10154625520E+01  0.19832756100E+04  0.25500000920E-02 0. -1.
</event>
<event>
 5   0  0.8528625E-08  0.3904435E+04  0.7818609E-02  0.8024107E-01
       -1   -1    0    0    0  501  0.00000000000E+00  0.00000000000E+00  0.13855736309E+04  0.13855736309E+04  0.50400001928E-02 0. -1.
        1   -1    0    0  501    0  0.00000000000E+00  0.00000000000E+00 -0.27505955459E+04  0.27505955459E+04  0.50400001928E-02 0.  1.
    10030    2    1    2    0    0  0.00000000000E+00  0.00000000000E+00 -0.13650219150E+04  0.41361691767E+04  0.39044347389E+04 0.  0.
        2    1    3    3  502    0  0.63058181494E+02 -0.17849190645E+04 -0.15174791293E+04  0.23436414634E+04  0.25500000920E-02 0.  1.
       -2    1    3    3    0  502 -0.63058181494E+02  0.17849190645E+04  0.15245721425E+03  0.17925277134E+04  0.25500000920E-02 0. -1.
</event>
<event>
 5   0  0.8583262E-08  0.3934152E+04  0.7818609E-02  0.8017964E-01
        1   -1    0    0  501    0  0.00000000000E+00  0.00000000000E+00  0.11706781735E+04  0.11706781735E+04  0.50400001928E-02 0. -1.
       -1   -1    0    0    0  501  0.00000000000E+00  0.00000000000E+00 -0.33052528354E+04  0.33052528354E+04  0.50400001928E-02 0.  1.
    10030    2    1    2    0    0  0.00000000000E+00  0.00000000000E+00 -0.21345746620E+04  0.44759310089E+04  0.39341516759E+04 0.  0.
        1    1    3    3  502    0 -0.11984256542E+03 -0.11358880276E+04  0.75475154811E+03  0.13690338751E+04  0.50400001928E-02 0. -1.
       -1    1    3    3    0  502  0.11984256542E+03  0.11358880276E+04 -0.28893262101E+04  0.31068971338E+04  0.50400001928E-02 0.  1.
</event>
<event>
 5   0  0.8528625E-08  0.4045864E+04  0.7818609E-02  0.7995358E-01
        1   -1    0    0  501    0  0.00000000000E+00  0.00000000000E+00  0.27307578995E+04  0.27307578995E+04  0.50400001928E-02 0. -1.
       -1   -1    0    0    0  501  0.00000000000E+00  0.00000000000E+00 -0.14985783648E+04  0.14985783648E+04  0.50400001928E-02 0.  1.
    10030    2    1    2    0    0  0.00000000000E+00  0.00000000000E+00  0.12321795346E+04  0.42293362643E+04  0.40458644108E+04 0.  0.
        5    1    3    3  502    0  0.85105483289E+03  0.99584753367E+03 -0.99531543678E+03  0.16451995464E+04  0.46999998093E+01 0.  1.
       -5    1    3    3    0  502 -0.85105483289E+03 -0.99584753367E+03  0.22274949714E+04  0.25841367179E+04  0.46999998093E+01 0. -1.
</event>
<event>
 5   0  0.8528625E-08  0.3052400E+04  0.7818609E-02  0.8228924E-01
        1   -1    0    0  501    0  0.00000000000E+00  0.00000000000E+00  0.30209766600E+04  0.30209766600E+04  0.50400001928E-02 0.  1.
       -1   -1    0    0    0  501  0.00000000000E+00  0.00000000000E+00 -0.77103755903E+03  0.77103755905E+03  0.50400001928E-02 0. -1.
    10030    2    1    2    0    0  0.00000000000E+00  0.00000000000E+00  0.22499391010E+04  0.37920142191E+04  0.30524000196E+04 0.  0.
        2    1    3    3  502    0  0.11836977052E+04  0.31818165264E+03 -0.47138606095E+01  0.12257251086E+04  0.25500000920E-02 0. -1.
       -2    1    3    3    0  502 -0.11836977052E+04 -0.31818165264E+03  0.22546529616E+04  0.25662891105E+04  0.25500000920E-02 0.  1.
</event>
<event>
 5   0  0.2666978E-07  0.3998554E+04  0.7818609E-02  0.8004838E-01
        2   -1    0    0  501    0  0.00000000000E+00  0.00000000000E+00  0.14963552481E+04  0.14963552481E+04  0.25500000920E-02 0. -1.
       -2   -1    0    0    0  501  0.00000000000E+00  0.00000000000E+00 -0.26712291478E+04  0.26712291478E+04  0.25500000920E-02 0.  1.
    10030    2    1    2    0    0  0.00000000000E+00  0.00000000000E+00 -0.11748738997E+04  0.41675843959E+04  0.39985536156E+04 0.  0.
        4    1    3    3  502    0  0.49064648000E+03 -0.19375346409E+04 -0.63776577012E+03  0.20979802771E+04  0.12699999809E+01 0.  1.
       -4    1    3    3    0  502 -0.49064648000E+03  0.19375346409E+04 -0.53710812954E+03  0.20696041188E+04  0.12699999809E+01 0. -1.
</event>
<event>
 5   0  0.2666978E-07  0.3639280E+04  0.7818609E-02  0.8081553E-01
       -2   -1    0    0    0  501  0.00000000000E+00  0.00000000000E+00  0.22560396214E+04  0.22560396214E+04  0.25500000920E-02 0.  1.
        2   -1    0    0  501    0  0.00000000000E+00  0.00000000000E+00 -0.14676556489E+04  0.14676556489E+04  0.25500000920E-02 0. -1.
    10030    2    1    2    0    0  0.00000000000E+00  0.00000000000E+00  0.78838397244E+03  0.37236952703E+04  0.36392797609E+04 0.  0.
        4    1    3    3  502    0 -0.77507322054E+03  0.92095527339E+03  0.17904663117E+04  0.21574680389E+04  0.12699999809E+01 0.  1.
       -4    1    3    3    0  502  0.77507322054E+03 -0.92095527339E+03 -0.10020823393E+04  0.15662272314E+04  0.12699999809E+01 0. -1.
</event>
<event>
 5   0  0.2661693E-07  0.3209981E+04  0.7818609E-02  0.8186186E-01
        2   -1    0    0  501    0  0.00000000000E+00  0.00000000000E+00  0.22726658002E+04  0.22726658002E+04  0.25500000920E-02 0.  1.
       -2   -1    0    0    0  501  0.00000000000E+00  0.00000000000E+00 -0.11334684109E+04  0.11334684109E+04  0.25500000920E-02 0. -1.
    10030    2    1    2    0    0  0.00000000000E+00  0.00000000000E+00  0.11391973893E+04  0.34061342111E+04  0.32099812417E+04 0.  0.
        1    1    3    3  502    0 -0.14389988754E+04 -0.63170998475E+03  0.22376950786E+03  0.15874029296E+04  0.50400001928E-02 0. -1.
       -1    1    3    3    0  502  0.14389988754E+04  0.63170998475E+03  0.91542788147E+03  0.18187312815E+04  0.50400001928E-02 0.  1.
</event>
<event>
 5   0  0.8528625E-08  0.3236700E+04  0.7818609E-02  0.8179191E-01
        1   -1    0    0  501    0  0.00000000000E+00  0.00000000000E+00  0.15749947193E+04  0.15749947193E+04  0.50400001928E-02 0. -1.
       -1   -1    0    0    0  501  0.00000000000E+00  0.00000000000E+00 -0.16628991421E+04  0.16628991421E+04  0.50400001928E-02 0.  1.
    10030    2    1    2    0    0  0.00000000000E+00  0.00000000000E+00 -0.87904422821E+02  0.32378938614E+04  0.32367003986E+04 0.  0.
        4    1    3    3  502    0 -0.93312607055E+03 -0.74453994999E+03 -0.11370544176E+04  0.16486231717E+04  0.12699999809E+01 0.  1.
       -4    1    3    3    0  502  0.93312607055E+03  0.74453994999E+03  0.10491499948E+04  0.15892706897E+04  0.12699999809E+01 0. -1.
</event>
<event>
 5   0  0.8528625E-08  0.4005467E+04  0.7818609E-02  0.8003445E-01
       -1   -1    0    0    0  501  0.00000000000E+00  0.00000000000E+00  0.21834720902E+04  0.21834720902E+04  0.50400001928E-02 0. -1.
        1   -1    0    0  501    0  0.00000000000E+00  0.00000000000E+00 -0.18369553813E+04  0.18369553813E+04  0.50400001928E-02 0.  1.
    10030    2    1    2    0    0  0.00000000000E+00  0.00000000000E+00  0.34651670887E+03  0.40204274715E+04  0.40054666675E+04 0.  0.
        4    1    3    3  502    0 -0.68668985941E+03  0.76867651255E+03  0.18968011857E+04  0.21587642055E+04  0.12699999809E+01 0. -1.
       -4    1    3    3    0  502  0.68668985941E+03 -0.76867651255E+03 -0.15502844769E+04  0.18616632660E+04  0.12699999809E+01 0.  1.
</event>
<event>
 5   0  0.2704088E-07  0.4016761E+04  0.7818609E-02  0.8001174E-01
        2   -1    0    0  501    0  0.00000000000E+00  0.00000000000E+00  0.20562413557E+04  0.20562413557E+04  0.25500000920E-02 0.  1.
       -2   -1    0    0    0  501  0.00000000000E+00  0.00000000000E+00 -0.19616340304E+04  0.19616340304E+04  0.25500000920E-02 0. -1.
    10030    2    1    2    0    0  0.00000000000E+00  0.00000000000E+00  0.94607325368E+02  0.40178753861E+04  0.40167613910E+04 0.  0.
        5    1    3    3  502    0 -0.10281253922E+04  0.33770022765E+03  0.17396616709E+04  0.20487869789E+04  0.46999998093E+01 0.  1.
       -5    1    3    3    0  502  0.10281253922E+04 -0.33770022765E+03 -0.16450543455E+04  0.19690884072E+04  0.46999998093E+01 0. -1.
</event>
<event>
 5   0  0.8528625E-08  0.3953234E+04  0.7818609E-02  0.8014048E-01
        1   -1    0    0  501    0  0.00000000000E+00  0.00000000000E+00  0.25331204540E+04  0.25331204540E+04  0.50400001928E-02 0.  1.
       -1   -1    0    0    0  501  0.00000000000E+00  0.00000000000E+00 -0.15423723359E+04  0.15423723359E+04  0.50400001928E-02 0. -1.
    10030    2    1    2    0    0  0.00000000000E+00  0.00000000000E+00  0.99074811812E+03  0.40754927899E+04  0.39532340744E+04 0.  0.
        5    1    3    3  502    0 -0.19744885539E+04 -0.91553803244E+02  0.49782963607E+03  0.20383433432E+04  0.46999998093E+01 0.  1.
       -5    1    3    3    0  502  0.19744885539E+04  0.91553803244E+02  0.49291848205E+03  0.20371494467E+04  0.46999998093E+01 0. -1.
</event>
<event>
 5   0  0.8528625E-08  0.3977670E+04  0.7818609E-02  0.8009066E-01
        3   -1    0    0  501    0  0.00000000000E+00  0.00000000000E+00  0.26450385298E+04  0.26450385318E+04  0.10100000352E+00 0. -1.
       -3   -1    0    0    0  501  0.00000000000E+00  0.00000000000E+00 -0.14954280933E+04  0.14954280967E+04  0.10100000352E+00 0.  1.
    10030    2    1    2    0    0  0.00000000000E+00  0.00000000000E+00  0.11496104365E+04  0.41404666285E+04  0.39776701404E+04 0.  0.
        5    1    3    3  502    0  0.44545970420E+03 -0.11771964473E+04  0.21777042830E+04  0.25152820633E+04  0.46999998093E+01 0. -1.
       -5    1    3    3    0  502 -0.44545970420E+03  0.11771964473E+04 -0.10280938465E+04  0.16251845652E+04  0.46999998093E+01 0.  1.
</event>
<event>
 5   0  0.2730801E-07  0.4048137E+04  0.7818609E-02  0.7994906E-01
       -2   -1    0    0    0  501  0.00000000000E+00  0.00000000000E+00  0.25989112071E+04  0.25989112071E+04  0.25500000920E-02 0. -1.
        2   -1    0    0  501    0  0.00000000000E+00  0.00000000000E+00 -0.15763731674E+04  0.15763731674E+04  0.25500000920E-02 0.  1.
    10030    2    1    2    0    0  0.00000000000E+00  0.00000000000E+00  0.10225380397E+04  0.41752843745E+04  0.40481372957E+04 0.  0.
        2    1    3    3  502    0 -0.67056352245E+03 -0.14058142856E+04 -0.82195785990E+03  0.17611314450E+04  0.25500000920E-02 0.  1.
       -2    1    3    3    0  502  0.67056352245E+03  0.14058142856E+04  0.18444958996E+04  0.24141529295E+04  0.25500000920E-02 0. -1.
</event>
<event>
 5   0  0.8528625E-08  0.4043521E+04  0.7818609E-02  0.7995824E-01
       -1   -1    0    0    0  501  0.00000000000E+00  0.00000000000E+00  0.17882834307E+04  0.17882834307E+04  0.50400001928E-02 0.  1.
        1   -1    0    0  501    0  0.00000000000E+00  0.00000000000E+00 -0.22857201819E+04  0.22857201819E+04  0.50400001928E-02 0. -1.
    10030    2    1    2    0    0  0.00000000000E+00  0.00000000000E+00 -0.49743675112E+03  0.40740036126E+04  0.40435210045E+04 0.  0.
        3    1    3    3  502    0 -0.11018455452E+04  0.10786484652E+04  0.10687975573E+04  0.18761328166E+04  0.10100000352E+00 0. -1.
       -3    1    3    3    0  502  0.11018455452E+04 -0.10786484652E+04 -0.15662343084E+04  0.21978707960E+04  0.10100000352E+00 0.  1.
</event>
<event>
 5   0  0.2839279E-07  0.3991073E+04  0.7818609E-02  0.8006350E-01
       -2   -1    0    0    0  501  0.00000000000E+00  0.00000000000E+00  0.21516964245E+04  0.21516964245E+04  0.25500000920E-02 0.  1.
        2   -1    0    0  501    0  0.00000000000E+00  0.00000000000E+00 -0.18507094993E+04  0.18507094993E+04  0.25500000920E-02 0. -1.
    10030    2    1    2    0    0  0.00000000000E+00  0.00000000000E+00  0.30098692523E+03  0.40024059238E+04  0.39910725438E+04 0.  0.
        3    1    3    3  502    0 -0.15993125984E+04  0.16998424180E+03 -0.10341610047E+04  0.19121151701E+04  0.10100000352E+00 0. -1.
       -3    1    3    3    0  502  0.15993125984E+04 -0.16998424180E+03  0.13351479300E+04  0.20902907537E+04  0.10100000352E+00 0.  1.
</event>
<event>
 5   0  0.2666978E-07  0.3156960E+04  0.7818609E-02  0.8200277E-01
        2   -1    0    0  501    0  0.00000000000E+00  0.00000000000E+00  0.29601868357E+04  0.29601868357E+04  0.25500000920E-02 0. -1.
       -2   -1    0    0    0  501  0.00000000000E+00  0.00000000000E+00 -0.84170335450E+03  0.84170335451E+03  0.25500000920E-02 0.  1.
    10030    2    1    2    0    0  0.00000000000E+00  0.00000000000E+00  0.21184834812E+04  0.38018901902E+04  0.31569600502E+04 0.  0.
        4    1    3    3  502    0  0.13525725391E+04 -0.71304115355E+03  0.58707866504E+03  0.16378471028E+04  0.12699999809E+01 0. -1.
       -4    1    3    3    0  502 -0.13525725391E+04  0.71304115355E+03  0.15314048161E+04  0.21640430874E+04  0.12699999809E+01 0.  1.
</event>
<event>
 5   0  0.2666978E-07  0.3971951E+04  0.7818609E-02  0.8010229E-01
        2   -1    0    0  501    0  0.00000000000E+00  0.00000000000E+00  0.22689071315E+04  0.22689071315E+04  0.25500000920E-02 0. -1.
       -2   -1    0    0    0  501  0.00000000000E+00  0.00000000000E+00 -0.17383250019E+04  0.17383250019E+04  0.25500000920E-02 0.  1.
    10030    2    1    2    0    0  0.00000000000E+00  0.00000000000E+00  0.53058212955E+03  0.40072321334E+04  0.39719506511E+04 0.  0.
        4    1    3    3  502    0 -0.80413528604E+03 -0.15876826384E+03  0.20902969016E+04  0.22452580408E+04  0.12699999809E+01 0. -1.
       -4    1    3    3    0  502  0.80413528604E+03  0.15876826384E+03 -0.15597147721E+04  0.17619740926E+04  0.12699999809E+01 0.  1.
</event>
<event>
 5   0  0.8528625E-08  0.3720259E+04  0.7818609E-02  0.8063487E-01
        1   -1    0    0  501    0  0.00000000000E+00  0.00000000000E+00  0.20627899129E+04  0.20627899129E+04  0.50400001928E-02 0. -1.
       -1   -1    0    0    0  501  0.00000000000E+00  0.00000000000E+00 -0.16773793752E+04  0.16773793752E+04  0.50400001928E-02 0.  1.
    10030    2    1    2    0    0  0.00000000000E+00  0.00000000000E+00  0.38541053771E+03  0.37401692882E+04  0.37202587305E+04 0.  0.
        2    1    3    3  502    0  0.33987660432E+03 -0.10962650280E+04 -0.12789486972E+04  0.17184361751E+04  0.25500000920E-02 0.  1.
       -2    1    3    3    0  502 -0.33987660432E+03  0.10962650280E+04  0.16643592349E+04  0.20217331131E+04  0.25500000920E-02 0. -1.
</event>
<event>
 5   0  0.2661693E-07  0.4000143E+04  0.7818609E-02  0.8004518E-01
        2   -1    0    0  501    0  0.00000000000E+00  0.00000000000E+00  0.19728361673E+04  0.19728361673E+04  0.25500000920E-02 0. -1.
       -2   -1    0    0    0  501  0.00000000000E+00  0.00000000000E+00 -0.20276833063E+04  0.20276833063E+04  0.25500000920E-02 0.  1.
    10030    2    1    2    0    0  0.00000000000E+00  0.00000000000E+00 -0.54847139009E+02  0.40005194736E+04  0.40001434787E+04 0.  0.
        1    1    3    3  502    0  0.64195767844E+03 -0.86932778700E+03 -0.17105691363E+04  0.20233356697E+04  0.50400001928E-02 0.  1.
       -1    1    3    3    0  502 -0.64195767844E+03  0.86932778700E+03  0.16557219973E+04  0.19771838039E+04  0.50400001928E-02 0. -1.
</event>
<event>
 5   0  0.8583262E-08  0.4005134E+04  0.7818609E-02  0.8003512E-01
       -1   -1    0    0    0  501  0.00000000000E+00  0.00000000000E+00  0.22527477789E+04  0.22527477789E+04  0.50400001928E-02 0.  1.
        1   -1    0    0  501    0  0.00000000000E+00  0.00000000000E+00 -0.17801704752E+04  0.17801704752E+04  0.50400001928E-02 0. -1.
    10030    2    1    2    0    0  0.00000000000E+00  0.00000000000E+00  0.47257730374E+03  0.40329182541E+04  0.40051342470E+04 0.  0.
        1    1    3    3  502    0  0.19632295848E+04  0.18896555956E+03 -0.11295554318E+03  0.19755346972E+04  0.50400001928E-02 0. -1.
       -1    1    3    3    0  502 -0.19632295848E+04 -0.18896555956E+03  0.58553284692E+03  0.20573835569E+04  0.50400001928E-02 0.  1.
</event>
<event>
 5   0  0.8528625E-08  0.3967169E+04  0.7818609E-02  0.8011202E-01
        3   -1    0    0  501    0  0.00000000000E+00  0.00000000000E+00  0.25011501338E+04  0.25011501359E+04  0.10100000352E+00 0. -1.
       -3   -1    0    0    0  501  0.00000000000E+00  0.00000000000E+00 -0.15731194384E+04  0.15731194416E+04  0.10100000352E+00 0.  1.
    10030    2    1    2    0    0  0.00000000000E+00  0.00000000000E+00  0.92803069543E+03  0.40742695775E+04  0.39671692198E+04 0.  0.
        2    1    3    3  502    0 -0.86956996008E+03 -0.38663779310E+03 -0.13233622939E+04  0.16300087299E+04  0.25500000920E-02 0.  1.
       -2    1    3    3    0  502  0.86956996008E+03  0.38663779310E+03  0.22513929894E+04  0.24442608476E+04  0.25500000920E-02 0. -1.
</event>
<event>
 5   0  0.2661693E-07  0.4063415E+04  0.7818609E-02  0.7991874E-01
        2   -1    0    0  501    0  0.00000000000E+00  0.00000000000E+00  0.26501865672E+04  0.26501865672E+04  0.25500000920E-02 0.  1.
       -2   -1    0    0    0  501  0.00000000000E+00  0.00000000000E+00 -0.15575641701E+04  0.15575641701E+04  0.25500000920E-02 0. -1.
    10030    2    1    2    0    0  0.00000000000E+00  0.00000000000E+00  0.10926223971E+04  0.42077507373E+04  0.40634151356E+04 0.  0.
        1    1    3    3  502    0  0.73600161236E+03 -0.68404833514E+03  0.23748822874E+04  0.25786985821E+04  0.50400001928E-02 0.  1.
       -1    1    3    3    0  502 -0.73600161236E+03  0.68404833514E+03 -0.12822598903E+04  0.16290521552E+04  0.50400001928E-02 0. -1.
</event>
<event>
 5   0  0.8528625E-08  0.3985346E+04  0.7818609E-02  0.8007509E-01
        1   -1    0    0  501    0  0.00000000000E+00  0.00000000000E+00  0.23538000105E+04  0.23538000105E+04  0.50400001928E-02 0.  1.
       -1   -1    0    0    0  501  0.00000000000E+00  0.00000000000E+00 -0.16869509359E+04  0.16869509359E+04  0.50400001928E-02 0. -1.
    10030    2    1    2    0    0  0.00000000000E+00  0.00000000000E+00  0.66684907464E+03  0.40407509464E+04  0.39853457218E+04 0.  0.
        5    1    3    3  502    0  0.61696603042E+03 -0.18309331702E+04 -0.16096035297E+03  0.19387866520E+04  0.46999998093E+01 0.  1.
       -5    1    3    3    0  502 -0.61696603042E+03  0.18309331702E+04  0.82780942761E+03  0.21019642944E+04  0.46999998093E+01 0. -1.
</event>
<event>
 5   0  0.8528625E-08  0.4011710E+04  0.7818609E-02  0.8002188E-01
        1   -1    0    0  501    0  0.00000000000E+00  0.00000000000E+00  0.17589083868E+04  0.17589083868E+04  0.50400001928E-02 0. -1.
       -1   -1    0    0    0  501  0.00000000000E+00  0.00000000000E+00 -0.22874720255E+04  0.22874720256E+04  0.50400001928E-02 0.  1.
    10030    2    1    2    0    0  0.00000000000E+00  0.00000000000E+00 -0.52856363877E+03  0.40463804123E+04  0.40117097254E+04 0.  0.
        5    1    3    3  502    0 -0.19657491317E+04  0.39907052741E+03 -0.26209378557E+03  0.20229043914E+04  0.46999998093E+01 0. -1.
       -5    1    3    3    0  502  0.19657491317E+04 -0.39907052741E+03 -0.26646985320E+03  0.20234760209E+04  0.46999998093E+01 0.  1.
</event>
<event>
 5   0  0.8528625E-08  0.3978447E+04  0.7818609E-02  0.8008909E-01
       -1   -1    0    0    0  501  0.00000000000E+00  0.00000000000E+00  0.17269994527E+04  0.17269994527E+04  0.50400001928E-02 0.  1.
        1   -1    0    0  501    0  0.00000000000E+00  0.00000000000E+00 -0.22912633980E+04  0.22912633980E+04  0.50400001928E-02 0. -1.
    10030    2    1    2    0    0  0.00000000000E+00  0.00000000000E+00 -0.56426394524E+03  0.40182628507E+04  0.39784472521E+04 0.  0.
        4    1    3    3  502    0  0.19486614056E+04  0.37352405245E+03 -0.42570780916E+03  0.20292930402E+04  0.12699999809E+01 0. -1.
       -4    1    3    3    0  502 -0.19486614056E+04 -0.37352405245E+03 -0.13855613608E+03  0.19889698105E+04  0.12699999809E+01 0.  1.
</event>
<event>
 5   0  0.2704088E-07  0.3954666E+04  0.7818609E-02  0.8013755E-01
       -2   -1    0    0    0  501  0.00000000000E+00  0.00000000000E+00  0.16166403850E+04  0.16166403850E+04  0.25500000920E-02 0. -1.
        2   -1    0    0  501    0  0.00000000000E+00  0.00000000000E+00 -0.24185005423E+04  0.24185005423E+04  0.25500000920E-02 0.  1.
    10030    2    1    2    0    0  0.00000000000E+00  0.00000000000E+00 -0.80186015726E+03  0.40351409273E+04  0.39546659267E+04 0.  0.
        5    1    3    3  502    0 -0.80763537840E+03  0.60653564747E+03 -0.21354229360E+04  0.23622475742E+04  0.46999998093E+01 0.  1.
       -5    1    3    3    0  502  0.80763537840E+03 -0.60653564747E+03  0.13335627787E+04  0.16728933531E+04  0.46999998093E+01 0. -1.
</event>
<event>
 5   0  0.2661693E-07  0.4198461E+04  0.7818609E-02  0.7965665E-01
       -2   -1    0    0    0  501  0.00000000000E+00  0.00000000000E+00  0.16624883464E+04  0.16624883464E+04  0.25500000920E-02 0. -1.
        2   -1    0    0  501    0  0.00000000000E+00  0.00000000000E+00 -0.26507061359E+04  0.26507061359E+04  0.25500000920E-02 0.  1.
    10030    2    1    2    0    0  0.00000000000E+00  0.00000000000E+00 -0.98821778949E+03  0.43131944823E+04  0.41984606992E+04 0.  0.
        1    1    3    3  502    0  0.38395383937E+03  0.75933242472E+03  0.14773864792E+04  0.17048979708E+04  0.50400001928E-02 0. -1.
       -1    1    3    3    0  502 -0.38395383937E+03 -0.75933242472E+03 -0.24656042687E+04  0.26082965115E+04  0.50400001928E-02 0.  1.
</event>
<event>
 5   0  0.8528625E-08  0.2957981E+04  0.7818609E-02  0.8255833E-01
        1   -1    0    0  501    0  0.00000000000E+00  0.00000000000E+00  0.16275716731E+04  0.16275716731E+04  0.50400001928E-02 0.  1.
       -1   -1    0    0    0  501  0.00000000000E+00  0.00000000000E+00 -0.13439730707E+04  0.13439730707E+04  0.50400001928E-02 0. -1.
    10030    2    1    2    0    0  0.00000000000E+00  0.00000000000E+00  0.28359860241E+03  0.29715447438E+04  0.29579807297E+04 0.  0.
        2    1    3    3  502    0  0.87334126736E+03  0.10055552830E+04 -0.50422506673E+03  0.14241170298E+04  0.25500000920E-02 0. -1.
       -2    1    3    3    0  502 -0.87334126736E+03 -0.10055552830E+04  0.78782366914E+03  0.15474277140E+04  0.25500000920E-02 0.  1.
</event>
<event>
 5   0  0.8528625E-08  0.4004956E+04  0.7818609E-02  0.8003548E-01
        1   -1    0    0  501    0  0.00000000000E+00  0.00000000000E+00  0.30616690975E+04  0.30616690975E+04  0.50400001928E-02 0. -1.
       -1   -1    0    0    0  501  0.00000000000E+00  0.00000000000E+00 -0.13097163613E+04  0.13097163613E+04  0.50400001928E-02 0.  1.
    10030    2    1    2    0    0  0.00000000000E+00  0.00000000000E+00  0.17519527363E+04  0.43713854588E+04  0.40049559847E+04 0.  0.
        5    1    3    3  502    0  0.10905246095E+04 -0.38079701611E+03  0.26613769035E+04  0.29012410110E+04  0.46999998093E+01 0. -1.
       -5    1    3    3    0  502 -0.10905246095E+04  0.38079701611E+03 -0.90942416722E+03  0.14701444478E+04  0.46999998093E+01 0.  1.
</event>
<event>
 5   0  0.2839279E-07  0.4048918E+04  0.7818609E-02  0.7994750E-01
        2   -1    0    0  501    0  0.00000000000E+00  0.00000000000E+00  0.24959816100E+04  0.24959816100E+04  0.25500000920E-02 0. -1.
       -2   -1    0    0    0  501  0.00000000000E+00  0.00000000000E+00 -0.16420129214E+04  0.16420129214E+04  0.25500000920E-02 0.  1.
    10030    2    1    2    0    0  0.00000000000E+00  0.00000000000E+00  0.85396868859E+03  0.41379945315E+04  0.40489179075E+04 0.  0.
        3    1    3    3  502    0  0.28801595454E+03 -0.13283153157E+04  0.19603453216E+04  0.23854409567E+04  0.10100000352E+00 0. -1.
       -3    1    3    3    0  502 -0.28801595454E+03  0.13283153157E+04 -0.11063766330E+04  0.17525535747E+04  0.10100000352E+00 0.  1.
</event>
<event>
 5   0  0.2661693E-07  0.3613423E+04  0.7818609E-02  0.8087424E-01
        2   -1    0    0  501    0  0.00000000000E+00  0.00000000000E+00  0.14598834465E+04  0.14598834465E+04  0.25500000920E-02 0.  1.
       -2   -1    0    0    0  501  0.00000000000E+00  0.00000000000E+00 -0.22359366520E+04  0.22359366520E+04  0.25500000920E-02 0. -1.
    10030    2    1    2    0    0  0.00000000000E+00  0.00000000000E+00 -0.77605320555E+03  0.36958200985E+04  0.36134232554E+04 0.  0.
        1    1    3    3  502    0  0.86836351443E+03 -0.15839864982E+04 -0.42253746458E+03  0.18551566858E+04  0.50400001928E-02 0.  1.
       -1    1    3    3    0  502 -0.86836351443E+03  0.15839864982E+04 -0.35351574098E+03  0.18406634127E+04  0.50400001928E-02 0. -1.
</event>
<event>
 5   0  0.8528625E-08  0.4047143E+04  0.7818609E-02  0.7995103E-01
        1   -1    0    0  501    0  0.00000000000E+00  0.00000000000E+00  0.18413118810E+04  0.18413118810E+04  0.50400001928E-02 0.  1.
       -1   -1    0    0    0  501  0.00000000000E+00  0.00000000000E+00 -0.22238719160E+04  0.22238719160E+04  0.50400001928E-02 0. -1.
    10030    2    1    2    0    0  0.00000000000E+00  0.00000000000E+00 -0.38256003498E+03  0.40651837970E+04  0.40471430816E+04 0.  0.
        2    1    3    3  502    0  0.12396950758E+04  0.10682890694E+04 -0.13868615920E+04  0.21451038418E+04  0.25500000920E-02 0. -1.
       -2    1    3    3    0  502 -0.12396950758E+04 -0.10682890694E+04  0.10043015570E+04  0.19200799552E+04  0.25500000920E-02 0.  1.
</event>
<event>
 5   0  0.8528625E-08  0.4098576E+04  0.7818609E-02  0.7984951E-01
        1   -1    0    0  501    0  0.00000000000E+00  0.00000000000E+00  0.13402942064E+04  0.13402942064E+04  0.50400001928E-02 0. -1.
       -1   -1    0    0    0  501  0.00000000000E+00  0.00000000000E+00 -0.31333276936E+04  0.31333276936E+04  0.50400001928E-02 0.  1.
    10030    2    1    2    0    0  0.00000000000E+00  0.00000000000E+00 -0.17930334872E+04  0.44736219000E+04  0.40985758280E+04 0.  0.
        5    1    3    3  502    0  0.93156922032E+03 -0.17510278034E+04 -0.33395207657E+03  0.20113342984E+04  0.46999998093E+01 0. -1.
       -5    1    3    3    0  502 -0.93156922032E+03  0.17510278034E+04 -0.14590814106E+04  0.24622876016E+04  0.46999998093E+01 0.  1.
</event>
<event>
 5   0  0.8528625E-08  0.3271548E+04  0.7818609E-02  0.8170173E-01
       -1   -1    0    0    0  501  0.00000000000E+00  0.00000000000E+00  0.11868688440E+04  0.11868688440E+04  0.50400001928E-02 0.  1.
        1   -1    0    0  501    0  0.00000000000E+00  0.00000000000E+00 -0.22544666412E+04  0.22544666412E+04  0.50400001928E-02 0. -1.
    10030    2    1    2    0    0  0.00000000000E+00  0.00000000000E+00 -0.10675977972E+04  0.34413354852E+04  0.32715477782E+04 0.  0.
        2    1    3    3  502    0  0.35042479099E+03 -0.57211269059E+03  0.10354858922E+04  0.12338320379E+04  0.25500000920E-02 0.  1.
       -2    1    3    3    0  502 -0.35042479099E+03  0.57211269059E+03 -0.21030836894E+04  0.22075034473E+04  0.25500000920E-02 0. -1.
</event>
<event>
 5   0  0.8528625E-08  0.3970568E+04  0.7818609E-02  0.8010510E-01
       -1   -1    0    0    0  501  0.00000000000E+00  0.00000000000E+00  0.22936356624E+04  0.22936356624E+04  0.50400001928E-02 0.  1.
        1   -1    0    0  501    0  0.00000000000E+00  0.00000000000E+00 -0.17183863516E+04  0.17183863516E+04  0.50400001928E-02 0. -1.
    10030    2    1    2    0    0  0.00000000000E+00  0.00000000000E+00  0.57524931086E+03  0.40120220140E+04  0.39705678273E+04 0.  0.
        5    1    3    3  502    0  0.14031269314E+04 -0.12819682783E+04  0.86730600357E+03  0.20891265270E+04  0.46999998093E+01 0.  1.
       -5    1    3    3    0  502 -0.14031269314E+04  0.12819682783E+04 -0.29205669271E+03  0.19228954870E+04  0.46999998093E+01 0. -1.
</event>
<event>
 5   0  0.8528625E-08  0.3964315E+04  0.7818609E-02  0.8011784E-01
        1   -1    0    0  501    0  0.00000000000E+00  0.00000000000E+00  0.22433919837E+04  0.22433919837E+04  0.50400001928E-02 0.  1.
       -1   -1    0    0    0  501  0.00000000000E+00  0.00000000000E+00 -0.17513425902E+04  0.17513425902E+04  0.50400001928E-02 0. -1.
    10030    2    1    2    0    0  0.00000000000E+00  0.00000000000E+00  0.49204939349E+03  0.39947345739E+04  0.39643147845E+04 0.  0.
        2    1    3    3  502    0  0.10681406785E+04 -0.21288647616E+02 -0.14363886451E+04  0.17901368818E+04  0.25500000920E-02 0. -1.
       -2    1    3    3    0  502 -0.10681406785E+04  0.21288647616E+02  0.19284380386E+04  0.22045976922E+04  0.25500000920E-02 0.  1.
</event>
<event>
 5   0  0.2839279E-07  0.4043117E+04  0.7818609E-02  0.7995905E-01
       -2   -1    0    0    0  501  0.00000000000E+00  0.00000000000E+00  0.19223627959E+04  0.19223627959E+04  0.25500000920E-02 0. -1.
        2   -1    0    0  501    0  0.00000000000E+00  0.00000000000E+00 -0.21258729664E+04  0.21258729664E+04  0.25500000920E-02 0.  1.
    10030    2    1    2    0    0  0.00000000000E+00  0.00000000000E+00 -0.20351017051E+03  0.40482357622E+04  0.40431171634E+04 0.  0.
        3    1    3    3  502    0  0.69780209033E+03  0.94855692299E+03  0.15434962232E+04  0.19414089200E+04  0.10100000352E+00 0. -1.
       -3    1    3    3    0  502 -0.69780209033E+03 -0.94855692299E+03 -0.17470063937E+04  0.21068268422E+04  0.10100000352E+00 0.  1.
</event>
<event>
 5   0  0.2730801E-07  0.3865575E+04  0.7818609E-02  0.8032227E-01
        2   -1    0    0  501    0  0.00000000000E+00  0.00000000000E+00  0.19309486072E+04  0.19309486072E+04  0.25500000920E-02 0.  1.
       -2   -1    0    0    0  501  0.00000000000E+00  0.00000000000E+00 -0.19346284944E+04  0.19346284944E+04  0.25500000920E-02 0. -1.
    10030    2    1    2    0    0  0.00000000000E+00  0.00000000000E+00 -0.36798871972E+01  0.38655771016E+04  0.38655753500E+04 0.  0.
        2    1    3    3  502    0 -0.18343467521E+04  0.34867781649E+03  0.49742370993E+03  0.19323132702E+04  0.25500000920E-02 0.  1.
       -2    1    3    3    0  502  0.18343467521E+04 -0.34867781649E+03 -0.50110359713E+03  0.19332638314E+04  0.25500000920E-02 0. -1.
</event>
<event>
 5   0  0.2661693E-07  0.3999337E+04  0.7818609E-02  0.8004680E-01
        2   -1    0    0  501    0  0.00000000000E+00  0.00000000000E+00  0.20377151815E+04  0.20377151815E+04  0.25500000920E-02 0. -1.
       -2   -1    0    0    0  501  0.00000000000E+00  0.00000000000E+00 -0.19623318678E+04  0.19623318678E+04  0.25500000920E-02 0.  1.
    10030    2    1    2    0    0  0.00000000000E+00  0.00000000000E+00  0.75383313678E+02  0.40000470493E+04  0.39993366641E+04 0.  0.
        1    1    3    3  502    0  0.50162870907E+03  0.18122354883E+04  0.71813934205E+03  0.20128469741E+04  0.50400001928E-02 0. -1.
       -1    1    3    3    0  502 -0.50162870907E+03 -0.18122354883E+04 -0.64275602837E+03  0.19872000752E+04  0.50400001928E-02 0.  1.
</event>
<event>
 5   0  0.8528625E-08  0.4041067E+04  0.7818609E-02  0.7996313E-01
        1   -1    0    0  501    0  0.00000000000E+00  0.00000000000E+00  0.32129725955E+04  0.32129725955E+04  0.50400001928E-02 0.  1.
       -1   -1    0    0    0  501  0.00000000000E+00  0.00000000000E+00 -0.12706474637E+04  0.12706474637E+04  0.50400001928E-02 0. -1.
    10030    2    1    2    0    0  0.00000000000E+00  0.00000000000E+00  0.19423251318E+04  0.44836200592E+04  0.40410669281E+04 0.  0.
        2    1    3    3  502    0 -0.69541257027E+03  0.15467152221E+03  0.30690047857E+04  0.31506050685E+04  0.25500000920E-02 0.  1.
       -2    1    3    3    0  502  0.69541257027E+03 -0.15467152221E+03 -0.11266796540E+04  0.13330149907E+04  0.25500000920E-02 0. -1.
</event>
<event>
 5   0  0.2666978E-07  0.3007914E+04  0.7818609E-02  0.8241475E-01
        2   -1    0    0  501    0  0.00000000000E+00  0.00000000000E+00  0.23887369312E+04  0.23887369312E+04  0.25500000920E-02 0. -1.
       -2   -1    0    0    0  501  0.00000000000E+00  0.00000000000E+00 -0.94689626380E+03  0.94689626381E+03  0.25500000920E-02 0.  1.
    10030    2    1    2    0    0  0.00000000000E+00  0.00000000000E+00  0.14418406674E+04  0.33356331950E+04  0.30079136127E+04 0.  0.
        4    1    3    3  502    0 -0.67645167893E+03 -0.92616317416E+03 -0.35797093750E+03  0.12014615700E+04  0.12699999809E+01 0.  1.
       -4    1    3    3    0  502  0.67645167893E+03  0.92616317416E+03  0.17998116049E+04  0.21341716250E+04  0.12699999809E+01 0. -1.
</event>
<event>
 5   0  0.8583262E-08  0.3978390E+04  0.7818609E-02  0.8008920E-01
       -1   -1    0    0    0  501  0.00000000000E+00  0.00000000000E+00  0.23241021027E+04  0.23241021027E+04  0.50400001928E-02 0. -1.
        1   -1    0    0  501    0  0.00000000000E+00  0.00000000000E+00 -0.17025486486E+04  0.17025486486E+04  0.50400001928E-02 0.  1.
    10030    2    1    2    0    0  0.00000000000E+00  0.00000000000E+00  0.62155345408E+03  0.40266507513E+04  0.39783900734E+04 0.  0.
        1    1    3    3  502    0 -0.18471307750E+04  0.73803251945E+03  0.29287619462E+03  0.20105622510E+04  0.50400001928E-02 0.  1.
       -1    1    3    3    0  502  0.18471307750E+04 -0.73803251945E+03  0.32867725946E+03  0.20160885002E+04  0.50400001928E-02 0. -1.
</event>
<event>
 5   0  0.8528625E-08  0.3982881E+04  0.7818609E-02  0.8008009E-01
       -1   -1    0    0    0  501  0.00000000000E+00  0.00000000000E+00  0.22556439419E+04  0.22556439419E+04  0.50400001928E-02 0.  1.
        1   -1    0    0  501    0  0.00000000000E+00  0.00000000000E+00 -0.17581834042E+04  0.17581834042E+04  0.50400001928E-02 0. -1.
    10030    2    1    2    0    0  0.00000000000E+00  0.00000000000E+00  0.49746053778E+03  0.40138273461E+04  0.39828812407E+04 0.  0.
        4    1    3    3  502    0 -0.99325210387E+03 -0.64702662382E+03  0.18613637513E+04  0.22067781541E+04  0.12699999809E+01 0.  1.
       -4    1    3    3    0  502  0.99325210387E+03  0.64702662382E+03 -0.13639032135E+04  0.18070491921E+04  0.12699999809E+01 0. -1.
</event>
<event>
 5   0  0.2839279E-07  0.4026204E+04  0.7818609E-02  0.7999281E-01
        2   -1    0    0  501    0  0.00000000000E+00  0.00000000000E+00  0.11312612940E+04  0.11312612940E+04  0.25500000920E-02 0. -1.
       -2   -1    0    0    0  501  0.00000000000E+00  0.00000000000E+00 -0.35823558047E+04  0.35823558047E+04  0.25500000920E-02 0.  1.
    10030    2    1    2    0    0  0.00000000000E+00  0.00000000000E+00 -0.24510945107E+04  0.47136170986E+04  0.40262043977E+04 0.  0.
        3    1    3    3  502    0 -0.10318675199E+04 -0.61312382094E+02  0.79683400983E+03  0.13051644480E+04  0.10100000352E+00 0. -1.
       -3    1    3    3    0  502  0.10318675199E+04  0.61312382094E+02 -0.32479285205E+04  0.34084526506E+04  0.10100000352E+00 0.  1.
</event>
<event>
 5   0  0.8528625E-08  0.3999955E+04  0.7818609E-02  0.8004556E-01
       -1   -1    0    0    0  501  0.00000000000E+00  0.00000000000E+00  0.19861485234E+04  0.19861485234E+04  0.50400001928E-02 0.  1.
        1   -1    0    0  501    0  0.00000000000E+00  0.00000000000E+00 -0.20139032667E+04  0.20139032667E+04  0.50400001928E-02 0. -1.
    10030    2    1    2    0    0  0.00000000000E+00  0.00000000000E+00 -0.27754743336E+02  0.40000517901E+04  0.39999554995E+04 0.  0.
        5    1    3    3  502    0 -0.11265223360E+04  0.14795311747E+04  0.72222719006E+03  0.19949183629E+04  0.46999998093E+01 0. -1.
       -5    1    3    3    0  502  0.11265223360E+04 -0.14795311747E+04 -0.74998193340E+03  0.20051334272E+04  0.46999998093E+01 0.  1.
</event>
<event>
 5   0  0.2839279E-07  0.3927762E+04  0.7818609E-02  0.8019280E-01
       -2   -1    0    0    0  501  0.00000000000E+00  0.00000000000E+00  0.18791857650E+04  0.18791857650E+04  0.25500000920E-02 0. -1.
        2   -1    0    0  501    0  0.00000000000E+00  0.00000000000E+00 -0.20523935096E+04  0.20523935096E+04  0.25500000920E-02 0.  1.
    10030    2    1    2    0    0  0.00000000000E+00  0.00000000000E+00 -0.17320774454E+03  0.39315792746E+04  0.39277620434E+04 0.  0.
        3    1    3    3  502    0  0.19537650501E+04 -0.60649888011E+02  0.10319152424E+03  0.19574281036E+04  0.10100000352E+00 0. -1.
       -3    1    3    3    0  502 -0.19537650501E+04  0.60649888011E+02 -0.27639926878E+03  0.19741511710E+04  0.10100000352E+00 0.  1.
</event>
<event>
 5   0  0.8528625E-08  0.3809257E+04  0.7818609E-02  0.8044171E-01
        1   -1    0    0  501    0  0.00000000000E+00  0.00000000000E+00  0.19589648121E+04  0.19589648121E+04  0.50400001928E-02 0.  1.
       -1   -1    0    0    0  501  0.00000000000E+00  0.00000000000E+00 -0.18517995917E+04  0.18517995917E+04  0.50400001928E-02 0. -1.
    10030    2    1    2    0    0  0.00000000000E+00  0.00000000000E+00  0.10716522043E+03  0.38107644038E+04  0.38092572710E+04 0.  0.
        4    1    3    3  502    0 -0.84222777094E+02 -0.18589763933E+04  0.45960267064E+03  0.19168001813E+04  0.12699999809E+01 0.  1.
       -4    1    3    3    0  502  0.84222777094E+02  0.18589763933E+04 -0.35243745021E+03  0.18939642226E+04  0.12699999809E+01 0. -1.
</event>
<event>
 5   0  0.8528625E-08  0.4024186E+04  0.7818609E-02  0.7999685E-01
       -3   -1    0    0    0  501  0.00000000000E+00  0.00000000000E+00  0.30013748176E+04  0.30013748193E+04  0.10100000352E+00 0.  1.
        3   -1    0    0  501    0  0.00000000000E+00  0.00000000000E+00 -0.13488881735E+04  0.13488881772E+04  0.10100000352E+00 0. -1.
    10030    2    1    2    0    0  0.00000000000E+00  0.00000000000E+00  0.16524866442E+04  0.43502629966E+04  0.40241863811E+04 0.  0.
        2    1    3    3  502    0 -0.10482638079E+04  0.16509998053E+03 -0.10217804458E+04  0.14731429985E+04  0.25500000920E-02 0. -1.
       -2    1    3    3    0  502  0.10482638079E+04 -0.16509998053E+03  0.26742670900E+04  0.28771199981E+04  0.25500000920E-02 0.  1.
</event>
<event>
 5   0  0.2704088E-07  0.4024770E+04  0.7818609E-02  0.7999568E-01
        2   -1    0    0  501    0  0.00000000000E+00  0.00000000000E+00  0.22080636775E+04  0.22080636775E+04  0.25500000920E-02 0. -1.
       -2   -1    0    0    0  501  0.00000000000E+00  0.00000000000E+00 -0.18340470198E+04  0.18340470198E+04  0.25500000920E-02 0.  1.
    10030    2    1    2    0    0  0.00000000000E+00  0.00000000000E+00  0.37401665772E+03  0.40421106973E+04  0.40247696120E+04 0.  0.
        5    1    3    3  502    0 -0.39898874028E+03  0.18448041721E+04 -0.51397897323E+03  0.19561929668E+04  0.46999998093E+01 0.  1.
       -5    1    3    3    0  502  0.39898874028E+03 -0.18448041721E+04  0.88799563095E+03  0.20859177306E+04  0.46999998093E+01 0. -1.
</event>
<event>
 5   0  0.8583262E-08  0.3982858E+04  0.7818609E-02  0.8008014E-01
       -1   -1    0    0    0  501  0.00000000000E+00  0.00000000000E+00  0.29025797933E+04  0.29025797933E+04  0.50400001928E-02 0.  1.
        1   -1    0    0  501    0  0.00000000000E+00  0.00000000000E+00 -0.13662983256E+04  0.13662983256E+04  0.50400001928E-02 0. -1.
    10030    2    1    2    0    0  0.00000000000E+00  0.00000000000E+00  0.15362814676E+04  0.42688781189E+04  0.39828582257E+04 0.  0.
        1    1    3    3  502    0 -0.17269417917E+04 -0.31509533708E+03  0.17759735310E+04  0.24971373623E+04  0.50400001928E-02 0.  1.
       -1    1    3    3    0  502  0.17269417917E+04  0.31509533708E+03 -0.23969206334E+03  0.17717407566E+04  0.50400001928E-02 0. -1.
</event>
<event>
 5   0  0.2704088E-07  0.3189997E+04  0.7818609E-02  0.8191464E-01
        2   -1    0    0  501    0  0.00000000000E+00  0.00000000000E+00  0.14733839234E+04  0.14733839234E+04  0.25500000920E-02 0. -1.
       -2   -1    0    0    0  501  0.00000000000E+00  0.00000000000E+00 -0.17266517095E+04  0.17266517095E+04  0.25500000920E-02 0.  1.
    10030    2    1    2    0    0  0.00000000000E+00  0.00000000000E+00 -0.25326778611E+03  0.32000356328E+04  0.31899974107E+04 0.  0.
        5    1    3    3  502    0 -0.50063477904E+03  0.83405550137E+03  0.11413511846E+04  0.14996627547E+04  0.46999998093E+01 0. -1.
       -5    1    3    3    0  502  0.50063477904E+03 -0.83405550137E+03 -0.13946189707E+04  0.17003728781E+04  0.46999998093E+01 0.  1.
</event>
<event>
 5   0  0.8528625E-08  0.4014811E+04  0.7818609E-02  0.8001565E-01
        1   -1    0    0  501    0  0.00000000000E+00  0.00000000000E+00  0.17890587591E+04  0.17890587591E+04  0.50400001928E-02 0. -1.
       -1   -1    0    0    0  501  0.00000000000E+00  0.00000000000E+00 -0.22523999515E+04  0.22523999515E+04  0.50400001928E-02 0.  1.
    10030    2    1    2    0    0  0.00000000000E+00  0.00000000000E+00 -0.46334119239E+03  0.40414587105E+04  0.40148105121E+04 0.  0.
        2    1    3    3  502    0  0.16721244902E+04 -0.67211041880E+03 -0.11218154380E+04  0.21227818076E+04  0.25500000920E-02 0.  1.
       -2    1    3    3    0  502 -0.16721244902E+04  0.67211041880E+03  0.65847424560E+03  0.19186769029E+04  0.25500000920E-02 0. -1.
</event>
<event>
 5   0  0.8528625E-08  0.3740220E+04  0.7818609E-02  0.8059107E-01
       -1   -1    0    0    0  501  0.00000000000E+00  0.00000000000E+00  0.22405189808E+04  0.22405189808E+04  0.50400001928E-02 0. -1.
        1   -1    0    0  501    0  0.00000000000E+00  0.00000000000E+00 -0.15609381608E+04  0.15609381608E+04  0.50400001928E-02 0.  1.
    10030    2    1    2    0    0  0.00000000000E+00  0.00000000000E+00  0.67958081996E+03  0.38014571416E+04  0.37402200883E+04 0.  0.
        3    1    3    3  502    0  0.18482644098E+04 -0.18179715619E+03  0.11669713220E+03  0.18608465185E+04  0.10100000352E+00 0.  1.
       -3    1    3    3    0  502 -0.18482644098E+04  0.18179715619E+03  0.56288368776E+03  0.19406106231E+04  0.10100000352E+00 0. -1.
</event>
<event>
 5   0  0.8528625E-08  0.3997895E+04  0.7818609E-02  0.8004971E-01
       -1   -1    0    0    0  501  0.00000000000E+00  0.00000000000E+00  0.19887740823E+04  0.19887740823E+04  0.50400001928E-02 0. -1.
        1   -1    0    0  501    0  0.00000000000E+00  0.00000000000E+00 -0.20091726325E+04  0.20091726325E+04  0.50400001928E-02 0.  1.
    10030    2    1    2    0    0  0.00000000000E+00  0.00000000000E+00 -0.20398550227E+02  0.39979467148E+04  0.39978946751E+04 0.  0.
        5    1    3    3  502    0  0.30234087906E+02  0.72677113165E+03 -0.18721198535E+04  0.20084733540E+04  0.46999998093E+01 0.  1.
       -5    1    3    3    0  502 -0.30234087906E+02 -0.72677113165E+03  0.18517213033E+04  0.19894733607E+04  0.46999998093E+01 0. -1.
</event>
<event>
 5   0  0.2730801E-07  0.3077975E+04  0.7818609E-02  0.8221808E-01
       -2   -1    0    0    0  501  0.00000000000E+00  0.00000000000E+00  0.13155912508E+04  0.13155912508E+04  0.25500000920E-02 0. -1.
        2   -1    0    0  501    0  0.00000000000E+00  0.00000000000E+00 -0.18003184905E+04  0.18003184905E+04  0.25500000920E-02 0.  1.
    10030    2    1    2    0    0  0.00000000000E+00  0.00000000000E+00 -0.48472723972E+03  0.31159097414E+04  0.30779754742E+04 0.  0.
        2    1    3    3  502    0  0.10084854624E+04  0.11027355363E+04  0.13015892600E+03  0.15000033123E+04  0.25500000920E-02 0. -1.
       -2    1    3    3    0  502 -0.10084854624E+04 -0.11027355363E+04 -0.61488616571E+03  0.16159064291E+04  0.25500000920E-02 0.  1.
</event>
<event>
 5   0  0.2661693E-07  0.4038218E+04  0.7818609E-02  0.7996881E-01
       -2   -1    0    0    0  501  0.00000000000E+00  0.00000000000E+00  0.19221740410E+04  0.19221740410E+04  0.25500000920E-02 0. -1.
        2   -1    0    0  501    0  0.00000000000E+00  0.00000000000E+00 -0.21209323148E+04  0.21209323148E+04  0.25500000920E-02 0.  1.
    10030    2    1    2    0    0  0.00000000000E+00  0.00000000000E+00 -0.19875827375E+03  0.40431063558E+04  0.40382179428E+04 0.  0.
        1    1    3    3  502    0  0.16051628317E+04 -0.38812023060E+03 -0.12625152025E+04  0.20787327068E+04  0.50400001928E-02 0.  1.
       -1    1    3    3    0  502 -0.16051628317E+04  0.38812023060E+03  0.10637569287E+04  0.19643736491E+04  0.50400001928E-02 0. -1.
</event>
<event>
 5   0  0.8583262E-08  0.3841511E+04  0.7818609E-02  0.8037305E-01
       -1   -1    0    0    0  501  0.00000000000E+00  0.00000000000E+00  0.23999767113E+04  0.23999767113E+04  0.50400001928E-02 0.  1.
        1   -1    0    0  501    0  0.00000000000E+00  0.00000000000E+00 -0.15372236531E+04  0.15372236531E+04  0.50400001928E-02 0. -1.
    10030    2    1    2    0    0  0.00000000000E+00  0.00000000000E+00  0.86275305821E+03  0.39372003643E+04  0.38415106234E+04 0.  0.
        1    1    3    3  502    0  0.84324058552E+02 -0.11074648169E+04 -0.11747294658E+04  0.16166564834E+04  0.50400001928E-02 0. -1.
       -1    1    3    3    0  502 -0.84324058552E+02  0.11074648169E+04  0.20374825240E+04  0.23205438809E+04  0.50400001928E-02 0.  1.
</event>
<event>
 5   0  0.8528625E-08  0.3032995E+04  0.7818609E-02  0.8234371E-01
       -1   -1    0    0    0  501  0.00000000000E+00  0.00000000000E+00  0.70495278975E+03  0.70495278977E+03  0.50400001928E-02 0. -1.
        1   -1    0    0  501    0  0.00000000000E+00  0.00000000000E+00 -0.32622958372E+04  0.32622958372E+04  0.50400001928E-02 0.  1.
    10030    2    1    2    0    0  0.00000000000E+00  0.00000000000E+00 -0.25573430474E+04  0.39672486270E+04  0.30329949235E+04 0.  0.
        3    1    3    3  502    0  0.14943087444E+04  0.14181027913E+03 -0.15613263924E+04  0.21658275307E+04  0.10100000352E+00 0.  1.
       -3    1    3    3    0  502 -0.14943087444E+04 -0.14181027913E+03 -0.99601665499E+03  0.18014210963E+04  0.10100000352E+00 0. -1.
</event>
<event>
 5   0  0.8528625E-08  0.3972682E+04  0.7818609E-02  0.8010080E-01
       -1   -1    0    0    0  501  0.00000000000E+00  0.00000000000E+00  0.12546801998E+04  0.12546801998E+04  0.50400001928E-02 0.  1.
        1   -1    0    0  501    0  0.00000000000E+00  0.00000000000E+00 -0.31446662928E+04  0.31446662928E+04  0.50400001928E-02 0. -1.
    10030    2    1    2    0    0  0.00000000000E+00  0.00000000000E+00 -0.18899860929E+04  0.43993464926E+04  0.39726819821E+04 0.  0.
        3    1    3    3  502    0  0.81222151308E+03  0.70974314553E+03  0.90211213205E+03  0.14061455927E+04  0.10100000352E+00 0.  1.
       -3    1    3    3    0  502 -0.81222151308E+03 -0.70974314553E+03 -0.27920982250E+04  0.29932008999E+04  0.10100000352E+00 0. -1.
</event>
<event>
 5   0  0.8528625E-08  0.4020634E+04  0.7818609E-02  0.8000397E-01
       -1   -1    0    0    0  501  0.00000000000E+00  0.00000000000E+00  0.16013316124E+04  0.16013316124E+04  0.50400001928E-02 0. -1.
        1   -1    0    0  501    0  0.00000000000E+00  0.00000000000E+00 -0.25237590709E+04  0.25237590709E+04  0.50400001928E-02 0.  1.
    10030    2    1    2    0    0  0.00000000000E+00  0.00000000000E+00 -0.92242745853E+03  0.41250906833E+04  0.40206343690E+04 0.  0.
        4    1    3    3  502    0 -0.11116933663E+04 -0.13088335634E+04  0.61115196108E+03  0.18227495082E+04  0.12699999809E+01 0. -1.
       -4    1    3    3    0  502  0.11116933663E+04  0.13088335634E+04 -0.15335794196E+04  0.23023411751E+04  0.12699999809E+01 0.  1.
</event>
<event>
 5   0  0.2661693E-07  0.3874333E+04  0.7818609E-02  0.8030389E-01
       -2   -1    0    0    0  501  0.00000000000E+00  0.00000000000E+00  0.15440187479E+04  0.15440187479E+04  0.25500000920E-02 0. -1.
        2   -1    0    0  501    0  0.00000000000E+00  0.00000000000E+00 -0.24304195372E+04  0.24304195372E+04  0.25500000920E-02 0.  1.
    10030    2    1    2    0    0  0.00000000000E+00  0.00000000000E+00 -0.88640078927E+03  0.39744382851E+04  0.38743326293E+04 0.  0.
        1    1    3    3  502    0  0.16264645163E+04 -0.62889420184E+03 -0.13086325123E+04  0.21802325087E+04  0.50400001928E-02 0. -1.
       -1    1    3    3    0  502 -0.16264645163E+04  0.62889420184E+03  0.42223172302E+03  0.17942057763E+04  0.50400001928E-02 0.  1.
</event>
<event>
 5   0  0.2839279E-07  0.3796601E+04  0.7818609E-02  0.8046885E-01
       -2   -1    0    0    0  501  0.00000000000E+00  0.00000000000E+00  0.16060236683E+04  0.16060236683E+04  0.25500000920E-02 0.  1.
        2   -1    0    0  501    0  0.00000000000E+00  0.00000000000E+00 -0.22437680534E+04  0.22437680534E+04  0.25500000920E-02 0. -1.
    10030    2    1    2    0    0  0.00000000000E+00  0.00000000000E+00 -0.63774438513E+03  0.38497917217E+04  0.37966009007E+04 0.  0.
        3    1    3    3  502    0 -0.18011718655E+04 -0.34816055807E+03  0.17592809542E+03  0.18429288018E+04  0.10100000352E+00 0. -1.
       -3    1    3    3    0  502  0.18011718655E+04  0.34816055807E+03 -0.81367248055E+03  0.20068629199E+04  0.10100000352E+00 0.  1.
</event>
<event>
 5   0  0.8528625E-08  0.3433298E+04  0.7818609E-02  0.8129782E-01
        1   -1    0    0  501    0  0.00000000000E+00  0.00000000000E+00  0.14221548451E+04  0.14221548452E+04  0.50400001928E-02 0. -1.
       -1   -1    0    0    0  501  0.00000000000E+00  0.00000000000E+00 -0.20721257077E+04  0.20721257077E+04  0.50400001928E-02 0.  1.
    10030    2    1    2    0    0  0.00000000000E+00  0.00000000000E+00 -0.64997086257E+03  0.34942805529E+04  0.34332978985E+04 0.  0.
        3    1    3    3  502    0 -0.10731879766E+04 -0.67830149308E+03  0.85098497294E+03  0.15283981101E+04  0.10100000352E+00 0. -1.
       -3    1    3    3    0  502  0.10731879766E+04  0.67830149308E+03 -0.15009558355E+04  0.19658824428E+04  0.10100000352E+00 0.  1.
</event>
<event>
 5   0  0.2666978E-07  0.3867269E+04  0.7818609E-02  0.8031871E-01
        2   -1    0    0  501    0  0.00000000000E+00  0.00000000000E+00  0.22063261922E+04  0.22063261922E+04  0.25500000920E-02 0.  1.
       -2   -1    0    0    0  501  0.00000000000E+00  0.00000000000E+00 -0.16946459832E+04  0.16946459832E+04  0.25500000920E-02 0. -1.
    10030    2    1    2    0    0  0.00000000000E+00  0.00000000000E+00  0.51168020902E+03  0.39009721754E+04  0.38672687102E+04 0.  0.
        4    1    3    3  502    0 -0.18560548971E+04  0.10521322055E+03  0.79238796351E+03  0.20208636521E+04  0.12699999809E+01 0.  1.
       -4    1    3    3    0  502  0.18560548971E+04 -0.10521322055E+03 -0.28070775449E+03  0.18801085233E+04  0.12699999809E+01 0. -1.
</event>
<event>
 5   0  0.8528625E-08  0.4054130E+04  0.7818609E-02  0.7993715E-01
       -1   -1    0    0    0  501  0.00000000000E+00  0.00000000000E+00  0.17305179315E+04  0.17305179315E+04  0.50400001928E-02 0. -1.
        1   -1    0    0  501    0  0.00000000000E+00  0.00000000000E+00 -0.23744290723E+04  0.23744290723E+04  0.50400001928E-02 0.  1.
    10030    2    1    2    0    0  0.00000000000E+00  0.00000000000E+00 -0.64391114078E+03  0.41049470037E+04  0.40541297890E+04 0.  0.
        3    1    3    3  502    0  0.11366669900E+04 -0.83404134435E+03  0.11527883339E+04  0.18211418845E+04  0.10100000352E+00 0. -1.
       -3    1    3    3    0  502 -0.11366669900E+04  0.83404134435E+03 -0.17966994747E+04  0.22838051193E+04  0.10100000352E+00 0.  1.
</event>
<event>
 5   0  0.8528625E-08  0.3406765E+04  0.7818609E-02  0.8136248E-01
       -1   -1    0    0    0  501  0.00000000000E+00  0.00000000000E+00  0.17528872311E+04  0.17528872311E+04  0.50400001928E-02 0. -1.
        1   -1    0    0  501    0  0.00000000000E+00  0.00000000000E+00 -0.16552759880E+04  0.16552759880E+04  0.50400001928E-02 0.  1.
    10030    2    1    2    0    0  0.00000000000E+00  0.00000000000E+00  0.97611243079E+02  0.34081632191E+04  0.34067651186E+04 0.  0.
        3    1    3    3  502    0  0.22983995474E+02  0.17010919915E+04  0.13410435389E+03  0.17065246015E+04  0.10100000352E+00 0.  1.
       -3    1    3    3    0  502 -0.22983995474E+02 -0.17010919915E+04 -0.36493110815E+02  0.17016386176E+04  0.10100000352E+00 0. -1.
</event>
<event>
 5   0  0.2839279E-07  0.3994179E+04  0.7818609E-02  0.8005722E-01
        2   -1    0    0  501    0  0.00000000000E+00  0.00000000000E+00  0.22746226259E+04  0.22746226259E+04  0.25500000920E-02 0. -1.
       -2   -1    0    0    0  501  0.00000000000E+00  0.00000000000E+00 -0.17534189479E+04  0.17534189479E+04  0.25500000920E-02 0.  1.
    10030    2    1    2    0    0  0.00000000000E+00  0.00000000000E+00  0.52120367808E+03  0.40280415738E+04  0.39941789702E+04 0.  0.
        3    1    3    3  502    0 -0.68673523217E+03  0.10052728661E+04  0.18571176021E+04  0.22206000569E+04  0.10100000352E+00 0. -1.
       -3    1    3    3    0  502  0.68673523217E+03 -0.10052728661E+04 -0.13359139240E+04  0.18074415169E+04  0.10100000352E+00 0.  1.
</event>
<event>
 5   0  0.8528625E-08  0.3900140E+04  0.7818609E-02  0.8025000E-01
        1   -1    0    0  501    0  0.00000000000E+00  0.00000000000E+00  0.17648071780E+04  0.17648071780E+04  0.50400001928E-02 0.  1.
       -1   -1    0    0    0  501  0.00000000000E+00  0.00000000000E+00 -0.21547804756E+04  0.21547804756E+04  0.50400001928E-02 0. -1.
    10030    2    1    2    0    0  0.00000000000E+00  0.00000000000E+00 -0.38997329760E+03  0.39195876537E+04  0.39001395106E+04 0.  0.
        4    1    3    3  502    0 -0.17623221233E+04 -0.26740643597E+03  0.59983315171E+03  0.18807144629E+04  0.12699999809E+01 0.  1.
       -4    1    3    3    0  502  0.17623221233E+04  0.26740643597E+03 -0.98980644931E+03  0.20388731908E+04  0.12699999809E+01 0. -1.
</event>
<event>
 5   0  0.8528625E-08  0.3974199E+04  0.7818609E-02  0.8009772E-01
        1   -1    0    0  501    0  0.00000000000E+00  0.00000000000E+00  0.13378469046E+04  0.13378469047E+04  0.50400001928E-02 0.  1.
       -1   -1    0    0    0  501  0.00000000000E+00  0.00000000000E+00 -0.29514322185E+04  0.29514322185E+04  0.50400001928E-02 0. -1.
    10030    2    1    2    0    0  0.00000000000E+00  0.00000000000E+00 -0.16135853139E+04  0.42892791232E+04  0.39741990176E+04 0.  0.
        3    1    3    3  502    0  0.62829611734E+03 -0.18633025685E+04 -0.11156858908E+04  0.22608422081E+04  0.10100000352E+00 0.  1.
       -3    1    3    3    0  502 -0.62829611734E+03  0.18633025685E+04 -0.49789942303E+03  0.20284369151E+04  0.10100000352E+00 0. -1.
</event>
<event>
 5   0  0.2730801E-07  0.3122074E+04  0.7818609E-02  0.8209706E-01
       -2   -1    0    0    0  501  0.00000000000E+00  0.00000000000E+00  0.16715235790E+04  0.16715235790E+04  0.25500000920E-02 0. -1.
        2   -1    0    0  501    0  0.00000000000E+00  0.00000000000E+00 -0.14578539605E+04  0.14578539605E+04  0.25500000920E-02 0.  1.
    10030    2    1    2    0    0  0.00000000000E+00  0.00000000000E+00  0.21366961846E+03  0.31293775394E+04  0.31220744832E+04 0.  0.
        2    1    3    3  502    0  0.53546583186E+03 -0.65672900449E+03  0.14209395433E+04  0.16544140437E+04  0.25500000920E-02 0. -1.
       -2    1    3    3    0  502 -0.53546583186E+03  0.65672900449E+03 -0.12072699248E+04  0.14749634957E+04  0.25500000920E-02 0.  1.
</event>
<event>
 5   0  0.8583262E-08  0.4006749E+04  0.7818609E-02  0.8003186E-01
       -1   -1    0    0    0  501  0.00000000000E+00  0.00000000000E+00  0.25825461893E+04  0.25825461893E+04  0.50400001928E-02 0. -1.
        1   -1    0    0  501    0  0.00000000000E+00  0.00000000000E+00 -0.15540900839E+04  0.15540900839E+04  0.50400001928E-02 0.  1.
    10030    2    1    2    0    0  0.00000000000E+00  0.00000000000E+00  0.10284561054E+04  0.41366362732E+04  0.40067490184E+04 0.  0.
        1    1    3    3  502    0 -0.93782181040E+03 -0.94634011447E+03 -0.10304142757E+04  0.16842870717E+04  0.50400001928E-02 0.  1.
       -1    1    3    3    0  502  0.93782181040E+03  0.94634011447E+03  0.20588703810E+04  0.24523492015E+04  0.50400001928E-02 0. -1.
</event>
<event>
 5   0  0.2661693E-07  0.3967203E+04  0.7818609E-02  0.8011196E-01
       -2   -1    0    0    0  501  0.00000000000E+00  0.00000000000E+00  0.38327306065E+04  0.38327306065E+04  0.25500000920E-02 0. -1.
        2   -1    0    0  501    0  0.00000000000E+00  0.00000000000E+00 -0.10265984108E+04  0.10265984108E+04  0.25500000920E-02 0.  1.
    10030    2    1    2    0    0  0.00000000000E+00  0.00000000000E+00  0.28061321957E+04  0.48593290173E+04  0.39672031204E+04 0.  0.
        1    1    3    3  502    0 -0.22176067055E+03 -0.18602951048E+04  0.22013986822E+04  0.28906801674E+04  0.50400001928E-02 0. -1.
       -1    1    3    3    0  502  0.22176067055E+03  0.18602951048E+04  0.60473351344E+03  0.19686488499E+04  0.50400001928E-02 0.  1.
</event>
<event>
 5   0  0.8528625E-08  0.3990870E+04  0.7818609E-02  0.8006391E-01
       -1   -1    0    0    0  501  0.00000000000E+00  0.00000000000E+00  0.22642776929E+04  0.22642776929E+04  0.50400001928E-02 0. -1.
        1   -1    0    0  501    0  0.00000000000E+00  0.00000000000E+00 -0.17585129122E+04  0.17585129122E+04  0.50400001928E-02 0.  1.
    10030    2    1    2    0    0  0.00000000000E+00  0.00000000000E+00  0.50576478068E+03  0.40227906052E+04  0.39908703612E+04 0.  0.
        2    1    3    3  502    0 -0.71524917944E+03  0.77884723233E+03  0.19586279588E+04  0.22258499233E+04  0.25500000920E-02 0. -1.
       -2    1    3    3    0  502  0.71524917944E+03 -0.77884723233E+03 -0.14528631781E+04  0.17969406819E+04  0.25500000920E-02 0.  1.
</event>
<event>
 5   0  0.8528625E-08  0.4006804E+04  0.7818609E-02  0.8003175E-01
        1   -1    0    0  501    0  0.00000000000E+00  0.00000000000E+00  0.20169706917E+04  0.20169706917E+04  0.50400001928E-02 0. -1.
       -1   -1    0    0    0  501  0.00000000000E+00  0.00000000000E+00 -0.19899246550E+04  0.19899246550E+04  0.50400001928E-02 0.  1.
    10030    2    1    2    0    0  0.00000000000E+00  0.00000000000E+00  0.27046036706E+02  0.40068953468E+04  0.40068040671E+04 0.  0.
        4    1    3    3  502    0  0.10939979020E+04 -0.82628471197E+03  0.14743917644E+04  0.20133083526E+04  0.12699999809E+01 0. -1.
       -4    1    3    3    0  502 -0.10939979020E+04  0.82628471197E+03 -0.14473457277E+04  0.19935869941E+04  0.12699999809E+01 0.  1.
</event>
<event>
 5   0  0.2839279E-07  0.3998337E+04  0.7818609E-02  0.8004882E-01
       -2   -1    0    0    0  501  0.00000000000E+00  0.00000000000E+00  0.15071018932E+04  0.15071018932E+04  0.25500000920E-02 0. -1.
        2   -1    0    0  501    0  0.00000000000E+00  0.00000000000E+00 -0.26518940882E+04  0.26518940882E+04  0.25500000920E-02 0.  1.
    10030    2    1    2    0    0  0.00000000000E+00  0.00000000000E+00 -0.11447921950E+04  0.41589959814E+04  0.39983369547E+04 0.  0.
        3    1    3    3  502    0 -0.73755798174E+03 -0.14167285221E+04 -0.18230226296E+04  0.24237415291E+04  0.10100000352E+00 0.  1.
       -3    1    3    3    0  502  0.73755798174E+03  0.14167285221E+04  0.67823043460E+03  0.17352544523E+04  0.10100000352E+00 0. -1.
</event>
<event>
 5   0  0.8528625E-08  0.4075402E+04  0.7818609E-02  0.7989506E-01
        1   -1    0    0  501    0  0.00000000000E+00  0.00000000000E+00  0.24400277258E+04  0.24400277258E+04  0.50400001928E-02 0. -1.
       -1   -1    0    0    0  501  0.00000000000E+00  0.00000000000E+00 -0.17017126329E+04  0.17017126329E+04  0.50400001928E-02 0.  1.
    10030    2    1    2    0    0  0.00000000000E+00  0.00000000000E+00  0.73831509284E+03  0.41417403587E+04  0.40754023142E+04 0.  0.
        3    1    3    3  502    0  0.13816583239E+04 -0.10975940079E+04  0.14048305882E+04  0.22554913704E+04  0.10100000352E+00 0. -1.
       -3    1    3    3    0  502 -0.13816583239E+04  0.10975940079E+04 -0.66651549533E+03  0.18862489883E+04  0.10100000352E+00 0.  1.
</event>
<event>
 5   0  0.2730801E-07  0.3977856E+04  0.7818609E-02  0.8009029E-01
        2   -1    0    0  501    0  0.00000000000E+00  0.00000000000E+00  0.13592096561E+04  0.13592096561E+04  0.25500000920E-02 0. -1.
       -2   -1    0    0    0  501  0.00000000000E+00  0.00000000000E+00 -0.29103939261E+04  0.29103939261E+04  0.25500000920E-02 0.  1.
    10030    2    1    2    0    0  0.00000000000E+00  0.00000000000E+00 -0.15511842700E+04  0.42696035821E+04  0.39778564717E+04 0.  0.
        2    1    3    3  502    0 -0.72390150103E+02 -0.17818110786E+04 -0.17209533712E+04  0.24782597845E+04  0.25500000920E-02 0. -1.
       -2    1    3    3    0  502  0.72390150103E+02  0.17818110786E+04  0.16976910117E+03  0.17913437976E+04  0.25500000920E-02 0.  1.
</event>
<event>
 5   0  0.2839279E-07  0.3990725E+04  0.7818609E-02  0.8006420E-01
       -2   -1    0    0    0  501  0.00000000000E+00  0.00000000000E+00  0.18824940378E+04  0.18824940378E+04  0.25500000920E-02 0. -1.
        2   -1    0    0  501    0  0.00000000000E+00  0.00000000000E+00 -0.21149977489E+04  0.21149977489E+04  0.25500000920E-02 0.  1.
    10030    2    1    2    0    0  0.00000000000E+00  0.00000000000E+00 -0.23250371110E+03  0.39974917868E+04  0.39907245720E+04 0.  0.
        3    1    3    3  502    0 -0.42498139441E+03  0.13766912433E+04 -0.14990211373E+04  0.20791710717E+04  0.10100000352E+00 0.  1.
       -3    1    3    3    0  502  0.42498139441E+03 -0.13766912433E+04  0.12665174262E+04  0.19183207151E+04  0.10100000352E+00 0. -1.
</event>
<event>
 5   0  0.2730801E-07  0.4086417E+04  0.7818609E-02  0.7987337E-01
       -2   -1    0    0    0  501  0.00000000000E+00  0.00000000000E+00  0.28466257726E+04  0.28466257726E+04  0.25500000920E-02 0.  1.
        2   -1    0    0  501    0  0.00000000000E+00  0.00000000000E+00 -0.14665439246E+04  0.14665439246E+04  0.25500000920E-02 0. -1.
    10030    2    1    2    0    0  0.00000000000E+00  0.00000000000E+00  0.13800818480E+04  0.43131696972E+04  0.40864173709E+04 0.  0.
        2    1    3    3  502    0  0.80319134030E+03 -0.17869815720E+04  0.77964283482E+02  0.19607391202E+04  0.25500000920E-02 0. -1.
       -2    1    3    3    0  502 -0.80319134030E+03  0.17869815720E+04  0.13021175645E+04  0.23524305770E+04  0.25500000920E-02 0.  1.
</event>
<event>
 5   0  0.2730801E-07  0.3865674E+04  0.7818609E-02  0.8032207E-01
        2   -1    0    0  501    0  0.00000000000E+00  0.00000000000E+00  0.22747669738E+04  0.22747669738E+04  0.25500000920E-02 0.  1.
       -2   -1    0    0    0  501  0.00000000000E+00  0.00000000000E+00 -0.16423037103E+04  0.16423037103E+04  0.25500000920E-02 0. -1.
    10030    2    1    2    0    0  0.00000000000E+00  0.00000000000E+00  0.63246326345E+03  0.39170706841E+04  0.38656736754E+04 0.  0.
        2    1    3    3  502    0  0.56952612511E+03  0.14652877005E+03  0.21819145391E+04  0.22597747108E+04  0.25500000920E-02 0.  1.
       -2    1    3    3    0  502 -0.56952612511E+03 -0.14652877005E+03 -0.15494512756E+04  0.16572959733E+04  0.25500000920E-02 0. -1.
</event>
<event>
 5   0  0.8528625E-08  0.3975131E+04  0.7818609E-02  0.8009582E-01
       -1   -1    0    0    0  501  0.00000000000E+00  0.00000000000E+00  0.25149615073E+04  0.25149615073E+04  0.50400001928E-02 0. -1.
        1   -1    0    0  501    0  0.00000000000E+00  0.00000000000E+00 -0.15707659400E+04  0.15707659400E+04  0.50400001928E-02 0.  1.
    10030    2    1    2    0    0  0.00000000000E+00  0.00000000000E+00  0.94419556738E+03  0.40857274473E+04  0.39751306273E+04 0.  0.
        5    1    3    3  502    0  0.16531558624E+02  0.19370426517E+04  0.92943391354E+03  0.21485523072E+04  0.46999998093E+01 0. -1.
       -5    1    3    3    0  502 -0.16531558624E+02 -0.19370426517E+04  0.14761653845E+02  0.19371751401E+04  0.46999998093E+01 0.  1.
</event>
<event>
 5   0  0.8583262E-08  0.2855052E+04  0.7818609E-02  0.8286378E-01
        1   -1    0    0  501    0  0.00000000000E+00  0.00000000000E+00  0.30950333344E+04  0.30950333344E+04  0.50400001928E-02 0. -1.
       -1   -1    0    0    0  501  0.00000000000E+00  0.00000000000E+00 -0.65841936258E+03  0.65841936260E+03  0.50400001928E-02 0.  1.
    10030    2    1    2    0    0  0.00000000000E+00  0.00000000000E+00  0.24366139719E+04  0.37534526970E+04  0.28550515759E+04 0.  0.
        1    1    3    3  502    0 -0.12417694983E+04 -0.43144006880E+03  0.19499278600E+04  0.23516697640E+04  0.50400001928E-02 0.  1.
       -1    1    3    3    0  502  0.12417694983E+04  0.43144006880E+03  0.48668611183E+03  0.14017829330E+04  0.50400001928E-02 0. -1.
</event>
<event>
 5   0  0.2730801E-07  0.4010633E+04  0.7818609E-02  0.8002405E-01
        2   -1    0    0  501    0  0.00000000000E+00  0.00000000000E+00  0.24210344466E+04  0.24210344466E+04  0.25500000920E-02 0.  1.
       -2   -1    0    0    0  501  0.00000000000E+00  0.00000000000E+00 -0.16609821958E+04  0.16609821958E+04  0.25500000920E-02 0. -1.
    10030    2    1    2    0    0  0.00000000000E+00  0.00000000000E+00  0.76005225080E+03  0.40820166424E+04  0.40106334219E+04 0.  0.
        2    1    3    3  502    0  0.18837295184E+04 -0.23770616551E+03 -0.27671342102E+03  0.19187265144E+04  0.25500000920E-02 0. -1.
       -2    1    3    3    0  502 -0.18837295184E+04  0.23770616551E+03  0.10367656718E+04  0.21632901280E+04  0.25500000920E-02 0.  1.
</event>
<event>
 5   0  0.2730801E-07  0.3952729E+04  0.7818609E-02  0.8014151E-01
        2   -1    0    0  501    0  0.00000000000E+00  0.00000000000E+00  0.21586653509E+04  0.21586653509E+04  0.25500000920E-02 0.  1.
       -2   -1    0    0    0  501  0.00000000000E+00  0.00000000000E+00 -0.18094589408E+04  0.18094589408E+04  0.25500000920E-02 0. -1.
    10030    2    1    2    0    0  0.00000000000E+00  0.00000000000E+00  0.34920641007E+03  0.39681242917E+04  0.39527288393E+04 0.  0.
        2    1    3    3  502    0 -0.16140340996E+04 -0.48734383371E+02 -0.96936804138E+03  0.18833893688E+04  0.25500000920E-02 0. -1.
       -2    1    3    3    0  502  0.16140340996E+04  0.48734383371E+02  0.13185744514E+04  0.20847349229E+04  0.25500000920E-02 0.  1.
</event>
<event>
 5   0  0.2839279E-07  0.3967302E+04  0.7818609E-02  0.8011175E-01
       -2   -1    0    0    0  501  0.00000000000E+00  0.00000000000E+00  0.13533273406E+04  0.13533273406E+04  0.25500000920E-02 0. -1.
        2   -1    0    0  501    0  0.00000000000E+00  0.00000000000E+00 -0.29075535677E+04  0.29075535677E+04  0.25500000920E-02 0.  1.
    10030    2    1    2    0    0  0.00000000000E+00  0.00000000000E+00 -0.15542262271E+04  0.42608809084E+04  0.39673022257E+04 0.  0.
        3    1    3    3  502    0 -0.19454508185E+04  0.66574155910E+02 -0.11870106790E+04  0.22799573171E+04  0.10100000352E+00 0.  1.
       -3    1    3    3    0  502  0.19454508185E+04 -0.66574155910E+02 -0.36721554814E+03  0.19809235913E+04  0.10100000352E+00 0. -1.
</event>
<event>
 5   0  0.8528625E-08  0.3935767E+04  0.7818609E-02  0.8017631E-01
       -1   -1    0    0    0  501  0.00000000000E+00  0.00000000000E+00  0.17451263033E+04  0.17451263033E+04  0.50400001928E-02 0.  1.
        1   -1    0    0  501    0  0.00000000000E+00  0.00000000000E+00 -0.22190747081E+04  0.22190747081E+04  0.50400001928E-02 0. -1.
    10030    2    1    2    0    0  0.00000000000E+00  0.00000000000E+00 -0.47394840476E+03  0.39642010114E+04  0.39357670877E+04 0.  0.
        2    1    3    3  502    0  0.78224370589E+03  0.72350726217E+03  0.14294261892E+04  0.17828704957E+04  0.25500000920E-02 0.  1.
       -2    1    3    3    0  502 -0.78224370589E+03 -0.72350726217E+03 -0.19033745940E+04  0.21813305157E+04  0.25500000920E-02 0. -1.
</event>
<event>
 5   0  0.8583262E-08  0.3361447E+04  0.7818609E-02  0.8147434E-01
       -1   -1    0    0    0  501  0.00000000000E+00  0.00000000000E+00  0.16635381609E+04  0.16635381609E+04  0.50400001928E-02 0. -1.
        1   -1    0    0  501    0  0.00000000000E+00  0.00000000000E+00 -0.16980863556E+04  0.16980863556E+04  0.50400001928E-02 0.  1.
    10030    2    1    2    0    0  0.00000000000E+00  0.00000000000E+00 -0.34548194702E+02  0.33616245165E+04  0.33614469819E+04 0.  0.
        1    1    3    3  502    0 -0.24953915731E+03 -0.68289930074E+03  0.14981310504E+04  0.16652380881E+04  0.50400001928E-02 0. -1.
       -1    1    3    3    0  502  0.24953915731E+03  0.68289930074E+03 -0.15326792451E+04  0.16963864284E+04  0.50400001928E-02 0.  1.
</event>
<event>
 5   0  0.2730801E-07  0.4000301E+04  0.7818609E-02  0.8004486E-01
        2   -1    0    0  501    0  0.00000000000E+00  0.00000000000E+00  0.15874903646E+04  0.15874903646E+04  0.25500000920E-02 0. -1.
       -2   -1    0    0    0  501  0.00000000000E+00  0.00000000000E+00 -0.25200793132E+04  0.25200793132E+04  0.25500000920E-02 0.  1.
    10030    2    1    2    0    0  0.00000000000E+00  0.00000000000E+00 -0.93258894856E+03  0.41075696779E+04  0.40003008026E+04 0.  0.
        2    1    3    3  502    0  0.89396796675E+03 -0.12653968186E+04  0.83261409133E+03  0.17588786368E+04  0.25500000920E-02 0. -1.
       -2    1    3    3    0  502 -0.89396796675E+03  0.12653968186E+04 -0.17652030399E+04  0.23486910410E+04  0.25500000920E-02 0.  1.
</event>
<event>
 5   0  0.2704088E-07  0.3984764E+04  0.7818609E-02  0.8007627E-01
       -2   -1    0    0    0  501  0.00000000000E+00  0.00000000000E+00  0.13713164498E+04  0.13713164498E+04  0.25500000920E-02 0.  1.
        2   -1    0    0  501    0  0.00000000000E+00  0.00000000000E+00 -0.28947261978E+04  0.28947261978E+04  0.25500000920E-02 0. -1.
    10030    2    1    2    0    0  0.00000000000E+00  0.00000000000E+00 -0.15234097480E+04  0.42660426476E+04  0.39847638087E+04 0.  0.
        5    1    3    3  502    0  0.69258926332E+03 -0.17096121133E+04  0.44520195455E+02  0.18451172330E+04  0.46999998093E+01 0.  1.
       -5    1    3    3    0  502 -0.69258926332E+03  0.17096121133E+04 -0.15679299434E+04  0.24209254146E+04  0.46999998093E+01 0. -1.
</event>
<event>
 5   0  0.8528625E-08  0.3852933E+04  0.7818609E-02  0.8034890E-01
       -1   -1    0    0    0  501  0.00000000000E+00  0.00000000000E+00  0.14954808560E+04  0.14954808560E+04  0.50400001928E-02 0.  1.
        1   -1    0    0  501    0  0.00000000000E+00  0.00000000000E+00 -0.24816591686E+04  0.24816591686E+04  0.50400001928E-02 0. -1.
    10030    2    1    2    0    0  0.00000000000E+00  0.00000000000E+00 -0.98617831258E+03  0.39771400246E+04  0.38529333125E+04 0.  0.
        2    1    3    3  502    0 -0.30034873091E+03 -0.84415766513E+00  0.14711640562E+04  0.15015104905E+04  0.25500000920E-02 0.  1.
       -2    1    3    3    0  502  0.30034873091E+03  0.84415766513E+00 -0.24573423688E+04  0.24756295341E+04  0.25500000920E-02 0. -1.
</event>
<event>
 5   0  0.8528625E-08  0.3608130E+04  0.7818609E-02  0.8088632E-01
       -1   -1    0    0    0  501  0.00000000000E+00  0.00000000000E+00  0.20639636986E+04  0.20639636986E+04  0.50400001928E-02 0. -1.
        1   -1    0    0  501    0  0.00000000000E+00  0.00000000000E+00 -0.15768934314E+04  0.15768934314E+04  0.50400001928E-02 0.  1.
    10030    2    1    2    0    0  0.00000000000E+00  0.00000000000E+00  0.48707026725E+03  0.36408571301E+04  0.36081301523E+04 0.  0.
        5    1    3    3  502    0 -0.49609047097E+03 -0.75983317212E+03 -0.13298305991E+04  0.16099452528E+04  0.46999998093E+01 0.  1.
       -5    1    3    3    0  502  0.49609047097E+03  0.75983317212E+03  0.18169008664E+04  0.20309118772E+04  0.46999998093E+01 0. -1.
</event>
<event>
 5   0  0.2666978E-07  0.4044473E+04  0.7818609E-02  0.7995635E-01
        2   -1    0    0  501    0  0.00000000000E+00  0.00000000000E+00  0.20532599741E+04  0.20532599741E+04  0.25500000920E-02 0. -1.
       -2   -1    0    0    0  501  0.00000000000E+00  0.00000000000E+00 -0.19916816597E+04  0.19916816597E+04  0.25500000920E-02 0.  1.
    10030    2    1    2    0    0  0.00000000000E+00  0.00000000000E+00  0.61578314442E+02  0.40449416338E+04  0.40444728868E+04 0.  0.
        4    1    3    3  502    0  0.25894127918E+03  0.42998056191E+03 -0.19283928970E+04  0.19926451384E+04  0.12699999809E+01 0.  1.
       -4    1    3    3    0  502 -0.25894127918E+03 -0.42998056191E+03  0.19899712114E+04  0.20522964954E+04  0.12699999809E+01 0. -1.
</event>
<event>
 5   0  0.8528625E-08  0.3999068E+04  0.7818609E-02  0.8004735E-01
       -1   -1    0    0    0  501  0.00000000000E+00  0.00000000000E+00  0.22448165995E+04  0.22448165995E+04  0.50400001928E-02 0. -1.
        1   -1    0    0  501    0  0.00000000000E+00  0.00000000000E+00 -0.17810528098E+04  0.17810528098E+04  0.50400001928E-02 0.  1.
    10030    2    1    2    0    0  0.00000000000E+00  0.00000000000E+00  0.46376378967E+03  0.40258694093E+04  0.39990683475E+04 0.  0.
        3    1    3    3  502    0  0.14940013317E+04 -0.12905475255E+04 -0.87393406586E+02  0.19761554879E+04  0.10100000352E+00 0. -1.
       -3    1    3    3    0  502 -0.14940013317E+04  0.12905475255E+04  0.55115719625E+03  0.20497139214E+04  0.10100000352E+00 0.  1.
</event>
<event>
 5   0  0.8528625E-08  0.3457205E+04  0.7818609E-02  0.8124007E-01
        1   -1    0    0  501    0  0.00000000000E+00  0.00000000000E+00  0.21997382671E+04  0.21997382671E+04  0.50400001928E-02 0.  1.
       -1   -1    0    0    0  501  0.00000000000E+00  0.00000000000E+00 -0.13583733060E+04  0.13583733060E+04  0.50400001928E-02 0. -1.
    10030    2    1    2    0    0  0.00000000000E+00  0.00000000000E+00  0.84136496105E+03  0.35581115731E+04  0.34572045021E+04 0.  0.
        2    1    3    3  502    0 -0.71262943223E+02  0.65744092353E+03 -0.12230426175E+04  0.13903741293E+04  0.25500000920E-02 0. -1.
       -2    1    3    3    0  502  0.71262943223E+02 -0.65744092353E+03  0.20644075786E+04  0.21677374439E+04  0.25500000920E-02 0.  1.
</event>
<event>
 5   0  0.2730801E-07  0.3315767E+04  0.7818609E-02  0.8158895E-01
       -2   -1    0    0    0  501  0.00000000000E+00  0.00000000000E+00  0.12939304958E+04  0.12939304958E+04  0.25500000920E-02 0. -1.
        2   -1    0    0  501    0  0.00000000000E+00  0.00000000000E+00 -0.21242084968E+04  0.21242084968E+04  0.25500000920E-02 0.  1.
    10030    2    1    2    0    0  0.00000000000E+00  0.00000000000E+00 -0.83027800104E+03  0.34181389926E+04  0.33157672738E+04 0.  0.
        2    1    3    3  502    0  0.43101607800E+03  0.22074655504E+03  0.12193978942E+04  0.13120347272E+04  0.25500000920E-02 0. -1.
       -2    1    3    3    0  502 -0.43101607800E+03 -0.22074655504E+03 -0.20496758952E+04  0.21061042654E+04  0.25500000920E-02 0.  1.
</event>
<event>
 5   0  0.2704088E-07  0.3390556E+04  0.7818609E-02  0.8140228E-01
       -2   -1    0    0    0  501  0.00000000000E+00  0.00000000000E+00  0.12269985672E+04  0.12269985672E+04  0.25500000920E-02 0.  1.
        2   -1    0    0  501    0  0.00000000000E+00  0.00000000000E+00 -0.23422742443E+04  0.23422742443E+04  0.25500000920E-02 0. -1.
    10030    2    1    2    0    0  0.00000000000E+00  0.00000000000E+00 -0.11152756771E+04  0.35692728114E+04  0.33905557902E+04 0.  0.
        5    1    3    3  502    0  0.81431366738E+03 -0.27663903071E+02  0.10073542970E+04  0.12956298893E+04  0.46999998093E+01 0.  1.
       -5    1    3    3    0  502 -0.81431366738E+03  0.27663903071E+02 -0.21226299741E+04  0.22736429221E+04  0.46999998093E+01 0. -1.
</event>
<event>
 5   0  0.8528625E-08  0.3041282E+04  0.7818609E-02  0.8232040E-01
       -1   -1    0    0    0  501  0.00000000000E+00  0.00000000000E+00  0.89676217455E+03  0.89676217456E+03  0.50400001928E-02 0.  1.
        1   -1    0    0  501    0  0.00000000000E+00  0.00000000000E+00 -0.25785533285E+04  0.25785533285E+04  0.50400001928E-02 0. -1.
    10030    2    1    2    0    0  0.00000000000E+00  0.00000000000E+00 -0.16817911539E+04  0.34753155031E+04  0.30412820258E+04 0.  0.
        4    1    3    3  502    0  0.60648153467E+03  0.17958007943E+03  0.73930831552E+03  0.97295799248E+03  0.12699999809E+01 0.  1.
       -4    1    3    3    0  502 -0.60648153467E+03 -0.17958007943E+03 -0.24210994695E+04  0.25023575106E+04  0.12699999809E+01 0. -1.
</event>
<event>
 5   0  0.2704088E-07  0.3990176E+04  0.7818609E-02  0.8006531E-01
        2   -1    0    0  501    0  0.00000000000E+00  0.00000000000E+00  0.25018627890E+04  0.25018627890E+04  0.25500000920E-02 0.  1.
       -2   -1    0    0    0  501  0.00000000000E+00  0.00000000000E+00 -0.15909651293E+04  0.15909651293E+04  0.25500000920E-02 0. -1.
    10030    2    1    2    0    0  0.00000000000E+00  0.00000000000E+00  0.91089765974E+03  0.40928279183E+04  0.39901761643E+04 0.  0.
        5    1    3    3  502    0  0.14882099243E+04  0.60282253758E+03 -0.75915581346E+03  0.17760921794E+04  0.46999998093E+01 0. -1.
       -5    1    3    3    0  502 -0.14882099243E+04 -0.60282253758E+03  0.16700534732E+04  0.23167357389E+04  0.46999998093E+01 0.  1.
</event>
<event>
 5   0  0.8528625E-08  0.4010586E+04  0.7818609E-02  0.8002414E-01
        1   -1    0    0  501    0  0.00000000000E+00  0.00000000000E+00  0.18185168316E+04  0.18185168316E+04  0.50400001928E-02 0.  1.
       -1   -1    0    0    0  501  0.00000000000E+00  0.00000000000E+00 -0.22112521956E+04  0.22112521956E+04  0.50400001928E-02 0. -1.
    10030    2    1    2    0    0  0.00000000000E+00  0.00000000000E+00 -0.39273536395E+03  0.40297690272E+04  0.40105856613E+04 0.  0.
        3    1    3    3  502    0 -0.72640478439E+03  0.92889805196E+03 -0.18260640024E+04  0.21737123207E+04  0.10100000352E+00 0. -1.
       -3    1    3    3    0  502  0.72640478439E+03 -0.92889805196E+03  0.14333286385E+04  0.18560567065E+04  0.10100000352E+00 0.  1.
</event>
<event>
 5   0  0.2730801E-07  0.3972549E+04  0.7818609E-02  0.8010107E-01
       -2   -1    0    0    0  501  0.00000000000E+00  0.00000000000E+00  0.17342834782E+04  0.17342834782E+04  0.25500000920E-02 0.  1.
        2   -1    0    0  501    0  0.00000000000E+00  0.00000000000E+00 -0.22748801287E+04  0.22748801287E+04  0.25500000920E-02 0. -1.
    10030    2    1    2    0    0  0.00000000000E+00  0.00000000000E+00 -0.54059665051E+03  0.40091636069E+04  0.39725493185E+04 0.  0.
        2    1    3    3  502    0 -0.17395114450E+04  0.34226135832E+03 -0.11742344700E+04  0.21264687854E+04  0.25500000920E-02 0. -1.
       -2    1    3    3    0  502  0.17395114450E+04 -0.34226135832E+03  0.63363781951E+03  0.18826948215E+04  0.25500000920E-02 0.  1.
</event>
<event>
 5   0  0.2839279E-07  0.3940628E+04  0.7818609E-02  0.8016632E-01
       -2   -1    0    0    0  501  0.00000000000E+00  0.00000000000E+00  0.19506884018E+04  0.19506884018E+04  0.25500000920E-02 0.  1.
        2   -1    0    0  501    0  0.00000000000E+00  0.00000000000E+00 -0.19901372749E+04  0.19901372749E+04  0.25500000920E-02 0. -1.
    10030    2    1    2    0    0  0.00000000000E+00  0.00000000000E+00 -0.39448873116E+02  0.39408256768E+04  0.39406282242E+04 0.  0.
        3    1    3    3  502    0 -0.17166534211E+04  0.58629156717E+03 -0.78885394336E+03  0.19781120605E+04  0.10100000352E+00 0. -1.
       -3    1    3    3    0  502  0.17166534211E+04 -0.58629156717E+03  0.74940507025E+03  0.19627136162E+04  0.10100000352E+00 0.  1.
</event>
<event>
 5   0  0.2661693E-07  0.3993471E+04  0.7818609E-02  0.8005865E-01
        2   -1    0    0  501    0  0.00000000000E+00  0.00000000000E+00  0.16919790562E+04  0.16919790562E+04  0.25500000920E-02 0. -1.
       -2   -1    0    0    0  501  0.00000000000E+00  0.00000000000E+00 -0.23563840865E+04  0.23563840865E+04  0.25500000920E-02 0.  1.
    10030    2    1    2    0    0  0.00000000000E+00  0.00000000000E+00 -0.66440503025E+03  0.40483631427E+04  0.39934709328E+04 0.  0.
        1    1    3    3  502    0  0.58504613256E+03 -0.75959004780E+03 -0.21077616064E+04  0.23155809222E+04  0.50400001928E-02 0.  1.
       -1    1    3    3    0  502 -0.58504613256E+03  0.75959004780E+03  0.14433565761E+04  0.17327822205E+04  0.50400001928E-02 0. -1.
</event>
<event>
 5   0  0.8583262E-08  0.3990111E+04  0.7818609E-02  0.8006544E-01
        1   -1    0    0  501    0  0.00000000000E+00  0.00000000000E+00  0.28244573992E+04  0.28244573992E+04  0.50400001928E-02 0. -1.
       -1   -1    0    0    0  501  0.00000000000E+00  0.00000000000E+00 -0.14092076503E+04  0.14092076503E+04  0.50400001928E-02 0.  1.
    10030    2    1    2    0    0  0.00000000000E+00  0.00000000000E+00  0.14152497489E+04  0.42336650495E+04  0.39901112641E+04 0.  0.
        1    1    3    3  502    0 -0.53563517891E+03  0.79205864095E+03 -0.11502501861E+04  0.14957731867E+04  0.50400001928E-02 0.  1.
       -1    1    3    3    0  502  0.53563517891E+03 -0.79205864095E+03  0.25654999350E+04  0.27378918628E+04  0.50400001928E-02 0. -1.
</event>
<event>
 5   0  0.2839279E-07  0.3236523E+04  0.7818609E-02  0.8179238E-01
        2   -1    0    0  501    0  0.00000000000E+00  0.00000000000E+00  0.18681621732E+04  0.18681621732E+04  0.25500000920E-02 0.  1.
       -2   -1    0    0    0  501  0.00000000000E+00  0.00000000000E+00 -0.14017893849E+04  0.14017893849E+04  0.25500000920E-02 0. -1.
    10030    2    1    2    0    0  0.00000000000E+00  0.00000000000E+00  0.46637278835E+03  0.32699515581E+04  0.32365227659E+04 0.  0.
        3    1    3    3  502    0  0.11083521560E+04 -0.68597291041E+03  0.12021366019E+04  0.17731711015E+04  0.10100000352E+00 0.  1.
       -3    1    3    3    0  502 -0.11083521560E+04  0.68597291041E+03 -0.73576381351E+03  0.14967804565E+04  0.10100000352E+00 0. -1.
</event>
<event>
 5   0  0.8528625E-08  0.3653575E+04  0.7818609E-02  0.8078329E-01
       -1   -1    0    0    0  501  0.00000000000E+00  0.00000000000E+00  0.11599423789E+04  0.11599423789E+04  0.50400001928E-02 0. -1.
        1   -1    0    0  501    0  0.00000000000E+00  0.00000000000E+00 -0.28769980430E+04  0.28769980430E+04  0.50400001928E-02 0.  1.
    10030    2    1    2    0    0  0.00000000000E+00  0.00000000000E+00 -0.17170556641E+04  0.40369404219E+04  0.36535746628E+04 0.  0.
        4    1    3    3  502    0 -0.10884765913E+04  0.68498223888E+03  0.57497361491E+03  0.14087505912E+04  0.12699999809E+01 0. -1.
       -4    1    3    3    0  502  0.10884765913E+04 -0.68498223888E+03 -0.22920292790E+04  0.26281898307E+04  0.12699999809E+01 0.  1.
</event>
<event>
 5   0  0.2704088E-07  0.3037382E+04  0.7818609E-02  0.8233136E-01
        2   -1    0    0  501    0  0.00000000000E+00  0.00000000000E+00  0.14538783337E+04  0.14538783337E+04  0.25500000920E-02 0.  1.
       -2   -1    0    0    0  501  0.00000000000E+00  0.00000000000E+00 -0.15863925099E+04  0.15863925099E+04  0.25500000920E-02 0. -1.
    10030    2    1    2    0    0  0.00000000000E+00  0.00000000000E+00 -0.13251417620E+03  0.30402708436E+04  0.30373815690E+04 0.  0.
        5    1    3    3  502    0  0.13247468505E+04  0.53014737124E+03  0.45422711884E+03  0.14974494377E+04  0.46999998093E+01 0.  1.
       -5    1    3    3    0  502 -0.13247468505E+04 -0.53014737124E+03 -0.58674129504E+03  0.15428214059E+04  0.46999998093E+01 0. -1.
</event>
<event>
 5   0  0.8528625E-08  0.4057841E+04  0.7818609E-02  0.7992979E-01
        1   -1    0    0  501    0  0.00000000000E+00  0.00000000000E+00  0.18183877544E+04  0.18183877545E+04  0.50400001928E-02 0. -1.
       -1   -1    0    0    0  501  0.00000000000E+00  0.00000000000E+00 -0.22638290434E+04  0.22638290434E+04  0.50400001928E-02 0.  1.
    10030    2    1    2    0    0  0.00000000000E+00  0.00000000000E+00 -0.44544128898E+03  0.40822167979E+04  0.40578413033E+04 0.  0.
        4    1    3    3  502    0  0.86454919060E+03 -0.16980058262E+04 -0.92393589830E+03  0.21176232540E+04  0.12699999809E+01 0.  1.
       -4    1    3    3    0  502 -0.86454919060E+03  0.16980058262E+04  0.47849460932E+03  0.19645935439E+04  0.12699999809E+01 0. -1.
</event>
<event>
 5   0  0.8528625E-08  0.3979147E+04  0.7818609E-02  0.8008767E-01
        1   -1    0    0  501    0  0.00000000000E+00  0.00000000000E+00  0.12437821351E+04  0.12437821351E+04  0.50400001928E-02 0. -1.
       -1   -1    0    0    0  501  0.00000000000E+00  0.00000000000E+00 -0.31825530642E+04  0.31825530642E+04  0.50400001928E-02 0.  1.
    10030    2    1    2    0    0  0.00000000000E+00  0.00000000000E+00 -0.19387709291E+04  0.44263351993E+04  0.39791469665E+04 0.  0.
        5    1    3    3  502    0 -0.18006981365E+04 -0.19753390963E+03 -0.54220015113E+02  0.18123176665E+04  0.46999998093E+01 0. -1.
       -5    1    3    3    0  502  0.18006981365E+04  0.19753390963E+03 -0.18845509140E+04  0.26140175328E+04  0.46999998093E+01 0.  1.
</event>
<event>
 5   0  0.2661693E-07  0.3991283E+04  0.7818609E-02  0.8006307E-01
        2   -1    0    0  501    0  0.00000000000E+00  0.00000000000E+00  0.13647400830E+04  0.13647400830E+04  0.25500000920E-02 0. -1.
       -2   -1    0    0    0  501  0.00000000000E+00  0.00000000000E+00 -0.29182008196E+04  0.29182008196E+04  0.25500000920E-02 0.  1.
    10030    2    1    2    0    0  0.00000000000E+00  0.00000000000E+00 -0.15534607365E+04  0.42829409026E+04  0.39912833168E+04 0.  0.
        1    1    3    3  502    0 -0.43526696501E+03  0.11003274373E+04 -0.25011459558E+04  0.27669313133E+04  0.50400001928E-02 0.  1.
       -1    1    3    3    0  502  0.43526696501E+03 -0.11003274373E+04  0.94768521925E+03  0.15160095893E+04  0.50400001928E-02 0. -1.
</event>
<event>
 5   0  0.2666978E-07  0.4043237E+04  0.7818609E-02  0.7995881E-01
        2   -1    0    0  501    0  0.00000000000E+00  0.00000000000E+00  0.12788009468E+04  0.12788009468E+04  0.25500000920E-02 0. -1.
       -2   -1    0    0    0  501  0.00000000000E+00  0.00000000000E+00 -0.31959164658E+04  0.31959164658E+04  0.25500000920E-02 0.  1.
    10030    2    1    2    0    0  0.00000000000E+00  0.00000000000E+00 -0.19171155191E+04  0.44747174126E+04  0.40432368233E+04 0.  0.
        4    1    3    3  502    0 -0.43241123946E+03 -0.76184961903E+03  0.10578377363E+04  0.13734688243E+04  0.12699999809E+01 0. -1.
       -4    1    3    3    0  502  0.43241123946E+03  0.76184961903E+03 -0.29749532554E+04  0.31012485883E+04  0.12699999809E+01 0.  1.
</event>
<event>
 5   0  0.2839279E-07  0.4019946E+04  0.7818609E-02  0.8000535E-01
       -2   -1    0    0    0  501  0.00000000000E+00  0.00000000000E+00  0.13568961146E+04  0.13568961146E+04  0.25500000920E-02 0. -1.
        2   -1    0    0  501    0  0.00000000000E+00  0.00000000000E+00 -0.29773766052E+04  0.29773766052E+04  0.25500000920E-02 0.  1.
    10030    2    1    2    0    0  0.00000000000E+00  0.00000000000E+00 -0.16204804905E+04  0.43342727198E+04  0.40199456451E+04 0.  0.
        3    1    3    3  502    0 -0.12871291751E+04 -0.15332250755E+04 -0.10046442244E+04  0.22398193395E+04  0.10100000352E+00 0.  1.
       -3    1    3    3    0  502  0.12871291751E+04  0.15332250755E+04 -0.61583626613E+03  0.20944533804E+04  0.10100000352E+00 0. -1.
</event>
<event>
 5   0  0.8528625E-08  0.4020334E+04  0.7818609E-02  0.8000457E-01
       -1   -1    0    0    0  501  0.00000000000E+00  0.00000000000E+00  0.34579273289E+04  0.34579273289E+04  0.50400001928E-02 0. -1.
        1   -1    0    0  501    0  0.00000000000E+00  0.00000000000E+00 -0.11685530729E+04  0.11685530729E+04  0.50400001928E-02 0.  1.
    10030    2    1    2    0    0  0.00000000000E+00  0.00000000000E+00  0.22893742560E+04  0.46264804018E+04  0.40203341184E+04 0.  0.
        4    1    3    3  502    0 -0.10785719275E+04 -0.16763853288E+04  0.84640711208E+03  0.21656388862E+04  0.12699999809E+01 0.  1.
       -4    1    3    3    0  502  0.10785719275E+04  0.16763853288E+04  0.14429671439E+04  0.24608415155E+04  0.12699999809E+01 0. -1.
</event>
<event>
 5   0  0.8528625E-08  0.3933855E+04  0.7818609E-02  0.8018025E-01
       -1   -1    0    0    0  501  0.00000000000E+00  0.00000000000E+00  0.15464144017E+04  0.15464144017E+04  0.50400001928E-02 0. -1.
        1   -1    0    0  501    0  0.00000000000E+00  0.00000000000E+00 -0.25017900991E+04  0.25017900991E+04  0.50400001928E-02 0.  1.
    10030    2    1    2    0    0  0.00000000000E+00  0.00000000000E+00 -0.95537569732E+03  0.40482045008E+04  0.39338552283E+04 0.  0.
        2    1    3    3  502    0  0.67867770658E+03  0.18414238674E+04 -0.61327102447E+03  0.20560998610E+04  0.25500000920E-02 0.  1.
       -2    1    3    3    0  502 -0.67867770658E+03 -0.18414238674E+04 -0.34210467286E+03  0.19921046398E+04  0.25500000920E-02 0. -1.
</event>
<event>
 5   0  0.2704088E-07  0.4061440E+04  0.7818609E-02  0.7992265E-01
        2   -1    0    0  501    0  0.00000000000E+00  0.00000000000E+00  0.14098161338E+04  0.14098161338E+04  0.25500000920E-02 0. -1.
       -2   -1    0    0    0  501  0.00000000000E+00  0.00000000000E+00 -0.29250797339E+04  0.29250797339E+04  0.25500000920E-02 0.  1.
    10030    2    1    2    0    0  0.00000000000E+00  0.00000000000E+00 -0.15152636001E+04  0.43348958678E+04  0.40614404350E+04 0.  0.
        5    1    3    3  502    0  0.12064657288E+04  0.13802228118E+04  0.17481854345E+03  0.18415097551E+04  0.46999998093E+01 0. -1.
       -5    1    3    3    0  502 -0.12064657288E+04 -0.13802228118E+04 -0.16900821436E+04  0.24933861127E+04  0.46999998093E+01 0.  1.
</event>
<event>
 5   0  0.8583262E-08  0.3893197E+04  0.7818609E-02  0.8026445E-01
        1   -1    0    0  501    0  0.00000000000E+00  0.00000000000E+00  0.22707004801E+04  0.22707004801E+04  0.50400001928E-02 0.  1.
       -1   -1    0    0    0  501  0.00000000000E+00  0.00000000000E+00 -0.16687566745E+04  0.16687566745E+04  0.50400001928E-02 0. -1.
    10030    2    1    2    0    0  0.00000000000E+00  0.00000000000E+00  0.60194380567E+03  0.39394571546E+04  0.38931974427E+04 0.  0.
        1    1    3    3  502    0  0.12954722988E+03 -0.18541433827E+04  0.88630566112E+03  0.20591667959E+04  0.50400001928E-02 0.  1.
       -1    1    3    3    0  502 -0.12954722988E+03  0.18541433827E+04 -0.28436185545E+03  0.18802903587E+04  0.50400001928E-02 0. -1.
</event>
<event>
 5   0  0.2839279E-07  0.4008755E+04  0.7818609E-02  0.8002783E-01
        2   -1    0    0  501    0  0.00000000000E+00  0.00000000000E+00  0.27994066993E+04  0.27994066993E+04  0.25500000920E-02 0. -1.
       -2   -1    0    0    0  501  0.00000000000E+00  0.00000000000E+00 -0.14351358004E+04  0.14351358004E+04  0.25500000920E-02 0.  1.
    10030    2    1    2    0    0  0.00000000000E+00  0.00000000000E+00  0.13642708989E+04  0.42345424998E+04  0.40087548063E+04 0.  0.
        3    1    3    3  502    0 -0.58222034035E+03 -0.37078415784E+03 -0.13056252313E+04  0.14768610873E+04  0.10100000352E+00 0.  1.
       -3    1    3    3    0  502  0.58222034035E+03  0.37078415784E+03  0.26698961302E+04  0.27576814125E+04  0.10100000352E+00 0. -1.
</event>
<event>
 5   0  0.8528625E-08  0.3792693E+04  0.7818609E-02  0.8047725E-01
        1   -1    0    0  501    0  0.00000000000E+00  0.00000000000E+00  0.24688553816E+04  0.24688553816E+04  0.50400001928E-02 0. -1.
       -1   -1    0    0    0  501  0.00000000000E+00  0.00000000000E+00 -0.14565980758E+04  0.14565980759E+04  0.50400001928E-02 0.  1.
    10030    2    1    2    0    0  0.00000000000E+00  0.00000000000E+00  0.10122573057E+04  0.39254534574E+04  0.37926929738E+04 0.  0.
        2    1    3    3  502    0 -0.85488824262E+03 -0.31406778980E+03  0.22276794661E+04  0.24066633100E+04  0.25500000920E-02 0. -1.
       -2    1    3    3    0  502  0.85488824262E+03  0.31406778980E+03 -0.12154221604E+04  0.15187901474E+04  0.25500000920E-02 0.  1.
</event>
<event>
 5   0  0.8528625E-08  0.4098772E+04  0.7818609E-02  0.7984912E-01
       -1   -1    0    0    0  501  0.00000000000E+00  0.00000000000E+00  0.16268443957E+04  0.16268443958E+04  0.50400001928E-02 0. -1.
        1   -1    0    0  501    0  0.00000000000E+00  0.00000000000E+00 -0.25816749950E+04  0.25816749950E+04  0.50400001928E-02 0.  1.
    10030    2    1    2    0    0  0.00000000000E+00  0.00000000000E+00 -0.95483059927E+03  0.42085193908E+04  0.40987722539E+04 0.  0.
        4    1    3    3  502    0 -0.45340140392E+02 -0.15548863610E+04  0.89257218068E+03  0.17934363760E+04  0.12699999809E+01 0. -1.
       -4    1    3    3    0  502  0.45340140392E+02  0.15548863610E+04 -0.18474027800E+04  0.24150830148E+04  0.12699999809E+01 0.  1.
</event>
<event>
 5   0  0.2666978E-07  0.3381164E+04  0.7818609E-02  0.8142545E-01
        2   -1    0    0  501    0  0.00000000000E+00  0.00000000000E+00  0.25114443506E+04  0.25114443506E+04  0.25500000920E-02 0. -1.
       -2   -1    0    0    0  501  0.00000000000E+00  0.00000000000E+00 -0.11380173781E+04  0.11380173781E+04  0.25500000920E-02 0.  1.
    10030    2    1    2    0    0  0.00000000000E+00  0.00000000000E+00  0.13734269725E+04  0.36494617286E+04  0.33811638913E+04 0.  0.
        4    1    3    3  502    0  0.19647031772E+03 -0.55435584392E+03  0.23974604684E+04  0.24685480141E+04  0.12699999809E+01 0. -1.
       -4    1    3    3    0  502 -0.19647031772E+03  0.55435584392E+03 -0.10240334959E+04  0.11809137145E+04  0.12699999809E+01 0.  1.
</event>
<event>
 5   0  0.8528625E-08  0.3906871E+04  0.7818609E-02  0.8023602E-01
       -1   -1    0    0    0  501  0.00000000000E+00  0.00000000000E+00  0.14414762852E+04  0.14414762852E+04  0.50400001928E-02 0. -1.
        1   -1    0    0  501    0  0.00000000000E+00  0.00000000000E+00 -0.26472232027E+04  0.26472232027E+04  0.50400001928E-02 0.  1.
    10030    2    1    2    0    0  0.00000000000E+00  0.00000000000E+00 -0.12057469175E+04  0.40886994879E+04  0.39068705984E+04 0.  0.
        5    1    3    3  502    0 -0.14062294463E+04  0.57243408039E+03  0.68344624654E+03  0.16650173855E+04  0.46999998093E+01 0. -1.
       -5    1    3    3    0  502  0.14062294463E+04 -0.57243408039E+03 -0.18891931641E+04  0.24236821023E+04  0.46999998093E+01 0.  1.
</event>
<event>
 5   0  0.2730801E-07  0.4211851E+04  0.7818609E-02  0.7963122E-01
        2   -1    0    0  501    0  0.00000000000E+00  0.00000000000E+00  0.16661573273E+04  0.16661573273E+04  0.25500000920E-02 0. -1.
       -2   -1    0    0    0  501  0.00000000000E+00  0.00000000000E+00 -0.26617672180E+04  0.26617672180E+04  0.25500000920E-02 0.  1.
    10030    2    1    2    0    0  0.00000000000E+00  0.00000000000E+00 -0.99560989070E+03  0.43279245454E+04  0.42118513526E+04 0.  0.
        2    1    3    3  502    0  0.24213641562E+03 -0.24663986582E+03 -0.26324234885E+04  0.26550168907E+04  0.25500000920E-02 0.  1.
       -2    1    3    3    0  502 -0.24213641562E+03  0.24663986582E+03  0.16368135978E+04  0.16729076547E+04  0.25500000920E-02 0. -1.
</event>
<event>
 5   0  0.8528625E-08  0.3948820E+04  0.7818609E-02  0.8014951E-01
       -1   -1    0    0    0  501  0.00000000000E+00  0.00000000000E+00  0.16335809481E+04  0.16335809481E+04  0.50400001928E-02 0.  1.
        1   -1    0    0  501    0  0.00000000000E+00  0.00000000000E+00 -0.23863499341E+04  0.23863499341E+04  0.50400001928E-02 0. -1.
    10030    2    1    2    0    0  0.00000000000E+00  0.00000000000E+00 -0.75276898600E+03  0.40199308822E+04  0.39488204760E+04 0.  0.
        4    1    3    3  502    0 -0.65182896795E+03 -0.17562999617E+04 -0.10111707464E+04  0.21288349984E+04  0.12699999809E+01 0. -1.
       -4    1    3    3    0  502  0.65182896795E+03  0.17562999617E+04  0.25840176042E+03  0.18910958838E+04  0.12699999809E+01 0.  1.
</event>
<event>
 5   0  0.8583262E-08  0.3977527E+04  0.7818609E-02  0.8009096E-01
       -1   -1    0    0    0  501  0.00000000000E+00  0.00000000000E+00  0.16089994296E+04  0.16089994296E+04  0.50400001928E-02 0. -1.
        1   -1    0    0  501    0  0.00000000000E+00  0.00000000000E+00 -0.24581608041E+04  0.24581608041E+04  0.50400001928E-02 0.  1.
    10030    2    1    2    0    0  0.00000000000E+00  0.00000000000E+00 -0.84916137455E+03  0.40671602337E+04  0.39775265338E+04 0.  0.
        1    1    3    3  502    0  0.23300514587E+03 -0.51245427881E+03  0.15258304576E+04  0.16263638496E+04  0.50400001928E-02 0. -1.
       -1    1    3    3    0  502 -0.23300514587E+03  0.51245427881E+03 -0.23749918322E+04  0.24407963841E+04  0.50400001928E-02 0.  1.
</event>
<event>
 5   0  0.2730801E-07  0.4004441E+04  0.7818609E-02  0.8003651E-01
       -2   -1    0    0    0  501  0.00000000000E+00  0.00000000000E+00  0.17523449857E+04  0.17523449857E+04  0.25500000920E-02 0.  1.
        2   -1    0    0  501    0  0.00000000000E+00  0.00000000000E+00 -0.22877265050E+04  0.22877265050E+04  0.25500000920E-02 0. -1.
    10030    2    1    2    0    0  0.00000000000E+00  0.00000000000E+00 -0.53538151924E+03  0.40400714907E+04  0.40044405700E+04 0.  0.
        2    1    3    3  502    0  0.44965310436E+02  0.20009306036E+04 -0.21114826664E+03  0.20125428567E+04  0.25500000920E-02 0.  1.
       -2    1    3    3    0  502 -0.44965310436E+02 -0.20009306036E+04 -0.32423325260E+03  0.20275286340E+04  0.25500000920E-02 0. -1.
</event>
<event>
 5   0  0.2666978E-07  0.4026712E+04  0.7818609E-02  0.7999180E-01
       -2   -1    0    0    0  501  0.00000000000E+00  0.00000000000E+00  0.29787101294E+04  0.29787101294E+04  0.25500000920E-02 0. -1.
        2   -1    0    0  501    0  0.00000000000E+00  0.00000000000E+00 -0.13608581192E+04  0.13608581192E+04  0.25500000920E-02 0.  1.
    10030    2    1    2    0    0  0.00000000000E+00  0.00000000000E+00  0.16178520102E+04  0.43395682486E+04  0.40267117425E+04 0.  0.
        4    1    3    3  502    0  0.18864057171E+04  0.66245998995E+03  0.10644568139E+04  0.22650495998E+04  0.12699999809E+01 0.  1.
       -4    1    3    3    0  502 -0.18864057171E+04 -0.66245998995E+03  0.55339519625E+03  0.20745186488E+04  0.12699999809E+01 0. -1.
</event>
<event>
 5   0  0.8528625E-08  0.3993669E+04  0.7818609E-02  0.8005825E-01
       -1   -1    0    0    0  501  0.00000000000E+00  0.00000000000E+00  0.24731799798E+04  0.24731799798E+04  0.50400001928E-02 0.  1.
        1   -1    0    0  501    0  0.00000000000E+00  0.00000000000E+00 -0.16122354540E+04  0.16122354540E+04  0.50400001928E-02 0. -1.
    10030    2    1    2    0    0  0.00000000000E+00  0.00000000000E+00  0.86094452578E+03  0.40854154339E+04  0.39936692140E+04 0.  0.
        2    1    3    3  502    0  0.38309274160E+01  0.12304984795E+04 -0.11782993389E+04  0.17036814597E+04  0.25500000920E-02 0. -1.
       -2    1    3    3    0  502 -0.38309274160E+01 -0.12304984795E+04  0.20392438647E+04  0.23817339742E+04  0.25500000920E-02 0.  1.
</event>
<event>
 5   0  0.8583262E-08  0.4098779E+04  0.7818609E-02  0.7984911E-01
       -1   -1    0    0    0  501  0.00000000000E+00  0.00000000000E+00  0.30346034063E+04  0.30346034063E+04  0.50400001928E-02 0.  1.
        1   -1    0    0  501    0  0.00000000000E+00  0.00000000000E+00 -0.13840347309E+04  0.13840347309E+04  0.50400001928E-02 0. -1.
    10030    2    1    2    0    0  0.00000000000E+00  0.00000000000E+00  0.16505686755E+04  0.44186381372E+04  0.40987786029E+04 0.  0.
        1    1    3    3  502    0  0.11858441009E+04 -0.33684075846E+03 -0.93964114879E+03  0.15500365856E+04  0.50400001928E-02 0. -1.
       -1    1    3    3    0  502 -0.11858441009E+04  0.33684075846E+03  0.25902098243E+04  0.28686015516E+04  0.50400001928E-02 0.  1.
</event>
<event>
 5   0  0.8583262E-08  0.3998741E+04  0.7818609E-02  0.8004800E-01
        1   -1    0    0  501    0  0.00000000000E+00  0.00000000000E+00  0.26344042455E+04  0.26344042455E+04  0.50400001928E-02 0. -1.
       -1   -1    0    0    0  501  0.00000000000E+00  0.00000000000E+00 -0.15174145033E+04  0.15174145033E+04  0.50400001928E-02 0.  1.
    10030    2    1    2    0    0  0.00000000000E+00  0.00000000000E+00  0.11169897422E+04  0.41518187488E+04  0.39987414068E+04 0.  0.
        1    1    3    3  502    0 -0.18046965341E+04 -0.74380578020E+03  0.10078519580E+04  0.21968027194E+04  0.50400001928E-02 0. -1.
       -1    1    3    3    0  502  0.18046965341E+04  0.74380578020E+03  0.10913778425E+03  0.19550160293E+04  0.50400001928E-02 0.  1.
</event>
<event>
 5   0  0.2666978E-07  0.2868986E+04  0.7818609E-02  0.8282165E-01
       -2   -1    0    0    0  501  0.00000000000E+00  0.00000000000E+00  0.13128135468E+04  0.13128135468E+04  0.25500000920E-02 0. -1.
        2   -1    0    0  501    0  0.00000000000E+00  0.00000000000E+00 -0.15674508159E+04  0.15674508159E+04  0.25500000920E-02 0.  1.
    10030    2    1    2    0    0  0.00000000000E+00  0.00000000000E+00 -0.25463726909E+03  0.28802643628E+04  0.28689863473E+04 0.  0.
        4    1    3    3  502    0 -0.59694392352E+01 -0.11826867542E+04 -0.94228894094E+03  0.15121817529E+04  0.12699999809E+01 0.  1.
       -4    1    3    3    0  502  0.59694392352E+01  0.11826867542E+04  0.68765167184E+03  0.13680826099E+04  0.12699999809E+01 0. -1.
</event>
<event>
 5   0  0.8528625E-08  0.3085064E+04  0.7818609E-02  0.8219849E-01
        1   -1    0    0  501    0  0.00000000000E+00  0.00000000000E+00  0.12399897516E+04  0.12399897516E+04  0.50400001928E-02 0. -1.
       -1   -1    0    0    0  501  0.00000000000E+00  0.00000000000E+00 -0.19188913079E+04  0.19188913079E+04  0.50400001928E-02 0.  1.
    10030    2    1    2    0    0  0.00000000000E+00  0.00000000000E+00 -0.67890155631E+03  0.31588810595E+04  0.30850643793E+04 0.  0.
        3    1    3    3  502    0 -0.74459371426E+03 -0.14497633843E+03 -0.17147063400E+04  0.18750082082E+04  0.10100000352E+00 0.  1.
       -3    1    3    3    0  502  0.74459371426E+03  0.14497633843E+03  0.10358047837E+04  0.12838728513E+04  0.10100000352E+00 0. -1.
</event>
<event>
 5   0  0.8583262E-08  0.3988534E+04  0.7818609E-02  0.8006864E-01
       -1   -1    0    0    0  501  0.00000000000E+00  0.00000000000E+00  0.22725520562E+04  0.22725520562E+04  0.50400001928E-02 0.  1.
        1   -1    0    0  501    0  0.00000000000E+00  0.00000000000E+00 -0.17500589040E+04  0.17500589040E+04  0.50400001928E-02 0. -1.
    10030    2    1    2    0    0  0.00000000000E+00  0.00000000000E+00  0.52249315214E+03  0.40226109602E+04  0.39885335455E+04 0.  0.
        1    1    3    3  502    0  0.11773271453E+04  0.20846633825E+03 -0.13484925716E+04  0.18022179771E+04  0.50400001928E-02 0. -1.
       -1    1    3    3    0  502 -0.11773271453E+04 -0.20846633825E+03  0.18709857237E+04  0.22203929832E+04  0.50400001928E-02 0.  1.
</event>
<event>
 5   0  0.8583262E-08  0.4013945E+04  0.7818609E-02  0.8001739E-01
        1   -1    0    0  501    0  0.00000000000E+00  0.00000000000E+00  0.26320585819E+04  0.26320585819E+04  0.50400001928E-02 0.  1.
       -1   -1    0    0    0  501  0.00000000000E+00  0.00000000000E+00 -0.15303374245E+04  0.15303374245E+04  0.50400001928E-02 0. -1.
    10030    2    1    2    0    0  0.00000000000E+00  0.00000000000E+00  0.11017211573E+04  0.41623960064E+04  0.40139445693E+04 0.  0.
        1    1    3    3  502    0 -0.54849823729E+03 -0.19305139357E+04  0.56564912386E+03  0.20851123000E+04  0.50400001928E-02 0.  1.
       -1    1    3    3    0  502  0.54849823729E+03  0.19305139357E+04  0.53607203349E+03  0.20772837065E+04  0.50400001928E-02 0. -1.
</event>
<event>
 5   0  0.2666978E-07  0.4077682E+04  0.7818609E-02  0.7989056E-01
       -2   -1    0    0    0  501  0.00000000000E+00  0.00000000000E+00  0.27596531884E+04  0.27596531884E+04  0.25500000920E-02 0. -1.
        2   -1    0    0  501    0  0.00000000000E+00  0.00000000000E+00 -0.15063022279E+04  0.15063022279E+04  0.25500000920E-02 0.  1.
    10030    2    1    2    0    0  0.00000000000E+00  0.00000000000E+00  0.12533509605E+04  0.42659554163E+04  0.40776815696E+04 0.  0.
        4    1    3    3  502    0 -0.16199119481E+03  0.21788164390E+03  0.27406561948E+04  0.27540718126E+04  0.12699999809E+01 0. -1.
       -4    1    3    3    0  502  0.16199119481E+03 -0.21788164390E+03 -0.14873052343E+04  0.15118836036E+04  0.12699999809E+01 0.  1.
</event>
<event>
 5   0  0.2839279E-07  0.3876980E+04  0.7818609E-02  0.8029834E-01
       -2   -1    0    0    0  501  0.00000000000E+00  0.00000000000E+00  0.27368719672E+04  0.27368719672E+04  0.25500000920E-02 0.  1.
        2   -1    0    0  501    0  0.00000000000E+00  0.00000000000E+00 -0.13730069813E+04  0.13730069813E+04  0.25500000920E-02 0. -1.
    10030    2    1    2    0    0  0.00000000000E+00  0.00000000000E+00  0.13638649860E+04  0.41098789485E+04  0.38769804322E+04 0.  0.
        3    1    3    3  502    0 -0.12875325186E+04  0.10120746434E+04 -0.41753620740E+03  0.16900803428E+04  0.10100000352E+00 0. -1.
       -3    1    3    3    0  502  0.12875325186E+04 -0.10120746434E+04  0.17814011934E+04  0.24197986057E+04  0.10100000352E+00 0.  1.
</event>
<event>
 5   0  0.2704088E-07  0.3978971E+04  0.7818609E-02  0.8008802E-01
        2   -1    0    0  501    0  0.00000000000E+00  0.00000000000E+00  0.14043415843E+04  0.14043415843E+04  0.25500000920E-02 0.  1.
       -2   -1    0    0    0  501  0.00000000000E+00  0.00000000000E+00 -0.28184403501E+04  0.28184403501E+04  0.25500000920E-02 0. -1.
    10030    2    1    2    0    0  0.00000000000E+00  0.00000000000E+00 -0.14140987658E+04  0.42227819344E+04  0.39789712170E+04 0.  0.
        5    1    3    3  502    0  0.10994379893E+04 -0.83081487370E+03  0.81580181823E+03  0.16014280949E+04  0.46999998093E+01 0.  1.
       -5    1    3    3    0  502 -0.10994379893E+04  0.83081487370E+03 -0.22299005841E+04  0.26213538394E+04  0.46999998093E+01 0. -1.
</event>
<event>
 5   0  0.2839279E-07  0.4000021E+04  0.7818609E-02  0.8004542E-01
        2   -1    0    0  501    0  0.00000000000E+00  0.00000000000E+00  0.14997039266E+04  0.14997039266E+04  0.25500000920E-02 0. -1.
       -2   -1    0    0    0  501  0.00000000000E+00  0.00000000000E+00 -0.26672217519E+04  0.26672217519E+04  0.25500000920E-02 0.  1.
    10030    2    1    2    0    0  0.00000000000E+00  0.00000000000E+00 -0.11675178253E+04  0.41669256784E+04  0.40000214671E+04 0.  0.
        3    1    3    3  502    0 -0.37391894577E+03  0.96406736448E+03  0.11996324009E+04  0.15837800254E+04  0.10100000352E+00 0. -1.
       -3    1    3    3    0  502  0.37391894577E+03 -0.96406736448E+03 -0.23671502262E+04  0.25831456531E+04  0.10100000352E+00 0.  1.
</event>
<event>
 5   0  0.8528625E-08  0.4033305E+04  0.7818609E-02  0.7997861E-01
       -1   -1    0    0    0  501  0.00000000000E+00  0.00000000000E+00  0.16561569459E+04  0.16561569459E+04  0.50400001928E-02 0.  1.
        1   -1    0    0  501    0  0.00000000000E+00  0.00000000000E+00 -0.24556170084E+04  0.24556170084E+04  0.50400001928E-02 0. -1.
    10030    2    1    2    0    0  0.00000000000E+00  0.00000000000E+00 -0.79946006251E+03  0.41117739543E+04  0.40333049301E+04 0.  0.
        5    1    3    3  502    0  0.18033943602E+04 -0.78461381704E+03  0.55060166160E+02  0.19674612505E+04  0.46999998093E+01 0.  1.
       -5    1    3    3    0  502 -0.18033943602E+04  0.78461381704E+03 -0.85452022867E+03  0.21443127038E+04  0.46999998093E+01 0. -1.
</event>
<event>
 5   0  0.2704088E-07  0.4001697E+04  0.7818609E-02  0.8004204E-01
       -2   -1    0    0    0  501  0.00000000000E+00  0.00000000000E+00  0.25884822793E+04  0.25884822793E+04  0.25500000920E-02 0.  1.
        2   -1    0    0  501    0  0.00000000000E+00  0.00000000000E+00 -0.15466186407E+04  0.15466186407E+04  0.25500000920E-02 0. -1.
    10030    2    1    2    0    0  0.00000000000E+00  0.00000000000E+00  0.10418636386E+04  0.41351009199E+04  0.40016971121E+04 0.  0.
        5    1    3    3  502    0  0.14647830185E+04  0.12478700835E+04 -0.45619356582E+02  0.19248044712E+04  0.46999998093E+01 0. -1.
       -5    1    3    3    0  502 -0.14647830185E+04 -0.12478700835E+04  0.10874829952E+04  0.22102964488E+04  0.46999998093E+01 0.  1.
</event>
<event>
 5   0  0.2730801E-07  0.3925477E+04  0.7818609E-02  0.8019751E-01
       -2   -1    0    0    0  501  0.00000000000E+00  0.00000000000E+00  0.14605957690E+04  0.14605957690E+04  0.25500000920E-02 0.  1.
        2   -1    0    0  501    0  0.00000000000E+00  0.00000000000E+00 -0.26375150651E+04  0.26375150651E+04  0.25500000920E-02 0. -1.
    10030    2    1    2    0    0  0.00000000000E+00  0.00000000000E+00 -0.11769192961E+04  0.40981108341E+04  0.39254774714E+04 0.  0.
        2    1    3    3  502    0  0.88606170246E+02  0.12307217666E+04  0.10050402616E+04  0.15914248482E+04  0.25500000920E-02 0.  1.
       -2    1    3    3    0  502 -0.88606170246E+02 -0.12307217666E+04 -0.21819595577E+04  0.25066859858E+04  0.25500000920E-02 0. -1.
</event>
<event>
 5   0  0.2704088E-07  0.3980621E+04  0.7818609E-02  0.8008467E-01
        2   -1    0    0  501    0  0.00000000000E+00  0.00000000000E+00  0.13154707274E+04  0.13154707274E+04  0.25500000920E-02 0.  1.
       -2   -1    0    0    0  501  0.00000000000E+00  0.00000000000E+00 -0.30113449798E+04  0.30113449798E+04  0.25500000920E-02 0. -1.
    10030    2    1    2    0    0  0.00000000000E+00  0.00000000000E+00 -0.16958742524E+04  0.43268157072E+04  0.39806211429E+04 0.  0.
        5    1    3    3  502    0 -0.80920128258E+03  0.18136484379E+04 -0.70543743924E+03  0.21075557983E+04  0.46999998093E+01 0.  1.
       -5    1    3    3    0  502  0.80920128258E+03 -0.18136484379E+04 -0.99043681320E+03  0.22192599089E+04  0.46999998093E+01 0. -1.
</event>
<event>
 5   0  0.8583262E-08  0.4002431E+04  0.7818609E-02  0.8004056E-01
        1   -1    0    0  501    0  0.00000000000E+00  0.00000000000E+00  0.24365295265E+04  0.24365295265E+04  0.50400001928E-02 0.  1.
       -1   -1    0    0    0  501  0.00000000000E+00  0.00000000000E+00 -0.16436749277E+04  0.16436749277E+04  0.50400001928E-02 0. -1.
    10030    2    1    2    0    0  0.00000000000E+00  0.00000000000E+00  0.79285459879E+03  0.40802044542E+04  0.40024305083E+04 0.  0.
        1    1    3    3  502    0 -0.14882426820E+04  0.11683616342E+04 -0.26810400539E+03  0.19109722517E+04  0.50400001928E-02 0. -1.
       -1    1    3    3    0  502  0.14882426820E+04 -0.11683616342E+04  0.10609586042E+04  0.21692322026E+04  0.50400001928E-02 0.  1.
</event>
<event>
 5   0  0.2730801E-07  0.3978446E+04  0.7818609E-02  0.8008909E-01
       -2   -1    0    0    0  501  0.00000000000E+00  0.00000000000E+00  0.16695657579E+04  0.16695657579E+04  0.25500000920E-02 0. -1.
        2   -1    0    0  501    0  0.00000000000E+00  0.00000000000E+00 -0.23700823522E+04  0.23700823522E+04  0.25500000920E-02 0.  1.
    10030    2    1    2    0    0  0.00000000000E+00  0.00000000000E+00 -0.70051659433E+03  0.40396481101E+04  0.39784460980E+04 0.  0.
        2    1    3    3  502    0  0.12460132630E+04  0.10806390840E+04 -0.14794260193E+04  0.22156333695E+04  0.25500000920E-02 0.  1.
       -2    1    3    3    0  502 -0.12460132630E+04 -0.10806390840E+04  0.77890942501E+03  0.18240147406E+04  0.25500000920E-02 0. -1.
</event>
<event>
 5   0  0.8528625E-08  0.3994982E+04  0.7818609E-02  0.8005560E-01
        1   -1    0    0  501    0  0.00000000000E+00  0.00000000000E+00  0.22333863167E+04  0.22333863167E+04  0.50400001928E-02 0.  1.
       -1   -1    0    0    0  501  0.00000000000E+00  0.00000000000E+00 -0.17865117324E+04  0.17865117324E+04  0.50400001928E-02 0. -1.
    10030    2    1    2    0    0  0.00000000000E+00  0.00000000000E+00  0.44687458434E+03  0.40198980491E+04  0.39949822817E+04 0.  0.
        5    1    3    3  502    0 -0.34804747965E+03 -0.11760372064E+04 -0.13630213283E+04  0.18335893189E+04  0.46999998093E+01 0. -1.
       -5    1    3    3    0  502  0.34804747965E+03  0.11760372064E+04  0.18098959127E+04  0.21863087302E+04  0.46999998093E+01 0.  1.
</event>
<event>
 5   0  0.8528625E-08  0.3986412E+04  0.7818609E-02  0.8007293E-01
        1   -1    0    0  501    0  0.00000000000E+00  0.00000000000E+00  0.21334353362E+04  0.21334353362E+04  0.50400001928E-02 0.  1.
       -1   -1    0    0    0  501  0.00000000000E+00  0.00000000000E+00 -0.18621940833E+04  0.18621940833E+04  0.50400001928E-02 0. -1.
    10030    2    1    2    0    0  0.00000000000E+00  0.00000000000E+00  0.27124125292E+03  0.39956294195E+04  0.39864122517E+04 0.  0.
        3    1    3    3  502    0 -0.17262104163E+04  0.50109497049E+03 -0.72774901725E+03  0.19392053045E+04  0.10100000352E+00 0. -1.
       -3    1    3    3    0  502  0.17262104163E+04 -0.50109497049E+03  0.99899027017E+03  0.20564241150E+04  0.10100000352E+00 0.  1.
</event>
<event>
 5   0  0.2666978E-07  0.3966169E+04  0.7818609E-02  0.8011406E-01
        2   -1    0    0  501    0  0.00000000000E+00  0.00000000000E+00  0.21051835129E+04  0.21051835129E+04  0.25500000920E-02 0. -1.
       -2   -1    0    0    0  501  0.00000000000E+00  0.00000000000E+00 -0.18680669067E+04  0.18680669067E+04  0.25500000920E-02 0.  1.
    10030    2    1    2    0    0  0.00000000000E+00  0.00000000000E+00  0.23711660614E+03  0.39732504196E+04  0.39661687574E+04 0.  0.
        4    1    3    3  502    0 -0.88275868421E+03 -0.57256909554E+03 -0.15653724635E+04  0.18861311794E+04  0.12699999809E+01 0.  1.
       -4    1    3    3    0  502  0.88275868421E+03  0.57256909554E+03  0.18024890696E+04  0.20871192402E+04  0.12699999809E+01 0. -1.
</event>
<event>
 5   0  0.8528625E-08  0.3984978E+04  0.7818609E-02  0.8007584E-01
       -1   -1    0    0    0  501  0.00000000000E+00  0.00000000000E+00  0.14429108044E+04  0.14429108044E+04  0.50400001928E-02 0. -1.
        1   -1    0    0  501    0  0.00000000000E+00  0.00000000000E+00 -0.27513908980E+04  0.27513908980E+04  0.50400001928E-02 0.  1.
    10030    2    1    2    0    0  0.00000000000E+00  0.00000000000E+00 -0.13084800936E+04  0.41943017024E+04  0.39849776179E+04 0.  0.
        5    1    3    3  502    0  0.14625637351E+04 -0.10171980545E+04  0.28493432096E+03  0.18041602530E+04  0.46999998093E+01 0. -1.
       -5    1    3    3    0  502 -0.14625637351E+04  0.10171980545E+04 -0.15934144146E+04  0.23901414494E+04  0.46999998093E+01 0.  1.
</event>
<event>
 5   0  0.8583262E-08  0.4000489E+04  0.7818609E-02  0.8004448E-01
       -1   -1    0    0    0  501  0.00000000000E+00  0.00000000000E+00  0.24057012731E+04  0.24057012731E+04  0.50400001928E-02 0.  1.
        1   -1    0    0  501    0  0.00000000000E+00  0.00000000000E+00 -0.16631232158E+04  0.16631232158E+04  0.50400001928E-02 0. -1.
    10030    2    1    2    0    0  0.00000000000E+00  0.00000000000E+00  0.74257805727E+03  0.40688244890E+04  0.40004887890E+04 0.  0.
        1    1    3    3  502    0  0.15819061120E+04 -0.14467205684E+03 -0.86504943375E+03  0.18087751309E+04  0.50400001928E-02 0. -1.
       -1    1    3    3    0  502 -0.15819061120E+04  0.14467205684E+03  0.16076274910E+04  0.22600493581E+04  0.50400001928E-02 0.  1.
</event>
<event>
 5   0  0.8528625E-08  0.3960707E+04  0.7818609E-02  0.8012520E-01
       -1   -1    0    0    0  501  0.00000000000E+00  0.00000000000E+00  0.28165760677E+04  0.28165760677E+04  0.50400001928E-02 0.  1.
        1   -1    0    0  501    0  0.00000000000E+00  0.00000000000E+00 -0.13924001520E+04  0.13924001520E+04  0.50400001928E-02 0. -1.
    10030    2    1    2    0    0  0.00000000000E+00  0.00000000000E+00  0.14241759157E+04  0.42089762197E+04  0.39607074847E+04 0.  0.
        5    1    3    3  502    0  0.18962284350E+04 -0.55699943830E+03  0.57830718020E+03  0.20592211966E+04  0.46999998093E+01 0. -1.
       -5    1    3    3    0  502 -0.18962284350E+04  0.55699943830E+03  0.84586873548E+03  0.21497550231E+04  0.46999998093E+01 0.  1.
</event>
<event>
 5   0  0.2704088E-07  0.3892310E+04  0.7818609E-02  0.8026630E-01
        2   -1    0    0  501    0  0.00000000000E+00  0.00000000000E+00  0.17708994485E+04  0.17708994485E+04  0.25500000920E-02 0.  1.
       -2   -1    0    0    0  501  0.00000000000E+00  0.00000000000E+00 -0.21387546896E+04  0.21387546896E+04  0.25500000920E-02 0. -1.
    10030    2    1    2    0    0  0.00000000000E+00  0.00000000000E+00 -0.36785524102E+03  0.39096541381E+04  0.38923101111E+04 0.  0.
        5    1    3    3  502    0 -0.26935145648E+03  0.16673811898E+04 -0.11550797733E+04  0.20462017525E+04  0.46999998093E+01 0. -1.
       -5    1    3    3    0  502  0.26935145648E+03 -0.16673811898E+04  0.78722453226E+03  0.18634523856E+04  0.46999998093E+01 0.  1.
</event>
<event>
 5   0  0.8583262E-08  0.4021277E+04  0.7818609E-02  0.8000268E-01
       -1   -1    0    0    0  501  0.00000000000E+00  0.00000000000E+00  0.15277178620E+04  0.15277178620E+04  0.50400001928E-02 0. -1.
        1   -1    0    0  501    0  0.00000000000E+00  0.00000000000E+00 -0.26462126382E+04  0.26462126382E+04  0.50400001928E-02 0.  1.
    10030    2    1    2    0    0  0.00000000000E+00  0.00000000000E+00 -0.11184947761E+04  0.41739305002E+04  0.40212765705E+04 0.  0.
        1    1    3    3  502    0 -0.19237234114E+04  0.41335773672E+03 -0.12991515379E+03  0.19719164104E+04  0.50400001928E-02 0. -1.
       -1    1    3    3    0  502  0.19237234114E+04 -0.41335773672E+03 -0.98857962234E+03  0.22020140899E+04  0.50400001928E-02 0.  1.
</event>
<event>
 5   0  0.2704088E-07  0.3105055E+04  0.7818609E-02  0.8214352E-01
       -2   -1    0    0    0  501  0.00000000000E+00  0.00000000000E+00  0.96910612809E+03  0.96910612810E+03  0.25500000920E-02 0.  1.
        2   -1    0    0  501    0  0.00000000000E+00  0.00000000000E+00 -0.24871807979E+04  0.24871807979E+04  0.25500000920E-02 0. -1.
    10030    2    1    2    0    0  0.00000000000E+00  0.00000000000E+00 -0.15180746698E+04  0.34562869260E+04  0.31050553315E+04 0.  0.
        5    1    3    3  502    0 -0.68127777769E+03  0.12911993995E+04 -0.13469741931E+04  0.19863778258E+04  0.46999998093E+01 0. -1.
       -5    1    3    3    0  502  0.68127777769E+03 -0.12911993995E+04 -0.17110047667E+03  0.14699091002E+04  0.46999998093E+01 0.  1.
</event>
<event>
 5   0  0.8528625E-08  0.4024803E+04  0.7818609E-02  0.7999562E-01
       -1   -1    0    0    0  501  0.00000000000E+00  0.00000000000E+00  0.13278943164E+04  0.13278943164E+04  0.50400001928E-02 0.  1.
        1   -1    0    0  501    0  0.00000000000E+00  0.00000000000E+00 -0.30497611037E+04  0.30497611037E+04  0.50400001928E-02 0. -1.
    10030    2    1    2    0    0  0.00000000000E+00  0.00000000000E+00 -0.17218667873E+04  0.43776554200E+04  0.40248033174E+04 0.  0.
        5    1    3    3  502    0 -0.23143219324E+03  0.50825788490E+03  0.12419148299E+04  0.13617126981E+04  0.46999998093E+01 0.  1.
       -5    1    3    3    0  502  0.23143219324E+03 -0.50825788490E+03 -0.29637816171E+04  0.30159427219E+04  0.46999998093E+01 0. -1.
</event>
<event>
 5   0  0.2666978E-07  0.4002792E+04  0.7818609E-02  0.8003984E-01
        2   -1    0    0  501    0  0.00000000000E+00  0.00000000000E+00  0.16039347981E+04  0.16039347981E+04  0.25500000920E-02 0.  1.
       -2   -1    0    0    0  501  0.00000000000E+00  0.00000000000E+00 -0.24973497738E+04  0.24973497738E+04  0.25500000920E-02 0. -1.
    10030    2    1    2    0    0  0.00000000000E+00  0.00000000000E+00 -0.89341497565E+03  0.41012845719E+04  0.40027921281E+04 0.  0.
        4    1    3    3  502    0  0.18107086602E+04  0.75105671073E+03 -0.86016176516E+03  0.21407082730E+04  0.12699999809E+01 0.  1.
       -4    1    3    3    0  502 -0.18107086602E+04 -0.75105671073E+03 -0.33253210493E+02  0.19605762989E+04  0.12699999809E+01 0. -1.
</event>
<event>
 5   0  0.8528625E-08  0.3904604E+04  0.7818609E-02  0.8024072E-01
       -1   -1    0    0    0  501  0.00000000000E+00  0.00000000000E+00  0.17800123136E+04  0.17800123136E+04  0.50400001928E-02 0. -1.
        1   -1    0    0  501    0  0.00000000000E+00  0.00000000000E+00 -0.21412678980E+04  0.21412678980E+04  0.50400001928E-02 0.  1.
    10030    2    1    2    0    0  0.00000000000E+00  0.00000000000E+00 -0.36125558444E+03  0.39212802116E+04  0.39046040645E+04 0.  0.
        4    1    3    3  502    0  0.71357204534E+03  0.63209594586E+03  0.15303949700E+04  0.18030087980E+04  0.12699999809E+01 0. -1.
       -4    1    3    3    0  502 -0.71357204534E+03 -0.63209594586E+03 -0.18916505544E+04  0.21182714136E+04  0.12699999809E+01 0.  1.
</event>
<event>
 5   0  0.8528625E-08  0.4044040E+04  0.7818609E-02  0.7995721E-01
        1   -1    0    0  501    0  0.00000000000E+00  0.00000000000E+00  0.12519664815E+04  0.12519664815E+04  0.50400001928E-02 0.  1.
       -1   -1    0    0    0  501  0.00000000000E+00  0.00000000000E+00 -0.32657136253E+04  0.32657136253E+04  0.50400001928E-02 0. -1.
    10030    2    1    2    0    0  0.00000000000E+00  0.00000000000E+00 -0.20137471437E+04  0.45176801068E+04  0.40440395632E+04 0.  0.
        2    1    3    3  502    0 -0.11246554068E+04  0.17065217758E+03  0.86062074731E+03  0.14264080834E+04  0.25500000920E-02 0.  1.
       -2    1    3    3    0  502  0.11246554068E+04 -0.17065217758E+03 -0.28743678911E+04  0.30912720234E+04  0.25500000920E-02 0. -1.
</event>
<event>
 5   0  0.8528625E-08  0.4001764E+04  0.7818609E-02  0.8004191E-01
       -1   -1    0    0    0  501  0.00000000000E+00  0.00000000000E+00  0.28620300729E+04  0.28620300729E+04  0.50400001928E-02 0.  1.
        1   -1    0    0  501    0  0.00000000000E+00  0.00000000000E+00 -0.13988423250E+04  0.13988423250E+04  0.50400001928E-02 0. -1.
    10030    2    1    2    0    0  0.00000000000E+00  0.00000000000E+00  0.14631877478E+04  0.42608723979E+04  0.40017640118E+04 0.  0.
        3    1    3    3  502    0  0.50452130470E+03  0.16606401181E+04  0.17916800251E+04  0.24944708198E+04  0.10100000352E+00 0.  1.
       -3    1    3    3    0  502 -0.50452130470E+03 -0.16606401181E+04 -0.32849227726E+03  0.17664015781E+04  0.10100000352E+00 0. -1.
</event>
<event>
 5   0  0.2839279E-07  0.3828830E+04  0.7818609E-02  0.8039996E-01
        2   -1    0    0  501    0  0.00000000000E+00  0.00000000000E+00  0.27884287124E+04  0.27884287124E+04  0.25500000920E-02 0.  1.
       -2   -1    0    0    0  501  0.00000000000E+00  0.00000000000E+00 -0.13143549502E+04  0.13143549502E+04  0.25500000920E-02 0. -1.
    10030    2    1    2    0    0  0.00000000000E+00  0.00000000000E+00  0.14740737622E+04  0.41027836626E+04  0.38288301510E+04 0.  0.
        3    1    3    3  502    0 -0.59722902935E+03  0.80238810533E+03 -0.10120783167E+04  0.14229587887E+04  0.10100000352E+00 0. -1.
       -3    1    3    3    0  502  0.59722902935E+03 -0.80238810533E+03  0.24861520789E+04  0.26798248739E+04  0.10100000352E+00 0.  1.
</event>
<event>
 5   0  0.8528625E-08  0.3516298E+04  0.7818609E-02  0.8109938E-01
        1   -1    0    0  501    0  0.00000000000E+00  0.00000000000E+00  0.20070444123E+04  0.20070444123E+04  0.50400001928E-02 0.  1.
       -1   -1    0    0    0  501  0.00000000000E+00  0.00000000000E+00 -0.15401197159E+04  0.15401197159E+04  0.50400001928E-02 0. -1.
    10030    2    1    2    0    0  0.00000000000E+00  0.00000000000E+00  0.46692469642E+03  0.35471641282E+04  0.35162984345E+04 0.  0.
        2    1    3    3  502    0  0.66641073444E+03  0.23096610807E+03  0.18580771631E+04  0.19874353711E+04  0.25500000920E-02 0.  1.
       -2    1    3    3    0  502 -0.66641073444E+03 -0.23096610807E+03 -0.13911524667E+04  0.15597287571E+04  0.25500000920E-02 0. -1.
</event>
<event>
 5   0  0.8528625E-08  0.3619275E+04  0.7818609E-02  0.8086091E-01
        1   -1    0    0  501    0  0.00000000000E+00  0.00000000000E+00  0.25109245695E+04  0.25109245695E+04  0.50400001928E-02 0.  1.
       -1   -1    0    0    0  501  0.00000000000E+00  0.00000000000E+00 -0.13042158509E+04  0.13042158509E+04  0.50400001928E-02 0. -1.
    10030    2    1    2    0    0  0.00000000000E+00  0.00000000000E+00  0.12067087186E+04  0.38151404204E+04  0.36192748577E+04 0.  0.
        2    1    3    3  502    0  0.17253167593E+04 -0.48331989697E+03  0.87100797962E+03  0.19922276334E+04  0.25500000920E-02 0. -1.
       -2    1    3    3    0  502 -0.17253167593E+04  0.48331989697E+03  0.33570073901E+03  0.18229127870E+04  0.25500000920E-02 0.  1.
</event>
<event>
 5   0  0.2704088E-07  0.4040610E+04  0.7818609E-02  0.7996404E-01
        2   -1    0    0  501    0  0.00000000000E+00  0.00000000000E+00  0.30961948012E+04  0.30961948012E+04  0.25500000920E-02 0.  1.
       -2   -1    0    0    0  501  0.00000000000E+00  0.00000000000E+00 -0.13182737393E+04  0.13182737393E+04  0.25500000920E-02 0. -1.
    10030    2    1    2    0    0  0.00000000000E+00  0.00000000000E+00  0.17779210620E+04  0.44144685405E+04  0.40406100026E+04 0.  0.
        5    1    3    3  502    0 -0.74175231643E+03  0.98186209588E+03 -0.86159109027E+03  0.15022020407E+04  0.46999998093E+01 0. -1.
       -5    1    3    3    0  502  0.74175231643E+03 -0.98186209588E+03  0.26395121522E+04  0.29122664998E+04  0.46999998093E+01 0.  1.
</event>
<event>
 5   0  0.2666978E-07  0.3001741E+04  0.7818609E-02  0.8243234E-01
       -2   -1    0    0    0  501  0.00000000000E+00  0.00000000000E+00  0.20597235157E+04  0.20597235157E+04  0.25500000920E-02 0.  1.
        2   -1    0    0  501    0  0.00000000000E+00  0.00000000000E+00 -0.10936481104E+04  0.10936481104E+04  0.25500000920E-02 0. -1.
    10030    2    1    2    0    0  0.00000000000E+00  0.00000000000E+00  0.96607540531E+03  0.31533716261E+04  0.30017413152E+04 0.  0.
        4    1    3    3  502    0  0.13649099337E+04  0.47614067208E+03  0.59012346643E+02  0.14467802655E+04  0.12699999809E+01 0. -1.
       -4    1    3    3    0  502 -0.13649099337E+04 -0.47614067208E+03  0.90706305866E+03  0.17065913606E+04  0.12699999809E+01 0.  1.
</event>
<event>
 5   0  0.8528625E-08  0.3862365E+04  0.7818609E-02  0.8032902E-01
       -1   -1    0    0    0  501  0.00000000000E+00  0.00000000000E+00  0.15280736280E+04  0.15280736280E+04  0.50400001928E-02 0.  1.
        1   -1    0    0  501    0  0.00000000000E+00  0.00000000000E+00 -0.24406317337E+04  0.24406317337E+04  0.50400001928E-02 0. -1.
    10030    2    1    2    0    0  0.00000000000E+00  0.00000000000E+00 -0.91255810569E+03  0.39687053617E+04  0.38623645545E+04 0.  0.
        2    1    3    3  502    0  0.10224536239E+04 -0.47795992200E+03 -0.20664615627E+04  0.23545956108E+04  0.25500000920E-02 0. -1.
       -2    1    3    3    0  502 -0.10224536239E+04  0.47795992200E+03  0.11539034570E+04  0.16141097510E+04  0.25500000920E-02 0.  1.
</event>
<event>
 5   0  0.8528625E-08  0.3998512E+04  0.7818609E-02  0.8004847E-01
       -1   -1    0    0    0  501  0.00000000000E+00  0.00000000000E+00  0.13106823721E+04  0.13106823721E+04  0.50400001928E-02 0.  1.
        1   -1    0    0  501    0  0.00000000000E+00  0.00000000000E+00 -0.30495751454E+04  0.30495751454E+04  0.50400001928E-02 0. -1.
    10030    2    1    2    0    0  0.00000000000E+00  0.00000000000E+00 -0.17388927733E+04  0.43602575175E+04  0.39985119159E+04 0.  0.
        3    1    3    3  502    0  0.52838386093E+03 -0.83401937434E+01  0.12331442711E+04  0.13416049593E+04  0.10100000352E+00 0.  1.
       -3    1    3    3    0  502 -0.52838386093E+03  0.83401937434E+01 -0.29720370444E+04  0.30186525581E+04  0.10100000352E+00 0. -1.
</event>
<event>
 5   0  0.8528625E-08  0.4021446E+04  0.7818609E-02  0.8000234E-01
        1   -1    0    0  501    0  0.00000000000E+00  0.00000000000E+00  0.17515766113E+04  0.17515766113E+04  0.50400001928E-02 0.  1.
       -1   -1    0    0    0  501  0.00000000000E+00  0.00000000000E+00 -0.23082102739E+04  0.23082102739E+04  0.50400001928E-02 0. -1.
    10030    2    1    2    0    0  0.00000000000E+00  0.00000000000E+00 -0.55663366268E+03  0.40597868852E+04  0.40214460731E+04 0.  0.
        5    1    3    3  502    0  0.60894905992E+03  0.14557764462E+04  0.97971050456E+03  0.18574064664E+04  0.46999998093E+01 0.  1.
       -5    1    3    3    0  502 -0.60894905992E+03 -0.14557764462E+04 -0.15363441672E+04  0.22023804188E+04  0.46999998093E+01 0. -1.
</event>
<event>
 5   0  0.2730801E-07  0.4009631E+04  0.7818609E-02  0.8002606E-01
       -2   -1    0    0    0  501  0.00000000000E+00  0.00000000000E+00  0.18434482131E+04  0.18434482131E+04  0.25500000920E-02 0. -1.
        2   -1    0    0  501    0  0.00000000000E+00  0.00000000000E+00 -0.21803083903E+04  0.21803083903E+04  0.25500000920E-02 0.  1.
    10030    2    1    2    0    0  0.00000000000E+00  0.00000000000E+00 -0.33686017723E+03  0.40237566034E+04  0.40096312080E+04 0.  0.
        2    1    3    3  502    0 -0.90731949888E+03 -0.17353892483E+04 -0.59945582309E+03  0.20479628415E+04  0.25500000920E-02 0.  1.
       -2    1    3    3    0  502  0.90731949888E+03  0.17353892483E+04  0.26259564587E+03  0.19757937619E+04  0.25500000920E-02 0. -1.
</event>
<event>
 5   0  0.8583262E-08  0.4062296E+04  0.7818609E-02  0.7992096E-01
        1   -1    0    0  501    0  0.00000000000E+00  0.00000000000E+00  0.22731070681E+04  0.22731070681E+04  0.50400001928E-02 0. -1.
       -1   -1    0    0    0  501  0.00000000000E+00  0.00000000000E+00 -0.18149436575E+04  0.18149436576E+04  0.50400001928E-02 0.  1.
    10030    2    1    2    0    0  0.00000000000E+00  0.00000000000E+00  0.45816341059E+03  0.40880507257E+04  0.40622955364E+04 0.  0.
        1    1    3    3  502    0 -0.12695399144E+04 -0.10809025286E+04 -0.93822044219E+03  0.19132013665E+04  0.50400001928E-02 0.  1.
       -1    1    3    3    0  502  0.12695399144E+04  0.10809025286E+04  0.13963838528E+04  0.21748493592E+04  0.50400001928E-02 0. -1.
</event>
<event>
 5   0  0.2704088E-07  0.4013187E+04  0.7818609E-02  0.8001892E-01
       -2   -1    0    0    0  501  0.00000000000E+00  0.00000000000E+00  0.19107660826E+04  0.19107660826E+04  0.25500000920E-02 0. -1.
        2   -1    0    0  501    0  0.00000000000E+00  0.00000000000E+00 -0.21072263523E+04  0.21072263523E+04  0.25500000920E-02 0.  1.
    10030    2    1    2    0    0  0.00000000000E+00  0.00000000000E+00 -0.19646026978E+03  0.40179924349E+04  0.40131865854E+04 0.  0.
        5    1    3    3  502    0 -0.12003255468E+03 -0.83247163691E+03  0.17257576721E+04  0.19198120932E+04  0.46999998093E+01 0. -1.
       -5    1    3    3    0  502  0.12003255468E+03  0.83247163691E+03 -0.19222179418E+04  0.20981803417E+04  0.46999998093E+01 0.  1.
</event>
<event>
 5   0  0.8528625E-08  0.3610924E+04  0.7818609E-02  0.8087994E-01
       -1   -1    0    0    0  501  0.00000000000E+00  0.00000000000E+00  0.21482945755E+04  0.21482945755E+04  0.50400001928E-02 0.  1.
        1   -1    0    0  501    0  0.00000000000E+00  0.00000000000E+00 -0.15173400623E+04  0.15173400623E+04  0.50400001928E-02 0. -1.
    10030    2    1    2    0    0  0.00000000000E+00  0.00000000000E+00  0.63095451322E+03  0.36656346378E+04  0.36109242169E+04 0.  0.
        3    1    3    3  502    0  0.89732219938E+02  0.52809123800E+03 -0.14348159730E+04  0.15315446822E+04  0.10100000352E+00 0. -1.
       -3    1    3    3    0  502 -0.89732219938E+02 -0.52809123800E+03  0.20657704862E+04  0.21340899556E+04  0.10100000352E+00 0.  1.
</event>
<event>
 5   0  0.2730801E-07  0.2926768E+04  0.7818609E-02  0.8264958E-01
        2   -1    0    0  501    0  0.00000000000E+00  0.00000000000E+00  0.20742205788E+04  0.20742205788E+04  0.25500000920E-02 0. -1.
       -2   -1    0    0    0  501  0.00000000000E+00  0.00000000000E+00 -0.10324323562E+04  0.10324323563E+04  0.25500000920E-02 0.  1.
    10030    2    1    2    0    0  0.00000000000E+00  0.00000000000E+00  0.10417882225E+04  0.31066529351E+04  0.29267678005E+04 0.  0.
        2    1    3    3  502    0  0.10932383522E+04 -0.60652152585E+03  0.13282014079E+04  0.18240497350E+04  0.25500000920E-02 0. -1.
       -2    1    3    3    0  502 -0.10932383522E+04  0.60652152585E+03 -0.28641318532E+03  0.12826032000E+04  0.25500000920E-02 0.  1.
</event>
<event>
 5   0  0.2704088E-07  0.3622960E+04  0.7818609E-02  0.8085253E-01
        2   -1    0    0  501    0  0.00000000000E+00  0.00000000000E+00  0.19740613353E+04  0.19740613353E+04  0.25500000920E-02 0. -1.
       -2   -1    0    0    0  501  0.00000000000E+00  0.00000000000E+00 -0.16622887782E+04  0.16622887782E+04  0.25500000920E-02 0.  1.
    10030    2    1    2    0    0  0.00000000000E+00  0.00000000000E+00  0.31177255717E+03  0.36363501135E+04  0.36229601186E+04 0.  0.
        5    1    3    3  502    0  0.40093317417E+03  0.16465781546E+03  0.19212438914E+04  0.19695328854E+04  0.46999998093E+01 0. -1.
       -5    1    3    3    0  502 -0.40093317417E+03 -0.16465781546E+03 -0.16094713342E+04  0.16668172282E+04  0.46999998093E+01 0.  1.
</event>
<event>
 5   0  0.8583262E-08  0.3887169E+04  0.7818609E-02  0.8027703E-01
       -1   -1    0    0    0  501  0.00000000000E+00  0.00000000000E+00  0.20343042430E+04  0.20343042430E+04  0.50400001928E-02 0. -1.
        1   -1    0    0  501    0  0.00000000000E+00  0.00000000000E+00 -0.18569106303E+04  0.18569106303E+04  0.50400001928E-02 0.  1.
    10030    2    1    2    0    0  0.00000000000E+00  0.00000000000E+00  0.17739361269E+03  0.38912148734E+04  0.38871692396E+04 0.  0.
        1    1    3    3  502    0  0.19377347336E+04  0.21993261701E+02 -0.60527359483E+02  0.19388045706E+04  0.50400001928E-02 0.  1.
       -1    1    3    3    0  502 -0.19377347336E+04 -0.21993261701E+02  0.23792097218E+03  0.19524103028E+04  0.50400001928E-02 0. -1.
</event>
<event>
 5   0  0.8528625E-08  0.3998741E+04  0.7818609E-02  0.8004801E-01
       -1   -1    0    0    0  501  0.00000000000E+00  0.00000000000E+00  0.18168550181E+04  0.18168550181E+04  0.50400001928E-02 0. -1.
        1   -1    0    0  501    0  0.00000000000E+00  0.00000000000E+00 -0.22002209284E+04  0.22002209284E+04  0.50400001928E-02 0.  1.
    10030    2    1    2    0    0  0.00000000000E+00  0.00000000000E+00 -0.38336591036E+03  0.40170759465E+04  0.39987410192E+04 0.  0.
        4    1    3    3  502    0 -0.38283538271E+03  0.42683113401E+03 -0.21158590832E+04  0.21921699341E+04  0.12699999809E+01 0.  1.
       -4    1    3    3    0  502  0.38283538271E+03 -0.42683113401E+03  0.17324931728E+04  0.18249060124E+04  0.12699999809E+01 0. -1.
</event>
<event>
 5   0  0.2839279E-07  0.3507261E+04  0.7818609E-02  0.8112071E-01
       -2   -1    0    0    0  501  0.00000000000E+00  0.00000000000E+00  0.21873053500E+04  0.21873053500E+04  0.25500000920E-02 0.  1.
        2   -1    0    0  501    0  0.00000000000E+00  0.00000000000E+00 -0.14059397512E+04  0.14059397512E+04  0.25500000920E-02 0. -1.
    10030    2    1    2    0    0  0.00000000000E+00  0.00000000000E+00  0.78136559873E+03  0.35932451012E+04  0.35072607771E+04 0.  0.
        3    1    3    3  502    0  0.60097763252E+03 -0.15144878953E+04  0.10549389527E+04  0.19410677227E+04  0.10100000352E+00 0.  1.
       -3    1    3    3    0  502 -0.60097763252E+03  0.15144878953E+04 -0.27357335400E+03  0.16521773785E+04  0.10100000352E+00 0. -1.
</event>
<event>
 5   0  0.8528625E-08  0.3902075E+04  0.7818609E-02  0.8024598E-01
       -1   -1    0    0    0  501  0.00000000000E+00  0.00000000000E+00  0.21032364344E+04  0.21032364344E+04  0.50400001928E-02 0.  1.
        1   -1    0    0  501    0  0.00000000000E+00  0.00000000000E+00 -0.18098522845E+04  0.18098522845E+04  0.50400001928E-02 0. -1.
    10030    2    1    2    0    0  0.00000000000E+00  0.00000000000E+00  0.29338414984E+03  0.39130887189E+04  0.39020749688E+04 0.  0.
        5    1    3    3  502    0 -0.55892481070E+03 -0.12830397013E+02 -0.17277985571E+04  0.18160042695E+04  0.46999998093E+01 0. -1.
       -5    1    3    3    0  502  0.55892481070E+03  0.12830397013E+02  0.20211827069E+04  0.20970844494E+04  0.46999998093E+01 0.  1.
</event>
<event>
 5   0  0.2661693E-07  0.3902107E+04  0.7818609E-02  0.8024591E-01
        2   -1    0    0  501    0  0.00000000000E+00  0.00000000000E+00  0.14506586020E+04  0.14506586020E+04  0.25500000920E-02 0.  1.
       -2   -1    0    0    0  501  0.00000000000E+00  0.00000000000E+00 -0.26240556912E+04  0.26240556912E+04  0.25500000920E-02 0. -1.
    10030    2    1    2    0    0  0.00000000000E+00  0.00000000000E+00 -0.11733970892E+04  0.40747142932E+04  0.39021065903E+04 0.  0.
        1    1    3    3  502    0 -0.36731975303E+02 -0.11861849672E+04 -0.22038213149E+04  0.25030406314E+04  0.50400001928E-02 0. -1.
       -1    1    3    3    0  502  0.36731975303E+02  0.11861849672E+04  0.10304242257E+04  0.15716736618E+04  0.50400001928E-02 0.  1.
</event>
<event>
 5   0  0.8583262E-08  0.3958856E+04  0.7818609E-02  0.8012898E-01
       -1   -1    0    0    0  501  0.00000000000E+00  0.00000000000E+00  0.13330084819E+04  0.13330084819E+04  0.50400001928E-02 0.  1.
        1   -1    0    0  501    0  0.00000000000E+00  0.00000000000E+00 -0.29393177503E+04  0.29393177503E+04  0.50400001928E-02 0. -1.
    10030    2    1    2    0    0  0.00000000000E+00  0.00000000000E+00 -0.16063092683E+04  0.42723262322E+04  0.39588561440E+04 0.  0.
        1    1    3    3  502    0  0.14632907113E+04  0.13301235365E+03 -0.22345354620E+04  0.26743336970E+04  0.50400001928E-02 0. -1.
       -1    1    3    3    0  502 -0.14632907113E+04 -0.13301235365E+03  0.62822619364E+03  0.15979925352E+04  0.50400001928E-02 0.  1.
</event>
<event>
 5   0  0.2730801E-07  0.3984258E+04  0.7818609E-02  0.8007730E-01
       -2   -1    0    0    0  501  0.00000000000E+00  0.00000000000E+00  0.16131425241E+04  0.16131425241E+04  0.25500000920E-02 0. -1.
        2   -1    0    0  501    0  0.00000000000E+00  0.00000000000E+00 -0.24601529129E+04  0.24601529130E+04  0.25500000920E-02 0.  1.
    10030    2    1    2    0    0  0.00000000000E+00  0.00000000000E+00 -0.84701038888E+03  0.40732954370E+04  0.39842576621E+04 0.  0.
        2    1    3    3  502    0  0.34009873617E+02  0.92847026637E+03  0.13780796564E+04  0.16620220355E+04  0.25500000920E-02 0. -1.
       -2    1    3    3    0  502 -0.34009873617E+02 -0.92847026637E+03 -0.22250900453E+04  0.24112734015E+04  0.25500000920E-02 0.  1.
</event>
<event>
 5   0  0.8528625E-08  0.4072651E+04  0.7818609E-02  0.7990049E-01
        1   -1    0    0  501    0  0.00000000000E+00  0.00000000000E+00  0.25115424185E+04  0.25115424185E+04  0.50400001928E-02 0. -1.
       -1   -1    0    0    0  501  0.00000000000E+00  0.00000000000E+00 -0.16510261163E+04  0.16510261163E+04  0.50400001928E-02 0.  1.
    10030    2    1    2    0    0  0.00000000000E+00  0.00000000000E+00  0.86051630222E+03  0.41625685347E+04  0.40726512863E+04 0.  0.
        3    1    3    3  502    0  0.11175850364E+04  0.16908847342E+04  0.22962176697E+03  0.20398072615E+04  0.10100000352E+00 0.  1.
       -3    1    3    3    0  502 -0.11175850364E+04 -0.16908847342E+04  0.63089453525E+03  0.21227612732E+04  0.10100000352E+00 0. -1.
</event>
<event>
 5   0  0.2666978E-07  0.3998442E+04  0.7818609E-02  0.8004861E-01
        2   -1    0    0  501    0  0.00000000000E+00  0.00000000000E+00  0.14123819030E+04  0.14123819030E+04  0.25500000920E-02 0. -1.
       -2   -1    0    0    0  501  0.00000000000E+00  0.00000000000E+00 -0.28298898847E+04  0.28298898847E+04  0.25500000920E-02 0.  1.
    10030    2    1    2    0    0  0.00000000000E+00  0.00000000000E+00 -0.14175079817E+04  0.42422717877E+04  0.39984423270E+04 0.  0.
        4    1    3    3  502    0  0.14071764936E+04  0.13393603599E+04 -0.20789472104E+03  0.19537793339E+04  0.12699999809E+01 0. -1.
       -4    1    3    3    0  502 -0.14071764936E+04 -0.13393603599E+04 -0.12096132607E+04  0.22884924538E+04  0.12699999809E+01 0.  1.
</event>
<event>
 5   0  0.2661693E-07  0.4148973E+04  0.7818609E-02  0.7975150E-01
        2   -1    0    0  501    0  0.00000000000E+00  0.00000000000E+00  0.23446319111E+04  0.23446319111E+04  0.25500000920E-02 0.  1.
       -2   -1    0    0    0  501  0.00000000000E+00  0.00000000000E+00 -0.18354670088E+04  0.18354670088E+04  0.25500000920E-02 0. -1.
    10030    2    1    2    0    0  0.00000000000E+00  0.00000000000E+00  0.50916490231E+03  0.41800989199E+04  0.41489731359E+04 0.  0.
        1    1    3    3  502    0 -0.14448985978E+03 -0.41120921455E+02 -0.18299795194E+04  0.18361354229E+04  0.50400001928E-02 0. -1.
       -1    1    3    3    0  502  0.14448985978E+03  0.41120921455E+02  0.23391444217E+04  0.23439634970E+04  0.50400001928E-02 0.  1.
</event>
<event>
 5   0  0.8528625E-08  0.3809221E+04  0.7818609E-02  0.8044179E-01
       -1   -1    0    0    0  501  0.00000000000E+00  0.00000000000E+00  0.14069325425E+04  0.14069325425E+04  0.50400001928E-02 0.  1.
        1   -1    0    0  501    0  0.00000000000E+00  0.00000000000E+00 -0.25783330765E+04  0.25783330765E+04  0.50400001928E-02 0. -1.
    10030    2    1    2    0    0  0.00000000000E+00  0.00000000000E+00 -0.11714005340E+04  0.39852656189E+04  0.38092207658E+04 0.  0.
        3    1    3    3  502    0  0.88353078750E+03  0.70223336707E+03  0.10194078093E+04  0.15208387969E+04  0.10100000352E+00 0.  1.
       -3    1    3    3    0  502 -0.88353078750E+03 -0.70223336707E+03 -0.21908083433E+04  0.24644268221E+04  0.10100000352E+00 0. -1.
</event>
<event>
 5   0  0.8528625E-08  0.3892515E+04  0.7818609E-02  0.8026588E-01
       -1   -1    0    0    0  501  0.00000000000E+00  0.00000000000E+00  0.22989690544E+04  0.22989690544E+04  0.50400001928E-02 0.  1.
        1   -1    0    0  501    0  0.00000000000E+00  0.00000000000E+00 -0.16476598158E+04  0.16476598158E+04  0.50400001928E-02 0. -1.
    10030    2    1    2    0    0  0.00000000000E+00  0.00000000000E+00  0.65130923858E+03  0.39466288702E+04  0.38925153455E+04 0.  0.
        5    1    3    3  502    0  0.11907394332E+04  0.13971158904E+04  0.98125307832E+03  0.20815073631E+04  0.46999998093E+01 0.  1.
       -5    1    3    3    0  502 -0.11907394332E+04 -0.13971158904E+04 -0.32994383974E+03  0.18651215071E+04  0.46999998093E+01 0. -1.
</event>
<event>
 5   0  0.8528625E-08  0.3971781E+04  0.7818609E-02  0.8010263E-01
        1   -1    0    0  501    0  0.00000000000E+00  0.00000000000E+00  0.14035268893E+04  0.14035268893E+04  0.50400001928E-02 0.  1.
       -1   -1    0    0    0  501  0.00000000000E+00  0.00000000000E+00 -0.28098938971E+04  0.28098938971E+04  0.50400001928E-02 0. -1.
    10030    2    1    2    0    0  0.00000000000E+00  0.00000000000E+00 -0.14063670078E+04  0.42134207865E+04  0.39717812834E+04 0.  0.
        3    1    3    3  502    0  0.10348903129E+04 -0.97596031318E+03 -0.21732267370E+04  0.25973854072E+04  0.10100000352E+00 0. -1.
       -3    1    3    3    0  502 -0.10348903129E+04  0.97596031318E+03  0.76685972922E+03  0.16160353793E+04  0.10100000352E+00 0.  1.
</event>
<event>
 5   0  0.8528625E-08  0.4008506E+04  0.7818609E-02  0.8002833E-01
        3   -1    0    0  501    0  0.00000000000E+00  0.00000000000E+00  0.17069191891E+04  0.17069191921E+04  0.10100000352E+00 0. -1.
       -3   -1    0    0    0  501  0.00000000000E+00  0.00000000000E+00 -0.23533805443E+04  0.23533805465E+04  0.10100000352E+00 0.  1.
    10030    2    1    2    0    0  0.00000000000E+00  0.00000000000E+00 -0.64646135521E+03  0.40602997386E+04  0.40085061660E+04 0.  0.
        5    1    3    3  502    0  0.92616966861E+03  0.60291992629E+03  0.13704099391E+04  0.17604965730E+04  0.46999998093E+01 0. -1.
       -5    1    3    3    0  502 -0.92616966861E+03 -0.60291992629E+03 -0.20168712943E+04  0.22998031655E+04  0.46999998093E+01 0.  1.
</event>
<event>
 5   0  0.2730801E-07  0.3822867E+04  0.7818609E-02  0.8041265E-01
        2   -1    0    0  501    0  0.00000000000E+00  0.00000000000E+00  0.21090508461E+04  0.21090508461E+04  0.25500000920E-02 0.  1.
       -2   -1    0    0    0  501  0.00000000000E+00  0.00000000000E+00 -0.17323327852E+04  0.17323327852E+04  0.25500000920E-02 0. -1.
    10030    2    1    2    0    0  0.00000000000E+00  0.00000000000E+00  0.37671806084E+03  0.38413836313E+04  0.38228669485E+04 0.  0.
        2    1    3    3  502    0  0.17214060609E+04  0.82421125688E+03  0.29381929399E+03  0.19310341271E+04  0.25500000920E-02 0.  1.
       -2    1    3    3    0  502 -0.17214060609E+04 -0.82421125688E+03  0.82898766858E+02  0.19103495042E+04  0.25500000920E-02 0. -1.
</event>
<event>
 5   0  0.8528625E-08  0.3208896E+04  0.7818609E-02  0.8186472E-01
       -1   -1    0    0    0  501  0.00000000000E+00  0.00000000000E+00  0.17205874131E+04  0.17205874131E+04  0.50400001928E-02 0.  1.
        1   -1    0    0  501    0  0.00000000000E+00  0.00000000000E+00 -0.14961483647E+04  0.14961483647E+04  0.50400001928E-02 0. -1.
    10030    2    1    2    0    0  0.00000000000E+00  0.00000000000E+00  0.22443904842E+03  0.32167357778E+04  0.32088964112E+04 0.  0.
        3    1    3    3  502    0  0.16021872914E+04  0.41599068639E+01  0.19747205717E+03  0.16143161541E+04  0.10100000352E+00 0. -1.
       -3    1    3    3    0  502 -0.16021872914E+04 -0.41599068639E+01  0.26966991253E+02  0.16024196237E+04  0.10100000352E+00 0.  1.
</event>
<event>
 5   0  0.2661693E-07  0.3956432E+04  0.7818609E-02  0.8013394E-01
        2   -1    0    0  501    0  0.00000000000E+00  0.00000000000E+00  0.34625420334E+04  0.34625420334E+04  0.25500000920E-02 0. -1.
       -2   -1    0    0    0  501  0.00000000000E+00  0.00000000000E+00 -0.11301924298E+04  0.11301924298E+04  0.25500000920E-02 0.  1.
    10030    2    1    2    0    0  0.00000000000E+00  0.00000000000E+00  0.23323496036E+04  0.45927344631E+04  0.39564321270E+04 0.  0.
        1    1    3    3  502    0  0.27487469227E+03 -0.19561571583E+04  0.12891998761E+04  0.23588436246E+04  0.50400001928E-02 0. -1.
       -1    1    3    3    0  502 -0.27487469227E+03  0.19561571583E+04  0.10431497275E+04  0.22338908386E+04  0.50400001928E-02 0.  1.
</event>
<event>
 5   0  0.2666978E-07  0.3989427E+04  0.7818609E-02  0.8006683E-01
        2   -1    0    0  501    0  0.00000000000E+00  0.00000000000E+00  0.13522144963E+04  0.13522144963E+04  0.25500000920E-02 0. -1.
       -2   -1    0    0    0  501  0.00000000000E+00  0.00000000000E+00 -0.29424935142E+04  0.29424935142E+04  0.25500000920E-02 0.  1.
    10030    2    1    2    0    0  0.00000000000E+00  0.00000000000E+00 -0.15902790179E+04  0.42947080104E+04  0.39894272196E+04 0.  0.
        4    1    3    3  502    0 -0.19818740187E+04 -0.54838516313E+02 -0.10311138303E+04  0.22347324745E+04  0.12699999809E+01 0.  1.
       -4    1    3    3    0  502  0.19818740187E+04  0.54838516313E+02 -0.55916518757E+03  0.20599755359E+04  0.12699999809E+01 0. -1.
</event>
<event>
 5   0  0.8528625E-08  0.4006144E+04  0.7818609E-02  0.8003308E-01
        1   -1    0    0  501    0  0.00000000000E+00  0.00000000000E+00  0.26629719791E+04  0.26629719791E+04  0.50400001928E-02 0.  1.
       -1   -1    0    0    0  501  0.00000000000E+00  0.00000000000E+00 -0.15066989266E+04  0.15066989267E+04  0.50400001928E-02 0. -1.
    10030    2    1    2    0    0  0.00000000000E+00  0.00000000000E+00  0.11562730524E+04  0.41696709057E+04  0.40061437930E+04 0.  0.
        5    1    3    3  502    0  0.11777194047E+04 -0.11578877400E+04  0.17577789985E+04  0.24119569051E+04  0.46999998093E+01 0.  1.
       -5    1    3    3    0  502 -0.11777194047E+04  0.11578877400E+04 -0.60150594607E+03  0.17577140006E+04  0.46999998093E+01 0. -1.
</event>
<event>
 5   0  0.2839279E-07  0.3349952E+04  0.7818609E-02  0.8150300E-01
        2   -1    0    0  501    0  0.00000000000E+00  0.00000000000E+00  0.25611670065E+04  0.25611670065E+04  0.25500000920E-02 0.  1.
       -2   -1    0    0    0  501  0.00000000000E+00  0.00000000000E+00 -0.10954163561E+04  0.10954163561E+04  0.25500000920E-02 0. -1.
    10030    2    1    2    0    0  0.00000000000E+00  0.00000000000E+00  0.14657506505E+04  0.36565833626E+04  0.33499517785E+04 0.  0.
        3    1    3    3  502    0  0.56400553109E+03  0.93170382217E+03 -0.65614935946E+03  0.12714976380E+04  0.10100000352E+00 0. -1.
       -3    1    3    3    0  502 -0.56400553109E+03 -0.93170382217E+03  0.21219000099E+04  0.23850857246E+04  0.10100000352E+00 0.  1.
</event>
<event>
 5   0  0.2661693E-07  0.3947451E+04  0.7818609E-02  0.8015232E-01
        2   -1    0    0  501    0  0.00000000000E+00  0.00000000000E+00  0.24282797137E+04  0.24282797137E+04  0.25500000920E-02 0. -1.
       -2   -1    0    0    0  501  0.00000000000E+00  0.00000000000E+00 -0.16042597397E+04  0.16042597397E+04  0.25500000920E-02 0.  1.
    10030    2    1    2    0    0  0.00000000000E+00  0.00000000000E+00  0.82401997402E+03  0.40325394534E+04  0.39474505096E+04 0.  0.
        1    1    3    3  502    0  0.81123214504E+03 -0.16588847891E+04 -0.29985733023E+03  0.18708048416E+04  0.50400001928E-02 0.  1.
       -1    1    3    3    0  502 -0.81123214504E+03  0.16588847891E+04  0.11238773042E+04  0.21617346118E+04  0.50400001928E-02 0. -1.
</event>
<event>
 5   0  0.8528625E-08  0.3864036E+04  0.7818609E-02  0.8032551E-01
        1   -1    0    0  501    0  0.00000000000E+00  0.00000000000E+00  0.14528955863E+04  0.14528955863E+04  0.50400001928E-02 0.  1.
       -1   -1    0    0    0  501  0.00000000000E+00  0.00000000000E+00 -0.25691408989E+04  0.25691408989E+04  0.50400001928E-02 0. -1.
    10030    2    1    2    0    0  0.00000000000E+00  0.00000000000E+00 -0.11162453126E+04  0.40220364853E+04  0.38640359588E+04 0.  0.
        2    1    3    3  502    0 -0.46270078662E+03 -0.12478255461E+04  0.89969310283E+03  0.16064271819E+04  0.25500000920E-02 0.  1.
       -2    1    3    3    0  502  0.46270078662E+03  0.12478255461E+04 -0.20159384154E+04  0.24156093033E+04  0.25500000920E-02 0. -1.
</event>
<event>
 5   0  0.8528625E-08  0.3952543E+04  0.7818609E-02  0.8014189E-01
       -1   -1    0    0    0  501  0.00000000000E+00  0.00000000000E+00  0.30011648870E+04  0.30011648870E+04  0.50400001928E-02 0.  1.
        1   -1    0    0  501    0  0.00000000000E+00  0.00000000000E+00 -0.13013775317E+04  0.13013775317E+04  0.50400001928E-02 0. -1.
    10030    2    1    2    0    0  0.00000000000E+00  0.00000000000E+00  0.16997873554E+04  0.43025424187E+04  0.39525427526E+04 0.  0.
        5    1    3    3  502    0  0.15986743742E+04 -0.10659767161E+04  0.34684629303E+03  0.19525343927E+04  0.46999998093E+01 0.  1.
       -5    1    3    3    0  502 -0.15986743742E+04  0.10659767161E+04  0.13529410623E+04  0.23500080259E+04  0.46999998093E+01 0. -1.
</event>
<event>
 5   0  0.8583262E-08  0.4027242E+04  0.7818609E-02  0.7999073E-01
        1   -1    0    0  501    0  0.00000000000E+00  0.00000000000E+00  0.17252356752E+04  0.17252356752E+04  0.50400001928E-02 0. -1.
       -1   -1    0    0    0  501  0.00000000000E+00  0.00000000000E+00 -0.23502123623E+04  0.23502123624E+04  0.50400001928E-02 0.  1.
    10030    2    1    2    0    0  0.00000000000E+00  0.00000000000E+00 -0.62497668713E+03  0.40754480376E+04  0.40272423378E+04 0.  0.
        1    1    3    3  502    0 -0.85716457516E+03  0.15937303696E+04  0.58123785472E+03  0.19006696303E+04  0.50400001928E-02 0.  1.
       -1    1    3    3    0  502  0.85716457516E+03 -0.15937303696E+04 -0.12062145419E+04  0.21747784073E+04  0.50400001928E-02 0. -1.
</event>
<event>
 5   0  0.2704088E-07  0.4007667E+04  0.7818609E-02  0.8003002E-01
       -2   -1    0    0    0  501  0.00000000000E+00  0.00000000000E+00  0.21749868067E+04  0.21749868067E+04  0.25500000920E-02 0. -1.
        2   -1    0    0  501    0  0.00000000000E+00  0.00000000000E+00 -0.18461483574E+04  0.18461483574E+04  0.25500000920E-02 0.  1.
    10030    2    1    2    0    0  0.00000000000E+00  0.00000000000E+00  0.32883844926E+03  0.40211351641E+04  0.40076668127E+04 0.  0.
        5    1    3    3  502    0  0.82154357797E+03 -0.16161744023E+04  0.10207348871E+04  0.20805949507E+04  0.46999998093E+01 0. -1.
       -5    1    3    3    0  502 -0.82154357797E+03  0.16161744023E+04 -0.69189643781E+03  0.19405402134E+04  0.46999998093E+01 0.  1.
</event>
<event>
 5   0  0.2839279E-07  0.4008794E+04  0.7818609E-02  0.8002775E-01
        2   -1    0    0  501    0  0.00000000000E+00  0.00000000000E+00  0.19563160875E+04  0.19563160876E+04  0.25500000920E-02 0.  1.
       -2   -1    0    0    0  501  0.00000000000E+00  0.00000000000E+00 -0.20536595896E+04  0.20536595896E+04  0.25500000920E-02 0. -1.
    10030    2    1    2    0    0  0.00000000000E+00  0.00000000000E+00 -0.97343502059E+02  0.40099756772E+04  0.40087939800E+04 0.  0.
        3    1    3    3  502    0  0.11561810268E+04  0.10351183281E+04 -0.13176602139E+04  0.20357929584E+04  0.10100000352E+00 0. -1.
       -3    1    3    3    0  502 -0.11561810268E+04 -0.10351183281E+04  0.12203167118E+04  0.19741827188E+04  0.10100000352E+00 0.  1.
</event>
<event>
 5   0  0.2666978E-07  0.4167088E+04  0.7818609E-02  0.7971662E-01
        2   -1    0    0  501    0  0.00000000000E+00  0.00000000000E+00  0.28111480511E+04  0.28111480511E+04  0.25500000920E-02 0. -1.
       -2   -1    0    0    0  501  0.00000000000E+00  0.00000000000E+00 -0.15442643635E+04  0.15442643635E+04  0.25500000920E-02 0.  1.
    10030    2    1    2    0    0  0.00000000000E+00  0.00000000000E+00  0.12668836876E+04  0.43554124146E+04  0.41670880748E+04 0.  0.
        4    1    3    3  502    0 -0.29119132919E+03 -0.58229482511E+02 -0.15220323107E+04  0.15507311277E+04  0.12699999809E+01 0.  1.
       -4    1    3    3    0  502  0.29119132919E+03  0.58229482511E+02  0.27889159982E+04  0.28046812869E+04  0.12699999809E+01 0. -1.
</event>
<event>
 5   0  0.2839279E-07  0.3822900E+04  0.7818609E-02  0.8041258E-01
       -2   -1    0    0    0  501  0.00000000000E+00  0.00000000000E+00  0.14803860534E+04  0.14803860534E+04  0.25500000920E-02 0. -1.
        2   -1    0    0  501    0  0.00000000000E+00  0.00000000000E+00 -0.24680327450E+04  0.24680327450E+04  0.25500000920E-02 0.  1.
    10030    2    1    2    0    0  0.00000000000E+00  0.00000000000E+00 -0.98764669158E+03  0.39484187985E+04  0.38229000799E+04 0.  0.
        3    1    3    3  502    0  0.99275605130E+03 -0.54855989140E+03  0.10952500353E+04  0.15767229249E+04  0.10100000352E+00 0. -1.
       -3    1    3    3    0  502 -0.99275605130E+03  0.54855989140E+03 -0.20828967269E+04  0.23716958736E+04  0.10100000352E+00 0.  1.
</event>
<event>
 5   0  0.8528625E-08  0.3956452E+04  0.7818609E-02  0.8013390E-01
       -1   -1    0    0    0  501  0.00000000000E+00  0.00000000000E+00  0.27444664632E+04  0.27444664632E+04  0.50400001928E-02 0.  1.
        1   -1    0    0  501    0  0.00000000000E+00  0.00000000000E+00 -0.14259154922E+04  0.14259154922E+04  0.50400001928E-02 0. -1.
    10030    2    1    2    0    0  0.00000000000E+00  0.00000000000E+00  0.13185509711E+04  0.41703819554E+04  0.39564515656E+04 0.  0.
        5    1    3    3  502    0 -0.62907275877E+03  0.81549023393E+03 -0.11210126142E+04  0.15223167307E+04  0.46999998093E+01 0. -1.
       -5    1    3    3    0  502  0.62907275877E+03 -0.81549023393E+03  0.24395635853E+04  0.26480652247E+04  0.46999998093E+01 0.  1.
</event>
<event>
 5   0  0.8528625E-08  0.4084902E+04  0.7818609E-02  0.7987635E-01
        1   -1    0    0  501    0  0.00000000000E+00  0.00000000000E+00  0.16489034347E+04  0.16489034347E+04  0.50400001928E-02 0. -1.
       -1   -1    0    0    0  501  0.00000000000E+00  0.00000000000E+00 -0.25299278044E+04  0.25299278044E+04  0.50400001928E-02 0.  1.
    10030    2    1    2    0    0  0.00000000000E+00  0.00000000000E+00 -0.88102436972E+03  0.41788312391E+04  0.40849022736E+04 0.  0.
        4    1    3    3  502    0 -0.19838025133E+04  0.12814520350E+03  0.38999821132E+02  0.19883199450E+04  0.12699999809E+01 0. -1.
       -4    1    3    3    0  502  0.19838025133E+04 -0.12814520350E+03 -0.92002419085E+03  0.21905112941E+04  0.12699999809E+01 0.  1.
</event>
<event>
 5   0  0.8528625E-08  0.3962442E+04  0.7818609E-02  0.8012166E-01
       -1   -1    0    0    0  501  0.00000000000E+00  0.00000000000E+00  0.23303709448E+04  0.23303709448E+04  0.50400001928E-02 0. -1.
        1   -1    0    0  501    0  0.00000000000E+00  0.00000000000E+00 -0.16843824270E+04  0.16843824270E+04  0.50400001928E-02 0.  1.
    10030    2    1    2    0    0  0.00000000000E+00  0.00000000000E+00  0.64598851773E+03  0.40147533718E+04  0.39624416048E+04 0.  0.
        5    1    3    3  502    0 -0.17985079165E+03  0.10133606115E+04  0.20382609157E+04  0.22833693715E+04  0.46999998093E+01 0. -1.
       -5    1    3    3    0  502  0.17985079165E+03 -0.10133606115E+04 -0.13922723980E+04  0.17313840003E+04  0.46999998093E+01 0.  1.
</event>
<event>
 5   0  0.8528625E-08  0.3727422E+04  0.7818609E-02  0.8061912E-01
       -1   -1    0    0    0  501  0.00000000000E+00  0.00000000000E+00  0.10514908419E+04  0.10514908419E+04  0.50400001928E-02 0.  1.
        1   -1    0    0  501    0  0.00000000000E+00  0.00000000000E+00 -0.33033266980E+04  0.33033266980E+04  0.50400001928E-02 0. -1.
    10030    2    1    2    0    0  0.00000000000E+00  0.00000000000E+00 -0.22518358561E+04  0.43548175399E+04  0.37274215060E+04 0.  0.
        4    1    3    3  502    0 -0.82047081981E+03  0.22643084676E+03 -0.30629940300E+04  0.31790528991E+04  0.12699999809E+01 0. -1.
       -4    1    3    3    0  502  0.82047081981E+03 -0.22643084676E+03  0.81115817395E+03  0.11757646408E+04  0.12699999809E+01 0.  1.
</event>
<event>
 5   0  0.2839279E-07  0.3869959E+04  0.7818609E-02  0.8031306E-01
       -2   -1    0    0    0  501  0.00000000000E+00  0.00000000000E+00  0.16377390096E+04  0.16377390096E+04  0.25500000920E-02 0.  1.
        2   -1    0    0  501    0  0.00000000000E+00  0.00000000000E+00 -0.22861671172E+04  0.22861671172E+04  0.25500000920E-02 0. -1.
    10030    2    1    2    0    0  0.00000000000E+00  0.00000000000E+00 -0.64842810764E+03  0.39239061268E+04  0.38699586924E+04 0.  0.
        3    1    3    3  502    0  0.74793525431E+03 -0.12945558797E+04  0.92126716399E+03  0.17561364605E+04  0.10100000352E+00 0.  1.
       -3    1    3    3    0  502 -0.74793525431E+03  0.12945558797E+04 -0.15696952716E+04  0.21677696663E+04  0.10100000352E+00 0. -1.
</event>
<event>
 5   0  0.8528625E-08  0.2995330E+04  0.7818609E-02  0.8245066E-01
       -1   -1    0    0    0  501  0.00000000000E+00  0.00000000000E+00  0.11080275365E+04  0.11080275365E+04  0.50400001928E-02 0. -1.
        1   -1    0    0  501    0  0.00000000000E+00  0.00000000000E+00 -0.20243185100E+04  0.20243185100E+04  0.50400001928E-02 0.  1.
    10030    2    1    2    0    0  0.00000000000E+00  0.00000000000E+00 -0.91629097352E+03  0.31323460465E+04  0.29953301332E+04 0.  0.
        3    1    3    3  502    0  0.69018633993E+03  0.39417423573E+02  0.93119417117E+03  0.11597557983E+04  0.10100000352E+00 0.  1.
       -3    1    3    3    0  502 -0.69018633993E+03 -0.39417423573E+02 -0.18474851447E+04  0.19725902482E+04  0.10100000352E+00 0. -1.
</event>
<event>
 5   0  0.2704088E-07  0.4005196E+04  0.7818609E-02  0.8003499E-01
        2   -1    0    0  501    0  0.00000000000E+00  0.00000000000E+00  0.11735511389E+04  0.11735511389E+04  0.25500000920E-02 0.  1.
       -2   -1    0    0    0  501  0.00000000000E+00  0.00000000000E+00 -0.34173195529E+04  0.34173195529E+04  0.25500000920E-02 0. -1.
    10030    2    1    2    0    0  0.00000000000E+00  0.00000000000E+00 -0.22437684140E+04  0.45908706918E+04  0.40051962515E+04 0.  0.
        5    1    3    3  502    0  0.31265521694E+02 -0.19160360318E+04 -0.45528985781E+03  0.19696402090E+04  0.46999998093E+01 0. -1.
       -5    1    3    3    0  502 -0.31265521694E+02  0.19160360318E+04 -0.17884785562E+04  0.26212304828E+04  0.46999998093E+01 0.  1.
</event>
<event>
 5   0  0.2839279E-07  0.3226773E+04  0.7818609E-02  0.8181782E-01
       -2   -1    0    0    0  501  0.00000000000E+00  0.00000000000E+00  0.90563512084E+03  0.90563512084E+03  0.25500000920E-02 0. -1.
        2   -1    0    0  501    0  0.00000000000E+00  0.00000000000E+00 -0.28742439326E+04  0.28742439326E+04  0.25500000920E-02 0.  1.
    10030    2    1    2    0    0  0.00000000000E+00  0.00000000000E+00 -0.19686088118E+04  0.37798790535E+04  0.32267731567E+04 0.  0.
        3    1    3    3  502    0 -0.12072768812E+04 -0.53666399392E+02  0.26785647071E+03  0.12377983072E+04  0.10100000352E+00 0. -1.
       -3    1    3    3    0  502  0.12072768812E+04  0.53666399392E+02 -0.22364652825E+04  0.25420807462E+04  0.10100000352E+00 0.  1.
</event>
<event>
 5   0  0.8528625E-08  0.3929496E+04  0.7818609E-02  0.8018922E-01
       -1   -1    0    0    0  501  0.00000000000E+00  0.00000000000E+00  0.26288207172E+04  0.26288207172E+04  0.50400001928E-02 0. -1.
        1   -1    0    0  501    0  0.00000000000E+00  0.00000000000E+00 -0.14684284857E+04  0.14684284857E+04  0.50400001928E-02 0.  1.
    10030    2    1    2    0    0  0.00000000000E+00  0.00000000000E+00  0.11603922315E+04  0.40972492029E+04  0.39294962654E+04 0.  0.
        3    1    3    3  502    0  0.17604873555E+04  0.64573782899E+03  0.11916985567E+04  0.22218097427E+04  0.10100000352E+00 0. -1.
       -3    1    3    3    0  502 -0.17604873555E+04 -0.64573782899E+03 -0.31306325262E+02  0.18754394602E+04  0.10100000352E+00 0.  1.
</event>
<event>
 5   0  0.2666978E-07  0.4027465E+04  0.7818609E-02  0.7999029E-01
       -2   -1    0    0    0  501  0.00000000000E+00  0.00000000000E+00  0.24374069491E+04  0.24374069491E+04  0.25500000920E-02 0.  1.
        2   -1    0    0  501    0  0.00000000000E+00  0.00000000000E+00 -0.16637016165E+04  0.16637016165E+04  0.25500000920E-02 0. -1.
    10030    2    1    2    0    0  0.00000000000E+00  0.00000000000E+00  0.77370533262E+03  0.41011085657E+04  0.40274646523E+04 0.  0.
        4    1    3    3  502    0  0.84892290153E+03 -0.13346445898E+04 -0.88219818477E+03  0.18111381847E+04  0.12699999809E+01 0. -1.
       -4    1    3    3    0  502 -0.84892290153E+03  0.13346445898E+04  0.16559035174E+04  0.22899703810E+04  0.12699999809E+01 0.  1.
</event>
<event>
 5   0  0.8528625E-08  0.2914415E+04  0.7818609E-02  0.8268601E-01
        4   -1    0    0  501    0  0.00000000000E+00  0.00000000000E+00  0.13448836839E+04  0.13448842835E+04  0.12699999809E+01 0. -1.
       -4   -1    0    0    0  501  0.00000000000E+00  0.00000000000E+00 -0.15789112688E+04  0.15789117795E+04  0.12699999809E+01 0.  1.
    10030    2    1    2    0    0  0.00000000000E+00  0.00000000000E+00 -0.23402758490E+03  0.29237960630E+04  0.29144149512E+04 0.  0.
        2    1    3    3  502    0 -0.26376479323E+03 -0.10252979175E+04 -0.11215590110E+04  0.15423042180E+04  0.25500000920E-02 0.  1.
       -2    1    3    3    0  502  0.26376479323E+03  0.10252979175E+04  0.88753142606E+03  0.13814918450E+04  0.25500000920E-02 0. -1.
</event>
<event>
 5   0  0.8528625E-08  0.3949478E+04  0.7818609E-02  0.8014817E-01
        1   -1    0    0  501    0  0.00000000000E+00  0.00000000000E+00  0.25477167294E+04  0.25477167294E+04  0.50400001928E-02 0. -1.
       -1   -1    0    0    0  501  0.00000000000E+00  0.00000000000E+00 -0.15306232409E+04  0.15306232409E+04  0.50400001928E-02 0.  1.
    10030    2    1    2    0    0  0.00000000000E+00  0.00000000000E+00  0.10170934885E+04  0.40783399703E+04  0.39494781617E+04 0.  0.
        2    1    3    3  502    0 -0.34593597386E+03  0.18016363239E+04 -0.24606967417E+03  0.18509768843E+04  0.25500000920E-02 0.  1.
       -2    1    3    3    0  502  0.34593597386E+03 -0.18016363239E+04  0.12631631627E+04  0.22273630861E+04  0.25500000920E-02 0. -1.
</event>
<event>
 5   0  0.8528625E-08  0.3078006E+04  0.7818609E-02  0.8221800E-01
        1   -1    0    0  501    0  0.00000000000E+00  0.00000000000E+00  0.18585151288E+04  0.18585151288E+04  0.50400001928E-02 0. -1.
       -1   -1    0    0    0  501  0.00000000000E+00  0.00000000000E+00 -0.12744209448E+04  0.12744209448E+04  0.50400001928E-02 0.  1.
    10030    2    1    2    0    0  0.00000000000E+00  0.00000000000E+00  0.58409418407E+03  0.31329360736E+04  0.30780062420E+04 0.  0.
        4    1    3    3  502    0  0.29308577694E+03  0.31533116450E+03  0.17959797785E+04  0.18468562461E+04  0.12699999809E+01 0. -1.
       -4    1    3    3    0  502 -0.29308577694E+03 -0.31533116450E+03 -0.12118855944E+04  0.12860798276E+04  0.12699999809E+01 0.  1.
</event>
<event>
 5   0  0.8528625E-08  0.3715192E+04  0.7818609E-02  0.8064603E-01
       -1   -1    0    0    0  501  0.00000000000E+00  0.00000000000E+00  0.14634193724E+04  0.14634193724E+04  0.50400001928E-02 0. -1.
        1   -1    0    0  501    0  0.00000000000E+00  0.00000000000E+00 -0.23579452754E+04  0.23579452754E+04  0.50400001928E-02 0.  1.
    10030    2    1    2    0    0  0.00000000000E+00  0.00000000000E+00 -0.89452590298E+03  0.38213646478E+04  0.37151919439E+04 0.  0.
        3    1    3    3  502    0  0.82890520813E+03 -0.40615902622E+03 -0.21053529294E+04  0.22988170798E+04  0.10100000352E+00 0.  1.
       -3    1    3    3    0  502 -0.82890520813E+03  0.40615902622E+03  0.12108270265E+04  0.15225475680E+04  0.10100000352E+00 0. -1.
</event>
<event>
 5   0  0.8528625E-08  0.3844815E+04  0.7818609E-02  0.8036605E-01
       -1   -1    0    0    0  501  0.00000000000E+00  0.00000000000E+00  0.11402111528E+04  0.11402111528E+04  0.50400001928E-02 0.  1.
        1   -1    0    0  501    0  0.00000000000E+00  0.00000000000E+00 -0.32411986535E+04  0.32411986535E+04  0.50400001928E-02 0. -1.
    10030    2    1    2    0    0  0.00000000000E+00  0.00000000000E+00 -0.21009875007E+04  0.43814098063E+04  0.38448151338E+04 0.  0.
        5    1    3    3  502    0 -0.17461265782E+04 -0.95996878721E+02 -0.19603301198E+04  0.26269925193E+04  0.46999998093E+01 0. -1.
       -5    1    3    3    0  502  0.17461265782E+04  0.95996878721E+02 -0.14065738084E+03  0.17544172870E+04  0.46999998093E+01 0.  1.
</event>
<event>
 5   0  0.2661693E-07  0.3873433E+04  0.7818609E-02  0.8030577E-01
        2   -1    0    0  501    0  0.00000000000E+00  0.00000000000E+00  0.17644170812E+04  0.17644170812E+04  0.25500000920E-02 0. -1.
       -2   -1    0    0    0  501  0.00000000000E+00  0.00000000000E+00 -0.21258417616E+04  0.21258417616E+04  0.25500000920E-02 0.  1.
    10030    2    1    2    0    0  0.00000000000E+00  0.00000000000E+00 -0.36142468038E+03  0.38902588428E+04  0.38734333691E+04 0.  0.
        1    1    3    3  502    0 -0.18246651216E+03 -0.24626815127E+03 -0.21013290457E+04  0.21235644066E+04  0.50400001928E-02 0.  1.
       -1    1    3    3    0  502  0.18246651216E+03  0.24626815127E+03  0.17399043654E+04  0.17666944362E+04  0.50400001928E-02 0. -1.
</event>
<event>
 5   0  0.8583262E-08  0.3327100E+04  0.7818609E-02  0.8156034E-01
        1   -1    0    0  501    0  0.00000000000E+00  0.00000000000E+00  0.24047261192E+04  0.24047261192E+04  0.50400001928E-02 0.  1.
       -1   -1    0    0    0  501  0.00000000000E+00  0.00000000000E+00 -0.11508166367E+04  0.11508166367E+04  0.50400001928E-02 0. -1.
    10030    2    1    2    0    0  0.00000000000E+00  0.00000000000E+00  0.12539094826E+04  0.35555427559E+04  0.33271001336E+04 0.  0.
        1    1    3    3  502    0 -0.89850260839E+03 -0.51843137606E+03  0.20167570478E+04  0.22679036618E+04  0.50400001928E-02 0.  1.
       -1    1    3    3    0  502  0.89850260839E+03  0.51843137606E+03 -0.76284756528E+03  0.12876390942E+04  0.50400001928E-02 0. -1.
</event>
<event>
 5   0  0.2661693E-07  0.3477806E+04  0.7818609E-02  0.8119070E-01
        2   -1    0    0  501    0  0.00000000000E+00  0.00000000000E+00  0.32660979752E+04  0.32660979752E+04  0.25500000920E-02 0. -1.
       -2   -1    0    0    0  501  0.00000000000E+00  0.00000000000E+00 -0.92580923658E+03  0.92580923658E+03  0.25500000920E-02 0.  1.
    10030    2    1    2    0    0  0.00000000000E+00  0.00000000000E+00  0.23402887386E+04  0.41919072118E+04  0.34778060170E+04 0.  0.
        1    1    3    3  502    0 -0.99257841545E+03 -0.19547823914E+03  0.28748931536E+04  0.30476932749E+04  0.50400001928E-02 0. -1.
       -1    1    3    3    0  502  0.99257841545E+03  0.19547823914E+03 -0.53460441503E+03  0.11442139369E+04  0.50400001928E-02 0.  1.
</event>
<event>
 5   0  0.8528625E-08  0.3930964E+04  0.7818609E-02  0.8018620E-01
       -1   -1    0    0    0  501  0.00000000000E+00  0.00000000000E+00  0.19100682009E+04  0.19100682009E+04  0.50400001928E-02 0. -1.
        1   -1    0    0  501    0  0.00000000000E+00  0.00000000000E+00 -0.20225038541E+04  0.20225038541E+04  0.50400001928E-02 0.  1.
    10030    2    1    2    0    0  0.00000000000E+00  0.00000000000E+00 -0.11243565322E+03  0.39325720550E+04  0.39309644099E+04 0.  0.
        3    1    3    3  502    0  0.62078112329E+03  0.15829237803E+04  0.93013843487E+03  0.19380852447E+04  0.10100000352E+00 0. -1.
       -3    1    3    3    0  502 -0.62078112329E+03 -0.15829237803E+04 -0.10425740881E+04  0.19944868104E+04  0.10100000352E+00 0.  1.
</event>
<event>
 5   0  0.8528625E-08  0.3265757E+04  0.7818609E-02  0.8171663E-01
        1   -1    0    0  501    0  0.00000000000E+00  0.00000000000E+00  0.16377596252E+04  0.16377596252E+04  0.50400001928E-02 0. -1.
       -1   -1    0    0    0  501  0.00000000000E+00  0.00000000000E+00 -0.16280124025E+04  0.16280124025E+04  0.50400001928E-02 0.  1.
    10030    2    1    2    0    0  0.00000000000E+00  0.00000000000E+00  0.97472226398E+01  0.32657720277E+04  0.32657574816E+04 0.  0.
        2    1    3    3  502    0 -0.50478824691E+03  0.47851730982E+03  0.14822098745E+04  0.16372953619E+04  0.25500000920E-02 0. -1.
       -2    1    3    3    0  502  0.50478824691E+03 -0.47851730982E+03 -0.14724626519E+04  0.16284766658E+04  0.25500000920E-02 0.  1.
</event>
<event>
 5   0  0.8528625E-08  0.3900409E+04  0.7818609E-02  0.8024944E-01
       -3   -1    0    0    0  501  0.00000000000E+00  0.00000000000E+00  0.14776136736E+04  0.14776136770E+04  0.10100000352E+00 0. -1.
        3   -1    0    0  501    0  0.00000000000E+00  0.00000000000E+00 -0.25739459217E+04  0.25739459237E+04  0.10100000352E+00 0.  1.
    10030    2    1    2    0    0  0.00000000000E+00  0.00000000000E+00 -0.10963322481E+04  0.40515596007E+04  0.39004090554E+04 0.  0.
        4    1    3    3  502    0 -0.12468006191E+04 -0.88417443851E+03  0.70997707216E+03  0.16853323937E+04  0.12699999809E+01 0. -1.
       -4    1    3    3    0  502  0.12468006191E+04  0.88417443851E+03 -0.18063093203E+04  0.23662272069E+04  0.12699999809E+01 0.  1.
</event>
<event>
 5   0  0.2704088E-07  0.4000068E+04  0.7818609E-02  0.8004533E-01
        2   -1    0    0  501    0  0.00000000000E+00  0.00000000000E+00  0.24295893134E+04  0.24295893134E+04  0.25500000920E-02 0. -1.
       -2   -1    0    0    0  501  0.00000000000E+00  0.00000000000E+00 -0.16464250480E+04  0.16464250480E+04  0.25500000920E-02 0.  1.
    10030    2    1    2    0    0  0.00000000000E+00  0.00000000000E+00  0.78316426535E+03  0.40760143614E+04  0.40000683504E+04 0.  0.
        5    1    3    3  502    0  0.11802969368E+03 -0.12545642294E+04  0.19742130609E+04  0.23420934469E+04  0.46999998093E+01 0. -1.
       -5    1    3    3    0  502 -0.11802969368E+03  0.12545642294E+04 -0.11910487956E+04  0.17339209145E+04  0.46999998093E+01 0.  1.
</event>
<event>
 5   0  0.2704088E-07  0.3538567E+04  0.7818609E-02  0.8104710E-01
       -2   -1    0    0    0  501  0.00000000000E+00  0.00000000000E+00  0.13825782671E+04  0.13825782671E+04  0.25500000920E-02 0.  1.
        2   -1    0    0  501    0  0.00000000000E+00  0.00000000000E+00 -0.22641498268E+04  0.22641498268E+04  0.25500000920E-02 0. -1.
    10030    2    1    2    0    0  0.00000000000E+00  0.00000000000E+00 -0.88157155965E+03  0.36467280939E+04  0.35385671360E+04 0.  0.
        5    1    3    3  502    0 -0.92563269501E+03  0.98731466171E+03 -0.16152498840E+04  0.21072827065E+04  0.46999998093E+01 0. -1.
       -5    1    3    3    0  502  0.92563269501E+03 -0.98731466171E+03  0.73367832436E+03  0.15394453874E+04  0.46999998093E+01 0.  1.
</event>
<event>
 5   0  0.2704088E-07  0.3982146E+04  0.7818609E-02  0.8008158E-01
       -2   -1    0    0    0  501  0.00000000000E+00  0.00000000000E+00  0.14960797558E+04  0.14960797558E+04  0.25500000920E-02 0. -1.
        2   -1    0    0  501    0  0.00000000000E+00  0.00000000000E+00 -0.26498400358E+04  0.26498400358E+04  0.25500000920E-02 0.  1.
    10030    2    1    2    0    0  0.00000000000E+00  0.00000000000E+00 -0.11537602801E+04  0.41459197916E+04  0.39821461719E+04 0.  0.
        5    1    3    3  502    0  0.77945684371E+03  0.11608106129E+04 -0.20526810928E+04  0.24836577882E+04  0.46999998093E+01 0.  1.
       -5    1    3    3    0  502 -0.77945684371E+03 -0.11608106129E+04  0.89892081278E+03  0.16622620034E+04  0.46999998093E+01 0. -1.
</event>
<event>
 5   0  0.8528625E-08  0.3298426E+04  0.7818609E-02  0.8163296E-01
       -1   -1    0    0    0  501  0.00000000000E+00  0.00000000000E+00  0.14914867109E+04  0.14914867109E+04  0.50400001928E-02 0.  1.
        1   -1    0    0  501    0  0.00000000000E+00  0.00000000000E+00 -0.18236186550E+04  0.18236186550E+04  0.50400001928E-02 0. -1.
    10030    2    1    2    0    0  0.00000000000E+00  0.00000000000E+00 -0.33213194410E+03  0.33151053660E+04  0.32984256789E+04 0.  0.
        4    1    3    3  502    0  0.83831554004E+03 -0.11654744533E+04  0.64970205721E+03  0.15758229666E+04  0.12699999809E+01 0.  1.
       -4    1    3    3    0  502 -0.83831554004E+03  0.11654744533E+04 -0.98183400131E+03  0.17392823994E+04  0.12699999809E+01 0. -1.
</event>
<event>
 5   0  0.2730801E-07  0.3990242E+04  0.7818609E-02  0.8006518E-01
       -2   -1    0    0    0  501  0.00000000000E+00  0.00000000000E+00  0.14024528201E+04  0.14024528202E+04  0.25500000920E-02 0.  1.
        2   -1    0    0  501    0  0.00000000000E+00  0.00000000000E+00 -0.28382473221E+04  0.28382473221E+04  0.25500000920E-02 0. -1.
    10030    2    1    2    0    0  0.00000000000E+00  0.00000000000E+00 -0.14357945020E+04  0.42407001423E+04  0.39902420785E+04 0.  0.
        2    1    3    3  502    0  0.12332308610E+04  0.10680640889E+04 -0.19384102114E+04  0.25335850888E+04  0.25500000920E-02 0. -1.
       -2    1    3    3    0  502 -0.12332308610E+04 -0.10680640889E+04  0.50261570940E+03  0.17071150535E+04  0.25500000920E-02 0.  1.
</event>
<event>
 5   0  0.2839279E-07  0.3009941E+04  0.7818609E-02  0.8240898E-01
       -2   -1    0    0    0  501  0.00000000000E+00  0.00000000000E+00  0.15443774115E+04  0.15443774115E+04  0.25500000920E-02 0.  1.
        2   -1    0    0  501    0  0.00000000000E+00  0.00000000000E+00 -0.14665695039E+04  0.14665695039E+04  0.25500000920E-02 0. -1.
    10030    2    1    2    0    0  0.00000000000E+00  0.00000000000E+00  0.77807907588E+02  0.30109469153E+04  0.30099414042E+04 0.  0.
        3    1    3    3  502    0  0.12770479051E+04  0.69483998887E+02 -0.75461852217E+03  0.14849675088E+04  0.10100000352E+00 0. -1.
       -3    1    3    3    0  502 -0.12770479051E+04 -0.69483998887E+02  0.83242642976E+03  0.15259794065E+04  0.10100000352E+00 0.  1.
</event>
<event>
 5   0  0.8528625E-08  0.3939945E+04  0.7818609E-02  0.8016772E-01
       -1   -1    0    0    0  501  0.00000000000E+00  0.00000000000E+00  0.22246371527E+04  0.22246371527E+04  0.50400001928E-02 0.  1.
        1   -1    0    0  501    0  0.00000000000E+00  0.00000000000E+00 -0.17444605051E+04  0.17444605051E+04  0.50400001928E-02 0. -1.
    10030    2    1    2    0    0  0.00000000000E+00  0.00000000000E+00  0.48017664757E+03  0.39690976578E+04  0.39399450001E+04 0.  0.
        3    1    3    3  502    0 -0.18551788064E+04 -0.36988266041E+03 -0.31378896125E+03  0.19175414230E+04  0.10100000352E+00 0. -1.
       -3    1    3    3    0  502  0.18551788064E+04  0.36988266041E+03  0.79396560882E+03  0.20515562348E+04  0.10100000352E+00 0.  1.
</event>
<event>
 5   0  0.2839279E-07  0.3923600E+04  0.7818609E-02  0.8020139E-01
       -2   -1    0    0    0  501  0.00000000000E+00  0.00000000000E+00  0.16450569299E+04  0.16450569299E+04  0.25500000920E-02 0.  1.
        2   -1    0    0  501    0  0.00000000000E+00  0.00000000000E+00 -0.23395297028E+04  0.23395297028E+04  0.25500000920E-02 0. -1.
    10030    2    1    2    0    0  0.00000000000E+00  0.00000000000E+00 -0.69447277293E+03  0.39845866327E+04  0.39236001582E+04 0.  0.
        3    1    3    3  502    0  0.54683441507E+03  0.12079012197E+03 -0.22566313955E+04  0.23250813741E+04  0.10100000352E+00 0. -1.
       -3    1    3    3    0  502 -0.54683441507E+03 -0.12079012197E+03  0.15621586225E+04  0.16595052586E+04  0.10100000352E+00 0.  1.
</event>
<event>
 5   0  0.8583262E-08  0.4010323E+04  0.7818609E-02  0.8002467E-01
        1   -1    0    0  501    0  0.00000000000E+00  0.00000000000E+00  0.19164823326E+04  0.19164823326E+04  0.50400001928E-02 0.  1.
       -1   -1    0    0    0  501  0.00000000000E+00  0.00000000000E+00 -0.20979442107E+04  0.20979442108E+04  0.50400001928E-02 0. -1.
    10030    2    1    2    0    0  0.00000000000E+00  0.00000000000E+00 -0.18146187817E+03  0.40144265433E+04  0.40103231863E+04 0.  0.
        1    1    3    3  502    0 -0.15601688851E+04 -0.12317340821E+04  0.17293411654E+03  0.19952949676E+04  0.50400001928E-02 0.  1.
       -1    1    3    3    0  502  0.15601688851E+04  0.12317340821E+04 -0.35439599471E+03  0.20191315757E+04  0.50400001928E-02 0. -1.
</event>
<event>
 5   0  0.2704088E-07  0.3942710E+04  0.7818609E-02  0.8016204E-01
        2   -1    0    0  501    0  0.00000000000E+00  0.00000000000E+00  0.24868125127E+04  0.24868125127E+04  0.25500000920E-02 0. -1.
       -2   -1    0    0    0  501  0.00000000000E+00  0.00000000000E+00 -0.15627399472E+04  0.15627399472E+04  0.25500000920E-02 0.  1.
    10030    2    1    2    0    0  0.00000000000E+00  0.00000000000E+00  0.92407256546E+03  0.40495524599E+04  0.39427103646E+04 0.  0.
        5    1    3    3  502    0  0.16137624083E+04 -0.10496795702E+04  0.26078152184E+02  0.19252943854E+04  0.46999998093E+01 0. -1.
       -5    1    3    3    0  502 -0.16137624083E+04  0.10496795702E+04  0.89799441328E+03  0.21242580744E+04  0.46999998093E+01 0.  1.
</event>
<event>
 5   0  0.8528625E-08  0.3946259E+04  0.7818609E-02  0.8015476E-01
        1   -1    0    0  501    0  0.00000000000E+00  0.00000000000E+00  0.16572416821E+04  0.16572416821E+04  0.50400001928E-02 0.  1.
       -1   -1    0    0    0  501  0.00000000000E+00  0.00000000000E+00 -0.23492293754E+04  0.23492293754E+04  0.50400001928E-02 0. -1.
    10030    2    1    2    0    0  0.00000000000E+00  0.00000000000E+00 -0.69198769334E+03  0.40064710575E+04  0.39462594145E+04 0.  0.
        3    1    3    3  502    0 -0.17311865207E+02 -0.13318129459E+04  0.11319704069E+04  0.17479652273E+04  0.10100000352E+00 0.  1.
       -3    1    3    3    0  502  0.17311865207E+02  0.13318129459E+04 -0.18239581002E+04  0.22585058302E+04  0.10100000352E+00 0. -1.
</event>
<event>
 5   0  0.2730801E-07  0.3927601E+04  0.7818609E-02  0.8019313E-01
       -2   -1    0    0    0  501  0.00000000000E+00  0.00000000000E+00  0.17161776716E+04  0.17161776716E+04  0.25500000920E-02 0.  1.
        2   -1    0    0  501    0  0.00000000000E+00  0.00000000000E+00 -0.22471520421E+04  0.22471520422E+04  0.25500000920E-02 0. -1.
    10030    2    1    2    0    0  0.00000000000E+00  0.00000000000E+00 -0.53097437057E+03  0.39633297137E+04  0.39276008755E+04 0.  0.
        2    1    3    3  502    0 -0.14796820172E+04  0.43886828900E+03 -0.14908016844E+04  0.21458224319E+04  0.25500000920E-02 0. -1.
       -2    1    3    3    0  502  0.14796820172E+04 -0.43886828900E+03  0.95982731384E+03  0.18175072818E+04  0.25500000920E-02 0.  1.
</event>
<event>
 5   0  0.8528625E-08  0.2957548E+04  0.7818609E-02  0.8255958E-01
        1   -1    0    0  501    0  0.00000000000E+00  0.00000000000E+00  0.17688243215E+04  0.17688243215E+04  0.50400001928E-02 0. -1.
       -1   -1    0    0    0  501  0.00000000000E+00  0.00000000000E+00 -0.12362858238E+04  0.12362858238E+04  0.50400001928E-02 0.  1.
    10030    2    1    2    0    0  0.00000000000E+00  0.00000000000E+00  0.53253849772E+03  0.30051101453E+04  0.29575479259E+04 0.  0.
        5    1    3    3  502    0  0.71131310345E+03  0.33114925103E+03 -0.10073331279E+04  0.12768587542E+04  0.46999998093E+01 0.  1.
       -5    1    3    3    0  502 -0.71131310345E+03 -0.33114925103E+03  0.15398716256E+04  0.17282513911E+04  0.46999998093E+01 0. -1.
</event>
<event>
 5   0  0.8528625E-08  0.3998663E+04  0.7818609E-02  0.8004816E-01
        1   -1    0    0  501    0  0.00000000000E+00  0.00000000000E+00  0.16395963231E+04  0.16395963231E+04  0.50400001928E-02 0. -1.
       -1   -1    0    0    0  501  0.00000000000E+00  0.00000000000E+00 -0.24379941054E+04  0.24379941054E+04  0.50400001928E-02 0.  1.
    10030    2    1    2    0    0  0.00000000000E+00  0.00000000000E+00 -0.79839778227E+03  0.40775904284E+04  0.39986628619E+04 0.  0.
        2    1    3    3  502    0  0.16087412091E+04 -0.11170027707E+04 -0.80910675179E+03  0.21190557339E+04  0.25500000920E-02 0.  1.
       -2    1    3    3    0  502 -0.16087412091E+04  0.11170027707E+04  0.10708969515E+02  0.19585346945E+04  0.25500000920E-02 0. -1.
</event>
<event>
 5   0  0.8528625E-08  0.4027249E+04  0.7818609E-02  0.7999072E-01
       -3   -1    0    0    0  501  0.00000000000E+00  0.00000000000E+00  0.15155007143E+04  0.15155007176E+04  0.10100000352E+00 0.  1.
        3   -1    0    0  501    0  0.00000000000E+00  0.00000000000E+00 -0.26754746723E+04  0.26754746742E+04  0.10100000352E+00 0. -1.
    10030    2    1    2    0    0  0.00000000000E+00  0.00000000000E+00 -0.11599739581E+04  0.41909753919E+04  0.40272490799E+04 0.  0.
        4    1    3    3  502    0  0.19129609845E+04  0.65049977977E+02  0.70760036138E+02  0.19153745909E+04  0.12699999809E+01 0. -1.
       -4    1    3    3    0  502 -0.19129609845E+04 -0.65049977977E+02 -0.12307339942E+04  0.22756008010E+04  0.12699999809E+01 0.  1.
</event>
<event>
 5   0  0.2704088E-07  0.3488832E+04  0.7818609E-02  0.8116442E-01
        2   -1    0    0  501    0  0.00000000000E+00  0.00000000000E+00  0.19140579269E+04  0.19140579269E+04  0.25500000920E-02 0.  1.
       -2   -1    0    0    0  501  0.00000000000E+00  0.00000000000E+00 -0.15898093251E+04  0.15898093251E+04  0.25500000920E-02 0. -1.
    10030    2    1    2    0    0  0.00000000000E+00  0.00000000000E+00  0.32424860185E+03  0.35038672520E+04  0.34888319771E+04 0.  0.
        5    1    3    3  502    0  0.11655908631E+04 -0.12909458428E+04  0.29619801501E+03  0.17643408353E+04  0.46999998093E+01 0. -1.
       -5    1    3    3    0  502 -0.11655908631E+04  0.12909458428E+04  0.28050586838E+02  0.17395264167E+04  0.46999998093E+01 0.  1.
</event>
<event>
 5   0  0.8528625E-08  0.3890693E+04  0.7818609E-02  0.8026968E-01
        3   -1    0    0  501    0  0.00000000000E+00  0.00000000000E+00  0.26552790663E+04  0.26552790682E+04  0.10100000352E+00 0. -1.
       -3   -1    0    0    0  501  0.00000000000E+00  0.00000000000E+00 -0.14252259924E+04  0.14252259960E+04  0.10100000352E+00 0.  1.
    10030    2    1    2    0    0  0.00000000000E+00  0.00000000000E+00  0.12300530739E+04  0.40805050642E+04  0.38906928708E+04 0.  0.
        2    1    3    3  502    0  0.12561700741E+02  0.63127772987E+03 -0.13147695697E+04  0.14585226738E+04  0.25500000920E-02 0.  1.
       -2    1    3    3    0  502 -0.12561700741E+02 -0.63127772987E+03  0.25448226436E+04  0.26219823905E+04  0.25500000920E-02 0. -1.
</event>
<event>
 5   0  0.2661693E-07  0.4031251E+04  0.7818609E-02  0.7998272E-01
        2   -1    0    0  501    0  0.00000000000E+00  0.00000000000E+00  0.13357862489E+04  0.13357862489E+04  0.25500000920E-02 0. -1.
       -2   -1    0    0    0  501  0.00000000000E+00  0.00000000000E+00 -0.30414640511E+04  0.30414640512E+04  0.25500000920E-02 0.  1.
    10030    2    1    2    0    0  0.00000000000E+00  0.00000000000E+00 -0.17056778023E+04  0.43772503000E+04  0.40312508510E+04 0.  0.
        1    1    3    3  502    0 -0.70118423168E+03  0.16129031719E+04 -0.19220526983E+04  0.26052643903E+04  0.50400001928E-02 0.  1.
       -1    1    3    3    0  502  0.70118423168E+03 -0.16129031719E+04  0.21637489602E+03  0.17719859097E+04  0.50400001928E-02 0. -1.
</event>
<event>
 5   0  0.2704088E-07  0.4005780E+04  0.7818609E-02  0.8003382E-01
       -2   -1    0    0    0  501  0.00000000000E+00  0.00000000000E+00  0.24616574844E+04  0.24616574844E+04  0.25500000920E-02 0.  1.
        2   -1    0    0  501    0  0.00000000000E+00  0.00000000000E+00 -0.16296210181E+04  0.16296210181E+04  0.25500000920E-02 0. -1.
    10030    2    1    2    0    0  0.00000000000E+00  0.00000000000E+00  0.83203646627E+03  0.40912785025E+04  0.40057802116E+04 0.  0.
        5    1    3    3  502    0  0.19353147159E+04  0.73594891436E+02 -0.10545493973E+03  0.19395881243E+04  0.46999998093E+01 0. -1.
       -5    1    3    3    0  502 -0.19353147159E+04 -0.73594891436E+02  0.93749140600E+03  0.21516903782E+04  0.46999998093E+01 0.  1.
</event>
<event>
 5   0  0.2704088E-07  0.3896403E+04  0.7818609E-02  0.8025778E-01
        2   -1    0    0  501    0  0.00000000000E+00  0.00000000000E+00  0.26673230778E+04  0.26673230778E+04  0.25500000920E-02 0. -1.
       -2   -1    0    0    0  501  0.00000000000E+00  0.00000000000E+00 -0.14229578887E+04  0.14229578887E+04  0.25500000920E-02 0.  1.
    10030    2    1    2    0    0  0.00000000000E+00  0.00000000000E+00  0.12443651891E+04  0.40902809665E+04  0.38964026565E+04 0.  0.
        5    1    3    3  502    0  0.82246576858E+02  0.14714974654E+04 -0.71534171705E+03  0.16382323255E+04  0.46999998093E+01 0.  1.
       -5    1    3    3    0  502 -0.82246576858E+02 -0.14714974654E+04  0.19597069061E+04  0.24520486410E+04  0.46999998093E+01 0. -1.
</event>
<event>
 5   0  0.8528625E-08  0.4031520E+04  0.7818609E-02  0.7998218E-01
        1   -1    0    0  501    0  0.00000000000E+00  0.00000000000E+00  0.19448467127E+04  0.19448467127E+04  0.50400001928E-02 0. -1.
       -1   -1    0    0    0  501  0.00000000000E+00  0.00000000000E+00 -0.20892587963E+04  0.20892587963E+04  0.50400001928E-02 0.  1.
    10030    2    1    2    0    0  0.00000000000E+00  0.00000000000E+00 -0.14441208359E+03  0.40341055091E+04  0.40315198633E+04 0.  0.
        5    1    3    3  502    0  0.40152637694E+03 -0.19695521080E+04 -0.22365394501E+03  0.20224742556E+04  0.46999998093E+01 0.  1.
       -5    1    3    3    0  502 -0.40152637694E+03  0.19695521080E+04  0.79241861420E+02  0.20116312535E+04  0.46999998093E+01 0. -1.
</event>
<event>
 5   0  0.8528625E-08  0.3034336E+04  0.7818609E-02  0.8233994E-01
        3   -1    0    0  501    0  0.00000000000E+00  0.00000000000E+00  0.12298931086E+04  0.12298931128E+04  0.10100000352E+00 0. -1.
       -3   -1    0    0    0  501  0.00000000000E+00  0.00000000000E+00 -0.18715434512E+04  0.18715434539E+04  0.10100000352E+00 0.  1.
    10030    2    1    2    0    0  0.00000000000E+00  0.00000000000E+00 -0.64165034252E+03  0.31014365667E+04  0.30343357782E+04 0.  0.
        4    1    3    3  502    0  0.77799492299E+03  0.30352106344E+03 -0.16154830053E+04  0.18185675928E+04  0.12699999809E+01 0.  1.
       -4    1    3    3    0  502 -0.77799492299E+03 -0.30352106344E+03  0.97383266281E+03  0.12828689739E+04  0.12699999809E+01 0. -1.
</event>
<event>
 5   0  0.2704088E-07  0.4014198E+04  0.7818609E-02  0.8001688E-01
        2   -1    0    0  501    0  0.00000000000E+00  0.00000000000E+00  0.12403003465E+04  0.12403003465E+04  0.25500000920E-02 0. -1.
       -2   -1    0    0    0  501  0.00000000000E+00  0.00000000000E+00 -0.32479610545E+04  0.32479610545E+04  0.25500000920E-02 0.  1.
    10030    2    1    2    0    0  0.00000000000E+00  0.00000000000E+00 -0.20076607080E+04  0.44882614010E+04  0.40141984112E+04 0.  0.
        5    1    3    3  502    0 -0.20436461005E+03  0.19062511931E+04 -0.16680085291E+04  0.25412266818E+04  0.46999998093E+01 0.  1.
       -5    1    3    3    0  502  0.20436461005E+03 -0.19062511931E+04 -0.33965217887E+03  0.19470347192E+04  0.46999998093E+01 0. -1.
</event>
<event>
 5   0  0.8528625E-08  0.3931987E+04  0.7818609E-02  0.8018409E-01
        1   -1    0    0  501    0  0.00000000000E+00  0.00000000000E+00  0.12269039675E+04  0.12269039675E+04  0.50400001928E-02 0.  1.
       -1   -1    0    0    0  501  0.00000000000E+00  0.00000000000E+00 -0.31503116189E+04  0.31503116189E+04  0.50400001928E-02 0. -1.
    10030    2    1    2    0    0  0.00000000000E+00  0.00000000000E+00 -0.19234076515E+04  0.43772155864E+04  0.39319866857E+04 0.  0.
        4    1    3    3  502    0 -0.99099020492E+03 -0.68382256330E+03 -0.26918596676E+04  0.29488616392E+04  0.12699999809E+01 0. -1.
       -4    1    3    3    0  502  0.99099020492E+03  0.68382256330E+03  0.76845201616E+03  0.14283539472E+04  0.12699999809E+01 0.  1.
</event>
<event>
 5   0  0.2661693E-07  0.4041825E+04  0.7818609E-02  0.7996162E-01
        2   -1    0    0  501    0  0.00000000000E+00  0.00000000000E+00  0.15922144351E+04  0.15922144351E+04  0.25500000920E-02 0.  1.
       -2   -1    0    0    0  501  0.00000000000E+00  0.00000000000E+00 -0.25650357231E+04  0.25650357231E+04  0.25500000920E-02 0. -1.
    10030    2    1    2    0    0  0.00000000000E+00  0.00000000000E+00 -0.97282128803E+03  0.41572501582E+04  0.40418247883E+04 0.  0.
        1    1    3    3  502    0 -0.57433707405E+03 -0.19024874016E+03  0.14968741234E+04  0.16145246356E+04  0.50400001928E-02 0.  1.
       -1    1    3    3    0  502  0.57433707405E+03  0.19024874016E+03 -0.24696954114E+04  0.25427255225E+04  0.50400001928E-02 0. -1.
</event>
<event>
 5   0  0.8528625E-08  0.3987403E+04  0.7818609E-02  0.8007093E-01
       -1   -1    0    0    0  501  0.00000000000E+00  0.00000000000E+00  0.16446382593E+04  0.16446382593E+04  0.50400001928E-02 0. -1.
        1   -1    0    0  501    0  0.00000000000E+00  0.00000000000E+00 -0.24168508047E+04  0.24168508047E+04  0.50400001928E-02 0.  1.
    10030    2    1    2    0    0  0.00000000000E+00  0.00000000000E+00 -0.77221254543E+03  0.40614890640E+04  0.39874028140E+04 0.  0.
        5    1    3    3  502    0  0.15002453388E+04  0.48318007926E+03 -0.16297020908E+04  0.22671899039E+04  0.46999998093E+01 0.  1.
       -5    1    3    3    0  502 -0.15002453388E+04 -0.48318007926E+03  0.85748954537E+03  0.17942991601E+04  0.46999998093E+01 0. -1.
</event>
<event>
 5   0  0.8583262E-08  0.3669078E+04  0.7818609E-02  0.8074849E-01
       -1   -1    0    0    0  501  0.00000000000E+00  0.00000000000E+00  0.12347066656E+04  0.12347066657E+04  0.50400001928E-02 0. -1.
        1   -1    0    0  501    0  0.00000000000E+00  0.00000000000E+00 -0.27257763753E+04  0.27257763753E+04  0.50400001928E-02 0.  1.
    10030    2    1    2    0    0  0.00000000000E+00  0.00000000000E+00 -0.14910697096E+04  0.39604830410E+04  0.36690784999E+04 0.  0.
        1    1    3    3  502    0 -0.37752245945E+03  0.10594553665E+04  0.81890638576E+03  0.13912499954E+04  0.50400001928E-02 0. -1.
       -1    1    3    3    0  502  0.37752245945E+03 -0.10594553665E+04 -0.23099760954E+04  0.25692330456E+04  0.50400001928E-02 0.  1.
</event>
<event>
 5   0  0.8583262E-08  0.3855356E+04  0.7818609E-02  0.8034379E-01
        1   -1    0    0  501    0  0.00000000000E+00  0.00000000000E+00  0.23395739855E+04  0.23395739856E+04  0.50400001928E-02 0.  1.
       -1   -1    0    0    0  501  0.00000000000E+00  0.00000000000E+00 -0.15882989346E+04  0.15882989346E+04  0.50400001928E-02 0. -1.
    10030    2    1    2    0    0  0.00000000000E+00  0.00000000000E+00  0.75127505096E+03  0.39278729201E+04  0.38553562059E+04 0.  0.
        1    1    3    3  502    0 -0.13966708641E+04 -0.11517675481E+04 -0.29915342890E+03  0.18348707752E+04  0.50400001928E-02 0.  1.
       -1    1    3    3    0  502  0.13966708641E+04  0.11517675481E+04  0.10504284799E+04  0.20930021450E+04  0.50400001928E-02 0. -1.
</event>
<event>
 5   0  0.8528625E-08  0.3920997E+04  0.7818609E-02  0.8020676E-01
       -1   -1    0    0    0  501  0.00000000000E+00  0.00000000000E+00  0.15169413952E+04  0.15169413953E+04  0.50400001928E-02 0.  1.
        1   -1    0    0  501    0  0.00000000000E+00  0.00000000000E+00 -0.25337531141E+04  0.25337531141E+04  0.50400001928E-02 0. -1.
    10030    2    1    2    0    0  0.00000000000E+00  0.00000000000E+00 -0.10168117188E+04  0.40506945093E+04  0.39209973140E+04 0.  0.
        4    1    3    3  502    0  0.66959503908E+02  0.19466524951E+04 -0.27829641020E+03  0.19675848181E+04  0.12699999809E+01 0.  1.
       -4    1    3    3    0  502 -0.66959503908E+02 -0.19466524951E+04 -0.73851530863E+03  0.20831096912E+04  0.12699999809E+01 0. -1.
</event>
<event>
 5   0  0.2666978E-07  0.4084271E+04  0.7818609E-02  0.7987759E-01
        2   -1    0    0  501    0  0.00000000000E+00  0.00000000000E+00  0.25759145738E+04  0.25759145738E+04  0.25500000920E-02 0.  1.
       -2   -1    0    0    0  501  0.00000000000E+00  0.00000000000E+00 -0.16189656458E+04  0.16189656458E+04  0.25500000920E-02 0. -1.
    10030    2    1    2    0    0  0.00000000000E+00  0.00000000000E+00  0.95694892800E+03  0.41948802196E+04  0.40842709026E+04 0.  0.
        4    1    3    3  502    0 -0.40935616260E+03 -0.20641320673E+03 -0.15654277469E+04  0.16311788753E+04  0.12699999809E+01 0. -1.
       -4    1    3    3    0  502  0.40935616260E+03  0.20641320673E+03  0.25223766749E+04  0.25637013443E+04  0.12699999809E+01 0.  1.
</event>
<event>
 5   0  0.2661693E-07  0.2867147E+04  0.7818609E-02  0.8282720E-01
       -2   -1    0    0    0  501  0.00000000000E+00  0.00000000000E+00  0.10238476564E+04  0.10238476564E+04  0.25500000920E-02 0. -1.
        2   -1    0    0  501    0  0.00000000000E+00  0.00000000000E+00 -0.20072637669E+04  0.20072637669E+04  0.25500000920E-02 0.  1.
    10030    2    1    2    0    0  0.00000000000E+00  0.00000000000E+00 -0.98341611043E+03  0.30311114233E+04  0.28671465282E+04 0.  0.
        1    1    3    3  502    0 -0.68571994395E+03 -0.10799922712E+04  0.19223354833E+03  0.12936571743E+04  0.50400001928E-02 0. -1.
       -1    1    3    3    0  502  0.68571994395E+03  0.10799922712E+04 -0.11756496588E+04  0.17374542490E+04  0.50400001928E-02 0.  1.
</event>
<event>
 5   0  0.8583262E-08  0.3885902E+04  0.7818609E-02  0.8027968E-01
       -1   -1    0    0    0  501  0.00000000000E+00  0.00000000000E+00  0.23501998250E+04  0.23501998250E+04  0.50400001928E-02 0.  1.
        1   -1    0    0  501    0  0.00000000000E+00  0.00000000000E+00 -0.16062711503E+04  0.16062711503E+04  0.50400001928E-02 0. -1.
    10030    2    1    2    0    0  0.00000000000E+00  0.00000000000E+00  0.74392867466E+03  0.39564709753E+04  0.38859017879E+04 0.  0.
        1    1    3    3  502    0  0.38157998426E+03  0.15666468542E+04 -0.73172920163E+03  0.17707098223E+04  0.50400001928E-02 0.  1.
       -1    1    3    3    0  502 -0.38157998426E+03 -0.15666468542E+04  0.14756578763E+04  0.21857611530E+04  0.50400001928E-02 0. -1.
</event>
<event>
 5   0  0.2704088E-07  0.3866082E+04  0.7818609E-02  0.8032121E-01
       -2   -1    0    0    0  501  0.00000000000E+00  0.00000000000E+00  0.16588226778E+04  0.16588226778E+04  0.25500000920E-02 0. -1.
        2   -1    0    0  501    0  0.00000000000E+00  0.00000000000E+00 -0.22525897602E+04  0.22525897602E+04  0.25500000920E-02 0.  1.
    10030    2    1    2    0    0  0.00000000000E+00  0.00000000000E+00 -0.59376708242E+03  0.39114124380E+04  0.38660817260E+04 0.  0.
        5    1    3    3  502    0  0.13029784257E+04 -0.81549663901E+03 -0.14827348585E+04  0.21357228979E+04  0.46999998093E+01 0.  1.
       -5    1    3    3    0  502 -0.13029784257E+04  0.81549663901E+03  0.88896777608E+03  0.17756895401E+04  0.46999998093E+01 0. -1.
</event>
<event>
 5   0  0.2839279E-07  0.3166448E+04  0.7818609E-02  0.8197735E-01
       -2   -1    0    0    0  501  0.00000000000E+00  0.00000000000E+00  0.28303999120E+04  0.28303999120E+04  0.25500000920E-02 0. -1.
        2   -1    0    0  501    0  0.00000000000E+00  0.00000000000E+00 -0.88559872451E+03  0.88559872452E+03  0.25500000920E-02 0.  1.
    10030    2    1    2    0    0  0.00000000000E+00  0.00000000000E+00  0.19448011875E+04  0.37159986366E+04  0.31664482007E+04 0.  0.
        3    1    3    3  502    0  0.43311093327E+03 -0.33629297090E+03 -0.77060221248E+03  0.94578317964E+03  0.10100000352E+00 0.  1.
       -3    1    3    3    0  502 -0.43311093327E+03  0.33629297090E+03  0.27154034000E+04  0.27702154569E+04  0.10100000352E+00 0. -1.
</event>
<event>
 5   0  0.2666978E-07  0.3978091E+04  0.7818609E-02  0.8008981E-01
        2   -1    0    0  501    0  0.00000000000E+00  0.00000000000E+00  0.22990386745E+04  0.22990386745E+04  0.25500000920E-02 0.  1.
       -2   -1    0    0    0  501  0.00000000000E+00  0.00000000000E+00 -0.17208501348E+04  0.17208501348E+04  0.25500000920E-02 0. -1.
    10030    2    1    2    0    0  0.00000000000E+00  0.00000000000E+00  0.57818853974E+03  0.40198888093E+04  0.39780905032E+04 0.  0.
        4    1    3    3  502    0  0.41363058974E+03 -0.16292255632E+03  0.22481925033E+04  0.22917253694E+04  0.12699999809E+01 0.  1.
       -4    1    3    3    0  502 -0.41363058974E+03  0.16292255632E+03 -0.16700039635E+04  0.17281634399E+04  0.12699999809E+01 0. -1.
</event>
<event>
 5   0  0.2730801E-07  0.4114608E+04  0.7818609E-02  0.7981817E-01
        2   -1    0    0  501    0  0.00000000000E+00  0.00000000000E+00  0.26214957245E+04  0.26214957245E+04  0.25500000920E-02 0.  1.
       -2   -1    0    0    0  501  0.00000000000E+00  0.00000000000E+00 -0.16145360522E+04  0.16145360522E+04  0.25500000920E-02 0. -1.
    10030    2    1    2    0    0  0.00000000000E+00  0.00000000000E+00  0.10069596723E+04  0.42360317767E+04  0.41146078102E+04 0.  0.
        2    1    3    3  502    0 -0.17165786881E+04 -0.65050517267E+03  0.14597060795E+04  0.23453232636E+04  0.25500000920E-02 0.  1.
       -2    1    3    3    0  502  0.17165786881E+04  0.65050517267E+03 -0.45274640726E+03  0.18907085131E+04  0.25500000920E-02 0. -1.
</event>
<event>
 5   0  0.2730801E-07  0.4022457E+04  0.7818609E-02  0.8000031E-01
       -2   -1    0    0    0  501  0.00000000000E+00  0.00000000000E+00  0.22149979693E+04  0.22149979693E+04  0.25500000920E-02 0. -1.
        2   -1    0    0  501    0  0.00000000000E+00  0.00000000000E+00 -0.18262051370E+04  0.18262051370E+04  0.25500000920E-02 0.  1.
    10030    2    1    2    0    0  0.00000000000E+00  0.00000000000E+00  0.38879283228E+03  0.40412031063E+04  0.40224572937E+04 0.  0.
        2    1    3    3  502    0 -0.81353013743E+03  0.17574802526E+04 -0.35078575220E+03  0.19681511037E+04  0.25500000920E-02 0.  1.
       -2    1    3    3    0  502  0.81353013743E+03 -0.17574802526E+04  0.73957858448E+03  0.20730520026E+04  0.25500000920E-02 0. -1.
</event>
<event>
 5   0  0.2730801E-07  0.3099854E+04  0.7818609E-02  0.8215778E-01
        2   -1    0    0  501    0  0.00000000000E+00  0.00000000000E+00  0.22451150305E+04  0.22451150305E+04  0.25500000920E-02 0. -1.
       -2   -1    0    0    0  501  0.00000000000E+00  0.00000000000E+00 -0.10700002808E+04  0.10700002808E+04  0.25500000920E-02 0.  1.
    10030    2    1    2    0    0  0.00000000000E+00  0.00000000000E+00  0.11751147497E+04  0.33151153114E+04  0.30998540051E+04 0.  0.
        2    1    3    3  502    0 -0.62234367920E+03 -0.53090338063E+03  0.19954504364E+04  0.21566159831E+04  0.25500000920E-02 0. -1.
       -2    1    3    3    0  502  0.62234367920E+03  0.53090338063E+03 -0.82033568669E+03  0.11584993282E+04  0.25500000920E-02 0.  1.
</event>
<event>
 5   0  0.2839279E-07  0.3876508E+04  0.7818609E-02  0.8029933E-01
       -2   -1    0    0    0  501  0.00000000000E+00  0.00000000000E+00  0.23306817160E+04  0.23306817160E+04  0.25500000920E-02 0. -1.
        2   -1    0    0  501    0  0.00000000000E+00  0.00000000000E+00 -0.16119013378E+04  0.16119013378E+04  0.25500000920E-02 0.  1.
    10030    2    1    2    0    0  0.00000000000E+00  0.00000000000E+00  0.71878037816E+03  0.39425830538E+04  0.38765082102E+04 0.  0.
        3    1    3    3  502    0 -0.38768655249E+03 -0.71375237403E+02  0.22894814907E+04  0.23231704187E+04  0.10100000352E+00 0. -1.
       -3    1    3    3    0  502  0.38768655249E+03  0.71375237403E+02 -0.15707011126E+04  0.16194126351E+04  0.10100000352E+00 0.  1.
</event>
<event>
 5   0  0.2666978E-07  0.4024362E+04  0.7818609E-02  0.7999650E-01
        2   -1    0    0  501    0  0.00000000000E+00  0.00000000000E+00  0.23585127735E+04  0.23585127735E+04  0.25500000920E-02 0.  1.
       -2   -1    0    0    0  501  0.00000000000E+00  0.00000000000E+00 -0.17167057170E+04  0.17167057170E+04  0.25500000920E-02 0. -1.
    10030    2    1    2    0    0  0.00000000000E+00  0.00000000000E+00  0.64180705646E+03  0.40752184905E+04  0.40243619926E+04 0.  0.
        4    1    3    3  502    0 -0.60091814538E+02 -0.12538396201E+04  0.19134009244E+04  0.22884120104E+04  0.12699999809E+01 0.  1.
       -4    1    3    3    0  502  0.60091814538E+02  0.12538396201E+04 -0.12715938679E+04  0.17868064800E+04  0.12699999809E+01 0. -1.
</event>
<event>
 5   0  0.2661693E-07  0.3984808E+04  0.7818609E-02  0.8007618E-01
        2   -1    0    0  501    0  0.00000000000E+00  0.00000000000E+00  0.23630550535E+04  0.23630550535E+04  0.25500000920E-02 0.  1.
       -2   -1    0    0    0  501  0.00000000000E+00  0.00000000000E+00 -0.16798906121E+04  0.16798906121E+04  0.25500000920E-02 0. -1.
    10030    2    1    2    0    0  0.00000000000E+00  0.00000000000E+00  0.68316444141E+03  0.40429456656E+04  0.39848081511E+04 0.  0.
        1    1    3    3  502    0 -0.29311228358E+03 -0.13068243716E+04  0.18382205542E+04  0.22743701447E+04  0.50400001928E-02 0.  1.
       -1    1    3    3    0  502  0.29311228358E+03  0.13068243716E+04 -0.11550561128E+04  0.17685755208E+04  0.50400001928E-02 0. -1.
</event>
<event>
 5   0  0.8583262E-08  0.4026925E+04  0.7818609E-02  0.7999137E-01
        1   -1    0    0  501    0  0.00000000000E+00  0.00000000000E+00  0.24112686246E+04  0.24112686246E+04  0.50400001928E-02 0. -1.
       -1   -1    0    0    0  501  0.00000000000E+00  0.00000000000E+00 -0.16812852459E+04  0.16812852459E+04  0.50400001928E-02 0.  1.
    10030    2    1    2    0    0  0.00000000000E+00  0.00000000000E+00  0.72998337871E+03  0.40925538706E+04  0.40269245648E+04 0.  0.
        1    1    3    3  502    0 -0.10142523094E+04 -0.14240600710E+04  0.13799548166E+04  0.22273145554E+04  0.50400001928E-02 0. -1.
       -1    1    3    3    0  502  0.10142523094E+04  0.14240600710E+04 -0.64997143786E+03  0.18652393152E+04  0.50400001928E-02 0.  1.
</event>
<event>
 5   0  0.8528625E-08  0.3967256E+04  0.7818609E-02  0.8011185E-01
        1   -1    0    0  501    0  0.00000000000E+00  0.00000000000E+00  0.23795676731E+04  0.23795676731E+04  0.50400001928E-02 0. -1.
       -1   -1    0    0    0  501  0.00000000000E+00  0.00000000000E+00 -0.16535690927E+04  0.16535690928E+04  0.50400001928E-02 0.  1.
    10030    2    1    2    0    0  0.00000000000E+00  0.00000000000E+00  0.72599858034E+03  0.40331367658E+04  0.39672557560E+04 0.  0.
        3    1    3    3  502    0 -0.14303003698E+03 -0.18467035998E+04 -0.35872507437E+03  0.18866519198E+04  0.10100000352E+00 0. -1.
       -3    1    3    3    0  502  0.14303003698E+03  0.18467035998E+04  0.10847236547E+04  0.21464848461E+04  0.10100000352E+00 0.  1.
</event>
<event>
 5   0  0.8583262E-08  0.4004768E+04  0.7818609E-02  0.8003585E-01
       -1   -1    0    0    0  501  0.00000000000E+00  0.00000000000E+00  0.14535292812E+04  0.14535292812E+04  0.50400001928E-02 0.  1.
        1   -1    0    0  501    0  0.00000000000E+00  0.00000000000E+00 -0.27584867943E+04  0.27584867943E+04  0.50400001928E-02 0. -1.
    10030    2    1    2    0    0  0.00000000000E+00  0.00000000000E+00 -0.13049575131E+04  0.42120160755E+04  0.40047678222E+04 0.  0.
        1    1    3    3  502    0  0.16245205501E+04 -0.95349642819E+03  0.61874925332E+02  0.18846885586E+04  0.50400001928E-02 0.  1.
       -1    1    3    3    0  502 -0.16245205501E+04  0.95349642819E+03 -0.13668324384E+04  0.23273275169E+04  0.50400001928E-02 0. -1.
</event>
<event>
 5   0  0.2666978E-07  0.3326260E+04  0.7818609E-02  0.8156245E-01
        2   -1    0    0  501    0  0.00000000000E+00  0.00000000000E+00  0.27113844426E+04  0.27113844426E+04  0.25500000920E-02 0. -1.
       -2   -1    0    0    0  501  0.00000000000E+00  0.00000000000E+00 -0.10201438489E+04  0.10201438489E+04  0.25500000920E-02 0.  1.
    10030    2    1    2    0    0  0.00000000000E+00  0.00000000000E+00  0.16912405937E+04  0.37315282915E+04  0.33262604595E+04 0.  0.
        4    1    3    3  502    0  0.68741164129E+03 -0.99288650331E+03  0.21284675398E+04  0.24471890107E+04  0.12699999809E+01 0. -1.
       -4    1    3    3    0  502 -0.68741164129E+03  0.99288650331E+03 -0.43722694608E+03  0.12843392808E+04  0.12699999809E+01 0.  1.
</event>
<event>
 5   0  0.2730801E-07  0.4000154E+04  0.7818609E-02  0.8004515E-01
       -2   -1    0    0    0  501  0.00000000000E+00  0.00000000000E+00  0.17186772686E+04  0.17186772686E+04  0.25500000920E-02 0. -1.
        2   -1    0    0  501    0  0.00000000000E+00  0.00000000000E+00 -0.23275505529E+04  0.23275505529E+04  0.25500000920E-02 0.  1.
    10030    2    1    2    0    0  0.00000000000E+00  0.00000000000E+00 -0.60887328427E+03  0.40462278214E+04  0.40001541104E+04 0.  0.
        2    1    3    3  502    0  0.15679318510E+04 -0.40987991405E+03  0.88119723604E+03  0.18447006267E+04  0.25500000920E-02 0. -1.
       -2    1    3    3    0  502 -0.15679318510E+04  0.40987991405E+03 -0.14900705203E+04  0.22015271947E+04  0.25500000920E-02 0.  1.
</event>
<event>
 5   0  0.2730801E-07  0.3992457E+04  0.7818609E-02  0.8006070E-01
       -2   -1    0    0    0  501  0.00000000000E+00  0.00000000000E+00  0.30896335466E+04  0.30896335466E+04  0.25500000920E-02 0. -1.
        2   -1    0    0  501    0  0.00000000000E+00  0.00000000000E+00 -0.12897736034E+04  0.12897736034E+04  0.25500000920E-02 0.  1.
    10030    2    1    2    0    0  0.00000000000E+00  0.00000000000E+00  0.17998599433E+04  0.43794071500E+04  0.39924567837E+04 0.  0.
        2    1    3    3  502    0  0.92823328492E+03 -0.17427041362E+04  0.57770216009E+03  0.20572735655E+04  0.25500000920E-02 0.  1.
       -2    1    3    3    0  502 -0.92823328492E+03  0.17427041362E+04  0.12221577832E+04  0.23221335845E+04  0.25500000920E-02 0. -1.
</event>
<event>
 5   0  0.2661693E-07  0.3971631E+04  0.7818609E-02  0.8010294E-01
       -2   -1    0    0    0  501  0.00000000000E+00  0.00000000000E+00  0.19326318721E+04  0.19326318721E+04  0.25500000920E-02 0. -1.
        2   -1    0    0  501    0  0.00000000000E+00  0.00000000000E+00 -0.20404629632E+04  0.20404629632E+04  0.25500000920E-02 0.  1.
    10030    2    1    2    0    0  0.00000000000E+00  0.00000000000E+00 -0.10783109110E+03  0.39730948353E+04  0.39716312803E+04 0.  0.
        1    1    3    3  502    0 -0.13494546905E+03 -0.93714947799E+03  0.16922947518E+04  0.19391547000E+04  0.50400001928E-02 0. -1.
       -1    1    3    3    0  502  0.13494546905E+03  0.93714947799E+03 -0.18001258429E+04  0.20339401353E+04  0.50400001928E-02 0.  1.
</event>
<event>
 5   0  0.2704088E-07  0.3991718E+04  0.7818609E-02  0.8006219E-01
       -2   -1    0    0    0  501  0.00000000000E+00  0.00000000000E+00  0.21323592429E+04  0.21323592430E+04  0.25500000920E-02 0. -1.
        2   -1    0    0  501    0  0.00000000000E+00  0.00000000000E+00 -0.18680968826E+04  0.18680968826E+04  0.25500000920E-02 0.  1.
    10030    2    1    2    0    0  0.00000000000E+00  0.00000000000E+00  0.26426236037E+03  0.40004561255E+04  0.39917182537E+04 0.  0.
        5    1    3    3  502    0 -0.47050333193E+03  0.18933125435E+04 -0.29001027955E+03  0.19723422180E+04  0.46999998093E+01 0.  1.
       -5    1    3    3    0  502  0.47050333193E+03 -0.18933125435E+04  0.55427263993E+03  0.20281139075E+04  0.46999998093E+01 0. -1.
</event>
<event>
 5   0  0.8528625E-08  0.3905927E+04  0.7818609E-02  0.8023798E-01
        1   -1    0    0  501    0  0.00000000000E+00  0.00000000000E+00  0.11434926438E+04  0.11434926438E+04  0.50400001928E-02 0.  1.
       -1   -1    0    0    0  501  0.00000000000E+00  0.00000000000E+00 -0.33354535290E+04  0.33354535290E+04  0.50400001928E-02 0. -1.
    10030    2    1    2    0    0  0.00000000000E+00  0.00000000000E+00 -0.21919608853E+04  0.44789461728E+04  0.39059270726E+04 0.  0.
        2    1    3    3  502    0 -0.12483946615E+04 -0.11153074260E+04  0.57394303230E+02  0.16750205943E+04  0.25500000920E-02 0.  1.
       -2    1    3    3    0  502  0.12483946615E+04  0.11153074260E+04 -0.22493551885E+04  0.28039255785E+04  0.25500000920E-02 0. -1.
</event>
<event>
 5   0  0.8528625E-08  0.4074544E+04  0.7818609E-02  0.7989675E-01
        1   -1    0    0  501    0  0.00000000000E+00  0.00000000000E+00  0.14185313145E+04  0.14185313145E+04  0.50400001928E-02 0. -1.
       -1   -1    0    0    0  501  0.00000000000E+00  0.00000000000E+00 -0.29258970941E+04  0.29258970941E+04  0.50400001928E-02 0.  1.
    10030    2    1    2    0    0  0.00000000000E+00  0.00000000000E+00 -0.15073657796E+04  0.43444284087E+04  0.40745437296E+04 0.  0.
        3    1    3    3  502    0  0.75069847543E+03  0.24878423552E+03  0.12481847943E+04  0.14776356411E+04  0.10100000352E+00 0. -1.
       -3    1    3    3    0  502 -0.75069847543E+03 -0.24878423552E+03 -0.27555505739E+04  0.28667927676E+04  0.10100000352E+00 0.  1.
</event>
<event>
 5   0  0.8583262E-08  0.3934532E+04  0.7818609E-02  0.8017885E-01
       -1   -1    0    0    0  501  0.00000000000E+00  0.00000000000E+00  0.17359966818E+04  0.17359966818E+04  0.50400001928E-02 0. -1.
        1   -1    0    0  501    0  0.00000000000E+00  0.00000000000E+00 -0.22293447348E+04  0.22293447348E+04  0.50400001928E-02 0.  1.
    10030    2    1    2    0    0  0.00000000000E+00  0.00000000000E+00 -0.49334805307E+03  0.39653414166E+04  0.39345317700E+04 0.  0.
        1    1    3    3  502    0  0.17877109106E+04  0.79997324779E+03 -0.60109464168E+02  0.19594592735E+04  0.50400001928E-02 0.  1.
       -1    1    3    3    0  502 -0.17877109106E+04 -0.79997324779E+03 -0.43323858890E+03  0.20058821431E+04  0.50400001928E-02 0. -1.
</event>
<event>
 5   0  0.8528625E-08  0.3975756E+04  0.7818609E-02  0.8009455E-01
       -1   -1    0    0    0  501  0.00000000000E+00  0.00000000000E+00  0.27079639910E+04  0.27079639910E+04  0.50400001928E-02 0.  1.
        1   -1    0    0  501    0  0.00000000000E+00  0.00000000000E+00 -0.14592727547E+04  0.14592727548E+04  0.50400001928E-02 0. -1.
    10030    2    1    2    0    0  0.00000000000E+00  0.00000000000E+00  0.12486912363E+04  0.41672367458E+04  0.39757555624E+04 0.  0.
        2    1    3    3  502    0 -0.69767663596E+03  0.12301452291E+04  0.20886428969E+04  0.25223875840E+04  0.25500000920E-02 0.  1.
       -2    1    3    3    0  502  0.69767663596E+03 -0.12301452291E+04 -0.83995166058E+03  0.16448491618E+04  0.25500000920E-02 0. -1.
</event>
<event>
 5   0  0.2839279E-07  0.3985830E+04  0.7818609E-02  0.8007411E-01
       -2   -1    0    0    0  501  0.00000000000E+00  0.00000000000E+00  0.12250574564E+04  0.12250574564E+04  0.25500000920E-02 0. -1.
        2   -1    0    0  501    0  0.00000000000E+00  0.00000000000E+00 -0.32420596509E+04  0.32420596509E+04  0.25500000920E-02 0.  1.
    10030    2    1    2    0    0  0.00000000000E+00  0.00000000000E+00 -0.20170021945E+04  0.44671171073E+04  0.39858295746E+04 0.  0.
        3    1    3    3  502    0 -0.68911812792E+03  0.16689931762E+04 -0.63284918152E+02  0.18067725389E+04  0.10100000352E+00 0. -1.
       -3    1    3    3    0  502  0.68911812792E+03 -0.16689931762E+04 -0.19537172763E+04  0.26603445683E+04  0.10100000352E+00 0.  1.
</event>
<event>
 5   0  0.8528625E-08  0.4101938E+04  0.7818609E-02  0.7984292E-01
       -1   -1    0    0    0  501  0.00000000000E+00  0.00000000000E+00  0.27775165804E+04  0.27775165804E+04  0.50400001928E-02 0. -1.
        1   -1    0    0  501    0  0.00000000000E+00  0.00000000000E+00 -0.15144732009E+04  0.15144732009E+04  0.50400001928E-02 0.  1.
    10030    2    1    2    0    0  0.00000000000E+00  0.00000000000E+00  0.12630433795E+04  0.42919897813E+04  0.41019382862E+04 0.  0.
        2    1    3    3  502    0  0.15571457049E+04 -0.12032652189E+04  0.12361572626E+04  0.23239265718E+04  0.25500000920E-02 0. -1.
       -2    1    3    3    0  502 -0.15571457049E+04  0.12032652189E+04  0.26886116935E+02  0.19680632095E+04  0.25500000920E-02 0.  1.
</event>
<event>
 5   0  0.2704088E-07  0.3984161E+04  0.7818609E-02  0.8007749E-01
       -2   -1    0    0    0  501  0.00000000000E+00  0.00000000000E+00  0.23605088136E+04  0.23605088136E+04  0.25500000920E-02 0.  1.
        2   -1    0    0  501    0  0.00000000000E+00  0.00000000000E+00 -0.16811562416E+04  0.16811562416E+04  0.25500000920E-02 0. -1.
    10030    2    1    2    0    0  0.00000000000E+00  0.00000000000E+00  0.67935257194E+03  0.40416650552E+04  0.39841607023E+04 0.  0.
        5    1    3    3  502    0  0.14939338250E+04  0.17290017057E+03  0.16649118124E+04  0.22435877908E+04  0.46999998093E+01 0.  1.
       -5    1    3    3    0  502 -0.14939338250E+04 -0.17290017057E+03 -0.98555924041E+03  0.17980772644E+04  0.46999998093E+01 0. -1.
</event>
<event>
 5   0  0.2666978E-07  0.3766104E+04  0.7818609E-02  0.8053468E-01
       -2   -1    0    0    0  501  0.00000000000E+00  0.00000000000E+00  0.22468378409E+04  0.22468378409E+04  0.25500000920E-02 0.  1.
        2   -1    0    0  501    0  0.00000000000E+00  0.00000000000E+00 -0.15781669479E+04  0.15781669479E+04  0.25500000920E-02 0. -1.
    10030    2    1    2    0    0  0.00000000000E+00  0.00000000000E+00  0.66867089300E+03  0.38250047887E+04  0.37661042034E+04 0.  0.
        4    1    3    3  502    0 -0.58014358305E+03  0.88063486254E+03  0.19187981795E+04  0.21894913576E+04  0.12699999809E+01 0.  1.
       -4    1    3    3    0  502  0.58014358305E+03 -0.88063486254E+03 -0.12501272865E+04  0.16355134312E+04  0.12699999809E+01 0. -1.
</event>
<event>
 5   0  0.8528625E-08  0.3491780E+04  0.7818609E-02  0.8115741E-01
        1   -1    0    0  501    0  0.00000000000E+00  0.00000000000E+00  0.20491052620E+04  0.20491052620E+04  0.50400001928E-02 0.  1.
       -1   -1    0    0    0  501  0.00000000000E+00  0.00000000000E+00 -0.14875426868E+04  0.14875426868E+04  0.50400001928E-02 0. -1.
    10030    2    1    2    0    0  0.00000000000E+00  0.00000000000E+00  0.56156257522E+03  0.35366479487E+04  0.34917798023E+04 0.  0.
        5    1    3    3  502    0  0.13187420180E+04 -0.45382206693E+03 -0.78298788449E+03  0.15994146104E+04  0.46999998093E+01 0. -1.
       -5    1    3    3    0  502 -0.13187420180E+04  0.45382206693E+03  0.13445504597E+04  0.19372333384E+04  0.46999998093E+01 0.  1.
</event>
<event>
 5   0  0.8528625E-08  0.4103183E+04  0.7818609E-02  0.7984049E-01
        1   -1    0    0  501    0  0.00000000000E+00  0.00000000000E+00  0.15562209930E+04  0.15562209930E+04  0.50400001928E-02 0.  1.
       -1   -1    0    0    0  501  0.00000000000E+00  0.00000000000E+00 -0.27046465004E+04  0.27046465004E+04  0.50400001928E-02 0. -1.
    10030    2    1    2    0    0  0.00000000000E+00  0.00000000000E+00 -0.11484255074E+04  0.42608674934E+04  0.41031829901E+04 0.  0.
        3    1    3    3  502    0 -0.12647412750E+04  0.87928547547E+03  0.83297044319E+03  0.17511576769E+04  0.10100000352E+00 0.  1.
       -3    1    3    3    0  502  0.12647412750E+04 -0.87928547547E+03 -0.19813959506E+04  0.25097098165E+04  0.10100000352E+00 0. -1.
</event>
<event>
 5   0  0.8583262E-08  0.3961013E+04  0.7818609E-02  0.8012458E-01
       -1   -1    0    0    0  501  0.00000000000E+00  0.00000000000E+00  0.19877628549E+04  0.19877628549E+04  0.50400001928E-02 0.  1.
        1   -1    0    0  501    0  0.00000000000E+00  0.00000000000E+00 -0.19732761660E+04  0.19732761661E+04  0.50400001928E-02 0. -1.
    10030    2    1    2    0    0  0.00000000000E+00  0.00000000000E+00  0.14486688806E+02  0.39610390209E+04  0.39610125298E+04 0.  0.
        1    1    3    3  502    0 -0.11046470050E+04  0.16437619558E+04 -0.71335529107E+01  0.19804669299E+04  0.50400001928E-02 0.  1.
       -1    1    3    3    0  502  0.11046470050E+04 -0.16437619558E+04  0.21620241717E+02  0.19805720910E+04  0.50400001928E-02 0. -1.
</event>
<event>
 5   0  0.8528625E-08  0.3579663E+04  0.7818609E-02  0.8095166E-01
        1   -1    0    0  501    0  0.00000000000E+00  0.00000000000E+00  0.20765141461E+04  0.20765141461E+04  0.50400001928E-02 0.  1.
       -1   -1    0    0    0  501  0.00000000000E+00  0.00000000000E+00 -0.15427282452E+04  0.15427282452E+04  0.50400001928E-02 0. -1.
    10030    2    1    2    0    0  0.00000000000E+00  0.00000000000E+00  0.53378590096E+03  0.36192423913E+04  0.35796631264E+04 0.  0.
        5    1    3    3  502    0 -0.77162582892E+03 -0.16013387804E+04  0.55336432160E+02  0.17784196693E+04  0.46999998093E+01 0.  1.
       -5    1    3    3    0  502  0.77162582892E+03  0.16013387804E+04  0.47844946880E+03  0.18408227220E+04  0.46999998093E+01 0. -1.
</event>
<event>
 5   0  0.2730801E-07  0.3984709E+04  0.7818609E-02  0.8007638E-01
       -2   -1    0    0    0  501  0.00000000000E+00  0.00000000000E+00  0.24160347096E+04  0.24160347096E+04  0.25500000920E-02 0. -1.
        2   -1    0    0  501    0  0.00000000000E+00  0.00000000000E+00 -0.16429714787E+04  0.16429714787E+04  0.25500000920E-02 0.  1.
    10030    2    1    2    0    0  0.00000000000E+00  0.00000000000E+00  0.77306323089E+03  0.40590061883E+04  0.39847088323E+04 0.  0.
        2    1    3    3  502    0  0.32158652083E+03  0.84056715806E+03 -0.14241106347E+04  0.16846549016E+04  0.25500000920E-02 0.  1.
       -2    1    3    3    0  502 -0.32158652083E+03 -0.84056715806E+03  0.21971738655E+04  0.23743512868E+04  0.25500000920E-02 0. -1.
</event>
<event>
 5   0  0.8528625E-08  0.4003166E+04  0.7818609E-02  0.8003908E-01
        1   -1    0    0  501    0  0.00000000000E+00  0.00000000000E+00  0.20420463502E+04  0.20420463502E+04  0.50400001928E-02 0.  1.
       -1   -1    0    0    0  501  0.00000000000E+00  0.00000000000E+00 -0.19619211419E+04  0.19619211419E+04  0.50400001928E-02 0. -1.
    10030    2    1    2    0    0  0.00000000000E+00  0.00000000000E+00  0.80125208275E+02  0.40039674921E+04  0.40031657009E+04 0.  0.
        2    1    3    3  502    0  0.34531167255E+03  0.13458125308E+02 -0.19318577301E+04  0.19625227545E+04  0.25500000920E-02 0. -1.
       -2    1    3    3    0  502 -0.34531167255E+03 -0.13458125308E+02  0.20119829384E+04  0.20414447376E+04  0.25500000920E-02 0.  1.
</event>
<event>
 5   0  0.2704088E-07  0.4001919E+04  0.7818609E-02  0.8004160E-01
        2   -1    0    0  501    0  0.00000000000E+00  0.00000000000E+00  0.24158549774E+04  0.24158549774E+04  0.25500000920E-02 0.  1.
       -2   -1    0    0    0  501  0.00000000000E+00  0.00000000000E+00 -0.16573174218E+04  0.16573174218E+04  0.25500000920E-02 0. -1.
    10030    2    1    2    0    0  0.00000000000E+00  0.00000000000E+00  0.75853755555E+03  0.40731723992E+04  0.40019188111E+04 0.  0.
        5    1    3    3  502    0 -0.80860108116E+03 -0.69764527025E+03  0.21015172500E+04  0.23573165832E+04  0.46999998093E+01 0.  1.
       -5    1    3    3    0  502  0.80860108116E+03  0.69764527025E+03 -0.13429796944E+04  0.17158558160E+04  0.46999998093E+01 0. -1.
</event>
<event>
 5   0  0.8528625E-08  0.3984990E+04  0.7818609E-02  0.8007581E-01
       -1   -1    0    0    0  501  0.00000000000E+00  0.00000000000E+00  0.16848729691E+04  0.16848729691E+04  0.50400001928E-02 0.  1.
        1   -1    0    0  501    0  0.00000000000E+00  0.00000000000E+00 -0.23562826411E+04  0.23562826411E+04  0.50400001928E-02 0. -1.
    10030    2    1    2    0    0  0.00000000000E+00  0.00000000000E+00 -0.67140967197E+03  0.40411556101E+04  0.39849903034E+04 0.  0.
        3    1    3    3  502    0  0.11801379807E+04  0.19647061933E+03 -0.19514947757E+04  0.22890299752E+04  0.10100000352E+00 0. -1.
       -3    1    3    3    0  502 -0.11801379807E+04 -0.19647061933E+03  0.12800851037E+04  0.17521256349E+04  0.10100000352E+00 0.  1.
</event>
<event>
 5   0  0.2839279E-07  0.2885470E+04  0.7818609E-02  0.8277214E-01
        2   -1    0    0  501    0  0.00000000000E+00  0.00000000000E+00  0.12829871597E+04  0.12829871597E+04  0.25500000920E-02 0.  1.
       -2   -1    0    0    0  501  0.00000000000E+00  0.00000000000E+00 -0.16223729990E+04  0.16223729990E+04  0.25500000920E-02 0. -1.
    10030    2    1    2    0    0  0.00000000000E+00  0.00000000000E+00 -0.33938583925E+03  0.29053601587E+04  0.28854696159E+04 0.  0.
        3    1    3    3  502    0 -0.84416066191E+03  0.91988184907E+03 -0.89765235141E+03  0.15377157063E+04  0.10100000352E+00 0. -1.
       -3    1    3    3    0  502  0.84416066191E+03 -0.91988184907E+03  0.55826651216E+03  0.13676444524E+04  0.10100000352E+00 0.  1.
</event>
<event>
 5   0  0.2704088E-07  0.3869147E+04  0.7818609E-02  0.8031477E-01
        2   -1    0    0  501    0  0.00000000000E+00  0.00000000000E+00  0.25011190296E+04  0.25011190296E+04  0.25500000920E-02 0.  1.
       -2   -1    0    0    0  501  0.00000000000E+00  0.00000000000E+00 -0.14963602999E+04  0.14963602999E+04  0.25500000920E-02 0. -1.
    10030    2    1    2    0    0  0.00000000000E+00  0.00000000000E+00  0.10047587296E+04  0.39974793295E+04  0.38691473072E+04 0.  0.
        5    1    3    3  502    0 -0.18365518644E+04 -0.33523582434E+03  0.10263975923E+04  0.21304506369E+04  0.46999998093E+01 0.  1.
       -5    1    3    3    0  502  0.18365518644E+04  0.33523582434E+03 -0.21638862615E+02  0.18670286926E+04  0.46999998093E+01 0. -1.
</event>
<event>
 5   0  0.2704088E-07  0.4005377E+04  0.7818609E-02  0.8003463E-01
       -2   -1    0    0    0  501  0.00000000000E+00  0.00000000000E+00  0.22929856180E+04  0.22929856180E+04  0.25500000920E-02 0. -1.
        2   -1    0    0  501    0  0.00000000000E+00  0.00000000000E+00 -0.17491437530E+04  0.17491437530E+04  0.25500000920E-02 0.  1.
    10030    2    1    2    0    0  0.00000000000E+00  0.00000000000E+00  0.54384186508E+03  0.40421293710E+04  0.40053771205E+04 0.  0.
        5    1    3    3  502    0  0.10971331555E+04 -0.16726885358E+04  0.36846102944E+03  0.20340535192E+04  0.46999998093E+01 0. -1.
       -5    1    3    3    0  502 -0.10971331555E+04  0.16726885358E+04  0.17538083564E+03  0.20080758518E+04  0.46999998093E+01 0.  1.
</event>
<event>
 5   0  0.2839279E-07  0.3994969E+04  0.7818609E-02  0.8005562E-01
       -2   -1    0    0    0  501  0.00000000000E+00  0.00000000000E+00  0.17478806522E+04  0.17478806522E+04  0.25500000920E-02 0. -1.
        2   -1    0    0  501    0  0.00000000000E+00  0.00000000000E+00 -0.22827330951E+04  0.22827330951E+04  0.25500000920E-02 0.  1.
    10030    2    1    2    0    0  0.00000000000E+00  0.00000000000E+00 -0.53485244294E+03  0.40306137473E+04  0.39949693421E+04 0.  0.
        3    1    3    3  502    0 -0.17523112397E+04  0.71886943341E+03 -0.90757694645E+03  0.21002532864E+04  0.10100000352E+00 0.  1.
       -3    1    3    3    0  502  0.17523112397E+04 -0.71886943341E+03  0.37272450351E+03  0.19303604609E+04  0.10100000352E+00 0. -1.
</event>
<event>
 5   0  0.8583262E-08  0.3421069E+04  0.7818609E-02  0.8132755E-01
        1   -1    0    0  501    0  0.00000000000E+00  0.00000000000E+00  0.19945513863E+04  0.19945513863E+04  0.50400001928E-02 0.  1.
       -1   -1    0    0    0  501  0.00000000000E+00  0.00000000000E+00 -0.14669606625E+04  0.14669606625E+04  0.50400001928E-02 0. -1.
    10030    2    1    2    0    0  0.00000000000E+00  0.00000000000E+00  0.52759072378E+03  0.34615120489E+04  0.34210690862E+04 0.  0.
        1    1    3    3  502    0  0.96589938012E+03 -0.87401273265E+02 -0.11618782726E+04  0.15134601797E+04  0.50400001928E-02 0. -1.
       -1    1    3    3    0  502 -0.96589938012E+03  0.87401273265E+02  0.16894689964E+04  0.19480518692E+04  0.50400001928E-02 0.  1.
</event>
<event>
 5   0  0.8528625E-08  0.3965887E+04  0.7818609E-02  0.8011464E-01
        1   -1    0    0  501    0  0.00000000000E+00  0.00000000000E+00  0.28250165744E+04  0.28250165744E+04  0.50400001928E-02 0. -1.
       -1   -1    0    0    0  501  0.00000000000E+00  0.00000000000E+00 -0.13918732508E+04  0.13918732508E+04  0.50400001928E-02 0.  1.
    10030    2    1    2    0    0  0.00000000000E+00  0.00000000000E+00  0.14331433236E+04  0.42168898252E+04  0.39658870397E+04 0.  0.
        4    1    3    3  502    0  0.22570608682E+03  0.19371931506E+04  0.33555914290E+03  0.19789547977E+04  0.12699999809E+01 0. -1.
       -4    1    3    3    0  502 -0.22570608682E+03 -0.19371931506E+04  0.10975841807E+04  0.22379350274E+04  0.12699999809E+01 0.  1.
</event>
<event>
 5   0  0.8528625E-08  0.3911850E+04  0.7818609E-02  0.8022569E-01
        1   -1    0    0  501    0  0.00000000000E+00  0.00000000000E+00  0.27123044421E+04  0.27123044421E+04  0.50400001928E-02 0. -1.
       -1   -1    0    0    0  501  0.00000000000E+00  0.00000000000E+00 -0.14104770444E+04  0.14104770444E+04  0.50400001928E-02 0.  1.
    10030    2    1    2    0    0  0.00000000000E+00  0.00000000000E+00  0.13018273977E+04  0.41227814864E+04  0.39118502798E+04 0.  0.
        5    1    3    3  502    0  0.23806754403E+03 -0.98300389953E+03 -0.11134673697E+04  0.15042621099E+04  0.46999998093E+01 0.  1.
       -5    1    3    3    0  502 -0.23806754403E+03  0.98300389953E+03  0.24152947674E+04  0.26185193765E+04  0.46999998093E+01 0. -1.
</event>
<event>
 5   0  0.2730801E-07  0.3844703E+04  0.7818609E-02  0.8036629E-01
        2   -1    0    0  501    0  0.00000000000E+00  0.00000000000E+00  0.21015387209E+04  0.21015387209E+04  0.25500000920E-02 0.  1.
       -2   -1    0    0    0  501  0.00000000000E+00  0.00000000000E+00 -0.17584429071E+04  0.17584429071E+04  0.25500000920E-02 0. -1.
    10030    2    1    2    0    0  0.00000000000E+00  0.00000000000E+00  0.34309581388E+03  0.38599816280E+04  0.38447032956E+04 0.  0.
        2    1    3    3  502    0  0.10952877831E+03  0.13928223170E+04  0.14972060759E+04  0.20478224029E+04  0.25500000920E-02 0.  1.
       -2    1    3    3    0  502 -0.10952877831E+03 -0.13928223170E+04 -0.11541102621E+04  0.18121592251E+04  0.25500000920E-02 0. -1.
</event>
<event>
 5   0  0.8528625E-08  0.3906699E+04  0.7818609E-02  0.8023637E-01
       -1   -1    0    0    0  501  0.00000000000E+00  0.00000000000E+00  0.19771930089E+04  0.19771930089E+04  0.50400001928E-02 0. -1.
        1   -1    0    0  501    0  0.00000000000E+00  0.00000000000E+00 -0.19297936712E+04  0.19297936712E+04  0.50400001928E-02 0.  1.
    10030    2    1    2    0    0  0.00000000000E+00  0.00000000000E+00  0.47399337739E+02  0.39069866801E+04  0.39066991465E+04 0.  0.
        3    1    3    3  502    0  0.14111675520E+04  0.78033977743E+03 -0.10787654820E+04  0.19401182962E+04  0.10100000352E+00 0.  1.
       -3    1    3    3    0  502 -0.14111675520E+04 -0.78033977743E+03  0.11261648197E+04  0.19668683839E+04  0.10100000352E+00 0. -1.
</event>
<event>
 5   0  0.8528625E-08  0.3907945E+04  0.7818609E-02  0.8023379E-01
       -1   -1    0    0    0  501  0.00000000000E+00  0.00000000000E+00  0.27999654616E+04  0.27999654616E+04  0.50400001928E-02 0. -1.
        1   -1    0    0  501    0  0.00000000000E+00  0.00000000000E+00 -0.13635915226E+04  0.13635915226E+04  0.50400001928E-02 0.  1.
    10030    2    1    2    0    0  0.00000000000E+00  0.00000000000E+00  0.14363739391E+04  0.41635569842E+04  0.39079453256E+04 0.  0.
        4    1    3    3  502    0 -0.19022479637E+04  0.23534212010E+03  0.11225852784E+04  0.22212907395E+04  0.12699999809E+01 0.  1.
       -4    1    3    3    0  502  0.19022479637E+04 -0.23534212010E+03  0.31378866066E+03  0.19422662447E+04  0.12699999809E+01 0. -1.
</event>
<event>
 5   0  0.2666978E-07  0.3979886E+04  0.7818609E-02  0.8008616E-01
       -2   -1    0    0    0  501  0.00000000000E+00  0.00000000000E+00  0.20810187125E+04  0.20810187125E+04  0.25500000920E-02 0. -1.
        2   -1    0    0  501    0  0.00000000000E+00  0.00000000000E+00 -0.19028533681E+04  0.19028533681E+04  0.25500000920E-02 0.  1.
    10030    2    1    2    0    0  0.00000000000E+00  0.00000000000E+00  0.17816534435E+03  0.39838720806E+04  0.39798861623E+04 0.  0.
        4    1    3    3  502    0 -0.11176240034E+04 -0.15983471060E+04  0.48454158073E+03  0.20096216163E+04  0.12699999809E+01 0. -1.
       -4    1    3    3    0  502  0.11176240034E+04  0.15983471060E+04 -0.30637623638E+03  0.19742504642E+04  0.12699999809E+01 0.  1.
</event>
<event>
 5   0  0.8528625E-08  0.3990876E+04  0.7818609E-02  0.8006390E-01
        1   -1    0    0  501    0  0.00000000000E+00  0.00000000000E+00  0.14335812311E+04  0.14335812311E+04  0.50400001928E-02 0. -1.
       -1   -1    0    0    0  501  0.00000000000E+00  0.00000000000E+00 -0.27775009458E+04  0.27775009458E+04  0.50400001928E-02 0.  1.
    10030    2    1    2    0    0  0.00000000000E+00  0.00000000000E+00 -0.13439197147E+04  0.42110821769E+04  0.39908762071E+04 0.  0.
        4    1    3    3  502    0  0.51824635587E+03  0.26927229629E+03 -0.26852992810E+04  0.27480758171E+04  0.12699999809E+01 0.  1.
       -4    1    3    3    0  502 -0.51824635587E+03 -0.26927229629E+03  0.13413795663E+04  0.14630063598E+04  0.12699999809E+01 0. -1.
</event>
<event>
 5   0  0.8528625E-08  0.4028472E+04  0.7818609E-02  0.7998827E-01
       -1   -1    0    0    0  501  0.00000000000E+00  0.00000000000E+00  0.21562497416E+04  0.21562497416E+04  0.50400001928E-02 0.  1.
        1   -1    0    0  501    0  0.00000000000E+00  0.00000000000E+00 -0.18815752009E+04  0.18815752009E+04  0.50400001928E-02 0. -1.
    10030    2    1    2    0    0  0.00000000000E+00  0.00000000000E+00  0.27467454070E+03  0.40378249426E+04  0.40284716908E+04 0.  0.
        4    1    3    3  502    0  0.70635891708E+03 -0.14484638731E+03 -0.17477795551E+04  0.18906766994E+04  0.12699999809E+01 0. -1.
       -4    1    3    3    0  502 -0.70635891708E+03  0.14484638731E+03  0.20224540958E+04  0.21471482432E+04  0.12699999809E+01 0.  1.
</event>
<event>
 5   0  0.8583262E-08  0.3986933E+04  0.7818609E-02  0.8007188E-01
       -1   -1    0    0    0  501  0.00000000000E+00  0.00000000000E+00  0.20146816039E+04  0.20146816039E+04  0.50400001928E-02 0. -1.
        1   -1    0    0  501    0  0.00000000000E+00  0.00000000000E+00 -0.19724747472E+04  0.19724747472E+04  0.50400001928E-02 0.  1.
    10030    2    1    2    0    0  0.00000000000E+00  0.00000000000E+00  0.42206856736E+02  0.39871563511E+04  0.39869329502E+04 0.  0.
        1    1    3    3  502    0 -0.11176032466E+04 -0.13965957013E+04 -0.85894134512E+03  0.19842622821E+04  0.50400001928E-02 0.  1.
       -1    1    3    3    0  502  0.11176032466E+04  0.13965957013E+04  0.90114820186E+03  0.20028940690E+04  0.50400001928E-02 0. -1.
</event>
<event>
 5   0  0.2661693E-07  0.4063431E+04  0.7818609E-02  0.7991871E-01
        2   -1    0    0  501    0  0.00000000000E+00  0.00000000000E+00  0.12574444803E+04  0.12574444803E+04  0.25500000920E-02 0. -1.
       -2   -1    0    0    0  501  0.00000000000E+00  0.00000000000E+00 -0.32827442667E+04  0.32827442667E+04  0.25500000920E-02 0.  1.
    10030    2    1    2    0    0  0.00000000000E+00  0.00000000000E+00 -0.20252997864E+04  0.45401887471E+04  0.40634313867E+04 0.  0.
        1    1    3    3  502    0 -0.36074132608E+03 -0.93814159208E+03 -0.29854945703E+04  0.31501463110E+04  0.50400001928E-02 0.  1.
       -1    1    3    3    0  502  0.36074132608E+03  0.93814159208E+03  0.96019478388E+03  0.13900424361E+04  0.50400001928E-02 0. -1.
</event>
<event>
 5   0  0.8528625E-08  0.3669159E+04  0.7818609E-02  0.8074831E-01
       -1   -1    0    0    0  501  0.00000000000E+00  0.00000000000E+00  0.18514993711E+04  0.18514993711E+04  0.50400001928E-02 0. -1.
        1   -1    0    0  501    0  0.00000000000E+00  0.00000000000E+00 -0.18178143435E+04  0.18178143435E+04  0.50400001928E-02 0.  1.
    10030    2    1    2    0    0  0.00000000000E+00  0.00000000000E+00  0.33685027534E+02  0.36693137146E+04  0.36691590937E+04 0.  0.
        3    1    3    3  502    0  0.55620357807E+03 -0.14386220745E+04  0.10102051721E+04  0.18437761235E+04  0.10100000352E+00 0. -1.
       -3    1    3    3    0  502 -0.55620357807E+03  0.14386220745E+04 -0.97652014458E+03  0.18255375911E+04  0.10100000352E+00 0.  1.
</event>
<event>
 5   0  0.2730801E-07  0.4023661E+04  0.7818609E-02  0.7999790E-01
       -2   -1    0    0    0  501  0.00000000000E+00  0.00000000000E+00  0.28589825354E+04  0.28589825354E+04  0.25500000920E-02 0.  1.
        2   -1    0    0  501    0  0.00000000000E+00  0.00000000000E+00 -0.14157003671E+04  0.14157003671E+04  0.25500000920E-02 0. -1.
    10030    2    1    2    0    0  0.00000000000E+00  0.00000000000E+00  0.14432821683E+04  0.42746829025E+04  0.40236613302E+04 0.  0.
        2    1    3    3  502    0 -0.83233540032E+03  0.74781894354E+03 -0.10546254538E+04  0.15376118622E+04  0.25500000920E-02 0. -1.
       -2    1    3    3    0  502  0.83233540032E+03 -0.74781894354E+03  0.24979076221E+04  0.27370710403E+04  0.25500000920E-02 0.  1.
</event>
<event>
 5   0  0.2839279E-07  0.4027479E+04  0.7818609E-02  0.7999026E-01
       -2   -1    0    0    0  501  0.00000000000E+00  0.00000000000E+00  0.19146444606E+04  0.19146444606E+04  0.25500000920E-02 0. -1.
        2   -1    0    0  501    0  0.00000000000E+00  0.00000000000E+00 -0.21179635533E+04  0.21179635533E+04  0.25500000920E-02 0.  1.
    10030    2    1    2    0    0  0.00000000000E+00  0.00000000000E+00 -0.20331909266E+03  0.40326080139E+04  0.40274792042E+04 0.  0.
        3    1    3    3  502    0 -0.11333707618E+04  0.11519026663E+04 -0.13047462216E+04  0.20769621444E+04  0.10100000352E+00 0.  1.
       -3    1    3    3    0  502  0.11333707618E+04 -0.11519026663E+04  0.11014271289E+04  0.19556458695E+04  0.10100000352E+00 0. -1.
</event>
<event>
 5   0  0.8528625E-08  0.3978464E+04  0.7818609E-02  0.8008905E-01
       -1   -1    0    0    0  501  0.00000000000E+00  0.00000000000E+00  0.25404184448E+04  0.25404184448E+04  0.50400001928E-02 0.  1.
        1   -1    0    0  501    0  0.00000000000E+00  0.00000000000E+00 -0.15576349057E+04  0.15576349057E+04  0.50400001928E-02 0. -1.
    10030    2    1    2    0    0  0.00000000000E+00  0.00000000000E+00  0.98278353916E+03  0.40980533505E+04  0.39784642488E+04 0.  0.
        5    1    3    3  502    0 -0.56059962355E+02 -0.17581186575E+04 -0.46545409777E+03  0.18195586114E+04  0.46999998093E+01 0. -1.
       -5    1    3    3    0  502  0.56059962355E+02  0.17581186575E+04  0.14482376369E+04  0.22784947391E+04  0.46999998093E+01 0.  1.
</event>
<event>
 5   0  0.2666978E-07  0.4018598E+04  0.7818609E-02  0.8000805E-01
        2   -1    0    0  501    0  0.00000000000E+00  0.00000000000E+00  0.13525456990E+04  0.13525456990E+04  0.25500000920E-02 0. -1.
       -2   -1    0    0    0  501  0.00000000000E+00  0.00000000000E+00 -0.29849503952E+04  0.29849503952E+04  0.25500000920E-02 0.  1.
    10030    2    1    2    0    0  0.00000000000E+00  0.00000000000E+00 -0.16324046962E+04  0.43374960942E+04  0.40185976752E+04 0.  0.
        4    1    3    3  502    0 -0.95049212529E+03  0.47274024125E+03  0.10251548468E+04  0.14757583436E+04  0.12699999809E+01 0. -1.
       -4    1    3    3    0  502  0.95049212529E+03 -0.47274024125E+03 -0.26575595430E+04  0.28617377506E+04  0.12699999809E+01 0.  1.
</event>
<event>
 5   0  0.2666978E-07  0.3972177E+04  0.7818609E-02  0.8010183E-01
       -2   -1    0    0    0  501  0.00000000000E+00  0.00000000000E+00  0.16742582575E+04  0.16742582575E+04  0.25500000920E-02 0.  1.
        2   -1    0    0  501    0  0.00000000000E+00  0.00000000000E+00 -0.23559972816E+04  0.23559972816E+04  0.25500000920E-02 0. -1.
    10030    2    1    2    0    0  0.00000000000E+00  0.00000000000E+00 -0.68173902401E+03  0.40302555391E+04  0.39721771881E+04 0.  0.
        4    1    3    3  502    0  0.71427372588E+03 -0.10882597721E+04  0.11810793331E+04  0.17576820790E+04  0.12699999809E+01 0.  1.
       -4    1    3    3    0  502 -0.71427372588E+03  0.10882597721E+04 -0.18628183571E+04  0.22725734601E+04  0.12699999809E+01 0. -1.
</event>
<event>
 5   0  0.2730801E-07  0.3128192E+04  0.7818609E-02  0.8208043E-01
        2   -1    0    0  501    0  0.00000000000E+00  0.00000000000E+00  0.16703735170E+04  0.16703735170E+04  0.25500000920E-02 0.  1.
       -2   -1    0    0    0  501  0.00000000000E+00  0.00000000000E+00 -0.14645803991E+04  0.14645803991E+04  0.25500000920E-02 0. -1.
    10030    2    1    2    0    0  0.00000000000E+00  0.00000000000E+00  0.20579311797E+03  0.31349539161E+04  0.31281920096E+04 0.  0.
        2    1    3    3  502    0 -0.93479643846E+03  0.12530967089E+04  0.15096448522E+03  0.15706323628E+04  0.25500000920E-02 0.  1.
       -2    1    3    3    0  502  0.93479643846E+03 -0.12530967089E+04  0.54828632752E+02  0.15643215533E+04  0.25500000920E-02 0. -1.
</event>
<event>
 5   0  0.8528625E-08  0.4018833E+04  0.7818609E-02  0.8000758E-01
       -1   -1    0    0    0  501  0.00000000000E+00  0.00000000000E+00  0.17360441160E+04  0.17360441160E+04  0.50400001928E-02 0.  1.
        1   -1    0    0  501    0  0.00000000000E+00  0.00000000000E+00 -0.23258365830E+04  0.23258365830E+04  0.50400001928E-02 0. -1.
    10030    2    1    2    0    0  0.00000000000E+00  0.00000000000E+00 -0.58979246701E+03  0.40618806989E+04  0.40188331215E+04 0.  0.
        5    1    3    3  502    0  0.13846324961E+04 -0.58004097173E+03 -0.16448973495E+04  0.22269629675E+04  0.46999998093E+01 0. -1.
       -5    1    3    3    0  502 -0.13846324961E+04  0.58004097173E+03  0.10551048825E+04  0.18349177315E+04  0.46999998093E+01 0.  1.
</event>
<event>
 5   0  0.2839279E-07  0.4010223E+04  0.7818609E-02  0.8002487E-01
        2   -1    0    0  501    0  0.00000000000E+00  0.00000000000E+00  0.18771908706E+04  0.18771908706E+04  0.25500000920E-02 0. -1.
       -2   -1    0    0    0  501  0.00000000000E+00  0.00000000000E+00 -0.21417496977E+04  0.21417496977E+04  0.25500000920E-02 0.  1.
    10030    2    1    2    0    0  0.00000000000E+00  0.00000000000E+00 -0.26455882709E+03  0.40189405683E+04  0.40102234251E+04 0.  0.
        3    1    3    3  502    0  0.33788609858E+03  0.29861252182E+02  0.18482284370E+04  0.18790974098E+04  0.10100000352E+00 0. -1.
       -3    1    3    3    0  502 -0.33788609858E+03 -0.29861252182E+02 -0.21127872640E+04  0.21398431586E+04  0.10100000352E+00 0.  1.
</event>
<event>
 5   0  0.8528625E-08  0.4051444E+04  0.7818609E-02  0.7994248E-01
        1   -1    0    0  501    0  0.00000000000E+00  0.00000000000E+00  0.18214761907E+04  0.18214761907E+04  0.50400001928E-02 0. -1.
       -1   -1    0    0    0  501  0.00000000000E+00  0.00000000000E+00 -0.22528704398E+04  0.22528704398E+04  0.50400001928E-02 0.  1.
    10030    2    1    2    0    0  0.00000000000E+00  0.00000000000E+00 -0.43139424915E+03  0.40743466305E+04  0.40514441212E+04 0.  0.
        3    1    3    3  502    0 -0.16086662691E+04 -0.76733947628E+03 -0.11839131145E+04  0.21396886012E+04  0.10100000352E+00 0.  1.
       -3    1    3    3    0  502  0.16086662691E+04  0.76733947628E+03  0.75251886534E+03  0.19346580293E+04  0.10100000352E+00 0. -1.
</event>
<event>
 5   0  0.2666978E-07  0.3941192E+04  0.7818609E-02  0.8016516E-01
        2   -1    0    0  501    0  0.00000000000E+00  0.00000000000E+00  0.19964692092E+04  0.19964692092E+04  0.25500000920E-02 0.  1.
       -2   -1    0    0    0  501  0.00000000000E+00  0.00000000000E+00 -0.19450585080E+04  0.19450585080E+04  0.25500000920E-02 0. -1.
    10030    2    1    2    0    0  0.00000000000E+00  0.00000000000E+00  0.51410701256E+02  0.39415277172E+04  0.39411924193E+04 0.  0.
        4    1    3    3  502    0  0.22873197025E+03 -0.54370234626E+03  0.19061092473E+04  0.19952906132E+04  0.12699999809E+01 0.  1.
       -4    1    3    3    0  502 -0.22873197025E+03  0.54370234626E+03 -0.18546985460E+04  0.19462371040E+04  0.12699999809E+01 0. -1.
</event>
<event>
 5   0  0.8528625E-08  0.3725003E+04  0.7818609E-02  0.8062443E-01
        1   -1    0    0  501    0  0.00000000000E+00  0.00000000000E+00  0.24521682878E+04  0.24521682878E+04  0.50400001928E-02 0.  1.
       -1   -1    0    0    0  501  0.00000000000E+00  0.00000000000E+00 -0.14146304620E+04  0.14146304620E+04  0.50400001928E-02 0. -1.
    10030    2    1    2    0    0  0.00000000000E+00  0.00000000000E+00  0.10375378258E+04  0.38667987498E+04  0.37250030646E+04 0.  0.
        4    1    3    3  502    0  0.13653094951E+04  0.10278228430E+04  0.12875129986E+04  0.21396684669E+04  0.12699999809E+01 0.  1.
       -4    1    3    3    0  502 -0.13653094951E+04 -0.10278228430E+04 -0.24997517275E+03  0.17271302828E+04  0.12699999809E+01 0. -1.
</event>
<event>
 5   0  0.8528625E-08  0.3558769E+04  0.7818609E-02  0.8100002E-01
        1   -1    0    0  501    0  0.00000000000E+00  0.00000000000E+00  0.13035052326E+04  0.13035052327E+04  0.50400001928E-02 0.  1.
       -1   -1    0    0    0  501  0.00000000000E+00  0.00000000000E+00 -0.24289958087E+04  0.24289958087E+04  0.50400001928E-02 0. -1.
    10030    2    1    2    0    0  0.00000000000E+00  0.00000000000E+00 -0.11254905761E+04  0.37325010414E+04  0.35587687459E+04 0.  0.
        3    1    3    3  502    0 -0.13985232805E+04  0.15930001891E+02  0.59099637559E+03  0.15183536667E+04  0.10100000352E+00 0.  1.
       -3    1    3    3    0  502  0.13985232805E+04 -0.15930001891E+02 -0.17164869516E+04  0.22141473746E+04  0.10100000352E+00 0. -1.
</event>
<event>
 5   0  0.2730801E-07  0.3417090E+04  0.7818609E-02  0.8133725E-01
       -2   -1    0    0    0  501  0.00000000000E+00  0.00000000000E+00  0.18231139387E+04  0.18231139387E+04  0.25500000920E-02 0. -1.
        2   -1    0    0  501    0  0.00000000000E+00  0.00000000000E+00 -0.16011760331E+04  0.16011760331E+04  0.25500000920E-02 0.  1.
    10030    2    1    2    0    0  0.00000000000E+00  0.00000000000E+00  0.22193790557E+03  0.34242899718E+04  0.34170901915E+04 0.  0.
        2    1    3    3  502    0  0.13284077876E+03  0.67060333990E+03 -0.14581433560E+04  0.16104463849E+04  0.25500000920E-02 0.  1.
       -2    1    3    3    0  502 -0.13284077876E+03 -0.67060333990E+03  0.16800812616E+04  0.18138435869E+04  0.25500000920E-02 0. -1.
</event>
<event>
 5   0  0.8528625E-08  0.4032691E+04  0.7818609E-02  0.7997984E-01
        1   -1    0    0  501    0  0.00000000000E+00  0.00000000000E+00  0.14783016213E+04  0.14783016213E+04  0.50400001928E-02 0.  1.
       -1   -1    0    0    0  501  0.00000000000E+00  0.00000000000E+00 -0.27502166924E+04  0.27502166924E+04  0.50400001928E-02 0. -1.
    10030    2    1    2    0    0  0.00000000000E+00  0.00000000000E+00 -0.12719150711E+04  0.42285183138E+04  0.40326913075E+04 0.  0.
        3    1    3    3  502    0 -0.75693030579E+03 -0.48770732330E+03  0.12557699926E+04  0.15452379123E+04  0.10100000352E+00 0.  1.
       -3    1    3    3    0  502  0.75693030579E+03  0.48770732330E+03 -0.25276850638E+04  0.26832804014E+04  0.10100000352E+00 0. -1.
</event>
<event>
 5   0  0.2666978E-07  0.3973293E+04  0.7818609E-02  0.8009956E-01
       -2   -1    0    0    0  501  0.00000000000E+00  0.00000000000E+00  0.20740613439E+04  0.20740613439E+04  0.25500000920E-02 0. -1.
        2   -1    0    0  501    0  0.00000000000E+00  0.00000000000E+00 -0.19029155111E+04  0.19029155111E+04  0.25500000920E-02 0.  1.
    10030    2    1    2    0    0  0.00000000000E+00  0.00000000000E+00  0.17114583280E+03  0.39769768550E+04  0.39732925905E+04 0.  0.
        4    1    3    3  502    0  0.66685064122E+03 -0.75103508191E+03 -0.16300813441E+04  0.19146566986E+04  0.12699999809E+01 0.  1.
       -4    1    3    3    0  502 -0.66685064122E+03  0.75103508191E+03  0.18012271769E+04  0.20623201565E+04  0.12699999809E+01 0. -1.
</event>
<event>
 5   0  0.2661693E-07  0.4107393E+04  0.7818609E-02  0.7983226E-01
        2   -1    0    0  501    0  0.00000000000E+00  0.00000000000E+00  0.12533229507E+04  0.12533229507E+04  0.25500000920E-02 0.  1.
       -2   -1    0    0    0  501  0.00000000000E+00  0.00000000000E+00 -0.33651902447E+04  0.33651902447E+04  0.25500000920E-02 0. -1.
    10030    2    1    2    0    0  0.00000000000E+00  0.00000000000E+00 -0.21118672940E+04  0.46185131954E+04  0.41073934153E+04 0.  0.
        1    1    3    3  502    0 -0.14038356089E+04  0.14785750440E+04 -0.13330379117E+04  0.24359656508E+04  0.50400001928E-02 0. -1.
       -1    1    3    3    0  502  0.14038356089E+04 -0.14785750440E+04 -0.77882938231E+03  0.21825475446E+04  0.50400001928E-02 0.  1.
</event>
<event>
 5   0  0.2661693E-07  0.3912241E+04  0.7818609E-02  0.8022488E-01
       -2   -1    0    0    0  501  0.00000000000E+00  0.00000000000E+00  0.16727369558E+04  0.16727369558E+04  0.25500000920E-02 0.  1.
        2   -1    0    0  501    0  0.00000000000E+00  0.00000000000E+00 -0.22875129243E+04  0.22875129243E+04  0.25500000920E-02 0. -1.
    10030    2    1    2    0    0  0.00000000000E+00  0.00000000000E+00 -0.61477596849E+03  0.39602498800E+04  0.39122409973E+04 0.  0.
        1    1    3    3  502    0  0.54894170347E+03  0.17683375704E+04  0.33126838630E+03  0.18809820575E+04  0.50400001928E-02 0.  1.
       -1    1    3    3    0  502 -0.54894170347E+03 -0.17683375704E+04 -0.94604435480E+03  0.20792678226E+04  0.50400001928E-02 0. -1.
</event>
<event>
 5   0  0.2839279E-07  0.3662611E+04  0.7818609E-02  0.8076299E-01
        2   -1    0    0  501    0  0.00000000000E+00  0.00000000000E+00  0.11090870308E+04  0.11090870308E+04  0.25500000920E-02 0. -1.
       -2   -1    0    0    0  501  0.00000000000E+00  0.00000000000E+00 -0.30238201754E+04  0.30238201754E+04  0.25500000920E-02 0.  1.
    10030    2    1    2    0    0  0.00000000000E+00  0.00000000000E+00 -0.19147331447E+04  0.41329072062E+04  0.36626109484E+04 0.  0.
        3    1    3    3  502    0 -0.34906066169E+03 -0.11010263765E+04 -0.25609630945E+04  0.28093832791E+04  0.10100000352E+00 0.  1.
       -3    1    3    3    0  502  0.34906066169E+03  0.11010263765E+04  0.64622994986E+03  0.13235239271E+04  0.10100000352E+00 0. -1.
</event>
<event>
 5   0  0.2704088E-07  0.2913543E+04  0.7818609E-02  0.8268859E-01
       -2   -1    0    0    0  501  0.00000000000E+00  0.00000000000E+00  0.13645893400E+04  0.13645893400E+04  0.25500000920E-02 0. -1.
        2   -1    0    0  501    0  0.00000000000E+00  0.00000000000E+00 -0.15551807594E+04  0.15551807594E+04  0.25500000920E-02 0.  1.
    10030    2    1    2    0    0  0.00000000000E+00  0.00000000000E+00 -0.19059141940E+03  0.29197700993E+04  0.29135429195E+04 0.  0.
        5    1    3    3  502    0 -0.10932859232E+04 -0.57319205755E+03 -0.87047192556E+03  0.15104855868E+04  0.46999998093E+01 0.  1.
       -5    1    3    3    0  502  0.10932859232E+04  0.57319205755E+03  0.67988050616E+03  0.14092845126E+04  0.46999998093E+01 0. -1.
</event>
<event>
 5   0  0.8528625E-08  0.3941087E+04  0.7818609E-02  0.8016538E-01
        1   -1    0    0  501    0  0.00000000000E+00  0.00000000000E+00  0.23741548516E+04  0.23741548516E+04  0.50400001928E-02 0.  1.
       -1   -1    0    0    0  501  0.00000000000E+00  0.00000000000E+00 -0.16355466209E+04  0.16355466209E+04  0.50400001928E-02 0. -1.
    10030    2    1    2    0    0  0.00000000000E+00  0.00000000000E+00  0.73860823067E+03  0.40097014724E+04  0.39410866242E+04 0.  0.
        3    1    3    3  502    0  0.42822827163E+03 -0.11021607419E+04 -0.12344980496E+04  0.17094218901E+04  0.10100000352E+00 0. -1.
       -3    1    3    3    0  502 -0.42822827163E+03  0.11021607419E+04  0.19731062803E+04  0.23002795824E+04  0.10100000352E+00 0.  1.
</event>
<event>
 5   0  0.8528625E-08  0.4057104E+04  0.7818609E-02  0.7993125E-01
       -1   -1    0    0    0  501  0.00000000000E+00  0.00000000000E+00  0.25905591967E+04  0.25905591967E+04  0.50400001928E-02 0.  1.
        1   -1    0    0  501    0  0.00000000000E+00  0.00000000000E+00 -0.15884691370E+04  0.15884691370E+04  0.50400001928E-02 0. -1.
    10030    2    1    2    0    0  0.00000000000E+00  0.00000000000E+00  0.10020900596E+04  0.41790283337E+04  0.40571040566E+04 0.  0.
        4    1    3    3  502    0  0.95980894143E+03  0.71943276665E+03 -0.11840285083E+04  0.16854500382E+04  0.12699999809E+01 0. -1.
       -4    1    3    3    0  502 -0.95980894143E+03 -0.71943276665E+03  0.21861185680E+04  0.24935782955E+04  0.12699999809E+01 0.  1.
</event>
<event>
 5   0  0.2666978E-07  0.3971567E+04  0.7818609E-02  0.8010307E-01
       -2   -1    0    0    0  501  0.00000000000E+00  0.00000000000E+00  0.15600858849E+04  0.15600858849E+04  0.25500000920E-02 0.  1.
        2   -1    0    0  501    0  0.00000000000E+00  0.00000000000E+00 -0.25276408463E+04  0.25276408463E+04  0.25500000920E-02 0. -1.
    10030    2    1    2    0    0  0.00000000000E+00  0.00000000000E+00 -0.96755496141E+03  0.40877267311E+04  0.39715673512E+04 0.  0.
        4    1    3    3  502    0 -0.42047300979E+03  0.17550686548E+04  0.36886694099E+03  0.18420445076E+04  0.12699999809E+01 0.  1.
       -4    1    3    3    0  502  0.42047300979E+03 -0.17550686548E+04 -0.13364219024E+04  0.22456822235E+04  0.12699999809E+01 0. -1.
</event>
<event>
 5   0  0.8528625E-08  0.3960251E+04  0.7818609E-02  0.8012613E-01
        1   -1    0    0  501    0  0.00000000000E+00  0.00000000000E+00  0.16205074415E+04  0.16205074415E+04  0.50400001928E-02 0. -1.
       -1   -1    0    0    0  501  0.00000000000E+00  0.00000000000E+00 -0.24195492707E+04  0.24195492707E+04  0.50400001928E-02 0.  1.
    10030    2    1    2    0    0  0.00000000000E+00  0.00000000000E+00 -0.79904182923E+03  0.40400567122E+04  0.39602513043E+04 0.  0.
        3    1    3    3  502    0  0.17711813487E+04  0.65527265450E+03 -0.10068598976E+04  0.21401477719E+04  0.10100000352E+00 0.  1.
       -3    1    3    3    0  502 -0.17711813487E+04 -0.65527265450E+03  0.20781806841E+03  0.18999089403E+04  0.10100000352E+00 0. -1.
</event>
<event>
 5   0  0.8528625E-08  0.3749539E+04  0.7818609E-02  0.8057071E-01
        1   -1    0    0  501    0  0.00000000000E+00  0.00000000000E+00  0.16180456340E+04  0.16180456340E+04  0.50400001928E-02 0. -1.
       -1   -1    0    0    0  501  0.00000000000E+00  0.00000000000E+00 -0.21722263351E+04  0.21722263351E+04  0.50400001928E-02 0.  1.
    10030    2    1    2    0    0  0.00000000000E+00  0.00000000000E+00 -0.55418070107E+03  0.37902719691E+04  0.37495393518E+04 0.  0.
        4    1    3    3  502    0  0.54242783364E+03 -0.11222514761E+04 -0.16926901384E+04  0.21021127106E+04  0.12699999809E+01 0.  1.
       -4    1    3    3    0  502 -0.54242783364E+03  0.11222514761E+04  0.11385094374E+04  0.16881592585E+04  0.12699999809E+01 0. -1.
</event>
<event>
 5   0  0.8528625E-08  0.4032786E+04  0.7818609E-02  0.7997965E-01
       -1   -1    0    0    0  501  0.00000000000E+00  0.00000000000E+00  0.23350968823E+04  0.23350968823E+04  0.50400001928E-02 0. -1.
        1   -1    0    0  501    0  0.00000000000E+00  0.00000000000E+00 -0.17411873794E+04  0.17411873794E+04  0.50400001928E-02 0.  1.
    10030    2    1    2    0    0  0.00000000000E+00  0.00000000000E+00  0.59390950287E+03  0.40762842617E+04  0.40327862434E+04 0.  0.
        5    1    3    3  502    0 -0.82599879167E+03  0.12688001235E+04  0.16431197246E+04  0.22342766786E+04  0.46999998093E+01 0. -1.
       -5    1    3    3    0  502  0.82599879167E+03 -0.12688001235E+04 -0.10492102217E+04  0.18420075832E+04  0.46999998093E+01 0.  1.
</event>
<event>
 5   0  0.8528625E-08  0.3293042E+04  0.7818609E-02  0.8164668E-01
       -1   -1    0    0    0  501  0.00000000000E+00  0.00000000000E+00  0.24852997218E+04  0.24852997218E+04  0.50400001928E-02 0.  1.
        1   -1    0    0  501    0  0.00000000000E+00  0.00000000000E+00 -0.10908266870E+04  0.10908266870E+04  0.50400001928E-02 0. -1.
    10030    2    1    2    0    0  0.00000000000E+00  0.00000000000E+00  0.13944730349E+04  0.35761264088E+04  0.32930419139E+04 0.  0.
        3    1    3    3  502    0  0.73869553176E+03 -0.26920786356E+03 -0.87380811601E+03  0.11754508055E+04  0.10100000352E+00 0. -1.
       -3    1    3    3    0  502 -0.73869553176E+03  0.26920786356E+03  0.22682811509E+04  0.24006756033E+04  0.10100000352E+00 0.  1.
</event>
<event>
 5   0  0.8528625E-08  0.4036743E+04  0.7818609E-02  0.7997175E-01
       -1   -1    0    0    0  501  0.00000000000E+00  0.00000000000E+00  0.17832534456E+04  0.17832534456E+04  0.50400001928E-02 0. -1.
        1   -1    0    0  501    0  0.00000000000E+00  0.00000000000E+00 -0.22844895187E+04  0.22844895187E+04  0.50400001928E-02 0.  1.
    10030    2    1    2    0    0  0.00000000000E+00  0.00000000000E+00 -0.50123607313E+03  0.40677429643E+04  0.40367431455E+04 0.  0.
        5    1    3    3  502    0  0.14753710345E+04  0.61826790787E+03 -0.14908527390E+04  0.21866958807E+04  0.46999998093E+01 0.  1.
       -5    1    3    3    0  502 -0.14753710345E+04 -0.61826790787E+03  0.98961666587E+03  0.18810470836E+04  0.46999998093E+01 0. -1.
</event>
<event>
 5   0  0.8528625E-08  0.4003829E+04  0.7818609E-02  0.8003775E-01
       -1   -1    0    0    0  501  0.00000000000E+00  0.00000000000E+00  0.21768930994E+04  0.21768930994E+04  0.50400001928E-02 0.  1.
        1   -1    0    0  501    0  0.00000000000E+00  0.00000000000E+00 -0.18410005150E+04  0.18410005150E+04  0.50400001928E-02 0. -1.
    10030    2    1    2    0    0  0.00000000000E+00  0.00000000000E+00  0.33589258439E+03  0.40178936143E+04  0.40038288260E+04 0.  0.
        2    1    3    3  502    0 -0.89840791128E+03 -0.17593913242E+04  0.49322489722E+03  0.20361398296E+04  0.25500000920E-02 0.  1.
       -2    1    3    3    0  502  0.89840791128E+03  0.17593913242E+04 -0.15733231283E+03  0.19817537847E+04  0.25500000920E-02 0. -1.
</event>
<event>
 5   0  0.8528625E-08  0.3097906E+04  0.7818609E-02  0.8216313E-01
        1   -1    0    0  501    0  0.00000000000E+00  0.00000000000E+00  0.10724343723E+04  0.10724343723E+04  0.50400001928E-02 0. -1.
       -1   -1    0    0    0  501  0.00000000000E+00  0.00000000000E+00 -0.22372042121E+04  0.22372042121E+04  0.50400001928E-02 0.  1.
    10030    2    1    2    0    0  0.00000000000E+00  0.00000000000E+00 -0.11647698399E+04  0.33096385844E+04  0.30979055472E+04 0.  0.
        2    1    3    3  502    0  0.27018568305E+03  0.34419973338E+03  0.10050297448E+04  0.10961562606E+04  0.25500000920E-02 0. -1.
       -2    1    3    3    0  502 -0.27018568305E+03 -0.34419973338E+03 -0.21697995847E+04  0.22134823237E+04  0.25500000920E-02 0.  1.
</event>
<event>
 5   0  0.2704088E-07  0.3870487E+04  0.7818609E-02  0.8031196E-01
       -2   -1    0    0    0  501  0.00000000000E+00  0.00000000000E+00  0.14853016785E+04  0.14853016785E+04  0.25500000920E-02 0.  1.
        2   -1    0    0  501    0  0.00000000000E+00  0.00000000000E+00 -0.25214858084E+04  0.25214858084E+04  0.25500000920E-02 0. -1.
    10030    2    1    2    0    0  0.00000000000E+00  0.00000000000E+00 -0.10361841300E+04  0.40067874869E+04  0.38704868446E+04 0.  0.
        5    1    3    3  502    0 -0.22209170956E+03 -0.16299766559E+04  0.53711510102E+03  0.17305095631E+04  0.46999998093E+01 0.  1.
       -5    1    3    3    0  502  0.22209170956E+03  0.16299766559E+04 -0.15732992310E+04  0.22762779238E+04  0.46999998093E+01 0. -1.
</event>
<event>
 5   0  0.8528625E-08  0.3774071E+04  0.7818609E-02  0.8051742E-01
        1   -1    0    0  501    0  0.00000000000E+00  0.00000000000E+00  0.15839637156E+04  0.15839637157E+04  0.50400001928E-02 0. -1.
       -1   -1    0    0    0  501  0.00000000000E+00  0.00000000000E+00 -0.22480964122E+04  0.22480964122E+04  0.50400001928E-02 0.  1.
    10030    2    1    2    0    0  0.00000000000E+00  0.00000000000E+00 -0.66413269659E+03  0.38320601279E+04  0.37740710890E+04 0.  0.
        3    1    3    3  502    0  0.60923604151E+03  0.43287531173E+03  0.14272873346E+04  0.16111172320E+04  0.10100000352E+00 0. -1.
       -3    1    3    3    0  502 -0.60923604151E+03 -0.43287531173E+03 -0.20914200312E+04  0.22209428959E+04  0.10100000352E+00 0.  1.
</event>
<event>
 5   0  0.2704088E-07  0.3578032E+04  0.7818609E-02  0.8095542E-01
        2   -1    0    0  501    0  0.00000000000E+00  0.00000000000E+00  0.27870602921E+04  0.27870602921E+04  0.25500000920E-02 0.  1.
       -2   -1    0    0    0  501  0.00000000000E+00  0.00000000000E+00 -0.11483703471E+04  0.11483703471E+04  0.25500000920E-02 0. -1.
    10030    2    1    2    0    0  0.00000000000E+00  0.00000000000E+00  0.16386899451E+04  0.39354306392E+04  0.35780315231E+04 0.  0.
        5    1    3    3  502    0  0.17114600291E+04 -0.38134826106E+03  0.12098178635E+04  0.21303059124E+04  0.46999998093E+01 0.  1.
       -5    1    3    3    0  502 -0.17114600291E+04  0.38134826106E+03  0.42887208154E+03  0.18051247269E+04  0.46999998093E+01 0. -1.
</event>
<event>
 5   0  0.8528625E-08  0.3945721E+04  0.7818609E-02  0.8015587E-01
       -1   -1    0    0    0  501  0.00000000000E+00  0.00000000000E+00  0.19488963156E+04  0.19488963156E+04  0.50400001928E-02 0.  1.
        1   -1    0    0  501    0  0.00000000000E+00  0.00000000000E+00 -0.19971191192E+04  0.19971191192E+04  0.50400001928E-02 0. -1.
    10030    2    1    2    0    0  0.00000000000E+00  0.00000000000E+00 -0.48222803593E+02  0.39460154349E+04  0.39457207673E+04 0.  0.
        3    1    3    3  502    0 -0.65267482340E+03 -0.17575711303E+04  0.59004958005E+03  0.19655022819E+04  0.10100000352E+00 0.  1.
       -3    1    3    3    0  502  0.65267482340E+03  0.17575711303E+04 -0.63827238364E+03  0.19805131530E+04  0.10100000352E+00 0. -1.
</event>
<event>
 5   0  0.2666978E-07  0.3953960E+04  0.7818609E-02  0.8013899E-01
        2   -1    0    0  501    0  0.00000000000E+00  0.00000000000E+00  0.20306970791E+04  0.20306970791E+04  0.25500000920E-02 0.  1.
       -2   -1    0    0    0  501  0.00000000000E+00  0.00000000000E+00 -0.19246839494E+04  0.19246839494E+04  0.25500000920E-02 0. -1.
    10030    2    1    2    0    0  0.00000000000E+00  0.00000000000E+00  0.10601312971E+03  0.39553810285E+04  0.39539600778E+04 0.  0.
        4    1    3    3  502    0 -0.12246828715E+04  0.59945965379E+02  0.16043723217E+04  0.20192706144E+04  0.12699999809E+01 0.  1.
       -4    1    3    3    0  502  0.12246828715E+04 -0.59945965379E+02 -0.14983591920E+04  0.19361104141E+04  0.12699999809E+01 0. -1.
</event>
<event>
 5   0  0.8528625E-08  0.4036300E+04  0.7818609E-02  0.7997264E-01
        1   -1    0    0  501    0  0.00000000000E+00  0.00000000000E+00  0.27980476997E+04  0.27980476997E+04  0.50400001928E-02 0. -1.
       -1   -1    0    0    0  501  0.00000000000E+00  0.00000000000E+00 -0.14556323783E+04  0.14556323783E+04  0.50400001928E-02 0.  1.
    10030    2    1    2    0    0  0.00000000000E+00  0.00000000000E+00  0.13424153214E+04  0.42536800779E+04  0.40362997052E+04 0.  0.
        4    1    3    3  502    0 -0.17776275488E+04 -0.33362504551E+03 -0.27236863697E+03  0.18290575881E+04  0.12699999809E+01 0.  1.
       -4    1    3    3    0  502  0.17776275488E+04  0.33362504551E+03  0.16147839584E+04  0.24246224899E+04  0.12699999809E+01 0. -1.
</event>
<event>
 5   0  0.2666978E-07  0.3982773E+04  0.7818609E-02  0.8008031E-01
       -2   -1    0    0    0  501  0.00000000000E+00  0.00000000000E+00  0.19354198531E+04  0.19354198531E+04  0.25500000920E-02 0. -1.
        2   -1    0    0  501    0  0.00000000000E+00  0.00000000000E+00 -0.20489713033E+04  0.20489713033E+04  0.25500000920E-02 0.  1.
    10030    2    1    2    0    0  0.00000000000E+00  0.00000000000E+00 -0.11355145016E+03  0.39843911564E+04  0.39827727723E+04 0.  0.
        4    1    3    3  502    0 -0.13789037023E+04 -0.13509251530E+04  0.43254871527E+03  0.19782502858E+04  0.12699999809E+01 0. -1.
       -4    1    3    3    0  502  0.13789037023E+04  0.13509251530E+04 -0.54610016543E+03  0.20061408706E+04  0.12699999809E+01 0.  1.
</event>
<event>
 5   0  0.2730801E-07  0.4041902E+04  0.7818609E-02  0.7996147E-01
        2   -1    0    0  501    0  0.00000000000E+00  0.00000000000E+00  0.19462005657E+04  0.19462005657E+04  0.25500000920E-02 0. -1.
       -2   -1    0    0    0  501  0.00000000000E+00  0.00000000000E+00 -0.20985722422E+04  0.20985722422E+04  0.25500000920E-02 0.  1.
    10030    2    1    2    0    0  0.00000000000E+00  0.00000000000E+00 -0.15237167648E+03  0.40447728079E+04  0.40419017727E+04 0.  0.
        2    1    3    3  502    0  0.12306864472E+04  0.13143457177E+04 -0.99452428318E+03  0.20569813677E+04  0.25500000920E-02 0.  1.
       -2    1    3    3    0  502 -0.12306864472E+04 -0.13143457177E+04  0.84215260670E+03  0.19877914403E+04  0.25500000920E-02 0. -1.
</event>
<event>
 5   0  0.8583262E-08  0.3885287E+04  0.7818609E-02  0.8028096E-01
       -1   -1    0    0    0  501  0.00000000000E+00  0.00000000000E+00  0.20096743081E+04  0.20096743081E+04  0.50400001928E-02 0.  1.
        1   -1    0    0  501    0  0.00000000000E+00  0.00000000000E+00 -0.18778487116E+04  0.18778487116E+04  0.50400001928E-02 0. -1.
    10030    2    1    2    0    0  0.00000000000E+00  0.00000000000E+00  0.13182559647E+03  0.38875230197E+04  0.38852872791E+04 0.  0.
        1    1    3    3  502    0  0.19261799621E+04 -0.83609872464E+02 -0.17235119769E+03  0.19356819967E+04  0.50400001928E-02 0.  1.
       -1    1    3    3    0  502 -0.19261799621E+04  0.83609872464E+02  0.30417679416E+03  0.19518410230E+04  0.50400001928E-02 0. -1.
</event>
<event>
 5   0  0.8583262E-08  0.4043780E+04  0.7818609E-02  0.7995772E-01
       -1   -1    0    0    0  501  0.00000000000E+00  0.00000000000E+00  0.30466462754E+04  0.30466462755E+04  0.50400001928E-02 0.  1.
        1   -1    0    0  501    0  0.00000000000E+00  0.00000000000E+00 -0.13418163832E+04  0.13418163832E+04  0.50400001928E-02 0. -1.
    10030    2    1    2    0    0  0.00000000000E+00  0.00000000000E+00  0.17048298922E+04  0.43884626587E+04  0.40437803533E+04 0.  0.
        1    1    3    3  502    0  0.82713113310E+03 -0.11398101768E+04  0.24268425965E+04  0.28058649538E+04  0.50400001928E-02 0.  1.
       -1    1    3    3    0  502 -0.82713113310E+03  0.11398101768E+04 -0.72201270431E+03  0.15825977049E+04  0.50400001928E-02 0. -1.
</event>
<event>
 5   0  0.2704088E-07  0.3778707E+04  0.7818609E-02  0.8050740E-01
        2   -1    0    0  501    0  0.00000000000E+00  0.00000000000E+00  0.28094054312E+04  0.28094054312E+04  0.25500000920E-02 0.  1.
       -2   -1    0    0    0  501  0.00000000000E+00  0.00000000000E+00 -0.12706093876E+04  0.12706093876E+04  0.25500000920E-02 0. -1.
    10030    2    1    2    0    0  0.00000000000E+00  0.00000000000E+00  0.15387960436E+04  0.40800148188E+04  0.37787071410E+04 0.  0.
        5    1    3    3  502    0  0.11791344867E+04 -0.69543746661E+03 -0.63660343336E+03  0.15097276010E+04  0.46999998093E+01 0. -1.
       -5    1    3    3    0  502 -0.11791344867E+04  0.69543746661E+03  0.21753994770E+04  0.25702872178E+04  0.46999998093E+01 0.  1.
</event>
<event>
 5   0  0.2839279E-07  0.4001606E+04  0.7818609E-02  0.8004223E-01
       -2   -1    0    0    0  501  0.00000000000E+00  0.00000000000E+00  0.16211600712E+04  0.16211600712E+04  0.25500000920E-02 0.  1.
        2   -1    0    0  501    0  0.00000000000E+00  0.00000000000E+00 -0.24693505461E+04  0.24693505461E+04  0.25500000920E-02 0. -1.
    10030    2    1    2    0    0  0.00000000000E+00  0.00000000000E+00 -0.84819047491E+03  0.40905106172E+04  0.40016059311E+04 0.  0.
        3    1    3    3  502    0  0.31364069473E+03  0.12573674887E+04 -0.19823879094E+04  0.23683760936E+04  0.10100000352E+00 0. -1.
       -3    1    3    3    0  502 -0.31364069473E+03 -0.12573674887E+04  0.11341974345E+04  0.17221345237E+04  0.10100000352E+00 0.  1.
</event>
<event>
 5   0  0.2704088E-07  0.3860168E+04  0.7818609E-02  0.8033365E-01
       -2   -1    0    0    0  501  0.00000000000E+00  0.00000000000E+00  0.10681038498E+04  0.10681038498E+04  0.25500000920E-02 0. -1.
        2   -1    0    0  501    0  0.00000000000E+00  0.00000000000E+00 -0.34876981978E+04  0.34876981978E+04  0.25500000920E-02 0.  1.
    10030    2    1    2    0    0  0.00000000000E+00  0.00000000000E+00 -0.24195943480E+04  0.45558020476E+04  0.38601678058E+04 0.  0.
        5    1    3    3  502    0  0.38301201987E+02  0.48050148284E+03  0.99591491295E+03  0.11064435191E+04  0.46999998093E+01 0. -1.
       -5    1    3    3    0  502 -0.38301201987E+02 -0.48050148284E+03 -0.34155092609E+04  0.34493585286E+04  0.46999998093E+01 0.  1.
</event>
<event>
 5   0  0.8528625E-08  0.3687579E+04  0.7818609E-02  0.8070720E-01
       -1   -1    0    0    0  501  0.00000000000E+00  0.00000000000E+00  0.19605059033E+04  0.19605059033E+04  0.50400001928E-02 0.  1.
        1   -1    0    0  501    0  0.00000000000E+00  0.00000000000E+00 -0.17340215258E+04  0.17340215258E+04  0.50400001928E-02 0. -1.
    10030    2    1    2    0    0  0.00000000000E+00  0.00000000000E+00  0.22648437745E+03  0.36945274291E+04  0.36875788467E+04 0.  0.
        2    1    3    3  502    0  0.10964252898E+04 -0.13816319118E+04  0.65138025258E+03  0.18802530120E+04  0.25500000920E-02 0.  1.
       -2    1    3    3    0  502 -0.10964252898E+04  0.13816319118E+04 -0.42489587513E+03  0.18142744171E+04  0.25500000920E-02 0. -1.
</event>
<event>
 5   0  0.2666978E-07  0.4012312E+04  0.7818609E-02  0.8002067E-01
        2   -1    0    0  501    0  0.00000000000E+00  0.00000000000E+00  0.20441177090E+04  0.20441177090E+04  0.25500000920E-02 0. -1.
       -2   -1    0    0    0  501  0.00000000000E+00  0.00000000000E+00 -0.19688992083E+04  0.19688992083E+04  0.25500000920E-02 0.  1.
    10030    2    1    2    0    0  0.00000000000E+00  0.00000000000E+00  0.75218500660E+02  0.40130169173E+04  0.40123119215E+04 0.  0.
        4    1    3    3  502    0 -0.19534740515E+04 -0.39474628125E+03 -0.19215840815E+03  0.20022017789E+04  0.12699999809E+01 0.  1.
       -4    1    3    3    0  502  0.19534740515E+04  0.39474628125E+03  0.26737690881E+03  0.20108151384E+04  0.12699999809E+01 0. -1.
</event>
<event>
 5   0  0.8528625E-08  0.4024789E+04  0.7818609E-02  0.7999564E-01
        1   -1    0    0  501    0  0.00000000000E+00  0.00000000000E+00  0.28930609357E+04  0.28930609357E+04  0.50400001928E-02 0. -1.
       -1   -1    0    0    0  501  0.00000000000E+00  0.00000000000E+00 -0.13998085577E+04  0.13998085577E+04  0.50400001928E-02 0.  1.
    10030    2    1    2    0    0  0.00000000000E+00  0.00000000000E+00  0.14932523780E+04  0.42928694934E+04  0.40247889166E+04 0.  0.
        3    1    3    3  502    0 -0.14899666533E+04  0.13133497070E+04  0.40126378951E+03  0.20263022281E+04  0.10100000352E+00 0. -1.
       -3    1    3    3    0  502  0.14899666533E+04 -0.13133497070E+04  0.10919885885E+04  0.22665672653E+04  0.10100000352E+00 0.  1.
</event>
<event>
 5   0  0.2839279E-07  0.4003329E+04  0.7818609E-02  0.8003875E-01
       -2   -1    0    0    0  501  0.00000000000E+00  0.00000000000E+00  0.17569149474E+04  0.17569149474E+04  0.25500000920E-02 0. -1.
        2   -1    0    0  501    0  0.00000000000E+00  0.00000000000E+00 -0.22805094955E+04  0.22805094955E+04  0.25500000920E-02 0.  1.
    10030    2    1    2    0    0  0.00000000000E+00  0.00000000000E+00 -0.52359454805E+03  0.40374244429E+04  0.40033292247E+04 0.  0.
        3    1    3    3  502    0 -0.17353352136E+04  0.62999588496E+03  0.51833984666E+03  0.19175399150E+04  0.10100000352E+00 0. -1.
       -3    1    3    3    0  502  0.17353352136E+04 -0.62999588496E+03 -0.10419343947E+04  0.21198845279E+04  0.10100000352E+00 0.  1.
</event>
<event>
 5   0  0.8583262E-08  0.2876037E+04  0.7818609E-02  0.8280043E-01
       -1   -1    0    0    0  501  0.00000000000E+00  0.00000000000E+00  0.87525102540E+03  0.87525102541E+03  0.50400001928E-02 0.  1.
        1   -1    0    0  501    0  0.00000000000E+00  0.00000000000E+00 -0.23626334479E+04  0.23626334479E+04  0.50400001928E-02 0. -1.
    10030    2    1    2    0    0  0.00000000000E+00  0.00000000000E+00 -0.14873824225E+04  0.32378844733E+04  0.28760370985E+04 0.  0.
        1    1    3    3  502    0  0.14128465180E+04 -0.11192969842E+03 -0.10176919219E+04  0.17448095565E+04  0.50400001928E-02 0.  1.
       -1    1    3    3    0  502 -0.14128465180E+04  0.11192969842E+03 -0.46969050066E+03  0.14930749168E+04  0.50400001928E-02 0. -1.
</event>
<event>
 5   0  0.2704088E-07  0.3985294E+04  0.7818609E-02  0.8007520E-01
       -2   -1    0    0    0  501  0.00000000000E+00  0.00000000000E+00  0.21442289247E+04  0.21442289247E+04  0.25500000920E-02 0. -1.
        2   -1    0    0  501    0  0.00000000000E+00  0.00000000000E+00 -0.18517813066E+04  0.18517813066E+04  0.25500000920E-02 0.  1.
    10030    2    1    2    0    0  0.00000000000E+00  0.00000000000E+00  0.29244761810E+03  0.39960102313E+04  0.39852944884E+04 0.  0.
        5    1    3    3  502    0 -0.17761087524E+04  0.45870280882E+03  0.92655177345E+03  0.20551133415E+04  0.46999998093E+01 0. -1.
       -5    1    3    3    0  502  0.17761087524E+04 -0.45870280882E+03 -0.63410415535E+03  0.19408968899E+04  0.46999998093E+01 0.  1.
</event>
<event>
 5   0  0.8528625E-08  0.4009233E+04  0.7818609E-02  0.8002686E-01
        1   -1    0    0  501    0  0.00000000000E+00  0.00000000000E+00  0.27726723000E+04  0.27726723000E+04  0.50400001928E-02 0.  1.
       -1   -1    0    0    0  501  0.00000000000E+00  0.00000000000E+00 -0.14493194598E+04  0.14493194598E+04  0.50400001928E-02 0. -1.
    10030    2    1    2    0    0  0.00000000000E+00  0.00000000000E+00  0.13233528402E+04  0.42219917599E+04  0.40092333033E+04 0.  0.
        4    1    3    3  502    0  0.35215936824E+03  0.19711499165E+04  0.56156250032E+03  0.20796158945E+04  0.12699999809E+01 0. -1.
       -4    1    3    3    0  502 -0.35215936824E+03 -0.19711499165E+04  0.76179033989E+03  0.21423758654E+04  0.12699999809E+01 0.  1.
</event>
<event>
 5   0  0.2730801E-07  0.3986338E+04  0.7818609E-02  0.8007308E-01
        2   -1    0    0  501    0  0.00000000000E+00  0.00000000000E+00  0.28518154171E+04  0.28518154171E+04  0.25500000920E-02 0. -1.
       -2   -1    0    0    0  501  0.00000000000E+00  0.00000000000E+00 -0.13930503262E+04  0.13930503262E+04  0.25500000920E-02 0.  1.
    10030    2    1    2    0    0  0.00000000000E+00  0.00000000000E+00  0.14587650909E+04  0.42448657433E+04  0.39863378668E+04 0.  0.
        2    1    3    3  502    0  0.12875552869E+04  0.29590437078E+03 -0.85984282412E+03  0.15762892170E+04  0.25500000920E-02 0.  1.
       -2    1    3    3    0  502 -0.12875552869E+04 -0.29590437078E+03  0.23186079150E+04  0.26685765263E+04  0.25500000920E-02 0. -1.
</event>
<event>
 5   0  0.2839279E-07  0.4000344E+04  0.7818609E-02  0.8004477E-01
       -2   -1    0    0    0  501  0.00000000000E+00  0.00000000000E+00  0.20131819263E+04  0.20131819264E+04  0.25500000920E-02 0.  1.
        2   -1    0    0  501    0  0.00000000000E+00  0.00000000000E+00 -0.19872465367E+04  0.19872465367E+04  0.25500000920E-02 0. -1.
    10030    2    1    2    0    0  0.00000000000E+00  0.00000000000E+00  0.25935389630E+02  0.40004284631E+04  0.40003443906E+04 0.  0.
        3    1    3    3  502    0  0.28014017188E+03  0.72996285072E+03 -0.18280936802E+04  0.19882783490E+04  0.10100000352E+00 0. -1.
       -3    1    3    3    0  502 -0.28014017188E+03 -0.72996285072E+03  0.18540290699E+04  0.20121501140E+04  0.10100000352E+00 0.  1.
</event>
<event>
 5   0  0.8528625E-08  0.3332372E+04  0.7818609E-02  0.8154707E-01
        1   -1    0    0  501    0  0.00000000000E+00  0.00000000000E+00  0.20835799973E+04  0.20835799973E+04  0.50400001928E-02 0. -1.
       -1   -1    0    0    0  501  0.00000000000E+00  0.00000000000E+00 -0.13324067363E+04  0.13324067363E+04  0.50400001928E-02 0.  1.
    10030    2    1    2    0    0  0.00000000000E+00  0.00000000000E+00  0.75117326098E+03  0.34159867336E+04  0.33323721425E+04 0.  0.
        5    1    3    3  502    0 -0.27893358608E+03 -0.12027201335E+04 -0.77133205675E+03  0.14557866934E+04  0.46999998093E+01 0.  1.
       -5    1    3    3    0  502  0.27893358608E+03  0.12027201335E+04  0.15225053177E+04  0.19602000402E+04  0.46999998093E+01 0. -1.
</event>
<event>
 5   0  0.8528625E-08  0.3238634E+04  0.7818609E-02  0.8178688E-01
       -1   -1    0    0    0  501  0.00000000000E+00  0.00000000000E+00  0.16974465769E+04  0.16974465770E+04  0.50400001928E-02 0.  1.
        1   -1    0    0  501    0  0.00000000000E+00  0.00000000000E+00 -0.15447838106E+04  0.15447838106E+04  0.50400001928E-02 0. -1.
    10030    2    1    2    0    0  0.00000000000E+00  0.00000000000E+00  0.15266276635E+03  0.32422303876E+04  0.32386342748E+04 0.  0.
        2    1    3    3  502    0 -0.14374976787E+03 -0.13439028988E+04 -0.81653841443E+03  0.15790737726E+04  0.25500000920E-02 0. -1.
       -2    1    3    3    0  502  0.14374976787E+03  0.13439028988E+04  0.96920118078E+03  0.16631566150E+04  0.25500000920E-02 0.  1.
</event>
<event>
 5   0  0.2666978E-07  0.3918271E+04  0.7818609E-02  0.8021240E-01
       -2   -1    0    0    0  501  0.00000000000E+00  0.00000000000E+00  0.14563221945E+04  0.14563221945E+04  0.25500000920E-02 0.  1.
        2   -1    0    0  501    0  0.00000000000E+00  0.00000000000E+00 -0.26355507472E+04  0.26355507472E+04  0.25500000920E-02 0. -1.
    10030    2    1    2    0    0  0.00000000000E+00  0.00000000000E+00 -0.11792285527E+04  0.40918729417E+04  0.39182705613E+04 0.  0.
        4    1    3    3  502    0  0.18541792010E+03  0.38224388537E+03  0.14076378953E+04  0.14703524238E+04  0.12699999809E+01 0.  1.
       -4    1    3    3    0  502 -0.18541792010E+03 -0.38224388537E+03 -0.25868664480E+04  0.26215205179E+04  0.12699999809E+01 0. -1.
</event>
<event>
 5   0  0.2730801E-07  0.3915767E+04  0.7818609E-02  0.8021758E-01
       -2   -1    0    0    0  501  0.00000000000E+00  0.00000000000E+00  0.14441261808E+04  0.14441261808E+04  0.25500000920E-02 0.  1.
        2   -1    0    0  501    0  0.00000000000E+00  0.00000000000E+00 -0.26544137867E+04  0.26544137868E+04  0.25500000920E-02 0. -1.
    10030    2    1    2    0    0  0.00000000000E+00  0.00000000000E+00 -0.12102876059E+04  0.40985399676E+04  0.39157673293E+04 0.  0.
        2    1    3    3  502    0  0.53209591924E+03  0.95701181113E+03 -0.23039576790E+04  0.25509250598E+04  0.25500000920E-02 0. -1.
       -2    1    3    3    0  502 -0.53209591924E+03 -0.95701181113E+03  0.10936700731E+04  0.15476149078E+04  0.25500000920E-02 0.  1.
</event>
<event>
 5   0  0.8528625E-08  0.3983965E+04  0.7818609E-02  0.8007789E-01
       -1   -1    0    0    0  501  0.00000000000E+00  0.00000000000E+00  0.18456232613E+04  0.18456232613E+04  0.50400001928E-02 0. -1.
        1   -1    0    0  501    0  0.00000000000E+00  0.00000000000E+00 -0.21499485701E+04  0.21499485701E+04  0.50400001928E-02 0.  1.
    10030    2    1    2    0    0  0.00000000000E+00  0.00000000000E+00 -0.30432530882E+03  0.39955718314E+04  0.39839654072E+04 0.  0.
        2    1    3    3  502    0  0.48526083124E+03  0.91813509765E+03  0.15526556984E+04  0.18679373249E+04  0.25500000920E-02 0. -1.
       -2    1    3    3    0  502 -0.48526083124E+03 -0.91813509765E+03 -0.18569810073E+04  0.21276345065E+04  0.25500000920E-02 0.  1.
</event>
<event>
 5   0  0.2730801E-07  0.3572774E+04  0.7818609E-02  0.8096757E-01
        2   -1    0    0  501    0  0.00000000000E+00  0.00000000000E+00  0.16393276542E+04  0.16393276542E+04  0.25500000920E-02 0.  1.
       -2   -1    0    0    0  501  0.00000000000E+00  0.00000000000E+00 -0.19466385150E+04  0.19466385150E+04  0.25500000920E-02 0. -1.
    10030    2    1    2    0    0  0.00000000000E+00  0.00000000000E+00 -0.30731086080E+03  0.35859661692E+04  0.35727739085E+04 0.  0.
        2    1    3    3  502    0 -0.21957374198E+03  0.14603761300E+04  0.85517644952E+03  0.17065280042E+04  0.25500000920E-02 0.  1.
       -2    1    3    3    0  502  0.21957374198E+03 -0.14603761300E+04 -0.11624873103E+04  0.18794381650E+04  0.25500000920E-02 0. -1.
</event>
<event>
 5   0  0.2704088E-07  0.4032372E+04  0.7818609E-02  0.7998048E-01
        2   -1    0    0  501    0  0.00000000000E+00  0.00000000000E+00  0.34590022308E+04  0.34590022308E+04  0.25500000920E-02 0.  1.
       -2   -1    0    0    0  501  0.00000000000E+00  0.00000000000E+00 -0.11751961625E+04  0.11751961625E+04  0.25500000920E-02 0. -1.
    10030    2    1    2    0    0  0.00000000000E+00  0.00000000000E+00  0.22838060683E+04  0.46341983933E+04  0.40323720799E+04 0.  0.
        5    1    3    3  502    0  0.13985018867E+04  0.48429217766E+03 -0.43161848650E+03  0.15416429704E+04  0.46999998093E+01 0. -1.
       -5    1    3    3    0  502 -0.13985018867E+04 -0.48429217766E+03  0.27154245548E+04  0.30925554228E+04  0.46999998093E+01 0.  1.
</event>
<event>
 5   0  0.2666978E-07  0.3998337E+04  0.7818609E-02  0.8004882E-01
        2   -1    0    0  501    0  0.00000000000E+00  0.00000000000E+00  0.13049713343E+04  0.13049713343E+04  0.25500000920E-02 0.  1.
       -2   -1    0    0    0  501  0.00000000000E+00  0.00000000000E+00 -0.30626538832E+04  0.30626538832E+04  0.25500000920E-02 0. -1.
    10030    2    1    2    0    0  0.00000000000E+00  0.00000000000E+00 -0.17576825489E+04  0.43676252175E+04  0.39983374167E+04 0.  0.
        4    1    3    3  502    0 -0.24741948379E+02  0.19232692863E+04 -0.14742498109E+04  0.24234254743E+04  0.12699999809E+01 0.  1.
       -4    1    3    3    0  502  0.24741948379E+02 -0.19232692863E+04 -0.28343273793E+03  0.19441997432E+04  0.12699999809E+01 0. -1.
</event>
<event>
 5   0  0.2730801E-07  0.3163584E+04  0.7818609E-02  0.8198501E-01
       -2   -1    0    0    0  501  0.00000000000E+00  0.00000000000E+00  0.13597414808E+04  0.13597414808E+04  0.25500000920E-02 0. -1.
        2   -1    0    0  501    0  0.00000000000E+00  0.00000000000E+00 -0.18401039291E+04  0.18401039291E+04  0.25500000920E-02 0.  1.
    10030    2    1    2    0    0  0.00000000000E+00  0.00000000000E+00 -0.48036244828E+03  0.31998454099E+04  0.31635838167E+04 0.  0.
        2    1    3    3  502    0  0.28779658201E+03  0.53379339141E+03 -0.17178521506E+04  0.18217514288E+04  0.25500000920E-02 0.  1.
       -2    1    3    3    0  502 -0.28779658201E+03 -0.53379339141E+03  0.12374897023E+04  0.13780939810E+04  0.25500000920E-02 0. -1.
</event>
<event>
 5   0  0.2704088E-07  0.3877667E+04  0.7818609E-02  0.8029690E-01
       -2   -1    0    0    0  501  0.00000000000E+00  0.00000000000E+00  0.18367263429E+04  0.18367263429E+04  0.25500000920E-02 0. -1.
        2   -1    0    0  501    0  0.00000000000E+00  0.00000000000E+00 -0.20466171886E+04  0.20466171886E+04  0.25500000920E-02 0.  1.
    10030    2    1    2    0    0  0.00000000000E+00  0.00000000000E+00 -0.20989084563E+03  0.38833435315E+04  0.38776671874E+04 0.  0.
        5    1    3    3  502    0  0.17378016758E+04  0.33186981440E+03 -0.89917721560E+03  0.19845992022E+04  0.46999998093E+01 0.  1.
       -5    1    3    3    0  502 -0.17378016758E+04 -0.33186981440E+03  0.68928636997E+03  0.18987443293E+04  0.46999998093E+01 0. -1.
</event>
<event>
 5   0  0.8583262E-08  0.3528283E+04  0.7818609E-02  0.8107120E-01
       -1   -1    0    0    0  501  0.00000000000E+00  0.00000000000E+00  0.20070864398E+04  0.20070864398E+04  0.50400001928E-02 0. -1.
        1   -1    0    0  501    0  0.00000000000E+00  0.00000000000E+00 -0.15506036677E+04  0.15506036677E+04  0.50400001928E-02 0.  1.
    10030    2    1    2    0    0  0.00000000000E+00  0.00000000000E+00  0.45648277216E+03  0.35576901075E+04  0.35282832057E+04 0.  0.
        1    1    3    3  502    0  0.36116652295E+03 -0.41321259757E+03  0.19188218646E+04  0.19957613225E+04  0.50400001928E-02 0. -1.
       -1    1    3    3    0  502 -0.36116652295E+03  0.41321259757E+03 -0.14623390925E+04  0.15619287850E+04  0.50400001928E-02 0.  1.
</event>
<event>
 5   0  0.2839279E-07  0.3958445E+04  0.7818609E-02  0.8012982E-01
       -2   -1    0    0    0  501  0.00000000000E+00  0.00000000000E+00  0.19449889869E+04  0.19449889869E+04  0.25500000920E-02 0.  1.
        2   -1    0    0  501    0  0.00000000000E+00  0.00000000000E+00 -0.20140586647E+04  0.20140586647E+04  0.25500000920E-02 0. -1.
    10030    2    1    2    0    0  0.00000000000E+00  0.00000000000E+00 -0.69069677742E+02  0.39590476516E+04  0.39584451098E+04 0.  0.
        3    1    3    3  502    0  0.15100318627E+04  0.18427075665E+03 -0.13008910562E+04  0.20016167187E+04  0.10100000352E+00 0. -1.
       -3    1    3    3    0  502 -0.15100318627E+04 -0.18427075665E+03  0.12318213785E+04  0.19574309329E+04  0.10100000352E+00 0.  1.
</event>
<event>
 5   0  0.8583262E-08  0.3948557E+04  0.7818609E-02  0.8015005E-01
        1   -1    0    0  501    0  0.00000000000E+00  0.00000000000E+00  0.21508258378E+04  0.21508258379E+04  0.50400001928E-02 0.  1.
       -1   -1    0    0    0  501  0.00000000000E+00  0.00000000000E+00 -0.18122226712E+04  0.18122226713E+04  0.50400001928E-02 0. -1.
    10030    2    1    2    0    0  0.00000000000E+00  0.00000000000E+00  0.33860316660E+03  0.39630485091E+04  0.39485568732E+04 0.  0.
        1    1    3    3  502    0 -0.36671169236E+03  0.79180585029E+03  0.19467731170E+04  0.21333915578E+04  0.50400001928E-02 0.  1.
       -1    1    3    3    0  502  0.36671169236E+03 -0.79180585029E+03 -0.16081699504E+04  0.18296569513E+04  0.50400001928E-02 0. -1.
</event>
<event>
 5   0  0.2730801E-07  0.3812614E+04  0.7818609E-02  0.8043453E-01
       -2   -1    0    0    0  501  0.00000000000E+00  0.00000000000E+00  0.16924576055E+04  0.16924576055E+04  0.25500000920E-02 0.  1.
        2   -1    0    0  501    0  0.00000000000E+00  0.00000000000E+00 -0.21471768888E+04  0.21471768888E+04  0.25500000920E-02 0. -1.
    10030    2    1    2    0    0  0.00000000000E+00  0.00000000000E+00 -0.45471928327E+03  0.38396344943E+04  0.38126137259E+04 0.  0.
        2    1    3    3  502    0  0.40074720979E+03  0.99351902506E+03 -0.18153440802E+04  0.21078786751E+04  0.25500000920E-02 0. -1.
       -2    1    3    3    0  502 -0.40074720979E+03 -0.99351902506E+03  0.13606247969E+04  0.17317558192E+04  0.25500000920E-02 0.  1.
</event>
<event>
 5   0  0.2704088E-07  0.3975475E+04  0.7818609E-02  0.8009512E-01
       -2   -1    0    0    0  501  0.00000000000E+00  0.00000000000E+00  0.14317060014E+04  0.14317060014E+04  0.25500000920E-02 0.  1.
        2   -1    0    0  501    0  0.00000000000E+00  0.00000000000E+00 -0.27597150733E+04  0.27597150733E+04  0.25500000920E-02 0. -1.
    10030    2    1    2    0    0  0.00000000000E+00  0.00000000000E+00 -0.13280090719E+04  0.41914210748E+04  0.39754751327E+04 0.  0.
        5    1    3    3  502    0 -0.11845456737E+03 -0.98005865634E+03 -0.24829829107E+04  0.26720353065E+04  0.46999998093E+01 0. -1.
       -5    1    3    3    0  502  0.11845456737E+03  0.98005865634E+03  0.11549738388E+04  0.15193857682E+04  0.46999998093E+01 0.  1.
</event>
<event>
 5   0  0.8528625E-08  0.3959041E+04  0.7818609E-02  0.8012861E-01
       -1   -1    0    0    0  501  0.00000000000E+00  0.00000000000E+00  0.14459909084E+04  0.14459909084E+04  0.50400001928E-02 0. -1.
        1   -1    0    0  501    0  0.00000000000E+00  0.00000000000E+00 -0.27099079890E+04  0.27099079890E+04  0.50400001928E-02 0.  1.
    10030    2    1    2    0    0  0.00000000000E+00  0.00000000000E+00 -0.12639170806E+04  0.41558988974E+04  0.39590414571E+04 0.  0.
        3    1    3    3  502    0 -0.25293724451E+03  0.13398156943E+04  0.87446563827E+03  0.16198066265E+04  0.10100000352E+00 0. -1.
       -3    1    3    3    0  502  0.25293724451E+03 -0.13398156943E+04 -0.21383827189E+04  0.25360922710E+04  0.10100000352E+00 0.  1.
</event>
<event>
 5   0  0.8583262E-08  0.3994125E+04  0.7818609E-02  0.8005733E-01
       -1   -1    0    0    0  501  0.00000000000E+00  0.00000000000E+00  0.18869097555E+04  0.18869097555E+04  0.50400001928E-02 0. -1.
        1   -1    0    0  501    0  0.00000000000E+00  0.00000000000E+00 -0.21136453145E+04  0.21136453145E+04  0.50400001928E-02 0.  1.
    10030    2    1    2    0    0  0.00000000000E+00  0.00000000000E+00 -0.22673555896E+03  0.40005550700E+04  0.39941246668E+04 0.  0.
        1    1    3    3  502    0 -0.15157331034E+04 -0.12025200409E+04 -0.60889316527E+03  0.20283619441E+04  0.50400001928E-02 0. -1.
       -1    1    3    3    0  502  0.15157331034E+04  0.12025200409E+04  0.38215760630E+03  0.19721931259E+04  0.50400001928E-02 0.  1.
</event>
<event>
 5   0  0.8528625E-08  0.4019417E+04  0.7818609E-02  0.8000641E-01
       -1   -1    0    0    0  501  0.00000000000E+00  0.00000000000E+00  0.12026928571E+04  0.12026928572E+04  0.50400001928E-02 0. -1.
        1   -1    0    0  501    0  0.00000000000E+00  0.00000000000E+00 -0.33582381085E+04  0.33582381085E+04  0.50400001928E-02 0.  1.
    10030    2    1    2    0    0  0.00000000000E+00  0.00000000000E+00 -0.21555452513E+04  0.45609309656E+04  0.40194173636E+04 0.  0.
        5    1    3    3  502    0  0.79111531303E+03  0.11463366621E+04  0.56619034953E+03  0.15035108191E+04  0.46999998093E+01 0. -1.
       -5    1    3    3    0  502 -0.79111531303E+03 -0.11463366621E+04 -0.27217356009E+04  0.30574201465E+04  0.46999998093E+01 0.  1.
</event>
<event>
 5   0  0.8528625E-08  0.4028245E+04  0.7818609E-02  0.7998873E-01
       -1   -1    0    0    0  501  0.00000000000E+00  0.00000000000E+00  0.13373749502E+04  0.13373749502E+04  0.50400001928E-02 0. -1.
        1   -1    0    0  501    0  0.00000000000E+00  0.00000000000E+00 -0.30333216926E+04  0.30333216926E+04  0.50400001928E-02 0.  1.
    10030    2    1    2    0    0  0.00000000000E+00  0.00000000000E+00 -0.16959467424E+04  0.43706966428E+04  0.40282445048E+04 0.  0.
        3    1    3    3  502    0  0.10159534287E+04  0.17346447224E+04 -0.98320773043E+03  0.22378228557E+04  0.10100000352E+00 0.  1.
       -3    1    3    3    0  502 -0.10159534287E+04 -0.17346447224E+04 -0.71273901192E+03  0.21328737871E+04  0.10100000352E+00 0. -1.
</event>
<event>
 5   0  0.2704088E-07  0.4027178E+04  0.7818609E-02  0.7999086E-01
       -2   -1    0    0    0  501  0.00000000000E+00  0.00000000000E+00  0.31053898502E+04  0.31053898502E+04  0.25500000920E-02 0. -1.
        2   -1    0    0  501    0  0.00000000000E+00  0.00000000000E+00 -0.13056463423E+04  0.13056463423E+04  0.25500000920E-02 0.  1.
    10030    2    1    2    0    0  0.00000000000E+00  0.00000000000E+00  0.17997435079E+04  0.44110361925E+04  0.40271781184E+04 0.  0.
        5    1    3    3  502    0  0.15298885371E+04 -0.10709568589E+04  0.17246470266E+04  0.25420340253E+04  0.46999998093E+01 0. -1.
       -5    1    3    3    0  502 -0.15298885371E+04  0.10709568589E+04  0.75096481287E+02  0.18690021672E+04  0.46999998093E+01 0.  1.
</event>
<event>
 5   0  0.2704088E-07  0.3997707E+04  0.7818609E-02  0.8005009E-01
       -2   -1    0    0    0  501  0.00000000000E+00  0.00000000000E+00  0.13150855272E+04  0.13150855272E+04  0.25500000920E-02 0.  1.
        2   -1    0    0  501    0  0.00000000000E+00  0.00000000000E+00 -0.30381406374E+04  0.30381406374E+04  0.25500000920E-02 0. -1.
    10030    2    1    2    0    0  0.00000000000E+00  0.00000000000E+00 -0.17230551101E+04  0.43532261646E+04  0.39977067336E+04 0.  0.
        5    1    3    3  502    0 -0.16529109114E+04  0.68266057255E+03 -0.18338231386E+04  0.25614584385E+04  0.46999998093E+01 0.  1.
       -5    1    3    3    0  502  0.16529109114E+04 -0.68266057255E+03  0.11076802845E+03  0.17917677261E+04  0.46999998093E+01 0. -1.
</event>
<event>
 5   0  0.8583262E-08  0.4020570E+04  0.7818609E-02  0.8000410E-01
        1   -1    0    0  501    0  0.00000000000E+00  0.00000000000E+00  0.21861520292E+04  0.21861520292E+04  0.50400001928E-02 0.  1.
       -1   -1    0    0    0  501  0.00000000000E+00  0.00000000000E+00 -0.18485658456E+04  0.18485658457E+04  0.50400001928E-02 0. -1.
    10030    2    1    2    0    0  0.00000000000E+00  0.00000000000E+00  0.33758618353E+03  0.40347178748E+04  0.40205700962E+04 0.  0.
        1    1    3    3  502    0  0.71225980315E+03 -0.87670036639E+03 -0.14999861632E+04  0.18777316234E+04  0.50400001928E-02 0. -1.
       -1    1    3    3    0  502 -0.71225980315E+03  0.87670036639E+03  0.18375723467E+04  0.21569862515E+04  0.50400001928E-02 0.  1.
</event>
<event>
 5   0  0.8528625E-08  0.4027213E+04  0.7818609E-02  0.7999079E-01
        3   -1    0    0  501    0  0.00000000000E+00  0.00000000000E+00  0.13142976167E+04  0.13142976205E+04  0.10100000352E+00 0.  1.
       -3   -1    0    0    0  501  0.00000000000E+00  0.00000000000E+00 -0.30850023303E+04  0.30850023319E+04  0.10100000352E+00 0. -1.
    10030    2    1    2    0    0  0.00000000000E+00  0.00000000000E+00 -0.17707047136E+04  0.43992999525E+04  0.40272130424E+04 0.  0.
        4    1    3    3  502    0 -0.19469053730E+03 -0.87020591791E+03  0.10868474961E+04  0.14058455952E+04  0.12699999809E+01 0.  1.
       -4    1    3    3    0  502  0.19469053730E+03  0.87020591791E+03 -0.28575522097E+04  0.29934543573E+04  0.12699999809E+01 0. -1.
</event>
<event>
 5   0  0.2839279E-07  0.4076992E+04  0.7818609E-02  0.7989193E-01
       -2   -1    0    0    0  501  0.00000000000E+00  0.00000000000E+00  0.31314246266E+04  0.31314246267E+04  0.25500000920E-02 0.  1.
        2   -1    0    0  501    0  0.00000000000E+00  0.00000000000E+00 -0.13270205941E+04  0.13270205941E+04  0.25500000920E-02 0. -1.
    10030    2    1    2    0    0  0.00000000000E+00  0.00000000000E+00  0.18044040325E+04  0.44584452208E+04  0.40769915224E+04 0.  0.
        3    1    3    3  502    0  0.38210840519E+03  0.17356244660E+04  0.19941590367E+04  0.26711550674E+04  0.10100000352E+00 0.  1.
       -3    1    3    3    0  502 -0.38210840519E+03 -0.17356244660E+04 -0.18975500418E+03  0.17872901533E+04  0.10100000352E+00 0. -1.
</event>
<event>
 5   0  0.2704088E-07  0.4011547E+04  0.7818609E-02  0.8002221E-01
        2   -1    0    0  501    0  0.00000000000E+00  0.00000000000E+00  0.14021913048E+04  0.14021913048E+04  0.25500000920E-02 0.  1.
       -2   -1    0    0    0  501  0.00000000000E+00  0.00000000000E+00 -0.28691711370E+04  0.28691711370E+04  0.25500000920E-02 0. -1.
    10030    2    1    2    0    0  0.00000000000E+00  0.00000000000E+00 -0.14669798323E+04  0.42713624418E+04  0.40115467442E+04 0.  0.
        5    1    3    3  502    0 -0.39232879792E+03 -0.13298108282E+04 -0.22767725716E+04  0.26657145678E+04  0.46999998093E+01 0. -1.
       -5    1    3    3    0  502  0.39232879792E+03  0.13298108282E+04  0.80979273929E+03  0.16056478740E+04  0.46999998093E+01 0.  1.
</event>
<event>
 5   0  0.2666978E-07  0.4151485E+04  0.7818609E-02  0.7974666E-01
       -2   -1    0    0    0  501  0.00000000000E+00  0.00000000000E+00  0.22145382133E+04  0.22145382133E+04  0.25500000920E-02 0.  1.
        2   -1    0    0  501    0  0.00000000000E+00  0.00000000000E+00 -0.19456453521E+04  0.19456453521E+04  0.25500000920E-02 0. -1.
    10030    2    1    2    0    0  0.00000000000E+00  0.00000000000E+00  0.26889286125E+03  0.41601835654E+04  0.41514845450E+04 0.  0.
        4    1    3    3  502    0  0.17808343013E+04 -0.72512827246E+03  0.91808410336E+03  0.21307420900E+04  0.12699999809E+01 0.  1.
       -4    1    3    3    0  502 -0.17808343013E+04  0.72512827246E+03 -0.64919124211E+03  0.20294414754E+04  0.12699999809E+01 0. -1.
</event>
<event>
 5   0  0.8528625E-08  0.3972928E+04  0.7818609E-02  0.8010030E-01
       -1   -1    0    0    0  501  0.00000000000E+00  0.00000000000E+00  0.21384948221E+04  0.21384948221E+04  0.50400001928E-02 0.  1.
        1   -1    0    0  501    0  0.00000000000E+00  0.00000000000E+00 -0.18452411217E+04  0.18452411217E+04  0.50400001928E-02 0. -1.
    10030    2    1    2    0    0  0.00000000000E+00  0.00000000000E+00  0.29325370042E+03  0.39837359438E+04  0.39729276783E+04 0.  0.
        3    1    3    3  502    0  0.18368327357E+03 -0.74718846655E+03  0.19830043346E+04  0.21270487420E+04  0.10100000352E+00 0.  1.
       -3    1    3    3    0  502 -0.18368327357E+03  0.74718846655E+03 -0.16897506342E+04  0.18566872018E+04  0.10100000352E+00 0. -1.
</event>
<event>
 5   0  0.8528625E-08  0.4080259E+04  0.7818609E-02  0.7988549E-01
        1   -1    0    0  501    0  0.00000000000E+00  0.00000000000E+00  0.16010745530E+04  0.16010745531E+04  0.50400001928E-02 0. -1.
       -1   -1    0    0    0  501  0.00000000000E+00  0.00000000000E+00 -0.25995848925E+04  0.25995848925E+04  0.50400001928E-02 0.  1.
    10030    2    1    2    0    0  0.00000000000E+00  0.00000000000E+00 -0.99851033948E+03  0.42006594456E+04  0.40802594133E+04 0.  0.
        4    1    3    3  502    0 -0.19986286423E+03 -0.16368039925E+04  0.73746419348E+03  0.18063575293E+04  0.12699999809E+01 0. -1.
       -4    1    3    3    0  502  0.19986286423E+03  0.16368039925E+04 -0.17359745330E+04  0.23943019163E+04  0.12699999809E+01 0.  1.
</event>
<event>
 5   0  0.8528625E-08  0.3214068E+04  0.7818609E-02  0.8185112E-01
       -1   -1    0    0    0  501  0.00000000000E+00  0.00000000000E+00  0.23098385896E+04  0.23098385896E+04  0.50400001928E-02 0.  1.
        1   -1    0    0  501    0  0.00000000000E+00  0.00000000000E+00 -0.11180684225E+04  0.11180684225E+04  0.50400001928E-02 0. -1.
    10030    2    1    2    0    0  0.00000000000E+00  0.00000000000E+00  0.11917701671E+04  0.34279070122E+04  0.32140675713E+04 0.  0.
        4    1    3    3  502    0  0.13739037609E+04  0.82623757909E+03  0.47771689026E+03  0.16728703241E+04  0.12699999809E+01 0. -1.
       -4    1    3    3    0  502 -0.13739037609E+04 -0.82623757909E+03  0.71405327684E+03  0.17550366880E+04  0.12699999809E+01 0.  1.
</event>
<event>
 5   0  0.8528625E-08  0.3600084E+04  0.7818609E-02  0.8090472E-01
       -1   -1    0    0    0  501  0.00000000000E+00  0.00000000000E+00  0.11785950621E+04  0.11785950621E+04  0.50400001928E-02 0. -1.
        1   -1    0    0  501    0  0.00000000000E+00  0.00000000000E+00 -0.27491646367E+04  0.27491646367E+04  0.50400001928E-02 0.  1.
    10030    2    1    2    0    0  0.00000000000E+00  0.00000000000E+00 -0.15705695746E+04  0.39277596988E+04  0.36000843689E+04 0.  0.
        4    1    3    3  502    0 -0.17385061169E+04 -0.38320029603E+03 -0.49476988302E+03  0.18477134073E+04  0.12699999809E+01 0. -1.
       -4    1    3    3    0  502  0.17385061169E+04  0.38320029603E+03 -0.10757996916E+04  0.20800462915E+04  0.12699999809E+01 0.  1.
</event>
<event>
 5   0  0.8583262E-08  0.3959974E+04  0.7818609E-02  0.8012670E-01
       -1   -1    0    0    0  501  0.00000000000E+00  0.00000000000E+00  0.27727494622E+04  0.27727494622E+04  0.50400001928E-02 0.  1.
        1   -1    0    0  501    0  0.00000000000E+00  0.00000000000E+00 -0.14138849242E+04  0.14138849242E+04  0.50400001928E-02 0. -1.
    10030    2    1    2    0    0  0.00000000000E+00  0.00000000000E+00  0.13588645380E+04  0.41866343865E+04  0.39599740723E+04 0.  0.
        1    1    3    3  502    0 -0.63512131062E+02 -0.51036553532E+03 -0.13420335225E+04  0.14372058815E+04  0.50400001928E-02 0. -1.
       -1    1    3    3    0  502  0.63512131062E+02  0.51036553532E+03  0.27008980605E+04  0.27494285049E+04  0.50400001928E-02 0.  1.
</event>
<event>
 5   0  0.8528625E-08  0.2965797E+04  0.7818609E-02  0.8253566E-01
       -1   -1    0    0    0  501  0.00000000000E+00  0.00000000000E+00  0.16918385279E+04  0.16918385279E+04  0.50400001928E-02 0.  1.
        1   -1    0    0  501    0  0.00000000000E+00  0.00000000000E+00 -0.12997622522E+04  0.12997622522E+04  0.50400001928E-02 0. -1.
    10030    2    1    2    0    0  0.00000000000E+00  0.00000000000E+00  0.39207627571E+03  0.29916007801E+04  0.29657969285E+04 0.  0.
        5    1    3    3  502    0  0.86450855654E+03  0.70510078647E+03  0.11814840946E+04  0.16249519744E+04  0.46999998093E+01 0.  1.
       -5    1    3    3    0  502 -0.86450855654E+03 -0.70510078647E+03 -0.78940781890E+03  0.13666488056E+04  0.46999998093E+01 0. -1.
</event>
<event>
 5   0  0.2666978E-07  0.4013083E+04  0.7818609E-02  0.8001912E-01
       -2   -1    0    0    0  501  0.00000000000E+00  0.00000000000E+00  0.22164970071E+04  0.22164970071E+04  0.25500000920E-02 0.  1.
        2   -1    0    0  501    0  0.00000000000E+00  0.00000000000E+00 -0.18164740680E+04  0.18164740680E+04  0.25500000920E-02 0. -1.
    10030    2    1    2    0    0  0.00000000000E+00  0.00000000000E+00  0.40002293911E+03  0.40329710752E+04  0.40130832712E+04 0.  0.
        4    1    3    3  502    0  0.77911868274E+03 -0.17949771781E+04  0.64632806460E+03  0.20607548549E+04  0.12699999809E+01 0. -1.
       -4    1    3    3    0  502 -0.77911868274E+03  0.17949771781E+04 -0.24630512549E+03  0.19722162203E+04  0.12699999809E+01 0.  1.
</event>
<event>
 5   0  0.8528625E-08  0.4006876E+04  0.7818609E-02  0.8003161E-01
        3   -1    0    0  501    0  0.00000000000E+00  0.00000000000E+00  0.12415577805E+04  0.12415577846E+04  0.10100000352E+00 0. -1.
       -3   -1    0    0    0  501  0.00000000000E+00  0.00000000000E+00 -0.32328451048E+04  0.32328451064E+04  0.10100000352E+00 0.  1.
    10030    2    1    2    0    0  0.00000000000E+00  0.00000000000E+00 -0.19912873243E+04  0.44744028910E+04  0.40068760928E+04 0.  0.
        4    1    3    3  502    0 -0.11445856378E+04 -0.16413209150E+04 -0.11059170666E+04  0.22862774983E+04  0.12699999809E+01 0. -1.
       -4    1    3    3    0  502  0.11445856378E+04  0.16413209150E+04 -0.88537025771E+03  0.21881253927E+04  0.12699999809E+01 0.  1.
</event>
<event>
 5   0  0.2666978E-07  0.4054017E+04  0.7818609E-02  0.7993737E-01
       -2   -1    0    0    0  501  0.00000000000E+00  0.00000000000E+00  0.19915505049E+04  0.19915505049E+04  0.25500000920E-02 0. -1.
        2   -1    0    0  501    0  0.00000000000E+00  0.00000000000E+00 -0.20630974681E+04  0.20630974681E+04  0.25500000920E-02 0.  1.
    10030    2    1    2    0    0  0.00000000000E+00  0.00000000000E+00 -0.71546963178E+02  0.40546479730E+04  0.40540166769E+04 0.  0.
        4    1    3    3  502    0  0.13209237597E+03  0.10836499563E+04 -0.17439667143E+04  0.20574661934E+04  0.12699999809E+01 0.  1.
       -4    1    3    3    0  502 -0.13209237597E+03 -0.10836499563E+04  0.16724197511E+04  0.19971817795E+04  0.12699999809E+01 0. -1.
</event>
<event>
 5   0  0.8583262E-08  0.3896885E+04  0.7818609E-02  0.8025677E-01
       -1   -1    0    0    0  501  0.00000000000E+00  0.00000000000E+00  0.14081751508E+04  0.14081751508E+04  0.50400001928E-02 0.  1.
        1   -1    0    0  501    0  0.00000000000E+00  0.00000000000E+00 -0.26959916447E+04  0.26959916447E+04  0.50400001928E-02 0. -1.
    10030    2    1    2    0    0  0.00000000000E+00  0.00000000000E+00 -0.12878164939E+04  0.41041667955E+04  0.38968851360E+04 0.  0.
        1    1    3    3  502    0 -0.11943882623E+02 -0.84875433361E+03  0.12032054782E+04  0.14724910859E+04  0.50400001928E-02 0.  1.
       -1    1    3    3    0  502  0.11943882623E+02  0.84875433361E+03 -0.24910219721E+04  0.26316757096E+04  0.50400001928E-02 0. -1.
</event>
<event>
 5   0  0.2661693E-07  0.3833105E+04  0.7818609E-02  0.8039088E-01
        2   -1    0    0  501    0  0.00000000000E+00  0.00000000000E+00  0.17171992659E+04  0.17171992659E+04  0.25500000920E-02 0.  1.
       -2   -1    0    0    0  501  0.00000000000E+00  0.00000000000E+00 -0.21390491911E+04  0.21390491911E+04  0.25500000920E-02 0. -1.
    10030    2    1    2    0    0  0.00000000000E+00  0.00000000000E+00 -0.42184992518E+03  0.38562484570E+04  0.38331051124E+04 0.  0.
        1    1    3    3  502    0 -0.60496804544E+03 -0.17211397682E+02  0.16185405527E+04  0.17279919239E+04  0.50400001928E-02 0.  1.
       -1    1    3    3    0  502  0.60496804544E+03  0.17211397682E+02 -0.20403904779E+04  0.21282565331E+04  0.50400001928E-02 0. -1.
</event>
<event>
 5   0  0.8528625E-08  0.4039494E+04  0.7818609E-02  0.7996626E-01
       -1   -1    0    0    0  501  0.00000000000E+00  0.00000000000E+00  0.34555209260E+04  0.34555209260E+04  0.50400001928E-02 0. -1.
        1   -1    0    0  501    0  0.00000000000E+00  0.00000000000E+00 -0.11805394571E+04  0.11805394571E+04  0.50400001928E-02 0.  1.
    10030    2    1    2    0    0  0.00000000000E+00  0.00000000000E+00  0.22749814690E+04  0.46360603831E+04  0.40394944228E+04 0.  0.
        3    1    3    3  502    0 -0.15319832783E+04 -0.62385432458E+03 -0.19263997663E+03  0.16653159322E+04  0.10100000352E+00 0.  1.
       -3    1    3    3    0  502  0.15319832783E+04  0.62385432458E+03  0.24676214456E+04  0.29707444509E+04  0.10100000352E+00 0. -1.
</event>
<event>
 5   0  0.2730801E-07  0.4013488E+04  0.7818609E-02  0.8001831E-01
        2   -1    0    0  501    0  0.00000000000E+00  0.00000000000E+00  0.24741376563E+04  0.24741376563E+04  0.25500000920E-02 0.  1.
       -2   -1    0    0    0  501  0.00000000000E+00  0.00000000000E+00 -0.16276462708E+04  0.16276462708E+04  0.25500000920E-02 0. -1.
    10030    2    1    2    0    0  0.00000000000E+00  0.00000000000E+00  0.84649138547E+03  0.41017839272E+04  0.40134877251E+04 0.  0.
        2    1    3    3  502    0  0.10273307016E+04  0.50596607797E+03 -0.12609192018E+04  0.17033282937E+04  0.25500000920E-02 0. -1.
       -2    1    3    3    0  502 -0.10273307016E+04 -0.50596607797E+03  0.21074105873E+04  0.23984556335E+04  0.25500000920E-02 0.  1.
</event>
<event>
 5   0  0.8583262E-08  0.4017923E+04  0.7818609E-02  0.8000941E-01
       -1   -1    0    0    0  501  0.00000000000E+00  0.00000000000E+00  0.22468985279E+04  0.22468985279E+04  0.50400001928E-02 0. -1.
        1   -1    0    0  501    0  0.00000000000E+00  0.00000000000E+00 -0.17962213291E+04  0.17962213291E+04  0.50400001928E-02 0.  1.
    10030    2    1    2    0    0  0.00000000000E+00  0.00000000000E+00  0.45067719873E+03  0.40431198570E+04  0.40179233742E+04 0.  0.
        1    1    3    3  502    0  0.97654265635E+03 -0.64566104285E+03 -0.14175088873E+04  0.18384355272E+04  0.50400001928E-02 0.  1.
       -1    1    3    3    0  502 -0.97654265635E+03  0.64566104285E+03  0.18681860861E+04  0.22046843298E+04  0.50400001928E-02 0. -1.
</event>
<event>
 5   0  0.8528625E-08  0.4028294E+04  0.7818609E-02  0.7998863E-01
        1   -1    0    0  501    0  0.00000000000E+00  0.00000000000E+00  0.21571839874E+04  0.21571839874E+04  0.50400001928E-02 0. -1.
       -1   -1    0    0    0  501  0.00000000000E+00  0.00000000000E+00 -0.18805945211E+04  0.18805945211E+04  0.50400001928E-02 0.  1.
    10030    2    1    2    0    0  0.00000000000E+00  0.00000000000E+00  0.27658946636E+03  0.40377785085E+04  0.40282941242E+04 0.  0.
        5    1    3    3  502    0 -0.17993513035E+04 -0.45163437654E+03  0.92444201484E+03  0.20727406621E+04  0.46999998093E+01 0. -1.
       -5    1    3    3    0  502  0.17993513035E+04  0.45163437654E+03 -0.64785254848E+03  0.19650378464E+04  0.46999998093E+01 0.  1.
</event>
<event>
 5   0  0.8583262E-08  0.4085468E+04  0.7818609E-02  0.7987523E-01
       -1   -1    0    0    0  501  0.00000000000E+00  0.00000000000E+00  0.23824107647E+04  0.23824107647E+04  0.50400001928E-02 0.  1.
        1   -1    0    0  501    0  0.00000000000E+00  0.00000000000E+00 -0.17514872218E+04  0.17514872218E+04  0.50400001928E-02 0. -1.
    10030    2    1    2    0    0  0.00000000000E+00  0.00000000000E+00  0.63092354294E+03  0.41338979865E+04  0.40854679103E+04 0.  0.
        1    1    3    3  502    0 -0.17371131908E+04 -0.61340892710E+03 -0.57757010506E+03  0.19306527331E+04  0.50400001928E-02 0. -1.
       -1    1    3    3    0  502  0.17371131908E+04  0.61340892710E+03  0.12084936480E+04  0.22032452534E+04  0.50400001928E-02 0.  1.
</event>
<event>
 5   0  0.2704088E-07  0.3227906E+04  0.7818609E-02  0.8181486E-01
        2   -1    0    0  501    0  0.00000000000E+00  0.00000000000E+00  0.18801456657E+04  0.18801456657E+04  0.25500000920E-02 0.  1.
       -2   -1    0    0    0  501  0.00000000000E+00  0.00000000000E+00 -0.13854484447E+04  0.13854484447E+04  0.25500000920E-02 0. -1.
    10030    2    1    2    0    0  0.00000000000E+00  0.00000000000E+00  0.49469722105E+03  0.32655941104E+04  0.32279063731E+04 0.  0.
        5    1    3    3  502    0 -0.84367345323E+03  0.45428169084E+03  0.15612289869E+04  0.18318337233E+04  0.46999998093E+01 0.  1.
       -5    1    3    3    0  502  0.84367345323E+03 -0.45428169084E+03 -0.10665317658E+04  0.14337603872E+04  0.46999998093E+01 0. -1.
</event>
<event>
 5   0  0.2839279E-07  0.3965720E+04  0.7818609E-02  0.8011498E-01
       -2   -1    0    0    0  501  0.00000000000E+00  0.00000000000E+00  0.31767815502E+04  0.31767815502E+04  0.25500000920E-02 0.  1.
        2   -1    0    0  501    0  0.00000000000E+00  0.00000000000E+00 -0.12376469045E+04  0.12376469045E+04  0.25500000920E-02 0. -1.
    10030    2    1    2    0    0  0.00000000000E+00  0.00000000000E+00  0.19391346457E+04  0.44144284546E+04  0.39657200364E+04 0.  0.
        3    1    3    3  502    0 -0.19296717372E+03 -0.11972895001E+04 -0.77668834534E+03  0.14401330748E+04  0.10100000352E+00 0. -1.
       -3    1    3    3    0  502  0.19296717372E+03  0.11972895001E+04  0.27158229911E+04  0.29742953798E+04  0.10100000352E+00 0.  1.
</event>
<event>
 5   0  0.2661693E-07  0.4002688E+04  0.7818609E-02  0.8004005E-01
       -2   -1    0    0    0  501  0.00000000000E+00  0.00000000000E+00  0.17488625224E+04  0.17488625224E+04  0.25500000920E-02 0.  1.
        2   -1    0    0  501    0  0.00000000000E+00  0.00000000000E+00 -0.22902755286E+04  0.22902755286E+04  0.25500000920E-02 0. -1.
    10030    2    1    2    0    0  0.00000000000E+00  0.00000000000E+00 -0.54141300621E+03  0.40391380509E+04  0.40026876160E+04 0.  0.
        1    1    3    3  502    0 -0.34868905461E+03  0.23774810945E+03  0.17034495638E+04  0.17549497534E+04  0.50400001928E-02 0.  1.
       -1    1    3    3    0  502  0.34868905461E+03 -0.23774810945E+03 -0.22448625700E+04  0.22841882976E+04  0.50400001928E-02 0. -1.
</event>
<event>
 5   0  0.8528625E-08  0.3686902E+04  0.7818609E-02  0.8070871E-01
       -1   -1    0    0    0  501  0.00000000000E+00  0.00000000000E+00  0.17356440111E+04  0.17356440111E+04  0.50400001928E-02 0.  1.
        1   -1    0    0  501    0  0.00000000000E+00  0.00000000000E+00 -0.19579547635E+04  0.19579547635E+04  0.50400001928E-02 0. -1.
    10030    2    1    2    0    0  0.00000000000E+00  0.00000000000E+00 -0.22231075243E+03  0.36935987747E+04  0.36869024719E+04 0.  0.
        2    1    3    3  502    0  0.18319466279E+03 -0.64685682298E+03  0.16084494122E+04  0.17432996144E+04  0.25500000920E-02 0.  1.
       -2    1    3    3    0  502 -0.18319466279E+03  0.64685682298E+03 -0.18307601647E+04  0.19502991602E+04  0.25500000920E-02 0. -1.
</event>
<event>
 5   0  0.8583262E-08  0.4007774E+04  0.7818609E-02  0.8002980E-01
       -1   -1    0    0    0  501  0.00000000000E+00  0.00000000000E+00  0.14238766509E+04  0.14238766509E+04  0.50400001928E-02 0.  1.
        1   -1    0    0  501    0  0.00000000000E+00  0.00000000000E+00 -0.28201621367E+04  0.28201621367E+04  0.50400001928E-02 0. -1.
    10030    2    1    2    0    0  0.00000000000E+00  0.00000000000E+00 -0.13962854857E+04  0.42440387876E+04  0.40077739549E+04 0.  0.
        1    1    3    3  502    0 -0.60892405559E+03  0.57171770709E+02  0.13226260894E+04  0.14571880075E+04  0.50400001928E-02 0.  1.
       -1    1    3    3    0  502  0.60892405559E+03 -0.57171770709E+02 -0.27189115752E+04  0.27868507801E+04  0.50400001928E-02 0. -1.
</event>
<event>
 5   0  0.2704088E-07  0.4003735E+04  0.7818609E-02  0.8003794E-01
       -2   -1    0    0    0  501  0.00000000000E+00  0.00000000000E+00  0.15662238790E+04  0.15662238790E+04  0.25500000920E-02 0.  1.
        2   -1    0    0  501    0  0.00000000000E+00  0.00000000000E+00 -0.25586845760E+04  0.25586845760E+04  0.25500000920E-02 0. -1.
    10030    2    1    2    0    0  0.00000000000E+00  0.00000000000E+00 -0.99246069703E+03  0.41249084550E+04  0.40037346974E+04 0.  0.
        5    1    3    3  502    0 -0.12591740965E+03 -0.69128157233E+03  0.14349949013E+04  0.15977978167E+04  0.46999998093E+01 0.  1.
       -5    1    3    3    0  502  0.12591740965E+03  0.69128157233E+03 -0.24274555983E+04  0.25271106383E+04  0.46999998093E+01 0. -1.
</event>
<event>
 5   0  0.8528625E-08  0.3973428E+04  0.7818609E-02  0.8009928E-01
       -1   -1    0    0    0  501  0.00000000000E+00  0.00000000000E+00  0.19881176458E+04  0.19881176458E+04  0.50400001928E-02 0. -1.
        1   -1    0    0  501    0  0.00000000000E+00  0.00000000000E+00 -0.19853117800E+04  0.19853117800E+04  0.50400001928E-02 0.  1.
    10030    2    1    2    0    0  0.00000000000E+00  0.00000000000E+00  0.28058657552E+01  0.39734294258E+04  0.39734284351E+04 0.  0.
        5    1    3    3  502    0 -0.16842555728E+04  0.92921028585E+03 -0.49544998850E+03  0.19863638567E+04  0.46999998093E+01 0. -1.
       -5    1    3    3    0  502  0.16842555728E+04 -0.92921028585E+03  0.49825585425E+03  0.19870655692E+04  0.46999998093E+01 0.  1.
</event>
<event>
 5   0  0.8528625E-08  0.3916464E+04  0.7818609E-02  0.8021614E-01
       -1   -1    0    0    0  501  0.00000000000E+00  0.00000000000E+00  0.17442972501E+04  0.17442972501E+04  0.50400001928E-02 0.  1.
        1   -1    0    0  501    0  0.00000000000E+00  0.00000000000E+00 -0.21984053848E+04  0.21984053848E+04  0.50400001928E-02 0. -1.
    10030    2    1    2    0    0  0.00000000000E+00  0.00000000000E+00 -0.45410813469E+03  0.39427026349E+04  0.39164639497E+04 0.  0.
        4    1    3    3  502    0  0.27456109510E+03  0.19472581775E+03  0.17149549969E+04  0.17476767989E+04  0.12699999809E+01 0.  1.
       -4    1    3    3    0  502 -0.27456109510E+03 -0.19472581775E+03 -0.21690631316E+04  0.21950258360E+04  0.12699999809E+01 0. -1.
</event>
<event>
 5   0  0.2704088E-07  0.3950323E+04  0.7818609E-02  0.8014644E-01
        2   -1    0    0  501    0  0.00000000000E+00  0.00000000000E+00  0.20873025764E+04  0.20873025764E+04  0.25500000920E-02 0. -1.
       -2   -1    0    0    0  501  0.00000000000E+00  0.00000000000E+00 -0.18690450175E+04  0.18690450175E+04  0.25500000920E-02 0.  1.
    10030    2    1    2    0    0  0.00000000000E+00  0.00000000000E+00  0.21825755884E+03  0.39563475939E+04  0.39503227617E+04 0.  0.
        5    1    3    3  502    0  0.16958367093E+04  0.76431153662E+03  0.77437531847E+03  0.20148730713E+04  0.46999998093E+01 0. -1.
       -5    1    3    3    0  502 -0.16958367093E+04 -0.76431153662E+03 -0.55611775962E+03  0.19414745226E+04  0.46999998093E+01 0.  1.
</event>
<event>
 5   0  0.2704088E-07  0.4013487E+04  0.7818609E-02  0.8001831E-01
        2   -1    0    0  501    0  0.00000000000E+00  0.00000000000E+00  0.12937244080E+04  0.12937244080E+04  0.25500000920E-02 0. -1.
       -2   -1    0    0    0  501  0.00000000000E+00  0.00000000000E+00 -0.31127331681E+04  0.31127331681E+04  0.25500000920E-02 0.  1.
    10030    2    1    2    0    0  0.00000000000E+00  0.00000000000E+00 -0.18190087602E+04  0.44064575761E+04  0.40134867012E+04 0.  0.
        5    1    3    3  502    0 -0.18856598698E+04 -0.43979151670E+03 -0.33076064909E+03  0.19643203455E+04  0.46999998093E+01 0. -1.
       -5    1    3    3    0  502  0.18856598698E+04  0.43979151670E+03 -0.14882481111E+04  0.24421372306E+04  0.46999998093E+01 0.  1.
</event>
<event>
 5   0  0.2666978E-07  0.3909954E+04  0.7818609E-02  0.8022962E-01
       -2   -1    0    0    0  501  0.00000000000E+00  0.00000000000E+00  0.13456045531E+04  0.13456045531E+04  0.25500000920E-02 0.  1.
        2   -1    0    0  501    0  0.00000000000E+00  0.00000000000E+00 -0.28403102370E+04  0.28403102370E+04  0.25500000920E-02 0. -1.
    10030    2    1    2    0    0  0.00000000000E+00  0.00000000000E+00 -0.14947056839E+04  0.41859147901E+04  0.39099536504E+04 0.  0.
        4    1    3    3  502    0  0.14865209275E+04  0.45492980523E+03  0.52173605546E+03  0.16397913648E+04  0.12699999809E+01 0.  1.
       -4    1    3    3    0  502 -0.14865209275E+04 -0.45492980523E+03 -0.20164417393E+04  0.25461234253E+04  0.12699999809E+01 0. -1.
</event>
<event>
 5   0  0.2661693E-07  0.3975283E+04  0.7818609E-02  0.8009551E-01
        2   -1    0    0  501    0  0.00000000000E+00  0.00000000000E+00  0.19344096590E+04  0.19344096590E+04  0.25500000920E-02 0. -1.
       -2   -1    0    0    0  501  0.00000000000E+00  0.00000000000E+00 -0.20423379467E+04  0.20423379467E+04  0.25500000920E-02 0.  1.
    10030    2    1    2    0    0  0.00000000000E+00  0.00000000000E+00 -0.10792828766E+03  0.39767476057E+04  0.39752827577E+04 0.  0.
        1    1    3    3  502    0 -0.14557256132E+04  0.69280451785E+02 -0.14060469648E+04  0.20250691122E+04  0.50400001928E-02 0.  1.
       -1    1    3    3    0  502  0.14557256132E+04 -0.69280451785E+02  0.12981186772E+04  0.19516784935E+04  0.50400001928E-02 0. -1.
</event>
<event>
 5   0  0.2661693E-07  0.3975830E+04  0.7818609E-02  0.8009440E-01
        2   -1    0    0  501    0  0.00000000000E+00  0.00000000000E+00  0.27246047858E+04  0.27246047858E+04  0.25500000920E-02 0.  1.
       -2   -1    0    0    0  501  0.00000000000E+00  0.00000000000E+00 -0.14504145904E+04  0.14504145904E+04  0.25500000920E-02 0. -1.
    10030    2    1    2    0    0  0.00000000000E+00  0.00000000000E+00  0.12741901954E+04  0.41750193763E+04  0.39758302452E+04 0.  0.
        1    1    3    3  502    0  0.54601977026E+03 -0.32299294431E+03 -0.13412622460E+04  0.14837272136E+04  0.50400001928E-02 0. -1.
       -1    1    3    3    0  502 -0.54601977026E+03  0.32299294431E+03  0.26154524414E+04  0.26912921627E+04  0.50400001928E-02 0.  1.
</event>
<event>
 5   0  0.8528625E-08  0.3921981E+04  0.7818609E-02  0.8020473E-01
        1   -1    0    0  501    0  0.00000000000E+00  0.00000000000E+00  0.20020939041E+04  0.20020939041E+04  0.50400001928E-02 0. -1.
       -1   -1    0    0    0  501  0.00000000000E+00  0.00000000000E+00 -0.19207308236E+04  0.19207308237E+04  0.50400001928E-02 0.  1.
    10030    2    1    2    0    0  0.00000000000E+00  0.00000000000E+00  0.81363080404E+02  0.39228247277E+04  0.39219808635E+04 0.  0.
        2    1    3    3  502    0  0.16525169304E+04 -0.10548688192E+04  0.84543483865E+02  0.19623221019E+04  0.25500000920E-02 0. -1.
       -2    1    3    3    0  502 -0.16525169304E+04  0.10548688192E+04 -0.31804034605E+01  0.19605026258E+04  0.25500000920E-02 0.  1.
</event>
<event>
 5   0  0.2661693E-07  0.4017195E+04  0.7818609E-02  0.8001087E-01
       -2   -1    0    0    0  501  0.00000000000E+00  0.00000000000E+00  0.18122946783E+04  0.18122946783E+04  0.25500000920E-02 0. -1.
        2   -1    0    0  501    0  0.00000000000E+00  0.00000000000E+00 -0.22261636642E+04  0.22261636642E+04  0.25500000920E-02 0.  1.
    10030    2    1    2    0    0  0.00000000000E+00  0.00000000000E+00 -0.41386898589E+03  0.40384583424E+04  0.40171953209E+04 0.  0.
        1    1    3    3  502    0  0.96876196767E+03  0.11857034163E+04  0.10999743329E+04  0.18852946386E+04  0.50400001928E-02 0. -1.
       -1    1    3    3    0  502 -0.96876196767E+03 -0.11857034163E+04 -0.15138433188E+04  0.21531637038E+04  0.50400001928E-02 0.  1.
</event>
<event>
 5   0  0.8528625E-08  0.3947332E+04  0.7818609E-02  0.8015256E-01
        1   -1    0    0  501    0  0.00000000000E+00  0.00000000000E+00  0.22783778143E+04  0.22783778143E+04  0.50400001928E-02 0. -1.
       -1   -1    0    0    0  501  0.00000000000E+00  0.00000000000E+00 -0.17097065679E+04  0.17097065679E+04  0.50400001928E-02 0.  1.
    10030    2    1    2    0    0  0.00000000000E+00  0.00000000000E+00  0.56867124641E+03  0.39880843822E+04  0.39473320171E+04 0.  0.
        5    1    3    3  502    0 -0.12047594017E+04  0.35622569678E+03  0.18222178774E+04  0.22133327914E+04  0.46999998093E+01 0. -1.
       -5    1    3    3    0  502  0.12047594017E+04 -0.35622569678E+03 -0.12535466310E+04  0.17747515908E+04  0.46999998093E+01 0.  1.
</event>
<event>
 5   0  0.8528625E-08  0.3854735E+04  0.7818609E-02  0.8034510E-01
       -1   -1    0    0    0  501  0.00000000000E+00  0.00000000000E+00  0.16031534157E+04  0.16031534157E+04  0.50400001928E-02 0.  1.
        1   -1    0    0  501    0  0.00000000000E+00  0.00000000000E+00 -0.23171492765E+04  0.23171492765E+04  0.50400001928E-02 0. -1.
    10030    2    1    2    0    0  0.00000000000E+00  0.00000000000E+00 -0.71399586082E+03  0.39203026923E+04  0.38547351543E+04 0.  0.
        3    1    3    3  502    0  0.11573272329E+04  0.10655245806E+04 -0.14894904459E+04  0.21664096461E+04  0.10100000352E+00 0. -1.
       -3    1    3    3    0  502 -0.11573272329E+04 -0.10655245806E+04  0.77549458513E+03  0.17538930462E+04  0.10100000352E+00 0.  1.
</event>
<event>
 5   0  0.2666978E-07  0.3782317E+04  0.7818609E-02  0.8049960E-01
       -2   -1    0    0    0  501  0.00000000000E+00  0.00000000000E+00  0.14882878361E+04  0.14882878361E+04  0.25500000920E-02 0.  1.
        2   -1    0    0  501    0  0.00000000000E+00  0.00000000000E+00 -0.24030840486E+04  0.24030840486E+04  0.25500000920E-02 0. -1.
    10030    2    1    2    0    0  0.00000000000E+00  0.00000000000E+00 -0.91479621257E+03  0.38913718847E+04  0.37823171515E+04 0.  0.
        4    1    3    3  502    0 -0.73945595114E+03 -0.15633363112E+04 -0.12447500764E+04  0.21307791747E+04  0.12699999809E+01 0.  1.
       -4    1    3    3    0  502  0.73945595114E+03  0.15633363112E+04  0.32995386387E+03  0.17605927100E+04  0.12699999809E+01 0. -1.
</event>
<event>
 5   0  0.8583262E-08  0.3997915E+04  0.7818609E-02  0.8004967E-01
        1   -1    0    0  501    0  0.00000000000E+00  0.00000000000E+00  0.21124735963E+04  0.21124735963E+04  0.50400001928E-02 0. -1.
       -1   -1    0    0    0  501  0.00000000000E+00  0.00000000000E+00 -0.18915409661E+04  0.18915409661E+04  0.50400001928E-02 0.  1.
    10030    2    1    2    0    0  0.00000000000E+00  0.00000000000E+00  0.22093263019E+03  0.40040145625E+04  0.39979146301E+04 0.  0.
        1    1    3    3  502    0  0.28136287314E+03  0.28679003336E+03  0.20716207267E+04  0.21102194257E+04  0.50400001928E-02 0. -1.
       -1    1    3    3    0  502 -0.28136287314E+03 -0.28679003336E+03 -0.18506880965E+04  0.18937951368E+04  0.50400001928E-02 0.  1.
</event>
<event>
 5   0  0.2839279E-07  0.4263649E+04  0.7818609E-02  0.7953374E-01
        2   -1    0    0  501    0  0.00000000000E+00  0.00000000000E+00  0.24331669543E+04  0.24331669543E+04  0.25500000920E-02 0. -1.
       -2   -1    0    0    0  501  0.00000000000E+00  0.00000000000E+00 -0.18678024430E+04  0.18678024430E+04  0.25500000920E-02 0.  1.
    10030    2    1    2    0    0  0.00000000000E+00  0.00000000000E+00  0.56536451132E+03  0.43009693973E+04  0.42636487573E+04 0.  0.
        3    1    3    3  502    0  0.47477607195E+03  0.18304134742E+04 -0.71023500900E+03  0.20199652431E+04  0.10100000352E+00 0.  1.
       -3    1    3    3    0  502 -0.47477607195E+03 -0.18304134742E+04  0.12755995203E+04  0.22810041542E+04  0.10100000352E+00 0. -1.
</event>
<event>
 5   0  0.2839279E-07  0.3024113E+04  0.7818609E-02  0.8236879E-01
       -2   -1    0    0    0  501  0.00000000000E+00  0.00000000000E+00  0.14336513383E+04  0.14336513383E+04  0.25500000920E-02 0.  1.
        2   -1    0    0  501    0  0.00000000000E+00  0.00000000000E+00 -0.15947496350E+04  0.15947496350E+04  0.25500000920E-02 0. -1.
    10030    2    1    2    0    0  0.00000000000E+00  0.00000000000E+00 -0.16109829673E+03  0.30284009733E+04  0.30241130590E+04 0.  0.
        3    1    3    3  502    0  0.19357669374E+03  0.67470149050E+03 -0.14217094243E+04  0.15855446178E+04  0.10100000352E+00 0. -1.
       -3    1    3    3    0  502 -0.19357669374E+03 -0.67470149050E+03  0.12606111275E+04  0.14428563555E+04  0.10100000352E+00 0.  1.
</event>
<event>
 5   0  0.2839279E-07  0.3981624E+04  0.7818609E-02  0.8008264E-01
        2   -1    0    0  501    0  0.00000000000E+00  0.00000000000E+00  0.22263449941E+04  0.22263449941E+04  0.25500000920E-02 0.  1.
       -2   -1    0    0    0  501  0.00000000000E+00  0.00000000000E+00 -0.17801967162E+04  0.17801967162E+04  0.25500000920E-02 0. -1.
    10030    2    1    2    0    0  0.00000000000E+00  0.00000000000E+00  0.44614827790E+03  0.40065417104E+04  0.39816238134E+04 0.  0.
        3    1    3    3  502    0 -0.39637451191E+03  0.11340710103E+04  0.18204919493E+04  0.21811512460E+04  0.10100000352E+00 0.  1.
       -3    1    3    3    0  502  0.39637451191E+03 -0.11340710103E+04 -0.13743436714E+04  0.18253904644E+04  0.10100000352E+00 0. -1.
</event>
<event>
 5   0  0.8528625E-08  0.3882830E+04  0.7818609E-02  0.8028610E-01
        1   -1    0    0  501    0  0.00000000000E+00  0.00000000000E+00  0.15831615254E+04  0.15831615254E+04  0.50400001928E-02 0. -1.
       -1   -1    0    0    0  501  0.00000000000E+00  0.00000000000E+00 -0.23807376090E+04  0.23807376090E+04  0.50400001928E-02 0.  1.
    10030    2    1    2    0    0  0.00000000000E+00  0.00000000000E+00 -0.79757608362E+03  0.39638991345E+04  0.38828299910E+04 0.  0.
        2    1    3    3  502    0  0.12058797880E+04 -0.15144416007E+04 -0.54817426324E+03  0.20120075665E+04  0.25500000920E-02 0.  1.
       -2    1    3    3    0  502 -0.12058797880E+04  0.15144416007E+04 -0.24940182038E+03  0.19518915679E+04  0.25500000920E-02 0. -1.
</event>
<event>
 5   0  0.2704088E-07  0.4000011E+04  0.7818609E-02  0.8004544E-01
        2   -1    0    0  501    0  0.00000000000E+00  0.00000000000E+00  0.11067376357E+04  0.11067376357E+04  0.25500000920E-02 0.  1.
       -2   -1    0    0    0  501  0.00000000000E+00  0.00000000000E+00 -0.36142466024E+04  0.36142466024E+04  0.25500000920E-02 0. -1.
    10030    2    1    2    0    0  0.00000000000E+00  0.00000000000E+00 -0.25075089668E+04  0.47209842381E+04  0.40000113698E+04 0.  0.
        5    1    3    3  502    0 -0.18424330279E+04 -0.54067161659E+03 -0.59332944195E+03  0.20097132073E+04  0.46999998093E+01 0.  1.
       -5    1    3    3    0  502  0.18424330279E+04  0.54067161659E+03 -0.19141795248E+04  0.27112710308E+04  0.46999998093E+01 0. -1.
</event>
<event>
 5   0  0.2704088E-07  0.4012400E+04  0.7818609E-02  0.8002050E-01
       -2   -1    0    0    0  501  0.00000000000E+00  0.00000000000E+00  0.24051348974E+04  0.24051348974E+04  0.25500000920E-02 0.  1.
        2   -1    0    0  501    0  0.00000000000E+00  0.00000000000E+00 -0.16734358349E+04  0.16734358349E+04  0.25500000920E-02 0. -1.
    10030    2    1    2    0    0  0.00000000000E+00  0.00000000000E+00  0.73169906257E+03  0.40785707323E+04  0.40124002418E+04 0.  0.
        5    1    3    3  502    0  0.12508434305E+04  0.10803927134E+04 -0.78998628902E+03  0.18319274357E+04  0.46999998093E+01 0. -1.
       -5    1    3    3    0  502 -0.12508434305E+04 -0.10803927134E+04  0.15216853516E+04  0.22466432966E+04  0.46999998093E+01 0.  1.
</event>
<event>
 5   0  0.2666978E-07  0.3999658E+04  0.7818609E-02  0.8004615E-01
       -2   -1    0    0    0  501  0.00000000000E+00  0.00000000000E+00  0.14875524943E+04  0.14875524943E+04  0.25500000920E-02 0. -1.
        2   -1    0    0  501    0  0.00000000000E+00  0.00000000000E+00 -0.26885214103E+04  0.26885214103E+04  0.25500000920E-02 0.  1.
    10030    2    1    2    0    0  0.00000000000E+00  0.00000000000E+00 -0.12009689160E+04  0.41760739046E+04  0.39996583504E+04 0.  0.
        4    1    3    3  502    0  0.97016019982E+03  0.46924351206E+03  0.11584309730E+04  0.15822023319E+04  0.12699999809E+01 0. -1.
       -4    1    3    3    0  502 -0.97016019982E+03 -0.46924351206E+03 -0.23593998890E+04  0.25938715728E+04  0.12699999809E+01 0.  1.
</event>
<event>
 5   0  0.2666978E-07  0.3200301E+04  0.7818609E-02  0.8188738E-01
       -2   -1    0    0    0  501  0.00000000000E+00  0.00000000000E+00  0.23689594529E+04  0.23689594529E+04  0.25500000920E-02 0.  1.
        2   -1    0    0  501    0  0.00000000000E+00  0.00000000000E+00 -0.10808466543E+04  0.10808466543E+04  0.25500000920E-02 0. -1.
    10030    2    1    2    0    0  0.00000000000E+00  0.00000000000E+00  0.12881127986E+04  0.34498061072E+04  0.32003011726E+04 0.  0.
        4    1    3    3  502    0 -0.56672120683E+03  0.76262049692E+03  0.20319592757E+04  0.22431279633E+04  0.12699999809E+01 0.  1.
       -4    1    3    3    0  502  0.56672120683E+03 -0.76262049692E+03 -0.74384647712E+03  0.12066781439E+04  0.12699999809E+01 0. -1.
</event>
<event>
 5   0  0.8528625E-08  0.3941952E+04  0.7818609E-02  0.8016360E-01
       -1   -1    0    0    0  501  0.00000000000E+00  0.00000000000E+00  0.34138765386E+04  0.34138765386E+04  0.50400001928E-02 0.  1.
        1   -1    0    0  501    0  0.00000000000E+00  0.00000000000E+00 -0.11379281960E+04  0.11379281960E+04  0.50400001928E-02 0. -1.
    10030    2    1    2    0    0  0.00000000000E+00  0.00000000000E+00  0.22759483426E+04  0.45518047346E+04  0.39419519891E+04 0.  0.
        4    1    3    3  502    0 -0.18952390218E+04 -0.48942143210E+03  0.14045104419E+04  0.24091731947E+04  0.12699999809E+01 0. -1.
       -4    1    3    3    0  502  0.18952390218E+04  0.48942143210E+03  0.87143790071E+03  0.21426315399E+04  0.12699999809E+01 0.  1.
</event>
<event>
 5   0  0.2839279E-07  0.3475109E+04  0.7818609E-02  0.8119714E-01
       -2   -1    0    0    0  501  0.00000000000E+00  0.00000000000E+00  0.12153241557E+04  0.12153241557E+04  0.25500000920E-02 0.  1.
        2   -1    0    0  501    0  0.00000000000E+00  0.00000000000E+00 -0.24841890080E+04  0.24841890080E+04  0.25500000920E-02 0. -1.
    10030    2    1    2    0    0  0.00000000000E+00  0.00000000000E+00 -0.12688648524E+04  0.36995131637E+04  0.34751085789E+04 0.  0.
        3    1    3    3  502    0  0.12654621870E+04 -0.24208436638E+03 -0.18755164569E+04  0.22754255377E+04  0.10100000352E+00 0. -1.
       -3    1    3    3    0  502 -0.12654621870E+04  0.24208436638E+03  0.60665160455E+03  0.14240876260E+04  0.10100000352E+00 0.  1.
</event>
<event>
 5   0  0.8528625E-08  0.3665542E+04  0.7818609E-02  0.8075641E-01
        1   -1    0    0  501    0  0.00000000000E+00  0.00000000000E+00  0.23521125090E+04  0.23521125090E+04  0.50400001928E-02 0.  1.
       -1   -1    0    0    0  501  0.00000000000E+00  0.00000000000E+00 -0.14280988020E+04  0.14280988021E+04  0.50400001928E-02 0. -1.
    10030    2    1    2    0    0  0.00000000000E+00  0.00000000000E+00  0.92401370699E+03  0.37802113111E+04  0.36655417370E+04 0.  0.
        4    1    3    3  502    0 -0.15670724014E+02 -0.17703509694E+04  0.95081690267E+03  0.20095876496E+04  0.12699999809E+01 0.  1.
       -4    1    3    3    0  502  0.15670724014E+02  0.17703509694E+04 -0.26803195685E+02  0.17706236615E+04  0.12699999809E+01 0. -1.
</event>
<event>
 5   0  0.2661693E-07  0.4012044E+04  0.7818609E-02  0.8002121E-01
        2   -1    0    0  501    0  0.00000000000E+00  0.00000000000E+00  0.25248153316E+04  0.25248153316E+04  0.25500000920E-02 0.  1.
       -2   -1    0    0    0  501  0.00000000000E+00  0.00000000000E+00 -0.15938293792E+04  0.15938293792E+04  0.25500000920E-02 0. -1.
    10030    2    1    2    0    0  0.00000000000E+00  0.00000000000E+00  0.93098595240E+03  0.41186447108E+04  0.40120442931E+04 0.  0.
        1    1    3    3  502    0  0.13984384189E+04  0.68406465545E+03 -0.83325022259E+03  0.17657520771E+04  0.50400001928E-02 0. -1.
       -1    1    3    3    0  502 -0.13984384189E+04 -0.68406465545E+03  0.17642361750E+04  0.23528926337E+04  0.50400001928E-02 0.  1.
</event>
<event>
 5   0  0.2730801E-07  0.3995737E+04  0.7818609E-02  0.8005407E-01
       -2   -1    0    0    0  501  0.00000000000E+00  0.00000000000E+00  0.24085013798E+04  0.24085013798E+04  0.25500000920E-02 0.  1.
        2   -1    0    0  501    0  0.00000000000E+00  0.00000000000E+00 -0.16572456301E+04  0.16572456301E+04  0.25500000920E-02 0. -1.
    10030    2    1    2    0    0  0.00000000000E+00  0.00000000000E+00  0.75125574962E+03  0.40657470099E+04  0.39957369217E+04 0.  0.
        2    1    3    3  502    0  0.29674308000E+03  0.15100938612E+04 -0.92067913774E+03  0.17933460346E+04  0.25500000920E-02 0. -1.
       -2    1    3    3    0  502 -0.29674308000E+03 -0.15100938612E+04  0.16719348874E+04  0.22724009753E+04  0.25500000920E-02 0.  1.
</event>
<event>
 5   0  0.8583262E-08  0.4063114E+04  0.7818609E-02  0.7991934E-01
       -1   -1    0    0    0  501  0.00000000000E+00  0.00000000000E+00  0.22654257617E+04  0.22654257617E+04  0.50400001928E-02 0. -1.
        1   -1    0    0  501    0  0.00000000000E+00  0.00000000000E+00 -0.18218310270E+04  0.18218310270E+04  0.50400001928E-02 0.  1.
    10030    2    1    2    0    0  0.00000000000E+00  0.00000000000E+00  0.44359473478E+03  0.40872567887E+04  0.40631135559E+04 0.  0.
        1    1    3    3  502    0 -0.41070811232E+03  0.88729140585E+03  0.20131809820E+04  0.22380493423E+04  0.50400001928E-02 0. -1.
       -1    1    3    3    0  502  0.41070811232E+03 -0.88729140585E+03 -0.15695862472E+04  0.18492074464E+04  0.50400001928E-02 0.  1.
</event>
<event>
 5   0  0.8528625E-08  0.3995578E+04  0.7818609E-02  0.8005439E-01
        1   -1    0    0  501    0  0.00000000000E+00  0.00000000000E+00  0.25097142086E+04  0.25097142086E+04  0.50400001928E-02 0. -1.
       -1   -1    0    0    0  501  0.00000000000E+00  0.00000000000E+00 -0.15902846590E+04  0.15902846590E+04  0.50400001928E-02 0.  1.
    10030    2    1    2    0    0  0.00000000000E+00  0.00000000000E+00  0.91942954967E+03  0.40999988676E+04  0.39955775575E+04 0.  0.
        2    1    3    3  502    0  0.17723353920E+04 -0.56253975970E+03  0.12092398221E+04  0.22180813038E+04  0.25500000920E-02 0. -1.
       -2    1    3    3    0  502 -0.17723353920E+04  0.56253975970E+03 -0.28981027238E+03  0.18819175638E+04  0.25500000920E-02 0.  1.
</event>
<event>
 5   0  0.2666978E-07  0.3965109E+04  0.7818609E-02  0.8011622E-01
        2   -1    0    0  501    0  0.00000000000E+00  0.00000000000E+00  0.26274478181E+04  0.26274478181E+04  0.25500000920E-02 0.  1.
       -2   -1    0    0    0  501  0.00000000000E+00  0.00000000000E+00 -0.14959469620E+04  0.14959469620E+04  0.25500000920E-02 0. -1.
    10030    2    1    2    0    0  0.00000000000E+00  0.00000000000E+00  0.11315008561E+04  0.41233947801E+04  0.39651091190E+04 0.  0.
        4    1    3    3  502    0 -0.15642323576E+04 -0.92619686983E+03  0.13884428355E+04  0.22874524324E+04  0.12699999809E+01 0.  1.
       -4    1    3    3    0  502  0.15642323576E+04  0.92619686983E+03 -0.25694197944E+03  0.18359423477E+04  0.12699999809E+01 0. -1.
</event>
<event>
 5   0  0.2666978E-07  0.4003723E+04  0.7818609E-02  0.8003796E-01
       -2   -1    0    0    0  501  0.00000000000E+00  0.00000000000E+00  0.16976573175E+04  0.16976573175E+04  0.25500000920E-02 0. -1.
        2   -1    0    0  501    0  0.00000000000E+00  0.00000000000E+00 -0.23605765514E+04  0.23605765514E+04  0.25500000920E-02 0.  1.
    10030    2    1    2    0    0  0.00000000000E+00  0.00000000000E+00 -0.66291923390E+03  0.40582338689E+04  0.40037232951E+04 0.  0.
        4    1    3    3  502    0  0.51181176549E+03 -0.12308414597E+04 -0.18452882172E+04  0.22764033473E+04  0.12699999809E+01 0.  1.
       -4    1    3    3    0  502 -0.51181176549E+03  0.12308414597E+04  0.11823689833E+04  0.17818305216E+04  0.12699999809E+01 0. -1.
</event>
<event>
 5   0  0.8528625E-08  0.4005419E+04  0.7818609E-02  0.8003454E-01
        1   -1    0    0  501    0  0.00000000000E+00  0.00000000000E+00  0.23293418314E+04  0.23293418315E+04  0.50400001928E-02 0. -1.
       -1   -1    0    0    0  501  0.00000000000E+00  0.00000000000E+00 -0.17218793478E+04  0.17218793478E+04  0.50400001928E-02 0.  1.
    10030    2    1    2    0    0  0.00000000000E+00  0.00000000000E+00  0.60746248362E+03  0.40512211793E+04  0.40054191259E+04 0.  0.
        4    1    3    3  502    0 -0.15663532069E+04  0.11760842922E+04  0.72588554845E+03  0.20889107385E+04  0.12699999809E+01 0. -1.
       -4    1    3    3    0  502  0.15663532069E+04 -0.11760842922E+04 -0.11842306483E+03  0.19623104408E+04  0.12699999809E+01 0.  1.
</event>
<event>
 5   0  0.8528625E-08  0.3854284E+04  0.7818609E-02  0.8034605E-01
        1   -1    0    0  501    0  0.00000000000E+00  0.00000000000E+00  0.23351771370E+04  0.23351771371E+04  0.50400001928E-02 0. -1.
       -1   -1    0    0    0  501  0.00000000000E+00  0.00000000000E+00 -0.15904042282E+04  0.15904042282E+04  0.50400001928E-02 0.  1.
    10030    2    1    2    0    0  0.00000000000E+00  0.00000000000E+00  0.74477290881E+03  0.39255813653E+04  0.38542836390E+04 0.  0.
        2    1    3    3  502    0 -0.71346906415E+03 -0.12995751755E+04  0.16263981391E+04  0.22007054889E+04  0.25500000920E-02 0. -1.
       -2    1    3    3    0  502  0.71346906415E+03  0.12995751755E+04 -0.88162523025E+03  0.17248758764E+04  0.25500000920E-02 0.  1.
</event>
<event>
 5   0  0.2704088E-07  0.3961288E+04  0.7818609E-02  0.8012402E-01
       -2   -1    0    0    0  501  0.00000000000E+00  0.00000000000E+00  0.13575383663E+04  0.13575383663E+04  0.25500000920E-02 0. -1.
        2   -1    0    0  501    0  0.00000000000E+00  0.00000000000E+00 -0.28897528813E+04  0.28897528813E+04  0.25500000920E-02 0.  1.
    10030    2    1    2    0    0  0.00000000000E+00  0.00000000000E+00 -0.15322145150E+04  0.42472912477E+04  0.39612878742E+04 0.  0.
        5    1    3    3  502    0  0.40572268590E+03 -0.71433122006E+03  0.11662475825E+04  0.14265467057E+04  0.46999998093E+01 0. -1.
       -5    1    3    3    0  502 -0.40572268590E+03  0.71433122006E+03 -0.26984620975E+04  0.28207445420E+04  0.46999998093E+01 0.  1.
</event>
<event>
 5   0  0.2704088E-07  0.4038911E+04  0.7818609E-02  0.7996743E-01
       -2   -1    0    0    0  501  0.00000000000E+00  0.00000000000E+00  0.17795942132E+04  0.17795942132E+04  0.25500000920E-02 0. -1.
        2   -1    0    0  501    0  0.00000000000E+00  0.00000000000E+00 -0.22916457675E+04  0.22916457675E+04  0.25500000920E-02 0.  1.
    10030    2    1    2    0    0  0.00000000000E+00  0.00000000000E+00 -0.51205155437E+03  0.40712399807E+04  0.40389105197E+04 0.  0.
        5    1    3    3  502    0  0.87062026590E+03 -0.18032356625E+04  0.78692517699E+01  0.20024291540E+04  0.46999998093E+01 0. -1.
       -5    1    3    3    0  502 -0.87062026590E+03  0.18032356625E+04 -0.51992080614E+03  0.20688108266E+04  0.46999998093E+01 0.  1.
</event>
<event>
 5   0  0.8528625E-08  0.4047124E+04  0.7818609E-02  0.7995107E-01
        1   -1    0    0  501    0  0.00000000000E+00  0.00000000000E+00  0.27705810646E+04  0.27705810646E+04  0.50400001928E-02 0. -1.
       -1   -1    0    0    0  501  0.00000000000E+00  0.00000000000E+00 -0.14779582009E+04  0.14779582009E+04  0.50400001928E-02 0.  1.
    10030    2    1    2    0    0  0.00000000000E+00  0.00000000000E+00  0.12926228637E+04  0.42485392655E+04  0.40471239199E+04 0.  0.
        5    1    3    3  502    0 -0.32733226481E+03 -0.17954275382E+04  0.15639274273E+04  0.24034553344E+04  0.46999998093E+01 0. -1.
       -5    1    3    3    0  502  0.32733226481E+03  0.17954275382E+04 -0.27130456356E+03  0.18450839311E+04  0.46999998093E+01 0.  1.
</event>
<event>
 5   0  0.2730801E-07  0.3117892E+04  0.7818609E-02  0.8210845E-01
        2   -1    0    0  501    0  0.00000000000E+00  0.00000000000E+00  0.15893555528E+04  0.15893555528E+04  0.25500000920E-02 0.  1.
       -2   -1    0    0    0  501  0.00000000000E+00  0.00000000000E+00 -0.15291184547E+04  0.15291184547E+04  0.25500000920E-02 0. -1.
    10030    2    1    2    0    0  0.00000000000E+00  0.00000000000E+00  0.60237098094E+02  0.31184740075E+04  0.31178921771E+04 0.  0.
        2    1    3    3  502    0  0.12729764799E+03 -0.61805587426E+03 -0.13956702325E+04  0.15316961686E+04  0.25500000920E-02 0. -1.
       -2    1    3    3    0  502 -0.12729764799E+03  0.61805587426E+03  0.14559073306E+04  0.15867778390E+04  0.25500000920E-02 0.  1.
</event>
<event>
 5   0  0.8528625E-08  0.3272667E+04  0.7818609E-02  0.8169885E-01
        1   -1    0    0  501    0  0.00000000000E+00  0.00000000000E+00  0.16351449817E+04  0.16351449817E+04  0.50400001928E-02 0.  1.
       -1   -1    0    0    0  501  0.00000000000E+00  0.00000000000E+00 -0.16375229980E+04  0.16375229980E+04  0.50400001928E-02 0. -1.
    10030    2    1    2    0    0  0.00000000000E+00  0.00000000000E+00 -0.23780162760E+01  0.32726679797E+04  0.32726671157E+04 0.  0.
        4    1    3    3  502    0 -0.93443687487E+03 -0.82866417164E+03 -0.10584164706E+04  0.16371022022E+04  0.12699999809E+01 0. -1.
       -4    1    3    3    0  502  0.93443687487E+03  0.82866417164E+03  0.10560384543E+04  0.16355657774E+04  0.12699999809E+01 0.  1.
</event>
<event>
 5   0  0.2839279E-07  0.3956887E+04  0.7818609E-02  0.8013301E-01
       -2   -1    0    0    0  501  0.00000000000E+00  0.00000000000E+00  0.24924194275E+04  0.24924194275E+04  0.25500000920E-02 0. -1.
        2   -1    0    0  501    0  0.00000000000E+00  0.00000000000E+00 -0.15704572200E+04  0.15704572200E+04  0.25500000920E-02 0.  1.
    10030    2    1    2    0    0  0.00000000000E+00  0.00000000000E+00  0.92196220745E+03  0.40628766476E+04  0.39568866981E+04 0.  0.
        3    1    3    3  502    0 -0.30314215653E+03 -0.31273883726E+03  0.24425819897E+04  0.24811101415E+04  0.10100000352E+00 0. -1.
       -3    1    3    3    0  502  0.30314215653E+03  0.31273883726E+03 -0.15206197823E+04  0.15817665061E+04  0.10100000352E+00 0.  1.
</event>
<event>
 5   0  0.8528625E-08  0.3811671E+04  0.7818609E-02  0.8043655E-01
        4   -1    0    0  501    0  0.00000000000E+00  0.00000000000E+00  0.22082672223E+04  0.22082675875E+04  0.12699999809E+01 0. -1.
       -4   -1    0    0    0  501  0.00000000000E+00  0.00000000000E+00 -0.16448226998E+04  0.16448231901E+04  0.12699999809E+01 0.  1.
    10030    2    1    2    0    0  0.00000000000E+00  0.00000000000E+00  0.56344452249E+03  0.38530907776E+04  0.38116713933E+04 0.  0.
        3    1    3    3  502    0  0.12694727778E+04 -0.58064437532E+03  0.15933193220E+04  0.21183426296E+04  0.10100000352E+00 0. -1.
       -3    1    3    3    0  502 -0.12694727778E+04  0.58064437532E+03 -0.10298747995E+04  0.17347481480E+04  0.10100000352E+00 0.  1.
</event>
<event>
 5   0  0.2730801E-07  0.3789229E+04  0.7818609E-02  0.8048470E-01
        2   -1    0    0  501    0  0.00000000000E+00  0.00000000000E+00  0.21712519654E+04  0.21712519654E+04  0.25500000920E-02 0.  1.
       -2   -1    0    0    0  501  0.00000000000E+00  0.00000000000E+00 -0.16532235379E+04  0.16532235379E+04  0.25500000920E-02 0. -1.
    10030    2    1    2    0    0  0.00000000000E+00  0.00000000000E+00  0.51802842744E+03  0.38244755033E+04  0.37892293971E+04 0.  0.
        2    1    3    3  502    0  0.18051282395E+04 -0.26560066554E+03  0.77418651772E+03  0.19820182741E+04  0.25500000920E-02 0.  1.
       -2    1    3    3    0  502 -0.18051282395E+04  0.26560066554E+03 -0.25615809027E+03  0.18424572293E+04  0.25500000920E-02 0. -1.
</event>
<event>
 5   0  0.8528625E-08  0.4065987E+04  0.7818609E-02  0.7991366E-01
       -1   -1    0    0    0  501  0.00000000000E+00  0.00000000000E+00  0.16197338135E+04  0.16197338135E+04  0.50400001928E-02 0. -1.
        1   -1    0    0  501    0  0.00000000000E+00  0.00000000000E+00 -0.25516926510E+04  0.25516926510E+04  0.50400001928E-02 0.  1.
    10030    2    1    2    0    0  0.00000000000E+00  0.00000000000E+00 -0.93195883756E+03  0.41714264645E+04  0.40659871463E+04 0.  0.
        3    1    3    3  502    0  0.83018287381E+03  0.14620293761E+04 -0.16385660386E+04  0.23476865578E+04  0.10100000352E+00 0.  1.
       -3    1    3    3    0  502 -0.83018287381E+03 -0.14620293761E+04  0.70660720106E+03  0.18237399067E+04  0.10100000352E+00 0. -1.
</event>
<event>
 5   0  0.2730801E-07  0.4002421E+04  0.7818609E-02  0.8004058E-01
        2   -1    0    0  501    0  0.00000000000E+00  0.00000000000E+00  0.23335819162E+04  0.23335819162E+04  0.25500000920E-02 0.  1.
       -2   -1    0    0    0  501  0.00000000000E+00  0.00000000000E+00 -0.17161787691E+04  0.17161787691E+04  0.25500000920E-02 0. -1.
    10030    2    1    2    0    0  0.00000000000E+00  0.00000000000E+00  0.61740314719E+03  0.40497606853E+04  0.40024211375E+04 0.  0.
        2    1    3    3  502    0  0.31015291984E+03 -0.97877616303E+03 -0.14293599297E+04  0.17599055144E+04  0.25500000920E-02 0. -1.
       -2    1    3    3    0  502 -0.31015291984E+03  0.97877616303E+03  0.20467630769E+04  0.22898551709E+04  0.25500000920E-02 0.  1.
</event>
<event>
 5   0  0.8528625E-08  0.4016191E+04  0.7818609E-02  0.8001288E-01
        1   -1    0    0  501    0  0.00000000000E+00  0.00000000000E+00  0.22831460867E+04  0.22831460867E+04  0.50400001928E-02 0.  1.
       -1   -1    0    0    0  501  0.00000000000E+00  0.00000000000E+00 -0.17661800757E+04  0.17661800757E+04  0.50400001928E-02 0. -1.
    10030    2    1    2    0    0  0.00000000000E+00  0.00000000000E+00  0.51696601101E+03  0.40493261624E+04  0.40161907964E+04 0.  0.
        5    1    3    3  502    0 -0.39989867968E+03 -0.72348695166E+03 -0.15866628896E+04  0.17890985268E+04  0.46999998093E+01 0. -1.
       -5    1    3    3    0  502  0.39989867968E+03  0.72348695166E+03  0.21036289006E+04  0.22602276356E+04  0.46999998093E+01 0.  1.
</event>
<event>
 5   0  0.8528625E-08  0.3638665E+04  0.7818609E-02  0.8081692E-01
       -1   -1    0    0    0  501  0.00000000000E+00  0.00000000000E+00  0.15996158988E+04  0.15996158988E+04  0.50400001928E-02 0.  1.
        1   -1    0    0  501    0  0.00000000000E+00  0.00000000000E+00 -0.20692280638E+04  0.20692280638E+04  0.50400001928E-02 0. -1.
    10030    2    1    2    0    0  0.00000000000E+00  0.00000000000E+00 -0.46961216493E+03  0.36688439626E+04  0.36386646502E+04 0.  0.
        4    1    3    3  502    0  0.11068450487E+04 -0.69950764224E+03  0.10388220277E+04  0.16713975354E+04  0.12699999809E+01 0.  1.
       -4    1    3    3    0  502 -0.11068450487E+04  0.69950764224E+03 -0.15084341926E+04  0.19974464272E+04  0.12699999809E+01 0. -1.
</event>
<event>
 5   0  0.2839279E-07  0.4038269E+04  0.7818609E-02  0.7996871E-01
        2   -1    0    0  501    0  0.00000000000E+00  0.00000000000E+00  0.27294453040E+04  0.27294453040E+04  0.25500000920E-02 0.  1.
       -2   -1    0    0    0  501  0.00000000000E+00  0.00000000000E+00 -0.14936748386E+04  0.14936748386E+04  0.25500000920E-02 0. -1.
    10030    2    1    2    0    0  0.00000000000E+00  0.00000000000E+00  0.12357704653E+04  0.42231201426E+04  0.40382688241E+04 0.  0.
        3    1    3    3  502    0 -0.12413020445E+04  0.13595940382E+04 -0.24927408813E+03  0.18578116954E+04  0.10100000352E+00 0. -1.
       -3    1    3    3    0  502  0.12413020445E+04 -0.13595940382E+04  0.14850445535E+04  0.23653084472E+04  0.10100000352E+00 0.  1.
</event>
<event>
 5   0  0.8528625E-08  0.4057373E+04  0.7818609E-02  0.7993072E-01
        1   -1    0    0  501    0  0.00000000000E+00  0.00000000000E+00  0.17004261615E+04  0.17004261615E+04  0.50400001928E-02 0.  1.
       -1   -1    0    0    0  501  0.00000000000E+00  0.00000000000E+00 -0.24203160858E+04  0.24203160859E+04  0.50400001928E-02 0. -1.
    10030    2    1    2    0    0  0.00000000000E+00  0.00000000000E+00 -0.71988992434E+03  0.41207422474E+04  0.40573729390E+04 0.  0.
        3    1    3    3  502    0  0.16555257588E+04  0.52273560874E+02 -0.15495937596E+04  0.22682016871E+04  0.10100000352E+00 0. -1.
       -3    1    3    3    0  502 -0.16555257588E+04 -0.52273560874E+02  0.82970383528E+03  0.18525405603E+04  0.10100000352E+00 0.  1.
</event>
<event>
 5   0  0.8528625E-08  0.3562695E+04  0.7818609E-02  0.8099091E-01
        1   -1    0    0  501    0  0.00000000000E+00  0.00000000000E+00  0.16347475313E+04  0.16347475313E+04  0.50400001928E-02 0. -1.
       -1   -1    0    0    0  501  0.00000000000E+00  0.00000000000E+00 -0.19410939040E+04  0.19410939041E+04  0.50400001928E-02 0.  1.
    10030    2    1    2    0    0  0.00000000000E+00  0.00000000000E+00 -0.30634637278E+03  0.35758414353E+04  0.35626947484E+04 0.  0.
        2    1    3    3  502    0  0.16088028599E+04 -0.23633880574E+03 -0.88324703736E+03  0.18504669687E+04  0.25500000920E-02 0.  1.
       -2    1    3    3    0  502 -0.16088028599E+04  0.23633880574E+03  0.57690066458E+03  0.17253744666E+04  0.25500000920E-02 0. -1.
</event>
<event>
 5   0  0.8528625E-08  0.3752694E+04  0.7818609E-02  0.8056384E-01
       -1   -1    0    0    0  501  0.00000000000E+00  0.00000000000E+00  0.17733251014E+04  0.17733251014E+04  0.50400001928E-02 0.  1.
        1   -1    0    0  501    0  0.00000000000E+00  0.00000000000E+00 -0.19853536392E+04  0.19853536392E+04  0.50400001928E-02 0. -1.
    10030    2    1    2    0    0  0.00000000000E+00  0.00000000000E+00 -0.21202853775E+03  0.37586787406E+04  0.37526936691E+04 0.  0.
        2    1    3    3  502    0  0.15415217755E+04 -0.33707616423E+03  0.91087226799E+03  0.18219764031E+04  0.25500000920E-02 0.  1.
       -2    1    3    3    0  502 -0.15415217755E+04  0.33707616423E+03 -0.11229008057E+04  0.19367023375E+04  0.25500000920E-02 0. -1.
</event>
<event>
 5   0  0.2666978E-07  0.3507498E+04  0.7818609E-02  0.8112015E-01
       -2   -1    0    0    0  501  0.00000000000E+00  0.00000000000E+00  0.17619284431E+04  0.17619284431E+04  0.25500000920E-02 0. -1.
        2   -1    0    0  501    0  0.00000000000E+00  0.00000000000E+00 -0.17456075938E+04  0.17456075938E+04  0.25500000920E-02 0.  1.
    10030    2    1    2    0    0  0.00000000000E+00  0.00000000000E+00  0.16320849298E+02  0.35075360369E+04  0.35074980656E+04 0.  0.
        4    1    3    3  502    0  0.88496484721E+03  0.15046326992E+04 -0.16081393758E+03  0.17529817671E+04  0.12699999809E+01 0. -1.
       -4    1    3    3    0  502 -0.88496484721E+03 -0.15046326992E+04  0.17713478688E+03  0.17545542698E+04  0.12699999809E+01 0.  1.
</event>
<event>
 5   0  0.8583262E-08  0.4019511E+04  0.7818609E-02  0.8000622E-01
       -1   -1    0    0    0  501  0.00000000000E+00  0.00000000000E+00  0.30654635469E+04  0.30654635469E+04  0.50400001928E-02 0. -1.
        1   -1    0    0  501    0  0.00000000000E+00  0.00000000000E+00 -0.13176205377E+04  0.13176205378E+04  0.50400001928E-02 0.  1.
    10030    2    1    2    0    0  0.00000000000E+00  0.00000000000E+00  0.17478430092E+04  0.43830840847E+04  0.40195112773E+04 0.  0.
        1    1    3    3  502    0  0.10898316373E+04 -0.16820134311E+03  0.27061057575E+04  0.29221623946E+04  0.50400001928E-02 0. -1.
       -1    1    3    3    0  502 -0.10898316373E+04  0.16820134311E+03 -0.95826274839E+03  0.14609216900E+04  0.50400001928E-02 0.  1.
</event>
<event>
 5   0  0.8583262E-08  0.4045565E+04  0.7818609E-02  0.7995417E-01
        1   -1    0    0  501    0  0.00000000000E+00  0.00000000000E+00  0.19208074888E+04  0.19208074888E+04  0.50400001928E-02 0.  1.
       -1   -1    0    0    0  501  0.00000000000E+00  0.00000000000E+00 -0.21301714637E+04  0.21301714638E+04  0.50400001928E-02 0. -1.
    10030    2    1    2    0    0  0.00000000000E+00  0.00000000000E+00 -0.20936397495E+03  0.40509789526E+04  0.40455651274E+04 0.  0.
        1    1    3    3  502    0 -0.15542296493E+04  0.12437793922E+04  0.25500940383E+03  0.20068997921E+04  0.50400001928E-02 0.  1.
       -1    1    3    3    0  502  0.15542296493E+04 -0.12437793922E+04 -0.46437337878E+03  0.20440791605E+04  0.50400001928E-02 0. -1.
</event>
<event>
 5   0  0.2704088E-07  0.4056756E+04  0.7818609E-02  0.7993194E-01
        2   -1    0    0  501    0  0.00000000000E+00  0.00000000000E+00  0.28261892662E+04  0.28261892662E+04  0.25500000920E-02 0.  1.
       -2   -1    0    0    0  501  0.00000000000E+00  0.00000000000E+00 -0.14557823380E+04  0.14557823380E+04  0.25500000920E-02 0. -1.
    10030    2    1    2    0    0  0.00000000000E+00  0.00000000000E+00  0.13704069282E+04  0.42819716042E+04  0.40567555596E+04 0.  0.
        5    1    3    3  502    0 -0.95513584032E+03 -0.17560797973E+04  0.32232439187E+03  0.20248495825E+04  0.46999998093E+01 0. -1.
       -5    1    3    3    0  502  0.95513584032E+03  0.17560797973E+04  0.10480825364E+04  0.22571220218E+04  0.46999998093E+01 0.  1.
</event>
<event>
 5   0  0.2661693E-07  0.3961241E+04  0.7818609E-02  0.8012411E-01
       -2   -1    0    0    0  501  0.00000000000E+00  0.00000000000E+00  0.13687614764E+04  0.13687614764E+04  0.25500000920E-02 0.  1.
        2   -1    0    0  501    0  0.00000000000E+00  0.00000000000E+00 -0.28659904660E+04  0.28659904660E+04  0.25500000920E-02 0. -1.
    10030    2    1    2    0    0  0.00000000000E+00  0.00000000000E+00 -0.14972289896E+04  0.42347519424E+04  0.39612408871E+04 0.  0.
        1    1    3    3  502    0  0.16909031968E+04  0.70911873651E+03 -0.15492258851E+04  0.24004382613E+04  0.50400001928E-02 0.  1.
       -1    1    3    3    0  502 -0.16909031968E+04 -0.70911873651E+03  0.51996895431E+02  0.18343136811E+04  0.50400001928E-02 0. -1.
</event>
<event>
 5   0  0.2661693E-07  0.3948312E+04  0.7818609E-02  0.8015056E-01
        2   -1    0    0  501    0  0.00000000000E+00  0.00000000000E+00  0.26634251088E+04  0.26634251088E+04  0.25500000920E-02 0.  1.
       -2   -1    0    0    0  501  0.00000000000E+00  0.00000000000E+00 -0.14632628703E+04  0.14632628703E+04  0.25500000920E-02 0. -1.
    10030    2    1    2    0    0  0.00000000000E+00  0.00000000000E+00  0.12001622385E+04  0.41266879791E+04  0.39483115731E+04 0.  0.
        1    1    3    3  502    0  0.88015062045E+03 -0.14805283825E+04  0.16083726710E+04  0.23565848287E+04  0.50400001928E-02 0.  1.
       -1    1    3    3    0  502 -0.88015062045E+03  0.14805283825E+04 -0.40821043244E+03  0.17701031504E+04  0.50400001928E-02 0. -1.
</event>
<event>
 5   0  0.8528625E-08  0.3963620E+04  0.7818609E-02  0.8011926E-01
        1   -1    0    0  501    0  0.00000000000E+00  0.00000000000E+00  0.22430658743E+04  0.22430658743E+04  0.50400001928E-02 0.  1.
       -1   -1    0    0    0  501  0.00000000000E+00  0.00000000000E+00 -0.17509837258E+04  0.17509837258E+04  0.50400001928E-02 0. -1.
    10030    2    1    2    0    0  0.00000000000E+00  0.00000000000E+00  0.49208214850E+03  0.39940496001E+04  0.39636204873E+04 0.  0.
        3    1    3    3  502    0  0.69500503514E+03  0.14552182882E+04  0.14067869317E+04  0.21400331181E+04  0.10100000352E+00 0.  1.
       -3    1    3    3    0  502 -0.69500503514E+03 -0.14552182882E+04 -0.91470478321E+03  0.18540164820E+04  0.10100000352E+00 0. -1.
</event>
<event>
 5   0  0.2704088E-07  0.4015535E+04  0.7818609E-02  0.8001420E-01
       -2   -1    0    0    0  501  0.00000000000E+00  0.00000000000E+00  0.24277122177E+04  0.24277122177E+04  0.25500000920E-02 0.  1.
        2   -1    0    0  501    0  0.00000000000E+00  0.00000000000E+00 -0.16604645650E+04  0.16604645650E+04  0.25500000920E-02 0. -1.
    10030    2    1    2    0    0  0.00000000000E+00  0.00000000000E+00  0.76724765264E+03  0.40881767827E+04  0.40155348892E+04 0.  0.
        5    1    3    3  502    0 -0.60079775410E+03 -0.12449172278E+04  0.18661013354E+04  0.23223120224E+04  0.46999998093E+01 0.  1.
       -5    1    3    3    0  502  0.60079775410E+03  0.12449172278E+04 -0.10988536827E+04  0.17658647603E+04  0.46999998093E+01 0. -1.
</event>
<event>
 5   0  0.2730801E-07  0.3888391E+04  0.7818609E-02  0.8027448E-01
        2   -1    0    0  501    0  0.00000000000E+00  0.00000000000E+00  0.25141236810E+04  0.25141236810E+04  0.25500000920E-02 0.  1.
       -2   -1    0    0    0  501  0.00000000000E+00  0.00000000000E+00 -0.15034647472E+04  0.15034647472E+04  0.25500000920E-02 0. -1.
    10030    2    1    2    0    0  0.00000000000E+00  0.00000000000E+00  0.10106589338E+04  0.40175884283E+04  0.38883910938E+04 0.  0.
        2    1    3    3  502    0 -0.94994815011E+03  0.11197730125E+04 -0.81121477825E+03  0.16776061826E+04  0.25500000920E-02 0. -1.
       -2    1    3    3    0  502  0.94994815011E+03 -0.11197730125E+04  0.18218737121E+04  0.23399822457E+04  0.25500000920E-02 0.  1.
</event>
<event>
 5   0  0.8528625E-08  0.3675228E+04  0.7818609E-02  0.8073474E-01
       -1   -1    0    0    0  501  0.00000000000E+00  0.00000000000E+00  0.15331398554E+04  0.15331398554E+04  0.50400001928E-02 0.  1.
        1   -1    0    0  501    0  0.00000000000E+00  0.00000000000E+00 -0.22025550264E+04  0.22025550264E+04  0.50400001928E-02 0. -1.
    10030    2    1    2    0    0  0.00000000000E+00  0.00000000000E+00 -0.66941517103E+03  0.37356948818E+04  0.36752278268E+04 0.  0.
        5    1    3    3  502    0  0.27155959302E+03  0.93959615397E+03 -0.19160077211E+04  0.21512073871E+04  0.46999998093E+01 0. -1.
       -5    1    3    3    0  502 -0.27155959302E+03 -0.93959615397E+03  0.12465925500E+04  0.15844874947E+04  0.46999998093E+01 0.  1.
</event>
<event>
 5   0  0.2661693E-07  0.4005641E+04  0.7818609E-02  0.8003410E-01
        2   -1    0    0  501    0  0.00000000000E+00  0.00000000000E+00  0.13800636593E+04  0.13800636593E+04  0.25500000920E-02 0. -1.
       -2   -1    0    0    0  501  0.00000000000E+00  0.00000000000E+00 -0.29065981409E+04  0.29065981409E+04  0.25500000920E-02 0.  1.
    10030    2    1    2    0    0  0.00000000000E+00  0.00000000000E+00 -0.15265344815E+04  0.42866618002E+04  0.40056412553E+04 0.  0.
        1    1    3    3  502    0 -0.12312064679E+04  0.11853938025E+04 -0.18806777029E+04  0.25412548978E+04  0.50400001928E-02 0.  1.
       -1    1    3    3    0  502  0.12312064679E+04 -0.11853938025E+04  0.35414322135E+03  0.17454069024E+04  0.50400001928E-02 0. -1.
</event>
<event>
 5   0  0.2666978E-07  0.3992879E+04  0.7818609E-02  0.8005985E-01
       -2   -1    0    0    0  501  0.00000000000E+00  0.00000000000E+00  0.15547470221E+04  0.15547470221E+04  0.25500000920E-02 0.  1.
        2   -1    0    0  501    0  0.00000000000E+00  0.00000000000E+00 -0.25636137872E+04  0.25636137872E+04  0.25500000920E-02 0. -1.
    10030    2    1    2    0    0  0.00000000000E+00  0.00000000000E+00 -0.10088667651E+04  0.41183608094E+04  0.39928791124E+04 0.  0.
        4    1    3    3  502    0 -0.15414403950E+04 -0.12360635496E+04 -0.79956860637E+03  0.21314791013E+04  0.12699999809E+01 0. -1.
       -4    1    3    3    0  502  0.15414403950E+04  0.12360635496E+04 -0.20929815870E+03  0.19868817081E+04  0.12699999809E+01 0.  1.
</event>
<event>
 5   0  0.2661693E-07  0.3989236E+04  0.7818609E-02  0.8006722E-01
       -2   -1    0    0    0  501  0.00000000000E+00  0.00000000000E+00  0.15782069465E+04  0.15782069465E+04  0.25500000920E-02 0. -1.
        2   -1    0    0  501    0  0.00000000000E+00  0.00000000000E+00 -0.25208990324E+04  0.25208990324E+04  0.25500000920E-02 0.  1.
    10030    2    1    2    0    0  0.00000000000E+00  0.00000000000E+00 -0.94269208588E+03  0.40991059788E+04  0.39892356983E+04 0.  0.
        1    1    3    3  502    0 -0.83086790571E+03  0.85940293380E+03  0.11693730766E+04  0.16722285345E+04  0.50400001928E-02 0. -1.
       -1    1    3    3    0  502  0.83086790571E+03 -0.85940293380E+03 -0.21120651625E+04  0.24268774443E+04  0.50400001928E-02 0.  1.
</event>
<event>
 5   0  0.2730801E-07  0.3978788E+04  0.7818609E-02  0.8008839E-01
       -2   -1    0    0    0  501  0.00000000000E+00  0.00000000000E+00  0.18182837428E+04  0.18182837428E+04  0.25500000920E-02 0. -1.
        2   -1    0    0  501    0  0.00000000000E+00  0.00000000000E+00 -0.21766063528E+04  0.21766063528E+04  0.25500000920E-02 0.  1.
    10030    2    1    2    0    0  0.00000000000E+00  0.00000000000E+00 -0.35832261001E+03  0.39948900956E+04  0.39787877278E+04 0.  0.
        2    1    3    3  502    0  0.13475132753E+04  0.14353481624E+04  0.10777765648E+03  0.19717079899E+04  0.25500000920E-02 0. -1.
       -2    1    3    3    0  502 -0.13475132753E+04 -0.14353481624E+04 -0.46610026649E+03  0.20231821057E+04  0.25500000920E-02 0.  1.
</event>
<event>
 5   0  0.8528625E-08  0.3044592E+04  0.7818609E-02  0.8231111E-01
        1   -1    0    0  501    0  0.00000000000E+00  0.00000000000E+00  0.29360283575E+04  0.29360283575E+04  0.50400001928E-02 0.  1.
       -1   -1    0    0    0  501  0.00000000000E+00  0.00000000000E+00 -0.78929264727E+03  0.78929264729E+03  0.50400001928E-02 0. -1.
    10030    2    1    2    0    0  0.00000000000E+00  0.00000000000E+00  0.21467357103E+04  0.37253210048E+04  0.30445923174E+04 0.  0.
        2    1    3    3  502    0  0.13998650461E+04  0.58596650838E+03  0.12202323404E+04  0.19472919301E+04  0.25500000920E-02 0.  1.
       -2    1    3    3    0  502 -0.13998650461E+04 -0.58596650838E+03  0.92650336981E+03  0.17780290747E+04  0.25500000920E-02 0. -1.
</event>
<event>
 5   0  0.8528625E-08  0.4028577E+04  0.7818609E-02  0.7998806E-01
        1   -1    0    0  501    0  0.00000000000E+00  0.00000000000E+00  0.25326130504E+04  0.25326130504E+04  0.50400001928E-02 0.  1.
       -1   -1    0    0    0  501  0.00000000000E+00  0.00000000000E+00 -0.16020443299E+04  0.16020443300E+04  0.50400001928E-02 0. -1.
    10030    2    1    2    0    0  0.00000000000E+00  0.00000000000E+00  0.93056872041E+03  0.41346573803E+04  0.40285771073E+04 0.  0.
        2    1    3    3  502    0  0.96208305413E+03 -0.25297176897E+03  0.22629069920E+04  0.24719115221E+04  0.25500000920E-02 0.  1.
       -2    1    3    3    0  502 -0.96208305413E+03  0.25297176897E+03 -0.13323382716E+04  0.16627458582E+04  0.25500000920E-02 0. -1.
</event>
<event>
 5   0  0.2661693E-07  0.3950253E+04  0.7818609E-02  0.8014658E-01
        2   -1    0    0  501    0  0.00000000000E+00  0.00000000000E+00  0.24094529348E+04  0.24094529348E+04  0.25500000920E-02 0. -1.
       -2   -1    0    0    0  501  0.00000000000E+00  0.00000000000E+00 -0.16190914368E+04  0.16190914368E+04  0.25500000920E-02 0.  1.
    10030    2    1    2    0    0  0.00000000000E+00  0.00000000000E+00  0.79036149803E+03  0.40285443717E+04  0.39502529611E+04 0.  0.
        1    1    3    3  502    0  0.11439413074E+04 -0.11295088189E+04  0.15654129901E+04  0.22438604494E+04  0.50400001928E-02 0.  1.
       -1    1    3    3    0  502 -0.11439413074E+04  0.11295088189E+04 -0.77505149209E+03  0.17846839222E+04  0.50400001928E-02 0. -1.
</event>
<event>
 5   0  0.8528625E-08  0.3786322E+04  0.7818609E-02  0.8049097E-01
        1   -1    0    0  501    0  0.00000000000E+00  0.00000000000E+00  0.24470496252E+04  0.24470496252E+04  0.50400001928E-02 0. -1.
       -1   -1    0    0    0  501  0.00000000000E+00  0.00000000000E+00 -0.14646445958E+04  0.14646445958E+04  0.50400001928E-02 0.  1.
    10030    2    1    2    0    0  0.00000000000E+00  0.00000000000E+00  0.98240502935E+03  0.39116942210E+04  0.37863217028E+04 0.  0.
        3    1    3    3  502    0 -0.11393044046E+04  0.40087045144E+03 -0.10149267419E+04  0.15775892833E+04  0.10100000352E+00 0.  1.
       -3    1    3    3    0  502  0.11393044046E+04 -0.40087045144E+03  0.19973317713E+04  0.23341049377E+04  0.10100000352E+00 0. -1.
</event>
<event>
 5   0  0.8528625E-08  0.4020709E+04  0.7818609E-02  0.8000382E-01
       -1   -1    0    0    0  501  0.00000000000E+00  0.00000000000E+00  0.14494128479E+04  0.14494128479E+04  0.50400001928E-02 0. -1.
        1   -1    0    0  501    0  0.00000000000E+00  0.00000000000E+00 -0.27883876814E+04  0.27883876814E+04  0.50400001928E-02 0.  1.
    10030    2    1    2    0    0  0.00000000000E+00  0.00000000000E+00 -0.13389748335E+04  0.42378005293E+04  0.40207088581E+04 0.  0.
        5    1    3    3  502    0  0.76941463751E+03  0.17403346813E+04  0.14179159884E+02  0.19028890734E+04  0.46999998093E+01 0. -1.
       -5    1    3    3    0  502 -0.76941463751E+03 -0.17403346813E+04 -0.13531539933E+04  0.23349114559E+04  0.46999998093E+01 0.  1.
</event>
<event>
 5   0  0.2661693E-07  0.4015207E+04  0.7818609E-02  0.8001486E-01
        2   -1    0    0  501    0  0.00000000000E+00  0.00000000000E+00  0.12997606048E+04  0.12997606048E+04  0.25500000920E-02 0. -1.
       -2   -1    0    0    0  501  0.00000000000E+00  0.00000000000E+00 -0.31009334565E+04  0.31009334565E+04  0.25500000920E-02 0.  1.
    10030    2    1    2    0    0  0.00000000000E+00  0.00000000000E+00 -0.18011728517E+04  0.44006940613E+04  0.40152066671E+04 0.  0.
        1    1    3    3  502    0  0.28419549465E+03 -0.15643474950E+04 -0.22440427311E+04  0.27502141631E+04  0.50400001928E-02 0.  1.
       -1    1    3    3    0  502 -0.28419549465E+03  0.15643474950E+04  0.44286987936E+03  0.16504798982E+04  0.50400001928E-02 0. -1.
</event>
<event>
 5   0  0.8528625E-08  0.4012887E+04  0.7818609E-02  0.8001952E-01
        1   -1    0    0  501    0  0.00000000000E+00  0.00000000000E+00  0.14734352825E+04  0.14734352825E+04  0.50400001928E-02 0. -1.
       -1   -1    0    0    0  501  0.00000000000E+00  0.00000000000E+00 -0.27322652210E+04  0.27322652210E+04  0.50400001928E-02 0.  1.
    10030    2    1    2    0    0  0.00000000000E+00  0.00000000000E+00 -0.12588299385E+04  0.42057005035E+04  0.40128872288E+04 0.  0.
        4    1    3    3  502    0  0.80013685113E+03 -0.59702013211E+02  0.12979776107E+04  0.15259524244E+04  0.12699999809E+01 0. -1.
       -4    1    3    3    0  502 -0.80013685113E+03  0.59702013211E+02 -0.25568075492E+04  0.26797480791E+04  0.12699999809E+01 0.  1.
</event>
<event>
 5   0  0.2730801E-07  0.4061407E+04  0.7818609E-02  0.7992272E-01
       -2   -1    0    0    0  501  0.00000000000E+00  0.00000000000E+00  0.16280888208E+04  0.16280888208E+04  0.25500000920E-02 0. -1.
        2   -1    0    0  501    0  0.00000000000E+00  0.00000000000E+00 -0.25328820112E+04  0.25328820112E+04  0.25500000920E-02 0.  1.
    10030    2    1    2    0    0  0.00000000000E+00  0.00000000000E+00 -0.90479319037E+03  0.41609708320E+04  0.40614070896E+04 0.  0.
        2    1    3    3  502    0  0.11406528913E+04 -0.14958021966E+04  0.33136956154E+03  0.19100573332E+04  0.25500000920E-02 0. -1.
       -2    1    3    3    0  502 -0.11406528913E+04  0.14958021966E+04 -0.12361627519E+04  0.22509134988E+04  0.25500000920E-02 0.  1.
</event>
<event>
 5   0  0.8583262E-08  0.4024809E+04  0.7818609E-02  0.7999560E-01
       -1   -1    0    0    0  501  0.00000000000E+00  0.00000000000E+00  0.14207092928E+04  0.14207092928E+04  0.50400001928E-02 0.  1.
        1   -1    0    0  501    0  0.00000000000E+00  0.00000000000E+00 -0.28505280855E+04  0.28505280855E+04  0.50400001928E-02 0. -1.
    10030    2    1    2    0    0  0.00000000000E+00  0.00000000000E+00 -0.14298187927E+04  0.42712373783E+04  0.40248089348E+04 0.  0.
        1    1    3    3  502    0 -0.26820181339E+03  0.90821106033E+03 -0.25992954790E+04  0.27664266717E+04  0.50400001928E-02 0. -1.
       -1    1    3    3    0  502  0.26820181339E+03 -0.90821106033E+03  0.11694766863E+04  0.15048107066E+04  0.50400001928E-02 0.  1.
</event>
<event>
 5   0  0.8583262E-08  0.4050937E+04  0.7818609E-02  0.7994349E-01
       -1   -1    0    0    0  501  0.00000000000E+00  0.00000000000E+00  0.15865184970E+04  0.15865184970E+04  0.50400001928E-02 0. -1.
        1   -1    0    0  501    0  0.00000000000E+00  0.00000000000E+00 -0.25858646803E+04  0.25858646803E+04  0.50400001928E-02 0.  1.
    10030    2    1    2    0    0  0.00000000000E+00  0.00000000000E+00 -0.99934618335E+03  0.41723831773E+04  0.40509367539E+04 0.  0.
        1    1    3    3  502    0 -0.87039309531E+03  0.51557358578E+01 -0.23834134127E+04  0.25373746704E+04  0.50400001928E-02 0.  1.
       -1    1    3    3    0  502  0.87039309531E+03 -0.51557358578E+01  0.13840672294E+04  0.16350085069E+04  0.50400001928E-02 0. -1.
</event>
<event>
 5   0  0.2704088E-07  0.4031426E+04  0.7818609E-02  0.7998237E-01
        2   -1    0    0  501    0  0.00000000000E+00  0.00000000000E+00  0.16474198598E+04  0.16474198598E+04  0.25500000920E-02 0.  1.
       -2   -1    0    0    0  501  0.00000000000E+00  0.00000000000E+00 -0.24663414227E+04  0.24663414227E+04  0.25500000920E-02 0. -1.
    10030    2    1    2    0    0  0.00000000000E+00  0.00000000000E+00 -0.81892156295E+03  0.41137612825E+04  0.40314264675E+04 0.  0.
        5    1    3    3  502    0  0.32912648799E+03 -0.11904824574E+04 -0.20349488988E+04  0.23804646264E+04  0.46999998093E+01 0. -1.
       -5    1    3    3    0  502 -0.32912648799E+03  0.11904824574E+04  0.12160273359E+04  0.17332966561E+04  0.46999998093E+01 0.  1.
</event>
<event>
 5   0  0.8528625E-08  0.4072844E+04  0.7818609E-02  0.7990011E-01
        1   -1    0    0  501    0  0.00000000000E+00  0.00000000000E+00  0.15291146020E+04  0.15291146020E+04  0.50400001928E-02 0.  1.
       -1   -1    0    0    0  501  0.00000000000E+00  0.00000000000E+00 -0.27120369368E+04  0.27120369368E+04  0.50400001928E-02 0. -1.
    10030    2    1    2    0    0  0.00000000000E+00  0.00000000000E+00 -0.11829223348E+04  0.42411515388E+04  0.40728443531E+04 0.  0.
        3    1    3    3  502    0  0.10682566749E+04 -0.13937845385E+04 -0.16651909873E+04  0.24200555154E+04  0.10100000352E+00 0. -1.
       -3    1    3    3    0  502 -0.10682566749E+04  0.13937845385E+04  0.48226865243E+03  0.18210960234E+04  0.10100000352E+00 0.  1.
</event>
<event>
 5   0  0.8528625E-08  0.4198180E+04  0.7818609E-02  0.7965719E-01
       -1   -1    0    0    0  501  0.00000000000E+00  0.00000000000E+00  0.20902648641E+04  0.20902648641E+04  0.50400001928E-02 0.  1.
        1   -1    0    0  501    0  0.00000000000E+00  0.00000000000E+00 -0.21079520893E+04  0.21079520893E+04  0.50400001928E-02 0. -1.
    10030    2    1    2    0    0  0.00000000000E+00  0.00000000000E+00 -0.17687225129E+02  0.41982169534E+04  0.41981796948E+04 0.  0.
        5    1    3    3  502    0 -0.39480010698E+03 -0.10130169512E+04 -0.18044334479E+04  0.21066733553E+04  0.46999998093E+01 0. -1.
       -5    1    3    3    0  502  0.39480010698E+03  0.10130169512E+04  0.17867462228E+04  0.20915435981E+04  0.46999998093E+01 0.  1.
</event>
<event>
 5   0  0.2730801E-07  0.3862167E+04  0.7818609E-02  0.8032944E-01
       -2   -1    0    0    0  501  0.00000000000E+00  0.00000000000E+00  0.19273407548E+04  0.19273407548E+04  0.25500000920E-02 0.  1.
        2   -1    0    0  501    0  0.00000000000E+00  0.00000000000E+00 -0.19348336000E+04  0.19348336000E+04  0.25500000920E-02 0. -1.
    10030    2    1    2    0    0  0.00000000000E+00  0.00000000000E+00 -0.74928452613E+01  0.38621743548E+04  0.38621670865E+04 0.  0.
        2    1    3    3  502    0  0.23296262639E+03  0.19990367750E+03  0.19027855772E+04  0.19273883933E+04  0.25500000920E-02 0.  1.
       -2    1    3    3    0  502 -0.23296262639E+03 -0.19990367750E+03 -0.19102784225E+04  0.19347859615E+04  0.25500000920E-02 0. -1.
</event>
<event>
 5   0  0.2666978E-07  0.3928310E+04  0.7818609E-02  0.8019167E-01
        2   -1    0    0  501    0  0.00000000000E+00  0.00000000000E+00  0.18772262194E+04  0.18772262194E+04  0.25500000920E-02 0.  1.
       -2   -1    0    0    0  501  0.00000000000E+00  0.00000000000E+00 -0.20551096441E+04  0.20551096441E+04  0.25500000920E-02 0. -1.
    10030    2    1    2    0    0  0.00000000000E+00  0.00000000000E+00 -0.17788342461E+03  0.39323358635E+04  0.39283104295E+04 0.  0.
        4    1    3    3  502    0  0.46093644248E+02 -0.13381418982E+04  0.13495958537E+04  0.19010941442E+04  0.12699999809E+01 0.  1.
       -4    1    3    3    0  502 -0.46093644248E+02  0.13381418982E+04 -0.15274792783E+04  0.20312417193E+04  0.12699999809E+01 0. -1.
</event>
<event>
 5   0  0.8528625E-08  0.4004244E+04  0.7818609E-02  0.8003691E-01
        1   -1    0    0  501    0  0.00000000000E+00  0.00000000000E+00  0.31248079660E+04  0.31248079660E+04  0.50400001928E-02 0. -1.
       -1   -1    0    0    0  501  0.00000000000E+00  0.00000000000E+00 -0.12827965213E+04  0.12827965213E+04  0.50400001928E-02 0.  1.
    10030    2    1    2    0    0  0.00000000000E+00  0.00000000000E+00  0.18420114447E+04  0.44076044874E+04  0.40042441427E+04 0.  0.
        3    1    3    3  502    0 -0.11333666094E+04 -0.14601262181E+04  0.17679298604E+04  0.25577459697E+04  0.10100000352E+00 0. -1.
       -3    1    3    3    0  502  0.11333666094E+04  0.14601262181E+04  0.74081584268E+02  0.18498585177E+04  0.10100000352E+00 0.  1.
</event>
<event>
 5   0  0.2730801E-07  0.4065777E+04  0.7818609E-02  0.7991407E-01
       -2   -1    0    0    0  501  0.00000000000E+00  0.00000000000E+00  0.28155704684E+04  0.28155704684E+04  0.25500000920E-02 0.  1.
        2   -1    0    0  501    0  0.00000000000E+00  0.00000000000E+00 -0.14677788042E+04  0.14677788042E+04  0.25500000920E-02 0. -1.
    10030    2    1    2    0    0  0.00000000000E+00  0.00000000000E+00  0.13477916642E+04  0.42833492726E+04  0.40657765089E+04 0.  0.
        2    1    3    3  502    0 -0.92540509871E+03 -0.29899046158E+03  0.25546057025E+04  0.27334557227E+04  0.25500000920E-02 0.  1.
       -2    1    3    3    0  502  0.92540509871E+03  0.29899046158E+03 -0.12068140383E+04  0.15498935498E+04  0.25500000920E-02 0. -1.
</event>
<event>
 5   0  0.2666978E-07  0.3970370E+04  0.7818609E-02  0.8010551E-01
       -2   -1    0    0    0  501  0.00000000000E+00  0.00000000000E+00  0.20323335556E+04  0.20323335556E+04  0.25500000920E-02 0. -1.
        2   -1    0    0  501    0  0.00000000000E+00  0.00000000000E+00 -0.19391307332E+04  0.19391307332E+04  0.25500000920E-02 0.  1.
    10030    2    1    2    0    0  0.00000000000E+00  0.00000000000E+00  0.93202822397E+02  0.39714642889E+04  0.39703704905E+04 0.  0.
        4    1    3    3  502    0  0.24027749592E+03  0.18962078717E+04 -0.48984967945E+03  0.19731426429E+04  0.12699999809E+01 0.  1.
       -4    1    3    3    0  502 -0.24027749592E+03 -0.18962078717E+04  0.58305250185E+03  0.19983216460E+04  0.12699999809E+01 0. -1.
</event>
<event>
 5   0  0.2839279E-07  0.3910383E+04  0.7818609E-02  0.8022873E-01
        2   -1    0    0  501    0  0.00000000000E+00  0.00000000000E+00  0.25221505923E+04  0.25221505923E+04  0.25500000920E-02 0.  1.
       -2   -1    0    0    0  501  0.00000000000E+00  0.00000000000E+00 -0.15156802878E+04  0.15156802878E+04  0.25500000920E-02 0. -1.
    10030    2    1    2    0    0  0.00000000000E+00  0.00000000000E+00  0.10064703045E+04  0.40378308801E+04  0.39103830685E+04 0.  0.
        3    1    3    3  502    0  0.11507569144E+04 -0.11128710108E+04  0.16623402279E+04  0.23078341375E+04  0.10100000352E+00 0.  1.
       -3    1    3    3    0  502 -0.11507569144E+04  0.11128710108E+04 -0.65586992340E+03  0.17299967426E+04  0.10100000352E+00 0. -1.
</event>
<event>
 5   0  0.8528625E-08  0.3995537E+04  0.7818609E-02  0.8005447E-01
        1   -1    0    0  501    0  0.00000000000E+00  0.00000000000E+00  0.27705939181E+04  0.27705939181E+04  0.50400001928E-02 0.  1.
       -1   -1    0    0    0  501  0.00000000000E+00  0.00000000000E+00 -0.14405139272E+04  0.14405139272E+04  0.50400001928E-02 0. -1.
    10030    2    1    2    0    0  0.00000000000E+00  0.00000000000E+00  0.13300799909E+04  0.42111078453E+04  0.39955370731E+04 0.  0.
        5    1    3    3  502    0 -0.13021613898E+04  0.11016841641E+04  0.17612142126E+04  0.24517809599E+04  0.46999998093E+01 0.  1.
       -5    1    3    3    0  502  0.13021613898E+04 -0.11016841641E+04 -0.43113422176E+03  0.17593268854E+04  0.46999998093E+01 0. -1.
</event>
<event>
 5   0  0.2730801E-07  0.4064628E+04  0.7818609E-02  0.7991634E-01
        2   -1    0    0  501    0  0.00000000000E+00  0.00000000000E+00  0.18336841770E+04  0.18336841770E+04  0.25500000920E-02 0. -1.
       -2   -1    0    0    0  501  0.00000000000E+00  0.00000000000E+00 -0.22524604294E+04  0.22524604294E+04  0.25500000920E-02 0.  1.
    10030    2    1    2    0    0  0.00000000000E+00  0.00000000000E+00 -0.41877625238E+03  0.40861446064E+04  0.40646284203E+04 0.  0.
        2    1    3    3  502    0 -0.77408893897E+03 -0.17124442127E+04 -0.98719053749E+03  0.21227868533E+04  0.25500000920E-02 0.  1.
       -2    1    3    3    0  502  0.77408893897E+03  0.17124442127E+04  0.56841428511E+03  0.19633577531E+04  0.25500000920E-02 0. -1.
</event>
<event>
 5   0  0.8528625E-08  0.4030966E+04  0.7818609E-02  0.7998329E-01
        1   -1    0    0  501    0  0.00000000000E+00  0.00000000000E+00  0.20708686017E+04  0.20708686017E+04  0.50400001928E-02 0.  1.
       -1   -1    0    0    0  501  0.00000000000E+00  0.00000000000E+00 -0.19615789441E+04  0.19615789441E+04  0.50400001928E-02 0. -1.
    10030    2    1    2    0    0  0.00000000000E+00  0.00000000000E+00  0.10928965757E+03  0.40324475458E+04  0.40309662589E+04 0.  0.
        4    1    3    3  502    0  0.10305862665E+03 -0.20816186525E+02  0.20681229559E+04  0.20707941877E+04  0.12699999809E+01 0.  1.
       -4    1    3    3    0  502 -0.10305862665E+03  0.20816186525E+02 -0.19588332983E+04  0.19616533581E+04  0.12699999809E+01 0. -1.
</event>
<event>
 5   0  0.2730801E-07  0.3987954E+04  0.7818609E-02  0.8006981E-01
       -2   -1    0    0    0  501  0.00000000000E+00  0.00000000000E+00  0.23505070072E+04  0.23505070072E+04  0.25500000920E-02 0. -1.
        2   -1    0    0  501    0  0.00000000000E+00  0.00000000000E+00 -0.16915260586E+04  0.16915260586E+04  0.25500000920E-02 0.  1.
    10030    2    1    2    0    0  0.00000000000E+00  0.00000000000E+00  0.65898094864E+03  0.40420330658E+04  0.39879537879E+04 0.  0.
        2    1    3    3  502    0 -0.14756740965E+03  0.13231313251E+04 -0.11750553026E+04  0.17757273462E+04  0.25500000920E-02 0.  1.
       -2    1    3    3    0  502  0.14756740965E+03 -0.13231313251E+04  0.18340362513E+04  0.22663057196E+04  0.25500000920E-02 0. -1.
</event>
<event>
 5   0  0.8528625E-08  0.3993426E+04  0.7818609E-02  0.8005874E-01
        1   -1    0    0  501    0  0.00000000000E+00  0.00000000000E+00  0.17507129393E+04  0.17507129393E+04  0.50400001928E-02 0.  1.
       -1   -1    0    0    0  501  0.00000000000E+00  0.00000000000E+00 -0.22772799243E+04  0.22772799243E+04  0.50400001928E-02 0. -1.
    10030    2    1    2    0    0  0.00000000000E+00  0.00000000000E+00 -0.52656698506E+03  0.40279928636E+04  0.39934263133E+04 0.  0.
        5    1    3    3  502    0  0.68494076234E+03  0.12085776562E+04  0.11833686882E+04  0.18248800895E+04  0.46999998093E+01 0.  1.
       -5    1    3    3    0  502 -0.68494076234E+03 -0.12085776562E+04 -0.17099356732E+04  0.22031127741E+04  0.46999998093E+01 0. -1.
</event>
<event>
 5   0  0.8528625E-08  0.3996338E+04  0.7818609E-02  0.8005286E-01
        1   -1    0    0  501    0  0.00000000000E+00  0.00000000000E+00  0.27588958449E+04  0.27588958449E+04  0.50400001928E-02 0. -1.
       -1   -1    0    0    0  501  0.00000000000E+00  0.00000000000E+00 -0.14472017473E+04  0.14472017473E+04  0.50400001928E-02 0.  1.
    10030    2    1    2    0    0  0.00000000000E+00  0.00000000000E+00  0.13116940976E+04  0.42060975923E+04  0.39963377673E+04 0.  0.
        5    1    3    3  502    0  0.37010990026E+03  0.19283540844E+04  0.10455888941E+04  0.22245918813E+04  0.46999998093E+01 0. -1.
       -5    1    3    3    0  502 -0.37010990026E+03 -0.19283540844E+04  0.26610520352E+03  0.19815057109E+04  0.46999998093E+01 0.  1.
</event>
<event>
 5   0  0.8528625E-08  0.3950365E+04  0.7818609E-02  0.8014635E-01
       -1   -1    0    0    0  501  0.00000000000E+00  0.00000000000E+00  0.29599392584E+04  0.29599392584E+04  0.50400001928E-02 0.  1.
        1   -1    0    0  501    0  0.00000000000E+00  0.00000000000E+00 -0.13180494537E+04  0.13180494538E+04  0.50400001928E-02 0. -1.
    10030    2    1    2    0    0  0.00000000000E+00  0.00000000000E+00  0.16418898046E+04  0.42779887121E+04  0.39503652098E+04 0.  0.
        3    1    3    3  502    0 -0.17421171972E+03 -0.18829388059E+04  0.14388236539E+04  0.23761358941E+04  0.10100000352E+00 0.  1.
       -3    1    3    3    0  502  0.17421171972E+03  0.18829388059E+04  0.20306615075E+03  0.19018528181E+04  0.10100000352E+00 0. -1.
</event>
<event>
 5   0  0.8528625E-08  0.4002416E+04  0.7818609E-02  0.8004059E-01
        1   -1    0    0  501    0  0.00000000000E+00  0.00000000000E+00  0.30436446472E+04  0.30436446472E+04  0.50400001928E-02 0. -1.
       -1   -1    0    0    0  501  0.00000000000E+00  0.00000000000E+00 -0.13158021509E+04  0.13158021509E+04  0.50400001928E-02 0.  1.
    10030    2    1    2    0    0  0.00000000000E+00  0.00000000000E+00  0.17278424963E+04  0.43594467982E+04  0.40024163569E+04 0.  0.
        2    1    3    3  502    0  0.15972881586E+04  0.45674787584E+03 -0.35135196214E+03  0.16980566201E+04  0.25500000920E-02 0.  1.
       -2    1    3    3    0  502 -0.15972881586E+04 -0.45674787584E+03  0.20791944585E+04  0.26613901781E+04  0.25500000920E-02 0. -1.
</event>
<event>
 5   0  0.2704088E-07  0.3988164E+04  0.7818609E-02  0.8006939E-01
        2   -1    0    0  501    0  0.00000000000E+00  0.00000000000E+00  0.14535291822E+04  0.14535291822E+04  0.25500000920E-02 0.  1.
       -2   -1    0    0    0  501  0.00000000000E+00  0.00000000000E+00 -0.27356602799E+04  0.27356602799E+04  0.25500000920E-02 0. -1.
    10030    2    1    2    0    0  0.00000000000E+00  0.00000000000E+00 -0.12821310977E+04  0.41891894620E+04  0.39881635118E+04 0.  0.
        5    1    3    3  502    0  0.17367149144E+04  0.79981430667E+03 -0.12356900992E+04  0.22765837851E+04  0.46999998093E+01 0. -1.
       -5    1    3    3    0  502 -0.17367149144E+04 -0.79981430667E+03 -0.46440998439E+02  0.19126056769E+04  0.46999998093E+01 0.  1.
</event>
<event>
 5   0  0.8528625E-08  0.3865393E+04  0.7818609E-02  0.8032265E-01
        1   -1    0    0  501    0  0.00000000000E+00  0.00000000000E+00  0.20290996510E+04  0.20290996510E+04  0.50400001928E-02 0. -1.
       -1   -1    0    0    0  501  0.00000000000E+00  0.00000000000E+00 -0.18408737978E+04  0.18408737978E+04  0.50400001928E-02 0.  1.
    10030    2    1    2    0    0  0.00000000000E+00  0.00000000000E+00  0.18822585325E+03  0.38699734488E+04  0.38653933206E+04 0.  0.
        4    1    3    3  502    0  0.63806872733E+03 -0.53928955626E+03 -0.16507515538E+04  0.18501208694E+04  0.12699999809E+01 0.  1.
       -4    1    3    3    0  502 -0.63806872733E+03  0.53928955626E+03  0.18389774070E+04  0.20198525794E+04  0.12699999809E+01 0. -1.
</event>
<event>
 5   0  0.8528625E-08  0.4018744E+04  0.7818609E-02  0.8000776E-01
       -1   -1    0    0    0  501  0.00000000000E+00  0.00000000000E+00  0.27222565133E+04  0.27222565133E+04  0.50400001928E-02 0.  1.
        1   -1    0    0  501    0  0.00000000000E+00  0.00000000000E+00 -0.14831725240E+04  0.14831725240E+04  0.50400001928E-02 0. -1.
    10030    2    1    2    0    0  0.00000000000E+00  0.00000000000E+00  0.12390839893E+04  0.42054290374E+04  0.40187441142E+04 0.  0.
        5    1    3    3  502    0  0.46105212888E+03 -0.19225414134E+04  0.99512906068E+03  0.22133771683E+04  0.46999998093E+01 0.  1.
       -5    1    3    3    0  502 -0.46105212888E+03  0.19225414134E+04  0.24395492862E+03  0.19920518691E+04  0.46999998093E+01 0. -1.
</event>
<event>
 5   0  0.2730801E-07  0.3984125E+04  0.7818609E-02  0.8007757E-01
        2   -1    0    0  501    0  0.00000000000E+00  0.00000000000E+00  0.19074029715E+04  0.19074029715E+04  0.25500000920E-02 0. -1.
       -2   -1    0    0    0  501  0.00000000000E+00  0.00000000000E+00 -0.20804791775E+04  0.20804791775E+04  0.25500000920E-02 0.  1.
    10030    2    1    2    0    0  0.00000000000E+00  0.00000000000E+00 -0.17307620605E+03  0.39878821490E+04  0.39841245790E+04 0.  0.
        2    1    3    3  502    0 -0.67417367587E+03  0.81296762664E+03  0.16041036426E+04  0.19205663236E+04  0.25500000920E-02 0. -1.
       -2    1    3    3    0  502  0.67417367587E+03 -0.81296762664E+03 -0.17771798487E+04  0.20673158254E+04  0.25500000920E-02 0.  1.
</event>
<event>
 5   0  0.8528625E-08  0.4000882E+04  0.7818609E-02  0.8004369E-01
        1   -1    0    0  501    0  0.00000000000E+00  0.00000000000E+00  0.20406151175E+04  0.20406151175E+04  0.50400001928E-02 0. -1.
       -1   -1    0    0    0  501  0.00000000000E+00  0.00000000000E+00 -0.19610575178E+04  0.19610575178E+04  0.50400001928E-02 0.  1.
    10030    2    1    2    0    0  0.00000000000E+00  0.00000000000E+00  0.79557599737E+02  0.40016726353E+04  0.40008817114E+04 0.  0.
        2    1    3    3  502    0  0.12417003994E+04  0.70470807107E+02  0.16069253574E+04  0.20319928939E+04  0.25500000920E-02 0. -1.
       -2    1    3    3    0  502 -0.12417003994E+04 -0.70470807107E+02 -0.15273677577E+04  0.19696797414E+04  0.25500000920E-02 0.  1.
</event>
<event>
 5   0  0.2704088E-07  0.4038522E+04  0.7818609E-02  0.7996820E-01
       -2   -1    0    0    0  501  0.00000000000E+00  0.00000000000E+00  0.29397326366E+04  0.29397326366E+04  0.25500000920E-02 0.  1.
        2   -1    0    0  501    0  0.00000000000E+00  0.00000000000E+00 -0.13870021340E+04  0.13870021340E+04  0.25500000920E-02 0. -1.
    10030    2    1    2    0    0  0.00000000000E+00  0.00000000000E+00  0.15527305026E+04  0.43267347707E+04  0.40385222250E+04 0.  0.
        5    1    3    3  502    0 -0.59851842983E+03  0.19179045913E+04  0.55993073997E+03  0.20856957726E+04  0.46999998093E+01 0. -1.
       -5    1    3    3    0  502  0.59851842983E+03 -0.19179045913E+04  0.99279976265E+03  0.22410389981E+04  0.46999998093E+01 0.  1.
</event>
<event>
 5   0  0.8583262E-08  0.3900947E+04  0.7818609E-02  0.8024832E-01
       -1   -1    0    0    0  501  0.00000000000E+00  0.00000000000E+00  0.24017589095E+04  0.24017589096E+04  0.50400001928E-02 0.  1.
        1   -1    0    0  501    0  0.00000000000E+00  0.00000000000E+00 -0.15839835822E+04  0.15839835822E+04  0.50400001928E-02 0. -1.
    10030    2    1    2    0    0  0.00000000000E+00  0.00000000000E+00  0.81777532739E+03  0.39857424917E+04  0.39009469010E+04 0.  0.
        1    1    3    3  502    0  0.11711080144E+04 -0.60817944062E+03 -0.10586379949E+04  0.16917714437E+04  0.50400001928E-02 0. -1.
       -1    1    3    3    0  502 -0.11711080144E+04  0.60817944062E+03  0.18764133223E+04  0.22939710481E+04  0.50400001928E-02 0.  1.
</event>
<event>
 5   0  0.2839279E-07  0.4046043E+04  0.7818609E-02  0.7995322E-01
        2   -1    0    0  501    0  0.00000000000E+00  0.00000000000E+00  0.13623186698E+04  0.13623186698E+04  0.25500000920E-02 0. -1.
       -2   -1    0    0    0  501  0.00000000000E+00  0.00000000000E+00 -0.30041545515E+04  0.30041545515E+04  0.25500000920E-02 0.  1.
    10030    2    1    2    0    0  0.00000000000E+00  0.00000000000E+00 -0.16418358818E+04  0.43664732213E+04  0.40460429224E+04 0.  0.
        3    1    3    3  502    0 -0.12453366110E+03 -0.19036436814E+04 -0.94363390312E+02  0.19100451193E+04  0.10100000352E+00 0. -1.
       -3    1    3    3    0  502  0.12453366110E+03  0.19036436814E+04 -0.15474724914E+04  0.24564281020E+04  0.10100000352E+00 0.  1.
</event>
<event>
 5   0  0.2704088E-07  0.3838181E+04  0.7818609E-02  0.8038011E-01
       -2   -1    0    0    0  501  0.00000000000E+00  0.00000000000E+00  0.16640079916E+04  0.16640079916E+04  0.25500000920E-02 0. -1.
        2   -1    0    0  501    0  0.00000000000E+00  0.00000000000E+00 -0.22132757513E+04  0.22132757513E+04  0.25500000920E-02 0.  1.
    10030    2    1    2    0    0  0.00000000000E+00  0.00000000000E+00 -0.54926775961E+03  0.38772837429E+04  0.38381810993E+04 0.  0.
        5    1    3    3  502    0 -0.28148858549E+03  0.16173199721E+04  0.72943727388E+03  0.17964021104E+04  0.46999998093E+01 0. -1.
       -5    1    3    3    0  502  0.28148858549E+03 -0.16173199721E+04 -0.12787050335E+04  0.20808816325E+04  0.46999998093E+01 0.  1.
</event>
<event>
 5   0  0.8583262E-08  0.3068420E+04  0.7818609E-02  0.8224458E-01
       -1   -1    0    0    0  501  0.00000000000E+00  0.00000000000E+00  0.16308686037E+04  0.16308686038E+04  0.50400001928E-02 0.  1.
        1   -1    0    0  501    0  0.00000000000E+00  0.00000000000E+00 -0.14432804887E+04  0.14432804887E+04  0.50400001928E-02 0. -1.
    10030    2    1    2    0    0  0.00000000000E+00  0.00000000000E+00  0.18758811508E+03  0.30741490924E+04  0.30684203333E+04 0.  0.
        1    1    3    3  502    0  0.95211143556E+02 -0.29164431043E+03 -0.14122354295E+04  0.14451748939E+04  0.50400001928E-02 0. -1.
       -1    1    3    3    0  502 -0.95211143556E+02  0.29164431043E+03  0.15998235446E+04  0.16289741985E+04  0.50400001928E-02 0.  1.
</event>
<event>
 5   0  0.2730801E-07  0.3973399E+04  0.7818609E-02  0.8009934E-01
       -2   -1    0    0    0  501  0.00000000000E+00  0.00000000000E+00  0.14234439096E+04  0.14234439096E+04  0.25500000920E-02 0.  1.
        2   -1    0    0  501    0  0.00000000000E+00  0.00000000000E+00 -0.27728344374E+04  0.27728344374E+04  0.25500000920E-02 0. -1.
    10030    2    1    2    0    0  0.00000000000E+00  0.00000000000E+00 -0.13493905278E+04  0.41962783470E+04  0.39733986925E+04 0.  0.
        2    1    3    3  502    0 -0.18340365658E+04 -0.36410651571E+03  0.34312573333E+02  0.18701446554E+04  0.25500000920E-02 0. -1.
       -2    1    3    3    0  502  0.18340365658E+04  0.36410651571E+03 -0.13837031012E+04  0.23261336917E+04  0.25500000920E-02 0.  1.
</event>
<event>
 5   0  0.2704088E-07  0.4028781E+04  0.7818609E-02  0.7998766E-01
       -2   -1    0    0    0  501  0.00000000000E+00  0.00000000000E+00  0.20617872868E+04  0.20617872868E+04  0.25500000920E-02 0.  1.
        2   -1    0    0  501    0  0.00000000000E+00  0.00000000000E+00 -0.19680829724E+04  0.19680829724E+04  0.25500000920E-02 0. -1.
    10030    2    1    2    0    0  0.00000000000E+00  0.00000000000E+00  0.93704314393E+02  0.40298702592E+04  0.40287806850E+04 0.  0.
        5    1    3    3  502    0 -0.17414001565E+04 -0.14799164879E+03 -0.95510249266E+03  0.19916372397E+04  0.46999998093E+01 0. -1.
       -5    1    3    3    0  502  0.17414001565E+04  0.14799164879E+03  0.10488068071E+04  0.20382330195E+04  0.46999998093E+01 0.  1.
</event>
<event>
 5   0  0.8528625E-08  0.3957680E+04  0.7818609E-02  0.8013139E-01
        1   -1    0    0  501    0  0.00000000000E+00  0.00000000000E+00  0.15636063351E+04  0.15636063351E+04  0.50400001928E-02 0.  1.
       -1   -1    0    0    0  501  0.00000000000E+00  0.00000000000E+00 -0.25043431991E+04  0.25043431991E+04  0.50400001928E-02 0. -1.
    10030    2    1    2    0    0  0.00000000000E+00  0.00000000000E+00 -0.94073686398E+03  0.40679495342E+04  0.39576795684E+04 0.  0.
        4    1    3    3  502    0 -0.11407621725E+04  0.71166169285E+02  0.11900037549E+04  0.16500040932E+04  0.12699999809E+01 0.  1.
       -4    1    3    3    0  502  0.11407621725E+04 -0.71166169285E+02 -0.21307406189E+04  0.24179454410E+04  0.12699999809E+01 0. -1.
</event>
<event>
 5   0  0.2704088E-07  0.3867663E+04  0.7818609E-02  0.8031789E-01
       -2   -1    0    0    0  501  0.00000000000E+00  0.00000000000E+00  0.18401695464E+04  0.18401695464E+04  0.25500000920E-02 0.  1.
        2   -1    0    0  501    0  0.00000000000E+00  0.00000000000E+00 -0.20322602591E+04  0.20322602591E+04  0.25500000920E-02 0. -1.
    10030    2    1    2    0    0  0.00000000000E+00  0.00000000000E+00 -0.19209071274E+03  0.38724298056E+04  0.38676625702E+04 0.  0.
        5    1    3    3  502    0  0.14240458093E+04  0.57850602068E+03  0.10789025434E+04  0.18779319665E+04  0.46999998093E+01 0.  1.
       -5    1    3    3    0  502 -0.14240458093E+04 -0.57850602068E+03 -0.12709932561E+04  0.19944978390E+04  0.46999998093E+01 0. -1.
</event>
<event>
 5   0  0.8528625E-08  0.4005386E+04  0.7818609E-02  0.8003461E-01
        1   -1    0    0  501    0  0.00000000000E+00  0.00000000000E+00  0.19843944255E+04  0.19843944255E+04  0.50400001928E-02 0.  1.
       -1   -1    0    0    0  501  0.00000000000E+00  0.00000000000E+00 -0.20211602895E+04  0.20211602895E+04  0.50400001928E-02 0. -1.
    10030    2    1    2    0    0  0.00000000000E+00  0.00000000000E+00 -0.36765863996E+02  0.40055547150E+04  0.40053859796E+04 0.  0.
        4    1    3    3  502    0  0.26851443902E+03 -0.10161183743E+04 -0.17232072359E+04  0.20184254619E+04  0.12699999809E+01 0. -1.
       -4    1    3    3    0  502 -0.26851443902E+03  0.10161183743E+04  0.16864413719E+04  0.19871292530E+04  0.12699999809E+01 0.  1.
</event>
<event>
 5   0  0.8528625E-08  0.2862419E+04  0.7818609E-02  0.8284148E-01
       -1   -1    0    0    0  501  0.00000000000E+00  0.00000000000E+00  0.14188389430E+04  0.14188389430E+04  0.50400001928E-02 0. -1.
        1   -1    0    0  501    0  0.00000000000E+00  0.00000000000E+00 -0.14436879298E+04  0.14436879298E+04  0.50400001928E-02 0.  1.
    10030    2    1    2    0    0  0.00000000000E+00  0.00000000000E+00 -0.24848986760E+02  0.28625268728E+04  0.28624190164E+04 0.  0.
        5    1    3    3  502    0  0.95084375798E+03  0.10664300555E+04  0.71015159492E+02  0.14305391145E+04  0.46999998093E+01 0. -1.
       -5    1    3    3    0  502 -0.95084375798E+03 -0.10664300555E+04 -0.95864146252E+02  0.14319877583E+04  0.46999998093E+01 0.  1.
</event>
<event>
 5   0  0.8528625E-08  0.3957101E+04  0.7818609E-02  0.8013257E-01
        1   -1    0    0  501    0  0.00000000000E+00  0.00000000000E+00  0.12548856566E+04  0.12548856566E+04  0.50400001928E-02 0. -1.
       -1   -1    0    0    0  501  0.00000000000E+00  0.00000000000E+00 -0.31195363776E+04  0.31195363776E+04  0.50400001928E-02 0.  1.
    10030    2    1    2    0    0  0.00000000000E+00  0.00000000000E+00 -0.18646507210E+04  0.43744220342E+04  0.39571006838E+04 0.  0.
        5    1    3    3  502    0 -0.19394890238E+04 -0.38965571852E+03 -0.97046158499E+03  0.22034670477E+04  0.46999998093E+01 0.  1.
       -5    1    3    3    0  502  0.19394890238E+04  0.38965571852E+03 -0.89418913598E+03  0.21709549865E+04  0.46999998093E+01 0. -1.
</event>
<event>
 5   0  0.2839279E-07  0.3826858E+04  0.7818609E-02  0.8040416E-01
       -2   -1    0    0    0  501  0.00000000000E+00  0.00000000000E+00  0.18091567599E+04  0.18091567599E+04  0.25500000920E-02 0. -1.
        2   -1    0    0  501    0  0.00000000000E+00  0.00000000000E+00 -0.20237113137E+04  0.20237113137E+04  0.25500000920E-02 0.  1.
    10030    2    1    2    0    0  0.00000000000E+00  0.00000000000E+00 -0.21455455378E+03  0.38328680736E+04  0.38268582431E+04 0.  0.
        3    1    3    3  502    0 -0.43325655761E+03  0.32222048163E+03 -0.19458271740E+04  0.20193515506E+04  0.10100000352E+00 0.  1.
       -3    1    3    3    0  502  0.43325655761E+03 -0.32222048163E+03  0.17312726202E+04  0.18135165230E+04  0.10100000352E+00 0. -1.
</event>
<event>
 5   0  0.8528625E-08  0.3989066E+04  0.7818609E-02  0.8006756E-01
       -1   -1    0    0    0  501  0.00000000000E+00  0.00000000000E+00  0.24490717913E+04  0.24490717913E+04  0.50400001928E-02 0.  1.
        1   -1    0    0  501    0  0.00000000000E+00  0.00000000000E+00 -0.16243546785E+04  0.16243546785E+04  0.50400001928E-02 0. -1.
    10030    2    1    2    0    0  0.00000000000E+00  0.00000000000E+00  0.82471711275E+03  0.40734264698E+04  0.39890656662E+04 0.  0.
        5    1    3    3  502    0  0.18556484174E+04  0.98892109958E+02 -0.32748303913E+03  0.18869228731E+04  0.46999998093E+01 0. -1.
       -5    1    3    3    0  502 -0.18556484174E+04 -0.98892109958E+02  0.11522001519E+04  0.21865035967E+04  0.46999998093E+01 0.  1.
</event>
<event>
 5   0  0.8528625E-08  0.3517890E+04  0.7818609E-02  0.8109563E-01
       -1   -1    0    0    0  501  0.00000000000E+00  0.00000000000E+00  0.17938243083E+04  0.17938243083E+04  0.50400001928E-02 0.  1.
        1   -1    0    0  501    0  0.00000000000E+00  0.00000000000E+00 -0.17247440306E+04  0.17247440306E+04  0.50400001928E-02 0. -1.
    10030    2    1    2    0    0  0.00000000000E+00  0.00000000000E+00  0.69080277728E+02  0.35185683388E+04  0.35178901447E+04 0.  0.
        5    1    3    3  502    0  0.39787039528E+03 -0.13737788016E+04  0.10586011037E+04  0.17793896240E+04  0.46999998093E+01 0.  1.
       -5    1    3    3    0  502 -0.39787039528E+03  0.13737788016E+04 -0.98952082593E+03  0.17391787149E+04  0.46999998093E+01 0. -1.
</event>
<event>
 5   0  0.2839279E-07  0.3940736E+04  0.7818609E-02  0.8016610E-01
        2   -1    0    0  501    0  0.00000000000E+00  0.00000000000E+00  0.26508583840E+04  0.26508583840E+04  0.25500000920E-02 0. -1.
       -2   -1    0    0    0  501  0.00000000000E+00  0.00000000000E+00 -0.14645632429E+04  0.14645632429E+04  0.25500000920E-02 0.  1.
    10030    2    1    2    0    0  0.00000000000E+00  0.00000000000E+00  0.11862951411E+04  0.41154216269E+04  0.39407358456E+04 0.  0.
        3    1    3    3  502    0  0.24371265334E+02 -0.18976518294E+04  0.39876994132E+02  0.18982272280E+04  0.10100000352E+00 0.  1.
       -3    1    3    3    0  502 -0.24371265334E+02  0.18976518294E+04  0.11464181470E+04  0.22171943989E+04  0.10100000352E+00 0. -1.
</event>
<event>
 5   0  0.2661693E-07  0.4035350E+04  0.7818609E-02  0.7997453E-01
       -2   -1    0    0    0  501  0.00000000000E+00  0.00000000000E+00  0.15373587268E+04  0.15373587268E+04  0.25500000920E-02 0.  1.
        2   -1    0    0  501    0  0.00000000000E+00  0.00000000000E+00 -0.26480568337E+04  0.26480568337E+04  0.25500000920E-02 0. -1.
    10030    2    1    2    0    0  0.00000000000E+00  0.00000000000E+00 -0.11106981069E+04  0.41854155604E+04  0.40353504345E+04 0.  0.
        1    1    3    3  502    0  0.16433238440E+04 -0.91231739906E+03  0.20553746916E+03  0.18907887096E+04  0.50400001928E-02 0.  1.
       -1    1    3    3    0  502 -0.16433238440E+04  0.91231739906E+03 -0.13162355760E+04  0.22946268509E+04  0.50400001928E-02 0. -1.
</event>
<event>
 5   0  0.2666978E-07  0.3828676E+04  0.7818609E-02  0.8040029E-01
        2   -1    0    0  501    0  0.00000000000E+00  0.00000000000E+00  0.22382843127E+04  0.22382843127E+04  0.25500000920E-02 0.  1.
       -2   -1    0    0    0  501  0.00000000000E+00  0.00000000000E+00 -0.16372759613E+04  0.16372759613E+04  0.25500000920E-02 0. -1.
    10030    2    1    2    0    0  0.00000000000E+00  0.00000000000E+00  0.60100835140E+03  0.38755602740E+04  0.38286755411E+04 0.  0.
        4    1    3    3  502    0 -0.18335575853E+04 -0.54976640697E+03  0.32338554372E+03  0.19413284996E+04  0.12699999809E+01 0. -1.
       -4    1    3    3    0  502  0.18335575853E+04  0.54976640697E+03  0.27762280768E+03  0.19342317744E+04  0.12699999809E+01 0.  1.
</event>
<event>
 5   0  0.8528625E-08  0.4039905E+04  0.7818609E-02  0.7996544E-01
       -1   -1    0    0    0  501  0.00000000000E+00  0.00000000000E+00  0.15768444572E+04  0.15768444572E+04  0.50400001928E-02 0.  1.
        1   -1    0    0  501    0  0.00000000000E+00  0.00000000000E+00 -0.25875782260E+04  0.25875782260E+04  0.50400001928E-02 0. -1.
    10030    2    1    2    0    0  0.00000000000E+00  0.00000000000E+00 -0.10107337688E+04  0.41644226833E+04  0.40399051392E+04 0.  0.
        2    1    3    3  502    0  0.12939974753E+04 -0.12658888483E+04 -0.14292641733E+04  0.23064475107E+04  0.25500000920E-02 0. -1.
       -2    1    3    3    0  502 -0.12939974753E+04  0.12658888483E+04  0.41853040450E+03  0.18579751726E+04  0.25500000920E-02 0.  1.
</event>
<event>
 5   0  0.2704088E-07  0.4185875E+04  0.7818609E-02  0.7968065E-01
        2   -1    0    0  501    0  0.00000000000E+00  0.00000000000E+00  0.15934166674E+04  0.15934166674E+04  0.25500000920E-02 0. -1.
       -2   -1    0    0    0  501  0.00000000000E+00  0.00000000000E+00 -0.27490531547E+04  0.27490531547E+04  0.25500000920E-02 0.  1.
    10030    2    1    2    0    0  0.00000000000E+00  0.00000000000E+00 -0.11556364873E+04  0.43424698221E+04  0.41858748745E+04 0.  0.
        5    1    3    3  502    0  0.12267064401E+04 -0.14063368376E+04 -0.15607737175E+04  0.24328231909E+04  0.46999998093E+01 0.  1.
       -5    1    3    3    0  502 -0.12267064401E+04  0.14063368376E+04  0.40513723025E+03  0.19096466312E+04  0.46999998093E+01 0. -1.
</event>
<event>
 5   0  0.8528625E-08  0.3400113E+04  0.7818609E-02  0.8137879E-01
       -1   -1    0    0    0  501  0.00000000000E+00  0.00000000000E+00  0.18399879237E+04  0.18399879237E+04  0.50400001928E-02 0.  1.
        1   -1    0    0  501    0  0.00000000000E+00  0.00000000000E+00 -0.15707666125E+04  0.15707666125E+04  0.50400001928E-02 0. -1.
    10030    2    1    2    0    0  0.00000000000E+00  0.00000000000E+00  0.26922131118E+03  0.34107545362E+04  0.34001127028E+04 0.  0.
        4    1    3    3  502    0 -0.14783984105E+04 -0.39619944380E+03  0.87689564863E+03  0.17639680981E+04  0.12699999809E+01 0.  1.
       -4    1    3    3    0  502  0.14783984105E+04  0.39619944380E+03 -0.60767433745E+03  0.16467864381E+04  0.12699999809E+01 0. -1.
</event>
<event>
 5   0  0.2661693E-07  0.4114176E+04  0.7818609E-02  0.7981902E-01
       -2   -1    0    0    0  501  0.00000000000E+00  0.00000000000E+00  0.26704222138E+04  0.26704222138E+04  0.25500000920E-02 0.  1.
        2   -1    0    0  501    0  0.00000000000E+00  0.00000000000E+00 -0.15846224142E+04  0.15846224142E+04  0.25500000920E-02 0. -1.
    10030    2    1    2    0    0  0.00000000000E+00  0.00000000000E+00  0.10857997996E+04  0.42550446280E+04  0.41141759298E+04 0.  0.
        1    1    3    3  502    0 -0.36009077109E+03  0.20029320663E+04  0.85353133204E+03  0.22067890612E+04  0.50400001928E-02 0.  1.
       -1    1    3    3    0  502  0.36009077109E+03 -0.20029320663E+04  0.23226846755E+03  0.20482555668E+04  0.50400001928E-02 0. -1.
</event>
<event>
 5   0  0.2704088E-07  0.3993382E+04  0.7818609E-02  0.8005883E-01
        2   -1    0    0  501    0  0.00000000000E+00  0.00000000000E+00  0.27438807577E+04  0.27438807577E+04  0.25500000920E-02 0.  1.
       -2   -1    0    0    0  501  0.00000000000E+00  0.00000000000E+00 -0.14529696261E+04  0.14529696261E+04  0.25500000920E-02 0. -1.
    10030    2    1    2    0    0  0.00000000000E+00  0.00000000000E+00  0.12909111316E+04  0.41968503838E+04  0.39933822249E+04 0.  0.
        5    1    3    3  502    0 -0.21996379611E+03 -0.19682543200E+04  0.91204148302E+03  0.21804244763E+04  0.46999998093E+01 0.  1.
       -5    1    3    3    0  502  0.21996379611E+03  0.19682543200E+04  0.37886964863E+03  0.20164259075E+04  0.46999998093E+01 0. -1.
</event>
<event>
 5   0  0.2730801E-07  0.4094956E+04  0.7818609E-02  0.7985660E-01
       -2   -1    0    0    0  501  0.00000000000E+00  0.00000000000E+00  0.15458543764E+04  0.15458543764E+04  0.25500000920E-02 0.  1.
        2   -1    0    0  501    0  0.00000000000E+00  0.00000000000E+00 -0.27118759139E+04  0.27118759139E+04  0.25500000920E-02 0. -1.
    10030    2    1    2    0    0  0.00000000000E+00  0.00000000000E+00 -0.11660215375E+04  0.42577302903E+04  0.40949555552E+04 0.  0.
        2    1    3    3  502    0  0.13478164205E+03  0.42346425456E+03 -0.26611268315E+04  0.26979777759E+04  0.25500000920E-02 0. -1.
       -2    1    3    3    0  502 -0.13478164205E+03 -0.42346425456E+03  0.14951052940E+04  0.15597525144E+04  0.25500000920E-02 0.  1.
</event>
<event>
 5   0  0.8583262E-08  0.4016747E+04  0.7818609E-02  0.8001177E-01
       -1   -1    0    0    0  501  0.00000000000E+00  0.00000000000E+00  0.27894717068E+04  0.27894717068E+04  0.50400001928E-02 0.  1.
        1   -1    0    0  501    0  0.00000000000E+00  0.00000000000E+00 -0.14459953822E+04  0.14459953822E+04  0.50400001928E-02 0. -1.
    10030    2    1    2    0    0  0.00000000000E+00  0.00000000000E+00  0.13434763246E+04  0.42354670890E+04  0.40167465475E+04 0.  0.
        1    1    3    3  502    0 -0.60171883972E+03  0.69632949573E+03 -0.12105764658E+04  0.15206694934E+04  0.50400001928E-02 0. -1.
       -1    1    3    3    0  502  0.60171883972E+03 -0.69632949573E+03  0.25540527904E+04  0.27147975956E+04  0.50400001928E-02 0.  1.
</event>
<event>
 5   0  0.8528625E-08  0.4030185E+04  0.7818609E-02  0.7998485E-01
       -1   -1    0    0    0  501  0.00000000000E+00  0.00000000000E+00  0.12564048900E+04  0.12564048900E+04  0.50400001928E-02 0. -1.
        1   -1    0    0  501    0  0.00000000000E+00  0.00000000000E+00 -0.32319189004E+04  0.32319189004E+04  0.50400001928E-02 0.  1.
    10030    2    1    2    0    0  0.00000000000E+00  0.00000000000E+00 -0.19755140104E+04  0.44883237904E+04  0.40301854600E+04 0.  0.
        4    1    3    3  502    0 -0.51550365741E+03 -0.15449524507E+04 -0.23092249107E+04  0.28257996030E+04  0.12699999809E+01 0.  1.
       -4    1    3    3    0  502  0.51550365741E+03  0.15449524507E+04  0.33371090028E+03  0.16625241873E+04  0.12699999809E+01 0. -1.
</event>
<event>
 5   0  0.2730801E-07  0.4028858E+04  0.7818609E-02  0.7998750E-01
        2   -1    0    0  501    0  0.00000000000E+00  0.00000000000E+00  0.11955866576E+04  0.11955866577E+04  0.25500000920E-02 0. -1.
       -2   -1    0    0    0  501  0.00000000000E+00  0.00000000000E+00 -0.33940870034E+04  0.33940870034E+04  0.25500000920E-02 0.  1.
    10030    2    1    2    0    0  0.00000000000E+00  0.00000000000E+00 -0.21985003458E+04  0.45896736611E+04  0.40288584667E+04 0.  0.
        2    1    3    3  502    0 -0.97611216224E+03  0.22564754095E+02  0.90801196391E+03  0.13333378597E+04  0.25500000920E-02 0. -1.
       -2    1    3    3    0  502  0.97611216224E+03 -0.22564754095E+02 -0.31065123097E+04  0.32563358014E+04  0.25500000920E-02 0.  1.
</event>
<event>
 5   0  0.2704088E-07  0.2949719E+04  0.7818609E-02  0.8258236E-01
        2   -1    0    0  501    0  0.00000000000E+00  0.00000000000E+00  0.25864480119E+04  0.25864480119E+04  0.25500000920E-02 0. -1.
       -2   -1    0    0    0  501  0.00000000000E+00  0.00000000000E+00 -0.84100305172E+03  0.84100305172E+03  0.25500000920E-02 0.  1.
    10030    2    1    2    0    0  0.00000000000E+00  0.00000000000E+00  0.17454449602E+04  0.34274510636E+04  0.29497190857E+04 0.  0.
        5    1    3    3  502    0 -0.36107507117E+03 -0.12771340538E+03 -0.78220281963E+03  0.87094733593E+03  0.46999998093E+01 0.  1.
       -5    1    3    3    0  502  0.36107507117E+03  0.12771340538E+03  0.25276477798E+04  0.25565037277E+04  0.46999998093E+01 0. -1.
</event>
<event>
 5   0  0.8583262E-08  0.4055947E+04  0.7818609E-02  0.7993354E-01
        1   -1    0    0  501    0  0.00000000000E+00  0.00000000000E+00  0.15282225995E+04  0.15282225995E+04  0.50400001928E-02 0. -1.
       -1   -1    0    0    0  501  0.00000000000E+00  0.00000000000E+00 -0.26911506802E+04  0.26911506802E+04  0.50400001928E-02 0.  1.
    10030    2    1    2    0    0  0.00000000000E+00  0.00000000000E+00 -0.11629280807E+04  0.42193732797E+04  0.40559473804E+04 0.  0.
        1    1    3    3  502    0 -0.80892112151E+03  0.20938177747E+03 -0.25037505802E+04  0.26395001568E+04  0.50400001928E-02 0.  1.
       -1    1    3    3    0  502  0.80892112151E+03 -0.20938177747E+03  0.13408224995E+04  0.15798731230E+04  0.50400001928E-02 0. -1.
</event>
<event>
 5   0  0.8528625E-08  0.4022003E+04  0.7818609E-02  0.8000122E-01
        1   -1    0    0  501    0  0.00000000000E+00  0.00000000000E+00  0.20895107918E+04  0.20895107918E+04  0.50400001928E-02 0.  1.
       -1   -1    0    0    0  501  0.00000000000E+00  0.00000000000E+00 -0.19354421358E+04  0.19354421358E+04  0.50400001928E-02 0. -1.
    10030    2    1    2    0    0  0.00000000000E+00  0.00000000000E+00  0.15406865593E+03  0.40249529276E+04  0.40220030978E+04 0.  0.
        2    1    3    3  502    0  0.63706024824E+03  0.12321691128E+04  0.15341381888E+04  0.20682520312E+04  0.25500000920E-02 0.  1.
       -2    1    3    3    0  502 -0.63706024824E+03 -0.12321691128E+04 -0.13800695329E+04  0.19567008964E+04  0.25500000920E-02 0. -1.
</event>
<event>
 5   0  0.2666978E-07  0.4059999E+04  0.7818609E-02  0.7992551E-01
        2   -1    0    0  501    0  0.00000000000E+00  0.00000000000E+00  0.20148461744E+04  0.20148461744E+04  0.25500000920E-02 0.  1.
       -2   -1    0    0    0  501  0.00000000000E+00  0.00000000000E+00 -0.20452664431E+04  0.20452664431E+04  0.25500000920E-02 0. -1.
    10030    2    1    2    0    0  0.00000000000E+00  0.00000000000E+00 -0.30420268744E+02  0.40601126175E+04  0.40599986544E+04 0.  0.
        4    1    3    3  502    0 -0.17664904826E+03 -0.17265262395E+04 -0.10682344275E+04  0.20379460608E+04  0.12699999809E+01 0. -1.
       -4    1    3    3    0  502  0.17664904826E+03  0.17265262395E+04  0.10378141587E+04  0.20221665567E+04  0.12699999809E+01 0.  1.
</event>
<event>
 5   0  0.2666978E-07  0.3935416E+04  0.7818609E-02  0.8017703E-01
        2   -1    0    0  501    0  0.00000000000E+00  0.00000000000E+00  0.22806521465E+04  0.22806521465E+04  0.25500000920E-02 0. -1.
       -2   -1    0    0    0  501  0.00000000000E+00  0.00000000000E+00 -0.16977051127E+04  0.16977051127E+04  0.25500000920E-02 0.  1.
    10030    2    1    2    0    0  0.00000000000E+00  0.00000000000E+00  0.58294703374E+03  0.39783572592E+04  0.39354160184E+04 0.  0.
        4    1    3    3  502    0  0.14992785707E+04 -0.26002050945E+03  0.15526544944E+04  0.21739789535E+04  0.12699999809E+01 0. -1.
       -4    1    3    3    0  502 -0.14992785707E+04  0.26002050945E+03 -0.96970746071E+03  0.18043783058E+04  0.12699999809E+01 0.  1.
</event>
<event>
 5   0  0.2666978E-07  0.3982497E+04  0.7818609E-02  0.8008087E-01
        2   -1    0    0  501    0  0.00000000000E+00  0.00000000000E+00  0.14637782109E+04  0.14637782109E+04  0.25500000920E-02 0. -1.
       -2   -1    0    0    0  501  0.00000000000E+00  0.00000000000E+00 -0.27087924939E+04  0.27087924939E+04  0.25500000920E-02 0.  1.
    10030    2    1    2    0    0  0.00000000000E+00  0.00000000000E+00 -0.12450142831E+04  0.41725707048E+04  0.39824974227E+04 0.  0.
        4    1    3    3  502    0 -0.48398134876E+03 -0.68260674942E+03  0.12706288234E+04  0.15214102471E+04  0.12699999809E+01 0. -1.
       -4    1    3    3    0  502  0.48398134876E+03  0.68260674942E+03 -0.25156431065E+04  0.26511604577E+04  0.12699999809E+01 0.  1.
</event>
<event>
 5   0  0.2839279E-07  0.3744592E+04  0.7818609E-02  0.8058151E-01
       -2   -1    0    0    0  501  0.00000000000E+00  0.00000000000E+00  0.14849165329E+04  0.14849165329E+04  0.25500000920E-02 0. -1.
        2   -1    0    0  501    0  0.00000000000E+00  0.00000000000E+00 -0.23607341943E+04  0.23607341944E+04  0.25500000920E-02 0.  1.
    10030    2    1    2    0    0  0.00000000000E+00  0.00000000000E+00 -0.87581766143E+03  0.38456507273E+04  0.37445924932E+04 0.  0.
        3    1    3    3  502    0  0.19179995317E+03  0.17927886272E+04 -0.95612053510E+03  0.20408441322E+04  0.10100000352E+00 0.  1.
       -3    1    3    3    0  502 -0.19179995317E+03 -0.17927886272E+04  0.80302873671E+02  0.18048065951E+04  0.10100000352E+00 0. -1.
</event>
<event>
 5   0  0.8528625E-08  0.3924206E+04  0.7818609E-02  0.8020014E-01
        1   -1    0    0  501    0  0.00000000000E+00  0.00000000000E+00  0.24747486449E+04  0.24747486449E+04  0.50400001928E-02 0. -1.
       -1   -1    0    0    0  501  0.00000000000E+00  0.00000000000E+00 -0.15556522270E+04  0.15556522270E+04  0.50400001928E-02 0.  1.
    10030    2    1    2    0    0  0.00000000000E+00  0.00000000000E+00  0.91909641789E+03  0.40304008719E+04  0.39242060296E+04 0.  0.
        2    1    3    3  502    0 -0.12672752945E+04  0.14977213296E+04  0.43252287614E+03  0.20090375535E+04  0.25500000920E-02 0.  1.
       -2    1    3    3    0  502  0.12672752945E+04 -0.14977213296E+04  0.48657354176E+03  0.20213633183E+04  0.25500000920E-02 0. -1.
</event>
<event>
 5   0  0.8583262E-08  0.3982487E+04  0.7818609E-02  0.8008089E-01
        1   -1    0    0  501    0  0.00000000000E+00  0.00000000000E+00  0.16875501270E+04  0.16875501270E+04  0.50400001928E-02 0. -1.
       -1   -1    0    0    0  501  0.00000000000E+00  0.00000000000E+00 -0.23495897720E+04  0.23495897720E+04  0.50400001928E-02 0.  1.
    10030    2    1    2    0    0  0.00000000000E+00  0.00000000000E+00 -0.66203964505E+03  0.40371398990E+04  0.39824869206E+04 0.  0.
        1    1    3    3  502    0  0.11594450034E+04  0.14878150822E+04 -0.97785481311E+03  0.21246426689E+04  0.50400001928E-02 0.  1.
       -1    1    3    3    0  502 -0.11594450034E+04 -0.14878150822E+04  0.31581516807E+03  0.19124972301E+04  0.50400001928E-02 0. -1.
</event>
<event>
 5   0  0.8528625E-08  0.3908929E+04  0.7818609E-02  0.8023175E-01
       -3   -1    0    0    0  501  0.00000000000E+00  0.00000000000E+00  0.13056238720E+04  0.13056238759E+04  0.10100000352E+00 0.  1.
        3   -1    0    0  501    0  0.00000000000E+00  0.00000000000E+00 -0.29257518236E+04  0.29257518254E+04  0.10100000352E+00 0. -1.
    10030    2    1    2    0    0  0.00000000000E+00  0.00000000000E+00 -0.16201279517E+04  0.42313757012E+04  0.39089289768E+04 0.  0.
        1    1    3    3  502    0 -0.92328404609E+03  0.17042671693E+04 -0.10816619846E+04  0.22196785044E+04  0.50400001928E-02 0. -1.
       -1    1    3    3    0  502  0.92328404609E+03 -0.17042671693E+04 -0.53846596712E+03  0.20116971968E+04  0.50400001928E-02 0.  1.
</event>
<event>
 5   0  0.2661693E-07  0.4140134E+04  0.7818609E-02  0.7976859E-01
       -2   -1    0    0    0  501  0.00000000000E+00  0.00000000000E+00  0.18440339762E+04  0.18440339762E+04  0.25500000920E-02 0.  1.
        2   -1    0    0  501    0  0.00000000000E+00  0.00000000000E+00 -0.23238064981E+04  0.23238064981E+04  0.25500000920E-02 0. -1.
    10030    2    1    2    0    0  0.00000000000E+00  0.00000000000E+00 -0.47977252185E+03  0.41678404743E+04  0.41401343633E+04 0.  0.
        1    1    3    3  502    0 -0.13750936542E+04 -0.89122478832E+03  0.10334952427E+04  0.19373375023E+04  0.50400001928E-02 0.  1.
       -1    1    3    3    0  502  0.13750936542E+04  0.89122478832E+03 -0.15132677645E+04  0.22305029720E+04  0.50400001928E-02 0. -1.
</event>
<event>
 5   0  0.2704088E-07  0.4071917E+04  0.7818609E-02  0.7990194E-01
       -2   -1    0    0    0  501  0.00000000000E+00  0.00000000000E+00  0.16895166639E+04  0.16895166639E+04  0.25500000920E-02 0.  1.
        2   -1    0    0  501    0  0.00000000000E+00  0.00000000000E+00 -0.24534391056E+04  0.24534391056E+04  0.25500000920E-02 0. -1.
    10030    2    1    2    0    0  0.00000000000E+00  0.00000000000E+00 -0.76392244172E+03  0.41429557695E+04  0.40719166263E+04 0.  0.
        5    1    3    3  502    0  0.14293786964E+04 -0.14576611795E+03  0.10856789533E+04  0.18008587115E+04  0.46999998093E+01 0.  1.
       -5    1    3    3    0  502 -0.14293786964E+04  0.14576611795E+03 -0.18496013950E+04  0.23420970581E+04  0.46999998093E+01 0. -1.
</event>
<event>
 5   0  0.2666978E-07  0.2866812E+04  0.7818609E-02  0.8282821E-01
        2   -1    0    0  501    0  0.00000000000E+00  0.00000000000E+00  0.19054378972E+04  0.19054378972E+04  0.25500000920E-02 0.  1.
       -2   -1    0    0    0  501  0.00000000000E+00  0.00000000000E+00 -0.10783096916E+04  0.10783096916E+04  0.25500000920E-02 0. -1.
    10030    2    1    2    0    0  0.00000000000E+00  0.00000000000E+00  0.82712820556E+03  0.29837475888E+04  0.28668115748E+04 0.  0.
        4    1    3    3  502    0  0.10804080192E+04 -0.83195315577E+03  0.87342705134E+03  0.16193529474E+04  0.12699999809E+01 0.  1.
       -4    1    3    3    0  502 -0.10804080192E+04  0.83195315577E+03 -0.46298845778E+02  0.13643946414E+04  0.12699999809E+01 0. -1.
</event>
<event>
 5   0  0.8528625E-08  0.4030451E+04  0.7818609E-02  0.7998432E-01
       -3   -1    0    0    0  501  0.00000000000E+00  0.00000000000E+00  0.24817559481E+04  0.24817559501E+04  0.10100000352E+00 0. -1.
        3   -1    0    0  501    0  0.00000000000E+00  0.00000000000E+00 -0.16363949767E+04  0.16363949798E+04  0.10100000352E+00 0.  1.
    10030    2    1    2    0    0  0.00000000000E+00  0.00000000000E+00  0.84536097139E+03  0.41181509299E+04  0.40304505839E+04 0.  0.
        2    1    3    3  502    0  0.68151496638E+03 -0.17162861580E+04 -0.40174209261E+03  0.18898406109E+04  0.25500000920E-02 0.  1.
       -2    1    3    3    0  502 -0.68151496638E+03  0.17162861580E+04  0.12471030640E+04  0.22283103190E+04  0.25500000920E-02 0. -1.
</event>
<event>
 5   0  0.8528625E-08  0.3915591E+04  0.7818609E-02  0.8021794E-01
        1   -1    0    0  501    0  0.00000000000E+00  0.00000000000E+00  0.17056484738E+04  0.17056484738E+04  0.50400001928E-02 0. -1.
       -1   -1    0    0    0  501  0.00000000000E+00  0.00000000000E+00 -0.22472172698E+04  0.22472172699E+04  0.50400001928E-02 0.  1.
    10030    2    1    2    0    0  0.00000000000E+00  0.00000000000E+00 -0.54156879601E+03  0.39528657437E+04  0.39155907379E+04 0.  0.
        3    1    3    3  502    0 -0.16964748197E+04 -0.53181393155E+03  0.55684306527E+03  0.18630424261E+04  0.10100000352E+00 0. -1.
       -3    1    3    3    0  502  0.16964748197E+04  0.53181393155E+03 -0.10984118613E+04  0.20898233176E+04  0.10100000352E+00 0.  1.
</event>
<event>
 5   0  0.8528625E-08  0.4014873E+04  0.7818609E-02  0.8001553E-01
       -1   -1    0    0    0  501  0.00000000000E+00  0.00000000000E+00  0.13519843469E+04  0.13519843469E+04  0.50400001928E-02 0.  1.
        1   -1    0    0  501    0  0.00000000000E+00  0.00000000000E+00 -0.29806569238E+04  0.29806569238E+04  0.50400001928E-02 0. -1.
    10030    2    1    2    0    0  0.00000000000E+00  0.00000000000E+00 -0.16286725770E+04  0.43326412707E+04  0.40148731011E+04 0.  0.
        2    1    3    3  502    0 -0.14560372330E+04 -0.87784790115E+03  0.33744359102E+03  0.17333578796E+04  0.25500000920E-02 0.  1.
       -2    1    3    3    0  502  0.14560372330E+04  0.87784790115E+03 -0.19661161680E+04  0.25992833912E+04  0.25500000920E-02 0. -1.
</event>
<event>
 5   0  0.8528625E-08  0.4046830E+04  0.7818609E-02  0.7995166E-01
        1   -1    0    0  501    0  0.00000000000E+00  0.00000000000E+00  0.17345537000E+04  0.17345537000E+04  0.50400001928E-02 0.  1.
       -1   -1    0    0    0  501  0.00000000000E+00  0.00000000000E+00 -0.23603811747E+04  0.23603811747E+04  0.50400001928E-02 0. -1.
    10030    2    1    2    0    0  0.00000000000E+00  0.00000000000E+00 -0.62582747471E+03  0.40949348748E+04  0.40468298210E+04 0.  0.
        2    1    3    3  502    0 -0.13676760246E+04  0.11655622537E+04 -0.12540964783E+04  0.21913080688E+04  0.25500000920E-02 0. -1.
       -2    1    3    3    0  502  0.13676760246E+04 -0.11655622537E+04  0.62826900357E+03  0.19036268060E+04  0.25500000920E-02 0.  1.
</event>
<event>
 5   0  0.8528625E-08  0.3984746E+04  0.7818609E-02  0.8007631E-01
       -1   -1    0    0    0  501  0.00000000000E+00  0.00000000000E+00  0.17364222712E+04  0.17364222712E+04  0.50400001928E-02 0.  1.
        1   -1    0    0  501    0  0.00000000000E+00  0.00000000000E+00 -0.22860510029E+04  0.22860510029E+04  0.50400001928E-02 0. -1.
    10030    2    1    2    0    0  0.00000000000E+00  0.00000000000E+00 -0.54962873170E+03  0.40224732741E+04  0.39847458512E+04 0.  0.
        5    1    3    3  502    0 -0.22242789583E+03  0.16322189132E+04  0.85647230447E+03  0.18566581935E+04  0.46999998093E+01 0.  1.
       -5    1    3    3    0  502  0.22242789583E+03 -0.16322189132E+04 -0.14061010362E+04  0.21658150806E+04  0.46999998093E+01 0. -1.
</event>
<event>
 5   0  0.2661693E-07  0.3982688E+04  0.7818609E-02  0.8008048E-01
       -2   -1    0    0    0  501  0.00000000000E+00  0.00000000000E+00  0.14147720207E+04  0.14147720207E+04  0.25500000920E-02 0. -1.
        2   -1    0    0  501    0  0.00000000000E+00  0.00000000000E+00 -0.28028903775E+04  0.28028903775E+04  0.25500000920E-02 0.  1.
    10030    2    1    2    0    0  0.00000000000E+00  0.00000000000E+00 -0.13881183567E+04  0.42176623982E+04  0.39826879784E+04 0.  0.
        1    1    3    3  502    0  0.14357714264E+04 -0.13798469456E+04 -0.68791143117E+03  0.21068078506E+04  0.50400001928E-02 0. -1.
       -1    1    3    3    0  502 -0.14357714264E+04  0.13798469456E+04 -0.70020692556E+03  0.21108545476E+04  0.50400001928E-02 0.  1.
</event>
<event>
 5   0  0.8528625E-08  0.4069135E+04  0.7818609E-02  0.7990743E-01
        1   -1    0    0  501    0  0.00000000000E+00  0.00000000000E+00  0.21119039260E+04  0.21119039260E+04  0.50400001928E-02 0.  1.
       -1   -1    0    0    0  501  0.00000000000E+00  0.00000000000E+00 -0.19600631878E+04  0.19600631878E+04  0.50400001928E-02 0. -1.
    10030    2    1    2    0    0  0.00000000000E+00  0.00000000000E+00  0.15184073818E+03  0.40719671138E+04  0.40691351128E+04 0.  0.
        4    1    3    3  502    0 -0.19676143080E+04 -0.12642859325E+03  0.57823912127E+03  0.20547146635E+04  0.12699999809E+01 0. -1.
       -4    1    3    3    0  502  0.19676143080E+04  0.12642859325E+03 -0.42639838309E+03  0.20172524503E+04  0.12699999809E+01 0.  1.
</event>
<event>
 5   0  0.8583262E-08  0.4003860E+04  0.7818609E-02  0.8003768E-01
        1   -1    0    0  501    0  0.00000000000E+00  0.00000000000E+00  0.11131874294E+04  0.11131874294E+04  0.50400001928E-02 0.  1.
       -1   -1    0    0    0  501  0.00000000000E+00  0.00000000000E+00 -0.36002241557E+04  0.36002241557E+04  0.50400001928E-02 0. -1.
    10030    2    1    2    0    0  0.00000000000E+00  0.00000000000E+00 -0.24870367264E+04  0.47134115851E+04  0.40038602738E+04 0.  0.
        1    1    3    3  502    0  0.28937949949E+03  0.11244777856E+04  0.67629576505E+03  0.13437137891E+04  0.50400001928E-02 0.  1.
       -1    1    3    3    0  502 -0.28937949949E+03 -0.11244777856E+04 -0.31633324914E+04  0.33696977960E+04  0.50400001928E-02 0. -1.
</event>
<event>
 5   0  0.2666978E-07  0.4018083E+04  0.7818609E-02  0.8000908E-01
        2   -1    0    0  501    0  0.00000000000E+00  0.00000000000E+00  0.21460899636E+04  0.21460899636E+04  0.25500000920E-02 0.  1.
       -2   -1    0    0    0  501  0.00000000000E+00  0.00000000000E+00 -0.18807451351E+04  0.18807451351E+04  0.25500000920E-02 0. -1.
    10030    2    1    2    0    0  0.00000000000E+00  0.00000000000E+00  0.26534482848E+03  0.40268350988E+04  0.40180832538E+04 0.  0.
        4    1    3    3  502    0  0.15814906873E+04  0.12390046218E+04  0.13385771367E+03  0.20134956537E+04  0.12699999809E+01 0. -1.
       -4    1    3    3    0  502 -0.15814906873E+04 -0.12390046218E+04  0.13148711481E+03  0.20133394451E+04  0.12699999809E+01 0.  1.
</event>
<event>
 5   0  0.8528625E-08  0.3995228E+04  0.7818609E-02  0.8005510E-01
        1   -1    0    0  501    0  0.00000000000E+00  0.00000000000E+00  0.21781362230E+04  0.21781362230E+04  0.50400001928E-02 0. -1.
       -1   -1    0    0    0  501  0.00000000000E+00  0.00000000000E+00 -0.18320529070E+04  0.18320529070E+04  0.50400001928E-02 0.  1.
    10030    2    1    2    0    0  0.00000000000E+00  0.00000000000E+00  0.34608331599E+03  0.40101891301E+04  0.39952275526E+04 0.  0.
        5    1    3    3  502    0 -0.68105646410E+03 -0.96223806279E+03  0.17917490751E+04  0.21447906273E+04  0.46999998093E+01 0. -1.
       -5    1    3    3    0  502  0.68105646410E+03  0.96223806279E+03 -0.14456657592E+04  0.18653985027E+04  0.46999998093E+01 0.  1.
</event>
<event>
 5   0  0.8528625E-08  0.3854463E+04  0.7818609E-02  0.8034567E-01
        3   -1    0    0  501    0  0.00000000000E+00  0.00000000000E+00  0.21478409878E+04  0.21478409902E+04  0.10100000352E+00 0.  1.
       -3   -1    0    0    0  501  0.00000000000E+00  0.00000000000E+00 -0.17292813916E+04  0.17292813945E+04  0.10100000352E+00 0. -1.
    10030    2    1    2    0    0  0.00000000000E+00  0.00000000000E+00  0.41855959626E+03  0.38771223847E+04  0.38544631079E+04 0.  0.
        1    1    3    3  502    0  0.28024674410E+03 -0.13769908860E+04  0.15359645435E+04  0.20817851034E+04  0.50400001928E-02 0.  1.
       -1    1    3    3    0  502 -0.28024674410E+03  0.13769908860E+04 -0.11174049472E+04  0.17953372814E+04  0.50400001928E-02 0. -1.
</event>
<event>
 5   0  0.8528625E-08  0.4013851E+04  0.7818609E-02  0.8001758E-01
        1   -1    0    0  501    0  0.00000000000E+00  0.00000000000E+00  0.22422484302E+04  0.22422484302E+04  0.50400001928E-02 0.  1.
       -1   -1    0    0    0  501  0.00000000000E+00  0.00000000000E+00 -0.17962996793E+04  0.17962996794E+04  0.50400001928E-02 0. -1.
    10030    2    1    2    0    0  0.00000000000E+00  0.00000000000E+00  0.44594875082E+03  0.40385481095E+04  0.40138510865E+04 0.  0.
        4    1    3    3  502    0 -0.19972538997E+04 -0.15588217376E+03  0.34382222916E+03  0.20326184419E+04  0.12699999809E+01 0.  1.
       -4    1    3    3    0  502  0.19972538997E+04  0.15588217376E+03  0.10212652166E+03  0.20059296676E+04  0.12699999809E+01 0. -1.
</event>
<event>
 5   0  0.2661693E-07  0.3973794E+04  0.7818609E-02  0.8009854E-01
       -2   -1    0    0    0  501  0.00000000000E+00  0.00000000000E+00  0.17849759336E+04  0.17849759336E+04  0.25500000920E-02 0. -1.
        2   -1    0    0  501    0  0.00000000000E+00  0.00000000000E+00 -0.22116594976E+04  0.22116594976E+04  0.25500000920E-02 0.  1.
    10030    2    1    2    0    0  0.00000000000E+00  0.00000000000E+00 -0.42668356397E+03  0.39966354311E+04  0.39737936416E+04 0.  0.
        1    1    3    3  502    0 -0.18895059233E+03 -0.19776381976E+04 -0.18147671221E+03  0.19949157787E+04  0.50400001928E-02 0.  1.
       -1    1    3    3    0  502  0.18895059233E+03  0.19776381976E+04 -0.24520685176E+03  0.20017196525E+04  0.50400001928E-02 0. -1.
</event>
<event>
 5   0  0.8528625E-08  0.3966806E+04  0.7818609E-02  0.8011276E-01
       -1   -1    0    0    0  501  0.00000000000E+00  0.00000000000E+00  0.15225503661E+04  0.15225503661E+04  0.50400001928E-02 0. -1.
        1   -1    0    0  501    0  0.00000000000E+00  0.00000000000E+00 -0.25837488002E+04  0.25837488002E+04  0.50400001928E-02 0.  1.
    10030    2    1    2    0    0  0.00000000000E+00  0.00000000000E+00 -0.10611984341E+04  0.41062991663E+04  0.39668061115E+04 0.  0.
        4    1    3    3  502    0  0.41274499366E+03  0.16360073419E+03  0.14704480978E+04  0.15360152509E+04  0.12699999809E+01 0. -1.
       -4    1    3    3    0  502 -0.41274499366E+03 -0.16360073419E+03 -0.25316465319E+04  0.25702839153E+04  0.12699999809E+01 0.  1.
</event>
<event>
 5   0  0.2661693E-07  0.3995650E+04  0.7818609E-02  0.8005425E-01
       -2   -1    0    0    0  501  0.00000000000E+00  0.00000000000E+00  0.18558150220E+04  0.18558150220E+04  0.25500000920E-02 0.  1.
        2   -1    0    0  501    0  0.00000000000E+00  0.00000000000E+00 -0.21507023142E+04  0.21507023142E+04  0.25500000920E-02 0. -1.
    10030    2    1    2    0    0  0.00000000000E+00  0.00000000000E+00 -0.29488729227E+03  0.40065173362E+04  0.39956504665E+04 0.  0.
        1    1    3    3  502    0 -0.38311481434E+03 -0.15290772704E+04  0.10832702366E+04  0.19126757868E+04  0.50400001928E-02 0.  1.
       -1    1    3    3    0  502  0.38311481434E+03  0.15290772704E+04 -0.13781575289E+04  0.20938415494E+04  0.50400001928E-02 0. -1.
</event>
<event>
 5   0  0.2839279E-07  0.3930229E+04  0.7818609E-02  0.8018771E-01
        2   -1    0    0  501    0  0.00000000000E+00  0.00000000000E+00  0.32527123965E+04  0.32527123965E+04  0.25500000920E-02 0.  1.
       -2   -1    0    0    0  501  0.00000000000E+00  0.00000000000E+00 -0.11872166962E+04  0.11872166962E+04  0.25500000920E-02 0. -1.
    10030    2    1    2    0    0  0.00000000000E+00  0.00000000000E+00  0.20654957003E+04  0.44399290928E+04  0.39302287288E+04 0.  0.
        3    1    3    3  502    0 -0.21044033169E+03  0.18971512894E+04  0.50504206180E+03  0.19744709779E+04  0.10100000352E+00 0.  1.
       -3    1    3    3    0  502  0.21044033169E+03 -0.18971512894E+04  0.15604536385E+04  0.24654581149E+04  0.10100000352E+00 0. -1.
</event>
<event>
 5   0  0.2839279E-07  0.3937046E+04  0.7818609E-02  0.8017368E-01
        2   -1    0    0  501    0  0.00000000000E+00  0.00000000000E+00  0.26622182623E+04  0.26622182623E+04  0.25500000920E-02 0.  1.
       -2   -1    0    0    0  501  0.00000000000E+00  0.00000000000E+00 -0.14555841277E+04  0.14555841277E+04  0.25500000920E-02 0. -1.
    10030    2    1    2    0    0  0.00000000000E+00  0.00000000000E+00  0.12066341346E+04  0.41178023900E+04  0.39370459216E+04 0.  0.
        3    1    3    3  502    0 -0.10047151269E+04  0.16022855562E+04  0.11745717353E+04  0.22262951874E+04  0.10100000352E+00 0. -1.
       -3    1    3    3    0  502  0.10047151269E+04 -0.16022855562E+04  0.32062399268E+02  0.18915072026E+04  0.10100000352E+00 0.  1.
</event>
<event>
 5   0  0.8583262E-08  0.4013609E+04  0.7818609E-02  0.8001807E-01
       -1   -1    0    0    0  501  0.00000000000E+00  0.00000000000E+00  0.14342419866E+04  0.14342419866E+04  0.50400001928E-02 0. -1.
        1   -1    0    0  501    0  0.00000000000E+00  0.00000000000E+00 -0.28079398441E+04  0.28079398441E+04  0.50400001928E-02 0.  1.
    10030    2    1    2    0    0  0.00000000000E+00  0.00000000000E+00 -0.13736978575E+04  0.42421818307E+04  0.40136094580E+04 0.  0.
        1    1    3    3  502    0 -0.11078249908E+04  0.14875248850E+04  0.12312102280E+03  0.18588074887E+04  0.50400001928E-02 0.  1.
       -1    1    3    3    0  502  0.11078249908E+04 -0.14875248850E+04 -0.14968188803E+04  0.23833743420E+04  0.50400001928E-02 0. -1.
</event>
<event>
 5   0  0.8528625E-08  0.4049211E+04  0.7818609E-02  0.7994692E-01
       -1   -1    0    0    0  501  0.00000000000E+00  0.00000000000E+00  0.21792850266E+04  0.21792850266E+04  0.50400001928E-02 0. -1.
        1   -1    0    0  501    0  0.00000000000E+00  0.00000000000E+00 -0.18809044566E+04  0.18809044566E+04  0.50400001928E-02 0.  1.
    10030    2    1    2    0    0  0.00000000000E+00  0.00000000000E+00  0.29838057006E+03  0.40601894832E+04  0.40492107472E+04 0.  0.
        5    1    3    3  502    0 -0.15936994268E+04  0.50861986891E+03  0.12926473908E+04  0.21141266284E+04  0.46999998093E+01 0. -1.
       -5    1    3    3    0  502  0.15936994268E+04 -0.50861986891E+03 -0.99426682073E+03  0.19460628548E+04  0.46999998093E+01 0.  1.
</event>
<event>
 5   0  0.2839279E-07  0.3989830E+04  0.7818609E-02  0.8006601E-01
        2   -1    0    0  501    0  0.00000000000E+00  0.00000000000E+00  0.21983052696E+04  0.21983052696E+04  0.25500000920E-02 0. -1.
       -2   -1    0    0    0  501  0.00000000000E+00  0.00000000000E+00 -0.18103425484E+04  0.18103425484E+04  0.25500000920E-02 0.  1.
    10030    2    1    2    0    0  0.00000000000E+00  0.00000000000E+00  0.38796272115E+03  0.40086478180E+04  0.39898298530E+04 0.  0.
        3    1    3    3  502    0  0.11932334178E+04  0.11846522345E+04 -0.88461753473E+03  0.18999355513E+04  0.10100000352E+00 0.  1.
       -3    1    3    3    0  502 -0.11932334178E+04 -0.11846522345E+04  0.12725802559E+04  0.21087122667E+04  0.10100000352E+00 0. -1.
</event>
<event>
 5   0  0.8528625E-08  0.3545372E+04  0.7818609E-02  0.8103121E-01
        1   -1    0    0  501    0  0.00000000000E+00  0.00000000000E+00  0.28034141811E+04  0.28034141811E+04  0.50400001928E-02 0. -1.
       -1   -1    0    0    0  501  0.00000000000E+00  0.00000000000E+00 -0.11209242173E+04  0.11209242173E+04  0.50400001928E-02 0.  1.
    10030    2    1    2    0    0  0.00000000000E+00  0.00000000000E+00  0.16824899638E+04  0.39243383984E+04  0.35453715443E+04 0.  0.
        5    1    3    3  502    0  0.71362295404E+03  0.14210619854E+04 -0.25894737688E+02  0.15903985395E+04  0.46999998093E+01 0.  1.
       -5    1    3    3    0  502 -0.71362295404E+03 -0.14210619854E+04  0.17083847015E+04  0.23339398590E+04  0.46999998093E+01 0. -1.
</event>
<event>
 5   0  0.2730801E-07  0.3770156E+04  0.7818609E-02  0.8052590E-01
       -2   -1    0    0    0  501  0.00000000000E+00  0.00000000000E+00  0.18807178719E+04  0.18807178719E+04  0.25500000920E-02 0. -1.
        2   -1    0    0  501    0  0.00000000000E+00  0.00000000000E+00 -0.18894486480E+04  0.18894486480E+04  0.25500000920E-02 0.  1.
    10030    2    1    2    0    0  0.00000000000E+00  0.00000000000E+00 -0.87307760913E+01  0.37701665199E+04  0.37701564107E+04 0.  0.
        2    1    3    3  502    0 -0.70835495168E+03 -0.16140922805E+04  0.66381243771E+03  0.18835359248E+04  0.25500000920E-02 0. -1.
       -2    1    3    3    0  502  0.70835495168E+03  0.16140922805E+04 -0.67254321380E+03  0.18866305950E+04  0.25500000920E-02 0.  1.
</event>
<event>
 5   0  0.8528625E-08  0.4016009E+04  0.7818609E-02  0.8001325E-01
       -1   -1    0    0    0  501  0.00000000000E+00  0.00000000000E+00  0.22903432716E+04  0.22903432716E+04  0.50400001928E-02 0.  1.
        1   -1    0    0  501    0  0.00000000000E+00  0.00000000000E+00 -0.17604702253E+04  0.17604702253E+04  0.50400001928E-02 0. -1.
    10030    2    1    2    0    0  0.00000000000E+00  0.00000000000E+00  0.52987304622E+03  0.40508134969E+04  0.40160085335E+04 0.  0.
        3    1    3    3  502    0 -0.18598444548E+04  0.51711821401E+02  0.10267206236E+04  0.21250531188E+04  0.10100000352E+00 0.  1.
       -3    1    3    3    0  502  0.18598444548E+04 -0.51711821401E+02 -0.49684757736E+03  0.19257603781E+04  0.10100000352E+00 0. -1.
</event>
<event>
 5   0  0.8528625E-08  0.4002156E+04  0.7818609E-02  0.8004112E-01
       -1   -1    0    0    0  501  0.00000000000E+00  0.00000000000E+00  0.15396524332E+04  0.15396524332E+04  0.50400001928E-02 0.  1.
        1   -1    0    0  501    0  0.00000000000E+00  0.00000000000E+00 -0.26007909377E+04  0.26007909378E+04  0.50400001928E-02 0. -1.
    10030    2    1    2    0    0  0.00000000000E+00  0.00000000000E+00 -0.10611385046E+04  0.41404433709E+04  0.40021564665E+04 0.  0.
        3    1    3    3  502    0 -0.14102607569E+03 -0.88979127142E+03  0.13179826671E+04  0.15964633356E+04  0.10100000352E+00 0.  1.
       -3    1    3    3    0  502  0.14102607569E+03  0.88979127142E+03 -0.23791211717E+04  0.25439800354E+04  0.10100000352E+00 0. -1.
</event>
<event>
 5   0  0.8528625E-08  0.3850817E+04  0.7818609E-02  0.8035337E-01
       -1   -1    0    0    0  501  0.00000000000E+00  0.00000000000E+00  0.14489447665E+04  0.14489447665E+04  0.50400001928E-02 0. -1.
        1   -1    0    0  501    0  0.00000000000E+00  0.00000000000E+00 -0.25585503745E+04  0.25585503745E+04  0.50400001928E-02 0.  1.
    10030    2    1    2    0    0  0.00000000000E+00  0.00000000000E+00 -0.11096056080E+04  0.40074951410E+04  0.38508171471E+04 0.  0.
        4    1    3    3  502    0  0.13070094806E+04  0.12899369721E+04 -0.11571307857E+04  0.21705216982E+04  0.12699999809E+01 0. -1.
       -4    1    3    3    0  502 -0.13070094806E+04 -0.12899369721E+04  0.47525177645E+02  0.18369734428E+04  0.12699999809E+01 0.  1.
</event>
<event>
 5   0  0.2666978E-07  0.4001134E+04  0.7818609E-02  0.8004318E-01
       -2   -1    0    0    0  501  0.00000000000E+00  0.00000000000E+00  0.11841239808E+04  0.11841239808E+04  0.25500000920E-02 0. -1.
        2   -1    0    0  501    0  0.00000000000E+00  0.00000000000E+00 -0.33799397111E+04  0.33799397111E+04  0.25500000920E-02 0.  1.
    10030    2    1    2    0    0  0.00000000000E+00  0.00000000000E+00 -0.21958157303E+04  0.45640636920E+04  0.40011336722E+04 0.  0.
        4    1    3    3  502    0  0.28032362241E+03  0.18280927887E+04 -0.22786406836E+03  0.18634452565E+04  0.12699999809E+01 0. -1.
       -4    1    3    3    0  502 -0.28032362241E+03 -0.18280927887E+04 -0.19679516619E+04  0.27006184355E+04  0.12699999809E+01 0.  1.
</event>
<event>
 5   0  0.8528625E-08  0.3934173E+04  0.7818609E-02  0.8017959E-01
       -1   -1    0    0    0  501  0.00000000000E+00  0.00000000000E+00  0.21471063997E+04  0.21471063997E+04  0.50400001928E-02 0.  1.
        1   -1    0    0  501    0  0.00000000000E+00  0.00000000000E+00 -0.18021603989E+04  0.18021603989E+04  0.50400001928E-02 0. -1.
    10030    2    1    2    0    0  0.00000000000E+00  0.00000000000E+00  0.34494600080E+03  0.39492667986E+04  0.39341734206E+04 0.  0.
        3    1    3    3  502    0  0.10844579414E+04 -0.43858395902E+03 -0.14150572444E+04  0.18359716585E+04  0.10100000352E+00 0. -1.
       -3    1    3    3    0  502 -0.10844579414E+04  0.43858395902E+03  0.17600032452E+04  0.21132951401E+04  0.10100000352E+00 0.  1.
</event>
<event>
 5   0  0.8528625E-08  0.3979462E+04  0.7818609E-02  0.8008703E-01
        1   -1    0    0  501    0  0.00000000000E+00  0.00000000000E+00  0.18925244527E+04  0.18925244528E+04  0.50400001928E-02 0.  1.
       -1   -1    0    0    0  501  0.00000000000E+00  0.00000000000E+00 -0.20919301588E+04  0.20919301588E+04  0.50400001928E-02 0. -1.
    10030    2    1    2    0    0  0.00000000000E+00  0.00000000000E+00 -0.19940570604E+03  0.39844546116E+04  0.39794617621E+04 0.  0.
        5    1    3    3  502    0 -0.14547449298E+04 -0.13519524032E+04  0.22715742636E+02  0.19861007542E+04  0.46999998093E+01 0. -1.
       -5    1    3    3    0  502  0.14547449298E+04  0.13519524032E+04 -0.22212144868E+03  0.19983538573E+04  0.46999998093E+01 0.  1.
</event>
<event>
 5   0  0.8528625E-08  0.4008948E+04  0.7818609E-02  0.8002744E-01
        1   -1    0    0  501    0  0.00000000000E+00  0.00000000000E+00  0.21951672799E+04  0.21951672799E+04  0.50400001928E-02 0. -1.
       -1   -1    0    0    0  501  0.00000000000E+00  0.00000000000E+00 -0.18303464722E+04  0.18303464722E+04  0.50400001928E-02 0.  1.
    10030    2    1    2    0    0  0.00000000000E+00  0.00000000000E+00  0.36482080765E+03  0.40255137521E+04  0.40089483343E+04 0.  0.
        4    1    3    3  502    0  0.17052889712E+04  0.94122532451E+03  0.65765191396E+03  0.20558266560E+04  0.12699999809E+01 0.  1.
       -4    1    3    3    0  502 -0.17052889712E+04 -0.94122532451E+03 -0.29283110631E+03  0.19696870961E+04  0.12699999809E+01 0. -1.
</event>
<event>
 5   0  0.2730801E-07  0.4002728E+04  0.7818609E-02  0.8003996E-01
       -2   -1    0    0    0  501  0.00000000000E+00  0.00000000000E+00  0.15229161591E+04  0.15229161591E+04  0.25500000920E-02 0.  1.
        2   -1    0    0  501    0  0.00000000000E+00  0.00000000000E+00 -0.26301241595E+04  0.26301241595E+04  0.25500000920E-02 0. -1.
    10030    2    1    2    0    0  0.00000000000E+00  0.00000000000E+00 -0.11072080004E+04  0.41530403186E+04  0.40027283610E+04 0.  0.
        2    1    3    3  502    0 -0.84859386427E+03  0.78216123274E+03 -0.22501118641E+04  0.25288121998E+04  0.25500000920E-02 0. -1.
       -2    1    3    3    0  502  0.84859386427E+03 -0.78216123274E+03  0.11429038637E+04  0.16242281189E+04  0.25500000920E-02 0.  1.
</event>
<event>
 5   0  0.2666978E-07  0.4040086E+04  0.7818609E-02  0.7996508E-01
        2   -1    0    0  501    0  0.00000000000E+00  0.00000000000E+00  0.23764052615E+04  0.23764052615E+04  0.25500000920E-02 0.  1.
       -2   -1    0    0    0  501  0.00000000000E+00  0.00000000000E+00 -0.17171203707E+04  0.17171203707E+04  0.25500000920E-02 0. -1.
    10030    2    1    2    0    0  0.00000000000E+00  0.00000000000E+00  0.65928489079E+03  0.40935256323E+04  0.40400860801E+04 0.  0.
        4    1    3    3  502    0 -0.19038298160E+04 -0.11975581573E+03 -0.34372533088E+03  0.19383132202E+04  0.12699999809E+01 0. -1.
       -4    1    3    3    0  502  0.19038298160E+04  0.11975581573E+03  0.10030102217E+04  0.21552124121E+04  0.12699999809E+01 0.  1.
</event>
<event>
 5   0  0.2666978E-07  0.3906639E+04  0.7818609E-02  0.8023650E-01
       -2   -1    0    0    0  501  0.00000000000E+00  0.00000000000E+00  0.19554051512E+04  0.19554051512E+04  0.25500000920E-02 0. -1.
        2   -1    0    0  501    0  0.00000000000E+00  0.00000000000E+00 -0.19512358753E+04  0.19512358753E+04  0.25500000920E-02 0.  1.
    10030    2    1    2    0    0  0.00000000000E+00  0.00000000000E+00  0.41692758981E+01  0.39066410265E+04  0.39066388017E+04 0.  0.
        4    1    3    3  502    0  0.18402297700E+04 -0.65239391749E+03  0.60322449228E+02  0.19533826662E+04  0.12699999809E+01 0.  1.
       -4    1    3    3    0  502 -0.18402297700E+04  0.65239391749E+03 -0.56153173330E+02  0.19532583602E+04  0.12699999809E+01 0. -1.
</event>
<event>
 5   0  0.8528625E-08  0.3284804E+04  0.7818609E-02  0.8166773E-01
       -1   -1    0    0    0  501  0.00000000000E+00  0.00000000000E+00  0.13132580911E+04  0.13132580911E+04  0.50400001928E-02 0. -1.
        1   -1    0    0  501    0  0.00000000000E+00  0.00000000000E+00 -0.20540398793E+04  0.20540398793E+04  0.50400001928E-02 0.  1.
    10030    2    1    2    0    0  0.00000000000E+00  0.00000000000E+00 -0.74078178818E+03  0.33672979704E+04  0.32848040982E+04 0.  0.
        4    1    3    3  502    0  0.47240022964E+03 -0.68238214454E+03 -0.18232615993E+04  0.20032702865E+04  0.12699999809E+01 0.  1.
       -4    1    3    3    0  502 -0.47240022964E+03  0.68238214454E+03  0.10824798111E+04  0.13640276839E+04  0.12699999809E+01 0. -1.
</event>
<event>
 5   0  0.2730801E-07  0.4020419E+04  0.7818609E-02  0.8000440E-01
        2   -1    0    0  501    0  0.00000000000E+00  0.00000000000E+00  0.14578275682E+04  0.14578275682E+04  0.25500000920E-02 0.  1.
       -2   -1    0    0    0  501  0.00000000000E+00  0.00000000000E+00 -0.27718924932E+04  0.27718924932E+04  0.25500000920E-02 0. -1.
    10030    2    1    2    0    0  0.00000000000E+00  0.00000000000E+00 -0.13140649250E+04  0.42297200614E+04  0.40204185317E+04 0.  0.
        2    1    3    3  502    0  0.89806044541E+03  0.44461068486E+03 -0.24903803559E+04  0.26844339333E+04  0.25500000920E-02 0. -1.
       -2    1    3    3    0  502 -0.89806044541E+03 -0.44461068486E+03  0.11763154309E+04  0.15452861281E+04  0.25500000920E-02 0.  1.
</event>
<event>
 5   0  0.2666978E-07  0.3979496E+04  0.7818609E-02  0.8008696E-01
       -2   -1    0    0    0  501  0.00000000000E+00  0.00000000000E+00  0.18839332342E+04  0.18839332342E+04  0.25500000920E-02 0. -1.
        2   -1    0    0  501    0  0.00000000000E+00  0.00000000000E+00 -0.21015065626E+04  0.21015065626E+04  0.25500000920E-02 0.  1.
    10030    2    1    2    0    0  0.00000000000E+00  0.00000000000E+00 -0.21757332836E+03  0.39854397968E+04  0.39794964783E+04 0.  0.
        4    1    3    3  502    0  0.15825811911E+04  0.91494737052E+03  0.67813777381E+03  0.19497600802E+04  0.12699999809E+01 0. -1.
       -4    1    3    3    0  502 -0.15825811911E+04 -0.91494737052E+03 -0.89571110217E+03  0.20356797166E+04  0.12699999809E+01 0.  1.
</event>
<event>
 5   0  0.2704088E-07  0.3996550E+04  0.7818609E-02  0.8005243E-01
       -2   -1    0    0    0  501  0.00000000000E+00  0.00000000000E+00  0.16619765978E+04  0.16619765978E+04  0.25500000920E-02 0. -1.
        2   -1    0    0  501    0  0.00000000000E+00  0.00000000000E+00 -0.24026231092E+04  0.24026231092E+04  0.25500000920E-02 0.  1.
    10030    2    1    2    0    0  0.00000000000E+00  0.00000000000E+00 -0.74064651143E+03  0.40645997070E+04  0.39965502028E+04 0.  0.
        5    1    3    3  502    0 -0.18717080548E+04 -0.13483159628E+02  0.34131119166E+03  0.19026266732E+04  0.46999998093E+01 0.  1.
       -5    1    3    3    0  502  0.18717080548E+04  0.13483159628E+02 -0.10819577031E+04  0.21619730339E+04  0.46999998093E+01 0. -1.
</event>
<event>
 5   0  0.8528625E-08  0.4038061E+04  0.7818609E-02  0.7996912E-01
       -1   -1    0    0    0  501  0.00000000000E+00  0.00000000000E+00  0.19227799598E+04  0.19227799598E+04  0.50400001928E-02 0.  1.
        1   -1    0    0  501    0  0.00000000000E+00  0.00000000000E+00 -0.21200995218E+04  0.21200995218E+04  0.50400001928E-02 0. -1.
    10030    2    1    2    0    0  0.00000000000E+00  0.00000000000E+00 -0.19731956209E+03  0.40428794816E+04  0.40380613533E+04 0.  0.
        2    1    3    3  502    0 -0.46250071324E+03 -0.99057321426E+02  0.18665285485E+04  0.19255254049E+04  0.25500000920E-02 0.  1.
       -2    1    3    3    0  502  0.46250071324E+03  0.99057321426E+02 -0.20638481106E+04  0.21173540767E+04  0.25500000920E-02 0. -1.
</event>
<event>
 5   0  0.2704088E-07  0.3982344E+04  0.7818609E-02  0.8008118E-01
        2   -1    0    0  501    0  0.00000000000E+00  0.00000000000E+00  0.28171963759E+04  0.28171963759E+04  0.25500000920E-02 0. -1.
       -2   -1    0    0    0  501  0.00000000000E+00  0.00000000000E+00 -0.14073444266E+04  0.14073444266E+04  0.25500000920E-02 0.  1.
    10030    2    1    2    0    0  0.00000000000E+00  0.00000000000E+00  0.14098519493E+04  0.42245408026E+04  0.39823438417E+04 0.  0.
        5    1    3    3  502    0  0.26435082876E+03 -0.15444222287E+04  0.20083174716E+04  0.25472499952E+04  0.46999998093E+01 0. -1.
       -5    1    3    3    0  502 -0.26435082876E+03  0.15444222287E+04 -0.59846552235E+03  0.16772908074E+04  0.46999998093E+01 0.  1.
</event>
<event>
 5   0  0.8528625E-08  0.4014041E+04  0.7818609E-02  0.8001720E-01
        3   -1    0    0  501    0  0.00000000000E+00  0.00000000000E+00  0.15573786645E+04  0.15573786678E+04  0.10100000352E+00 0. -1.
       -3   -1    0    0    0  501  0.00000000000E+00  0.00000000000E+00 -0.25864821362E+04  0.25864821382E+04  0.10100000352E+00 0.  1.
    10030    2    1    2    0    0  0.00000000000E+00  0.00000000000E+00 -0.10291034718E+04  0.41438608060E+04  0.40140414078E+04 0.  0.
        3    1    3    3  502    0  0.37280996653E+03  0.19623219030E+04 -0.31215603094E+03  0.20216666194E+04  0.10100000352E+00 0.  1.
       -3    1    3    3    0  502 -0.37280996653E+03 -0.19623219030E+04 -0.71694744082E+03  0.21221941865E+04  0.10100000352E+00 0. -1.
</event>
<event>
 5   0  0.8528625E-08  0.3904207E+04  0.7818609E-02  0.8024155E-01
        1   -1    0    0  501    0  0.00000000000E+00  0.00000000000E+00  0.14113173661E+04  0.14113173662E+04  0.50400001928E-02 0. -1.
       -1   -1    0    0    0  501  0.00000000000E+00  0.00000000000E+00 -0.27001066941E+04  0.27001066941E+04  0.50400001928E-02 0.  1.
    10030    2    1    2    0    0  0.00000000000E+00  0.00000000000E+00 -0.12887893279E+04  0.41114240602E+04  0.39042066891E+04 0.  0.
        2    1    3    3  502    0 -0.35208663497E+02 -0.14498025489E+04 -0.20204787237E+04  0.24870668173E+04  0.25500000920E-02 0.  1.
       -2    1    3    3    0  502  0.35208663497E+02  0.14498025489E+04  0.73168939581E+03  0.16243572429E+04  0.25500000920E-02 0. -1.
</event>
<event>
 5   0  0.2661693E-07  0.3981686E+04  0.7818609E-02  0.8008251E-01
       -2   -1    0    0    0  501  0.00000000000E+00  0.00000000000E+00  0.17266499172E+04  0.17266499172E+04  0.25500000920E-02 0. -1.
        2   -1    0    0  501    0  0.00000000000E+00  0.00000000000E+00 -0.22954597743E+04  0.22954597743E+04  0.25500000920E-02 0.  1.
    10030    2    1    2    0    0  0.00000000000E+00  0.00000000000E+00 -0.56880985708E+03  0.40221096916E+04  0.39816857884E+04 0.  0.
        1    1    3    3  502    0 -0.18342544197E+04  0.52467420442E+03  0.29030269697E+03  0.19297792498E+04  0.50400001928E-02 0. -1.
       -1    1    3    3    0  502  0.18342544197E+04 -0.52467420442E+03 -0.85911255405E+03  0.20923304418E+04  0.50400001928E-02 0.  1.
</event>
<event>
 5   0  0.8528625E-08  0.3341649E+04  0.7818609E-02  0.8152378E-01
       -1   -1    0    0    0  501  0.00000000000E+00  0.00000000000E+00  0.12207272708E+04  0.12207272708E+04  0.50400001928E-02 0. -1.
        1   -1    0    0  501    0  0.00000000000E+00  0.00000000000E+00 -0.22868781042E+04  0.22868781043E+04  0.50400001928E-02 0.  1.
    10030    2    1    2    0    0  0.00000000000E+00  0.00000000000E+00 -0.10661508334E+04  0.35076053751E+04  0.33416489743E+04 0.  0.
        4    1    3    3  502    0 -0.83730705474E+03 -0.53817689685E+03 -0.19417120043E+04  0.21819634728E+04  0.12699999809E+01 0.  1.
       -4    1    3    3    0  502  0.83730705474E+03  0.53817689685E+03  0.87556117086E+03  0.13256419023E+04  0.12699999809E+01 0. -1.
</event>
<event>
 5   0  0.2839279E-07  0.3955988E+04  0.7818609E-02  0.8013484E-01
       -2   -1    0    0    0  501  0.00000000000E+00  0.00000000000E+00  0.14873668235E+04  0.14873668235E+04  0.25500000920E-02 0. -1.
        2   -1    0    0  501    0  0.00000000000E+00  0.00000000000E+00 -0.26304614501E+04  0.26304614501E+04  0.25500000920E-02 0.  1.
    10030    2    1    2    0    0  0.00000000000E+00  0.00000000000E+00 -0.11430946266E+04  0.41178282737E+04  0.39559884183E+04 0.  0.
        3    1    3    3  502    0 -0.98254570483E+03  0.85257422963E+02 -0.23562744667E+04  0.25543481092E+04  0.10100000352E+00 0.  1.
       -3    1    3    3    0  502  0.98254570483E+03 -0.85257422963E+02  0.12131798401E+04  0.15634801645E+04  0.10100000352E+00 0. -1.
</event>
<event>
 5   0  0.8528625E-08  0.3024644E+04  0.7818609E-02  0.8236728E-01
       -1   -1    0    0    0  501  0.00000000000E+00  0.00000000000E+00  0.11916224994E+04  0.11916224994E+04  0.50400001928E-02 0. -1.
        1   -1    0    0  501    0  0.00000000000E+00  0.00000000000E+00 -0.19193307418E+04  0.19193307418E+04  0.50400001928E-02 0.  1.
    10030    2    1    2    0    0  0.00000000000E+00  0.00000000000E+00 -0.72770824241E+03  0.31109532412E+04  0.30246439101E+04 0.  0.
        5    1    3    3  502    0  0.11200309225E+04  0.21028143677E+03  0.65870250900E+03  0.13162821260E+04  0.46999998093E+01 0. -1.
       -5    1    3    3    0  502 -0.11200309225E+04 -0.21028143677E+03 -0.13864107514E+04  0.17946711152E+04  0.46999998093E+01 0.  1.
</event>
<event>
 5   0  0.8528625E-08  0.4057420E+04  0.7818609E-02  0.7993062E-01
       -1   -1    0    0    0  501  0.00000000000E+00  0.00000000000E+00  0.25166815790E+04  0.25166815790E+04  0.50400001928E-02 0. -1.
        1   -1    0    0  501    0  0.00000000000E+00  0.00000000000E+00 -0.16353531962E+04  0.16353531962E+04  0.50400001928E-02 0.  1.
    10030    2    1    2    0    0  0.00000000000E+00  0.00000000000E+00  0.88132838279E+03  0.41520347753E+04  0.40574195071E+04 0.  0.
        3    1    3    3  502    0  0.12082421017E+04  0.84255188214E+03  0.18681560093E+04  0.23790228111E+04  0.10100000352E+00 0. -1.
       -3    1    3    3    0  502 -0.12082421017E+04 -0.84255188214E+03 -0.98682762648E+03  0.17730119642E+04  0.10100000352E+00 0.  1.
</event>
<event>
 5   0  0.2730801E-07  0.3368131E+04  0.7818609E-02  0.8145773E-01
       -2   -1    0    0    0  501  0.00000000000E+00  0.00000000000E+00  0.15284504365E+04  0.15284504365E+04  0.25500000920E-02 0. -1.
        2   -1    0    0  501    0  0.00000000000E+00  0.00000000000E+00 -0.18555236894E+04  0.18555236894E+04  0.25500000920E-02 0.  1.
    10030    2    1    2    0    0  0.00000000000E+00  0.00000000000E+00 -0.32707325291E+03  0.33839741259E+04  0.33681306347E+04 0.  0.
        2    1    3    3  502    0  0.10213562221E+04  0.12866028115E+04  0.20909974438E+03  0.16559704194E+04  0.25500000920E-02 0.  1.
       -2    1    3    3    0  502 -0.10213562221E+04 -0.12866028115E+04 -0.53617299728E+03  0.17280037065E+04  0.25500000920E-02 0. -1.
</event>
<event>
 5   0  0.2704088E-07  0.4008298E+04  0.7818609E-02  0.8002875E-01
        2   -1    0    0  501    0  0.00000000000E+00  0.00000000000E+00  0.23438306897E+04  0.23438306897E+04  0.25500000920E-02 0.  1.
       -2   -1    0    0    0  501  0.00000000000E+00  0.00000000000E+00 -0.17136959608E+04  0.17136959608E+04  0.25500000920E-02 0. -1.
    10030    2    1    2    0    0  0.00000000000E+00  0.00000000000E+00  0.63013472889E+03  0.40575266505E+04  0.40082979858E+04 0.  0.
        5    1    3    3  502    0 -0.79855111319E+03  0.17204512347E+04  0.97028404844E+03  0.21305186119E+04  0.46999998093E+01 0.  1.
       -5    1    3    3    0  502  0.79855111319E+03 -0.17204512347E+04 -0.34014931956E+03  0.19270080386E+04  0.46999998093E+01 0. -1.
</event>
<event>
 5   0  0.8528625E-08  0.3956426E+04  0.7818609E-02  0.8013395E-01
       -1   -1    0    0    0  501  0.00000000000E+00  0.00000000000E+00  0.27442291370E+04  0.27442291370E+04  0.50400001928E-02 0. -1.
        1   -1    0    0  501    0  0.00000000000E+00  0.00000000000E+00 -0.14260204398E+04  0.14260204399E+04  0.50400001928E-02 0.  1.
    10030    2    1    2    0    0  0.00000000000E+00  0.00000000000E+00  0.13182086971E+04  0.41702495768E+04  0.39564260847E+04 0.  0.
        4    1    3    3  502    0  0.10749799425E+04 -0.95792663125E+02  0.24065841463E+04  0.26375001379E+04  0.12699999809E+01 0. -1.
       -4    1    3    3    0  502 -0.10749799425E+04  0.95792663125E+02 -0.10883754492E+04  0.15327494389E+04  0.12699999809E+01 0.  1.
</event>
<event>
 5   0  0.2666978E-07  0.3688231E+04  0.7818609E-02  0.8070575E-01
        2   -1    0    0  501    0  0.00000000000E+00  0.00000000000E+00  0.20829078316E+04  0.20829078316E+04  0.25500000920E-02 0.  1.
       -2   -1    0    0    0  501  0.00000000000E+00  0.00000000000E+00 -0.16326990702E+04  0.16326990702E+04  0.25500000920E-02 0. -1.
    10030    2    1    2    0    0  0.00000000000E+00  0.00000000000E+00  0.45020876140E+03  0.37156069018E+04  0.36882308387E+04 0.  0.
        4    1    3    3  502    0  0.65599604060E+03 -0.12562613345E+04 -0.96358452202E+03  0.17137736402E+04  0.12699999809E+01 0. -1.
       -4    1    3    3    0  502 -0.65599604060E+03  0.12562613345E+04  0.14137932834E+04  0.20018332616E+04  0.12699999809E+01 0.  1.
</event>
<event>
 5   0  0.8528625E-08  0.4043068E+04  0.7818609E-02  0.7995914E-01
       -1   -1    0    0    0  501  0.00000000000E+00  0.00000000000E+00  0.28150229560E+04  0.28150229560E+04  0.50400001928E-02 0.  1.
        1   -1    0    0  501    0  0.00000000000E+00  0.00000000000E+00 -0.14517111513E+04  0.14517111513E+04  0.50400001928E-02 0. -1.
    10030    2    1    2    0    0  0.00000000000E+00  0.00000000000E+00  0.13633118047E+04  0.42667341074E+04  0.40430682490E+04 0.  0.
        5    1    3    3  502    0 -0.92409493713E+03  0.15418949963E+04 -0.29426568281E+03  0.18215394628E+04  0.46999998093E+01 0. -1.
       -5    1    3    3    0  502  0.92409493713E+03 -0.15418949963E+04  0.16575774875E+04  0.24451946445E+04  0.46999998093E+01 0.  1.
</event>
<event>
 5   0  0.2730801E-07  0.3934513E+04  0.7818609E-02  0.8017889E-01
        2   -1    0    0  501    0  0.00000000000E+00  0.00000000000E+00  0.14487952350E+04  0.14487952350E+04  0.25500000920E-02 0.  1.
       -2   -1    0    0    0  501  0.00000000000E+00  0.00000000000E+00 -0.26712526790E+04  0.26712526790E+04  0.25500000920E-02 0. -1.
    10030    2    1    2    0    0  0.00000000000E+00  0.00000000000E+00 -0.12224574440E+04  0.41200479140E+04  0.39345130081E+04 0.  0.
        2    1    3    3  502    0  0.10729182213E+04 -0.23894748855E+03  0.10972240105E+04  0.15531097647E+04  0.25500000920E-02 0.  1.
       -2    1    3    3    0  502 -0.10729182213E+04  0.23894748855E+03 -0.23196814546E+04  0.25669381493E+04  0.25500000920E-02 0. -1.
</event>
<event>
 5   0  0.2839279E-07  0.4029519E+04  0.7818609E-02  0.7998618E-01
       -2   -1    0    0    0  501  0.00000000000E+00  0.00000000000E+00  0.20873338093E+04  0.20873338093E+04  0.25500000920E-02 0. -1.
        2   -1    0    0  501    0  0.00000000000E+00  0.00000000000E+00 -0.19447081773E+04  0.19447081773E+04  0.25500000920E-02 0.  1.
    10030    2    1    2    0    0  0.00000000000E+00  0.00000000000E+00  0.14262563200E+03  0.40320419867E+04  0.40295186451E+04 0.  0.
        3    1    3    3  502    0  0.17183307489E+04  0.35936684530E+03  0.10605926524E+04  0.20510148407E+04  0.10100000352E+00 0. -1.
       -3    1    3    3    0  502 -0.17183307489E+04 -0.35936684530E+03 -0.91796702041E+03  0.19810271460E+04  0.10100000352E+00 0.  1.
</event>
<event>
 5   0  0.8528625E-08  0.3105433E+04  0.7818609E-02  0.8214249E-01
        1   -1    0    0  501    0  0.00000000000E+00  0.00000000000E+00  0.17357598147E+04  0.17357598147E+04  0.50400001928E-02 0. -1.
       -1   -1    0    0    0  501  0.00000000000E+00  0.00000000000E+00 -0.13889756481E+04  0.13889756481E+04  0.50400001928E-02 0.  1.
    10030    2    1    2    0    0  0.00000000000E+00  0.00000000000E+00  0.34678416661E+03  0.31247354627E+04  0.31054327321E+04 0.  0.
        2    1    3    3  502    0  0.52792607816E+03 -0.19774979343E+02 -0.12957626165E+04  0.13993204609E+04  0.25500000920E-02 0.  1.
       -2    1    3    3    0  502 -0.52792607816E+03  0.19774979343E+02  0.16425467831E+04  0.17254150019E+04  0.25500000920E-02 0. -1.
</event>
<event>
 5   0  0.8528625E-08  0.4169164E+04  0.7818609E-02  0.7971264E-01
       -1   -1    0    0    0  501  0.00000000000E+00  0.00000000000E+00  0.14402630985E+04  0.14402630986E+04  0.50400001928E-02 0.  1.
        1   -1    0    0  501    0  0.00000000000E+00  0.00000000000E+00 -0.30171444910E+04  0.30171444910E+04  0.50400001928E-02 0. -1.
    10030    2    1    2    0    0  0.00000000000E+00  0.00000000000E+00 -0.15768813925E+04  0.44574075896E+04  0.41691638842E+04 0.  0.
        5    1    3    3  502    0  0.14258093101E+04 -0.13707456856E+04 -0.84445112072E+02  0.19796537551E+04  0.46999998093E+01 0.  1.
       -5    1    3    3    0  502 -0.14258093101E+04  0.13707456856E+04 -0.14924362804E+04  0.24777538345E+04  0.46999998093E+01 0. -1.
</event>
<event>
 5   0  0.2839279E-07  0.3934806E+04  0.7818609E-02  0.8017829E-01
       -2   -1    0    0    0  501  0.00000000000E+00  0.00000000000E+00  0.22025314967E+04  0.22025314967E+04  0.25500000920E-02 0. -1.
        2   -1    0    0  501    0  0.00000000000E+00  0.00000000000E+00 -0.17573750618E+04  0.17573750618E+04  0.25500000920E-02 0.  1.
    10030    2    1    2    0    0  0.00000000000E+00  0.00000000000E+00  0.44515643484E+03  0.39599065585E+04  0.39348056751E+04 0.  0.
        3    1    3    3  502    0 -0.17124045084E+03 -0.64685651453E+02  0.21939428683E+04  0.22015659983E+04  0.10100000352E+00 0. -1.
       -3    1    3    3    0  502  0.17124045084E+03  0.64685651453E+02 -0.17487864335E+04  0.17583405602E+04  0.10100000352E+00 0.  1.
</event>
<event>
 5   0  0.2839279E-07  0.3939328E+04  0.7818609E-02  0.8016899E-01
       -2   -1    0    0    0  501  0.00000000000E+00  0.00000000000E+00  0.17320282968E+04  0.17320282968E+04  0.25500000920E-02 0.  1.
        2   -1    0    0  501    0  0.00000000000E+00  0.00000000000E+00 -0.22399040705E+04  0.22399040705E+04  0.25500000920E-02 0. -1.
    10030    2    1    2    0    0  0.00000000000E+00  0.00000000000E+00 -0.50787577365E+03  0.39719323673E+04  0.39393284871E+04 0.  0.
        3    1    3    3  502    0  0.49696145454E+03  0.25779272489E+02  0.16676006480E+04  0.17402664134E+04  0.10100000352E+00 0.  1.
       -3    1    3    3    0  502 -0.49696145454E+03 -0.25779272489E+02 -0.21754764217E+04  0.22316659539E+04  0.10100000352E+00 0. -1.
</event>
<event>
 5   0  0.2730801E-07  0.3957113E+04  0.7818609E-02  0.8013254E-01
        2   -1    0    0  501    0  0.00000000000E+00  0.00000000000E+00  0.13001869907E+04  0.13001869907E+04  0.25500000920E-02 0. -1.
       -2   -1    0    0    0  501  0.00000000000E+00  0.00000000000E+00 -0.30108638880E+04  0.30108638880E+04  0.25500000920E-02 0.  1.
    10030    2    1    2    0    0  0.00000000000E+00  0.00000000000E+00 -0.17106768973E+04  0.43110508787E+04  0.39571131184E+04 0.  0.
        2    1    3    3  502    0  0.99672311998E+03  0.12692993678E+04  0.39163803919E+03  0.16607101543E+04  0.25500000920E-02 0. -1.
       -2    1    3    3    0  502 -0.99672311998E+03 -0.12692993678E+04 -0.21023149365E+04  0.26503407244E+04  0.25500000920E-02 0.  1.
</event>
<event>
 5   0  0.8583262E-08  0.3953178E+04  0.7818609E-02  0.8014059E-01
        1   -1    0    0  501    0  0.00000000000E+00  0.00000000000E+00  0.14715674298E+04  0.14715674298E+04  0.50400001928E-02 0. -1.
       -1   -1    0    0    0  501  0.00000000000E+00  0.00000000000E+00 -0.26549264315E+04  0.26549264315E+04  0.50400001928E-02 0.  1.
    10030    2    1    2    0    0  0.00000000000E+00  0.00000000000E+00 -0.11833590018E+04  0.41264938613E+04  0.39531775903E+04 0.  0.
        1    1    3    3  502    0 -0.56474000496E+03  0.17497618487E+04 -0.13489548473E+04  0.22804115813E+04  0.50400001928E-02 0. -1.
       -1    1    3    3    0  502  0.56474000496E+03 -0.17497618487E+04  0.16559584551E+03  0.18460822800E+04  0.50400001928E-02 0.  1.
</event>
<event>
 5   0  0.2666978E-07  0.3919398E+04  0.7818609E-02  0.8021007E-01
        2   -1    0    0  501    0  0.00000000000E+00  0.00000000000E+00  0.18191736694E+04  0.18191736694E+04  0.25500000920E-02 0.  1.
       -2   -1    0    0    0  501  0.00000000000E+00  0.00000000000E+00 -0.21110792009E+04  0.21110792009E+04  0.25500000920E-02 0. -1.
    10030    2    1    2    0    0  0.00000000000E+00  0.00000000000E+00 -0.29190553146E+03  0.39302528703E+04  0.39193977580E+04 0.  0.
        4    1    3    3  502    0 -0.69270054730E+03 -0.39044324474E+03  0.16501355256E+04  0.18317283754E+04  0.12699999809E+01 0.  1.
       -4    1    3    3    0  502  0.69270054730E+03  0.39044324474E+03 -0.19420410570E+04  0.20985244949E+04  0.12699999809E+01 0. -1.
</event>
<event>
 5   0  0.2839279E-07  0.3886649E+04  0.7818609E-02  0.8027812E-01
       -2   -1    0    0    0  501  0.00000000000E+00  0.00000000000E+00  0.19208114819E+04  0.19208114819E+04  0.25500000920E-02 0. -1.
        2   -1    0    0  501    0  0.00000000000E+00  0.00000000000E+00 -0.19661014933E+04  0.19661014933E+04  0.25500000920E-02 0.  1.
    10030    2    1    2    0    0  0.00000000000E+00  0.00000000000E+00 -0.45290011369E+02  0.38869129752E+04  0.38866491084E+04 0.  0.
        3    1    3    3  502    0 -0.83712783301E+03 -0.69910132941E+03 -0.16311647944E+04  0.19621988366E+04  0.10100000352E+00 0.  1.
       -3    1    3    3    0  502  0.83712783301E+03  0.69910132941E+03  0.15858747830E+04  0.19247141386E+04  0.10100000352E+00 0. -1.
</event>
<event>
 5   0  0.8528625E-08  0.4074263E+04  0.7818609E-02  0.7989731E-01
       -1   -1    0    0    0  501  0.00000000000E+00  0.00000000000E+00  0.22808409556E+04  0.22808409556E+04  0.50400001928E-02 0. -1.
        1   -1    0    0  501    0  0.00000000000E+00  0.00000000000E+00 -0.18194624248E+04  0.18194624248E+04  0.50400001928E-02 0.  1.
    10030    2    1    2    0    0  0.00000000000E+00  0.00000000000E+00  0.46137853087E+03  0.41003033804E+04  0.40742628367E+04 0.  0.
        2    1    3    3  502    0  0.24070901334E+03 -0.16145826823E+04  0.14571193680E+04  0.21881533126E+04  0.25500000920E-02 0. -1.
       -2    1    3    3    0  502 -0.24070901334E+03  0.16145826823E+04 -0.99574083710E+03  0.19121500678E+04  0.25500000920E-02 0.  1.
</event>
<event>
 5   0  0.8583262E-08  0.3956795E+04  0.7818609E-02  0.8013319E-01
        1   -1    0    0  501    0  0.00000000000E+00  0.00000000000E+00  0.28585431359E+04  0.28585431359E+04  0.50400001928E-02 0.  1.
       -1   -1    0    0    0  501  0.00000000000E+00  0.00000000000E+00 -0.13692489416E+04  0.13692489417E+04  0.50400001928E-02 0. -1.
    10030    2    1    2    0    0  0.00000000000E+00  0.00000000000E+00  0.14892941943E+04  0.42277920776E+04  0.39567952505E+04 0.  0.
        1    1    3    3  502    0  0.97585971316E+03 -0.12533219218E+04  0.20048025051E+04  0.25578020064E+04  0.50400001928E-02 0.  1.
       -1    1    3    3    0  502 -0.97585971316E+03  0.12533219218E+04 -0.51550831079E+03  0.16699900712E+04  0.50400001928E-02 0. -1.
</event>
<event>
 5   0  0.2661693E-07  0.3496097E+04  0.7818609E-02  0.8114716E-01
        2   -1    0    0  501    0  0.00000000000E+00  0.00000000000E+00  0.27392658859E+04  0.27392658859E+04  0.25500000920E-02 0.  1.
       -2   -1    0    0    0  501  0.00000000000E+00  0.00000000000E+00 -0.11155079265E+04  0.11155079265E+04  0.25500000920E-02 0. -1.
    10030    2    1    2    0    0  0.00000000000E+00  0.00000000000E+00  0.16237579594E+04  0.38547738123E+04  0.34960965710E+04 0.  0.
        1    1    3    3  502    0  0.11411288808E+04 -0.67304846002E+01  0.22719112948E+04  0.25424007067E+04  0.50400001928E-02 0.  1.
       -1    1    3    3    0  502 -0.11411288808E+04  0.67304846002E+01 -0.64815333545E+03  0.13123731056E+04  0.50400001928E-02 0. -1.
</event>
<event>
 5   0  0.8528625E-08  0.3902054E+04  0.7818609E-02  0.8024602E-01
        1   -1    0    0  501    0  0.00000000000E+00  0.00000000000E+00  0.21348572665E+04  0.21348572665E+04  0.50400001928E-02 0. -1.
       -1   -1    0    0    0  501  0.00000000000E+00  0.00000000000E+00 -0.17830262357E+04  0.17830262357E+04  0.50400001928E-02 0.  1.
    10030    2    1    2    0    0  0.00000000000E+00  0.00000000000E+00  0.35183103077E+03  0.39178835022E+04  0.39020540825E+04 0.  0.
        5    1    3    3  502    0 -0.39292275918E+02 -0.13702083962E+04  0.15698809030E+04  0.20841216547E+04  0.46999998093E+01 0. -1.
       -5    1    3    3    0  502  0.39292275918E+02  0.13702083962E+04 -0.12180498722E+04  0.18337618475E+04  0.46999998093E+01 0.  1.
</event>
<event>
 5   0  0.8583262E-08  0.4125276E+04  0.7818609E-02  0.7979740E-01
       -1   -1    0    0    0  501  0.00000000000E+00  0.00000000000E+00  0.17427251977E+04  0.17427251977E+04  0.50400001928E-02 0. -1.
        1   -1    0    0  501    0  0.00000000000E+00  0.00000000000E+00 -0.24412772430E+04  0.24412772430E+04  0.50400001928E-02 0.  1.
    10030    2    1    2    0    0  0.00000000000E+00  0.00000000000E+00 -0.69855204538E+03  0.41840024407E+04  0.41252759258E+04 0.  0.
        1    1    3    3  502    0  0.88228898649E+03 -0.56509937117E+03 -0.21512805247E+04  0.23928600149E+04  0.50400001928E-02 0.  1.
       -1    1    3    3    0  502 -0.88228898649E+03  0.56509937117E+03  0.14527284793E+04  0.17911424258E+04  0.50400001928E-02 0. -1.
</event>
<event>
 5   0  0.2839279E-07  0.4023401E+04  0.7818609E-02  0.7999842E-01
       -2   -1    0    0    0  501  0.00000000000E+00  0.00000000000E+00  0.18705353266E+04  0.18705353266E+04  0.25500000920E-02 0.  1.
        2   -1    0    0  501    0  0.00000000000E+00  0.00000000000E+00 -0.21635191974E+04  0.21635191974E+04  0.25500000920E-02 0. -1.
    10030    2    1    2    0    0  0.00000000000E+00  0.00000000000E+00 -0.29298387081E+03  0.40340545240E+04  0.40234010929E+04 0.  0.
        3    1    3    3  502    0 -0.14495007493E+04  0.50726103820E+03  0.11563998357E+04  0.19224013039E+04  0.10100000352E+00 0.  1.
       -3    1    3    3    0  502  0.14495007493E+04 -0.50726103820E+03 -0.14493837065E+04  0.21116532201E+04  0.10100000352E+00 0. -1.
</event>
<event>
 5   0  0.8583262E-08  0.3958737E+04  0.7818609E-02  0.8012923E-01
        1   -1    0    0  501    0  0.00000000000E+00  0.00000000000E+00  0.21194319753E+04  0.21194319753E+04  0.50400001928E-02 0.  1.
       -1   -1    0    0    0  501  0.00000000000E+00  0.00000000000E+00 -0.18485613235E+04  0.18485613235E+04  0.50400001928E-02 0. -1.
    10030    2    1    2    0    0  0.00000000000E+00  0.00000000000E+00  0.27087065181E+03  0.39679932989E+04  0.39587371610E+04 0.  0.
        1    1    3    3  502    0 -0.13285924265E+03 -0.19141495797E+04 -0.35178741001E+03  0.19507369309E+04  0.50400001928E-02 0. -1.
       -1    1    3    3    0  502  0.13285924265E+03  0.19141495797E+04  0.62265806182E+03  0.20172563679E+04  0.50400001928E-02 0.  1.
</event>
<event>
 5   0  0.8583262E-08  0.3984836E+04  0.7818609E-02  0.8007613E-01
       -1   -1    0    0    0  501  0.00000000000E+00  0.00000000000E+00  0.14360412374E+04  0.14360412374E+04  0.50400001928E-02 0. -1.
        1   -1    0    0  501    0  0.00000000000E+00  0.00000000000E+00 -0.27643564658E+04  0.27643564658E+04  0.50400001928E-02 0.  1.
    10030    2    1    2    0    0  0.00000000000E+00  0.00000000000E+00 -0.13283152284E+04  0.42003977032E+04  0.39848361973E+04 0.  0.
        1    1    3    3  502    0  0.77729253808E+03  0.45646299160E+03 -0.25371246831E+04  0.26924976899E+04  0.50400001928E-02 0.  1.
       -1    1    3    3    0  502 -0.77729253808E+03 -0.45646299160E+03  0.12088094547E+04  0.15079000133E+04  0.50400001928E-02 0. -1.
</event>
<event>
 5   0  0.8528625E-08  0.3838985E+04  0.7818609E-02  0.8037840E-01
        1   -1    0    0  501    0  0.00000000000E+00  0.00000000000E+00  0.17515628104E+04  0.17515628104E+04  0.50400001928E-02 0.  1.
       -1   -1    0    0    0  501  0.00000000000E+00  0.00000000000E+00 -0.21035221770E+04  0.21035221770E+04  0.50400001928E-02 0. -1.
    10030    2    1    2    0    0  0.00000000000E+00  0.00000000000E+00 -0.35195936661E+03  0.38550849875E+04  0.38389848743E+04 0.  0.
        2    1    3    3  502    0  0.75918758515E+03  0.44328876516E+03 -0.18894711921E+04  0.20839798714E+04  0.25500000920E-02 0. -1.
       -2    1    3    3    0  502 -0.75918758515E+03 -0.44328876516E+03  0.15375118254E+04  0.17711051161E+04  0.25500000920E-02 0.  1.
</event>
<event>
 5   0  0.2661693E-07  0.3965919E+04  0.7818609E-02  0.8011457E-01
       -2   -1    0    0    0  501  0.00000000000E+00  0.00000000000E+00  0.31356480379E+04  0.31356480379E+04  0.25500000920E-02 0.  1.
        2   -1    0    0  501    0  0.00000000000E+00  0.00000000000E+00 -0.12540084135E+04  0.12540084136E+04  0.25500000920E-02 0. -1.
    10030    2    1    2    0    0  0.00000000000E+00  0.00000000000E+00  0.18816396244E+04  0.43896564515E+04  0.39659193242E+04 0.  0.
        1    1    3    3  502    0  0.15210558101E+04 -0.64157612400E+03  0.21567873992E+04  0.27160564401E+04  0.50400001928E-02 0.  1.
       -1    1    3    3    0  502 -0.15210558101E+04  0.64157612400E+03 -0.27514777482E+03  0.16736000114E+04  0.50400001928E-02 0. -1.
</event>
<event>
 5   0  0.2839279E-07  0.3978822E+04  0.7818609E-02  0.8008832E-01
       -2   -1    0    0    0  501  0.00000000000E+00  0.00000000000E+00  0.14700120319E+04  0.14700120319E+04  0.25500000920E-02 0. -1.
        2   -1    0    0  501    0  0.00000000000E+00  0.00000000000E+00 -0.26923292214E+04  0.26923292214E+04  0.25500000920E-02 0.  1.
    10030    2    1    2    0    0  0.00000000000E+00  0.00000000000E+00 -0.12223171895E+04  0.41623412533E+04  0.39788221117E+04 0.  0.
        3    1    3    3  502    0  0.16468358765E+04  0.22798106787E+03  0.53180670022E+03  0.17455263241E+04  0.10100000352E+00 0. -1.
       -3    1    3    3    0  502 -0.16468358765E+04 -0.22798106787E+03 -0.17541238897E+04  0.24168149292E+04  0.10100000352E+00 0.  1.
</event>
<event>
 5   0  0.2730801E-07  0.3326206E+04  0.7818609E-02  0.8156259E-01
        2   -1    0    0  501    0  0.00000000000E+00  0.00000000000E+00  0.28961375635E+04  0.28961375635E+04  0.25500000920E-02 0. -1.
       -2   -1    0    0    0  501  0.00000000000E+00  0.00000000000E+00 -0.95503434147E+03  0.95503434147E+03  0.25500000920E-02 0.  1.
    10030    2    1    2    0    0  0.00000000000E+00  0.00000000000E+00  0.19411032221E+04  0.38511719050E+04  0.33262055443E+04 0.  0.
        2    1    3    3  502    0 -0.31431554967E+03 -0.15175592517E+04  0.16692220051E+04  0.22777362555E+04  0.25500000920E-02 0. -1.
       -2    1    3    3    0  502  0.31431554967E+03  0.15175592517E+04  0.27188121696E+03  0.15734356495E+04  0.25500000920E-02 0.  1.
</event>
<event>
 5   0  0.2666978E-07  0.4221788E+04  0.7818609E-02  0.7961241E-01
        2   -1    0    0  501    0  0.00000000000E+00  0.00000000000E+00  0.18370057304E+04  0.18370057304E+04  0.25500000920E-02 0. -1.
       -2   -1    0    0    0  501  0.00000000000E+00  0.00000000000E+00 -0.24256175511E+04  0.24256175511E+04  0.25500000920E-02 0.  1.
    10030    2    1    2    0    0  0.00000000000E+00  0.00000000000E+00 -0.58861182064E+03  0.42626232815E+04  0.42217879345E+04 0.  0.
        4    1    3    3  502    0 -0.15264532518E+04  0.98865191286E+03  0.78768415088E+03  0.19819031432E+04  0.12699999809E+01 0. -1.
       -4    1    3    3    0  502  0.15264532518E+04 -0.98865191286E+03 -0.13762959715E+04  0.22807201382E+04  0.12699999809E+01 0.  1.
</event>
<event>
 5   0  0.2839279E-07  0.4014253E+04  0.7818609E-02  0.8001678E-01
        2   -1    0    0  501    0  0.00000000000E+00  0.00000000000E+00  0.19867487956E+04  0.19867487956E+04  0.25500000920E-02 0. -1.
       -2   -1    0    0    0  501  0.00000000000E+00  0.00000000000E+00 -0.20277128520E+04  0.20277128520E+04  0.25500000920E-02 0.  1.
    10030    2    1    2    0    0  0.00000000000E+00  0.00000000000E+00 -0.40964056380E+02  0.40144616477E+04  0.40142526411E+04 0.  0.
        3    1    3    3  502    0  0.52804841941E+02 -0.15612135581E+04  0.12398930498E+04  0.19943698028E+04  0.10100000352E+00 0. -1.
       -3    1    3    3    0  502 -0.52804841941E+02  0.15612135581E+04 -0.12808571061E+04  0.20200918449E+04  0.10100000352E+00 0.  1.
</event>
<event>
 5   0  0.8528625E-08  0.3743051E+04  0.7818609E-02  0.8058488E-01
       -1   -1    0    0    0  501  0.00000000000E+00  0.00000000000E+00  0.18083037762E+04  0.18083037762E+04  0.50400001928E-02 0. -1.
        1   -1    0    0  501    0  0.00000000000E+00  0.00000000000E+00 -0.19369570626E+04  0.19369570626E+04  0.50400001928E-02 0.  1.
    10030    2    1    2    0    0  0.00000000000E+00  0.00000000000E+00 -0.12865328637E+03  0.37452608389E+04  0.37430505050E+04 0.  0.
        3    1    3    3  502    0 -0.83025993509E+03 -0.19427788395E+03 -0.17313030280E+04  0.19298926501E+04  0.10100000352E+00 0.  1.
       -3    1    3    3    0  502  0.83025993509E+03  0.19427788395E+03  0.16026497417E+04  0.18153681887E+04  0.10100000352E+00 0. -1.
</event>
<event>
 5   0  0.2666978E-07  0.3962096E+04  0.7818609E-02  0.8012237E-01
       -2   -1    0    0    0  501  0.00000000000E+00  0.00000000000E+00  0.15718352478E+04  0.15718352478E+04  0.25500000920E-02 0. -1.
        2   -1    0    0  501    0  0.00000000000E+00  0.00000000000E+00 -0.24967953398E+04  0.24967953398E+04  0.25500000920E-02 0.  1.
    10030    2    1    2    0    0  0.00000000000E+00  0.00000000000E+00 -0.92496009197E+03  0.40686305876E+04  0.39620958705E+04 0.  0.
        4    1    3    3  502    0  0.59716995423E+03  0.18857758441E+04 -0.57396637325E+03  0.20596605301E+04  0.12699999809E+01 0.  1.
       -4    1    3    3    0  502 -0.59716995423E+03 -0.18857758441E+04 -0.35099371872E+03  0.20089700575E+04  0.12699999809E+01 0. -1.
</event>
<event>
 5   0  0.2730801E-07  0.3926828E+04  0.7818609E-02  0.8019473E-01
       -2   -1    0    0    0  501  0.00000000000E+00  0.00000000000E+00  0.17803673629E+04  0.17803673629E+04  0.25500000920E-02 0.  1.
        2   -1    0    0  501    0  0.00000000000E+00  0.00000000000E+00 -0.21652799382E+04  0.21652799382E+04  0.25500000920E-02 0. -1.
    10030    2    1    2    0    0  0.00000000000E+00  0.00000000000E+00 -0.38491257532E+03  0.39456473011E+04  0.39268275916E+04 0.  0.
        2    1    3    3  502    0  0.63547898882E+03  0.72060778997E+03  0.15280246444E+04  0.18049843340E+04  0.25500000920E-02 0.  1.
       -2    1    3    3    0  502 -0.63547898882E+03 -0.72060778997E+03 -0.19129372197E+04  0.21406629671E+04  0.25500000920E-02 0. -1.
</event>
<event>
 5   0  0.8528625E-08  0.3316262E+04  0.7818609E-02  0.8158770E-01
       -1   -1    0    0    0  501  0.00000000000E+00  0.00000000000E+00  0.28081472324E+04  0.28081472324E+04  0.50400001928E-02 0.  1.
        1   -1    0    0  501    0  0.00000000000E+00  0.00000000000E+00 -0.97907895370E+03  0.97907895371E+03  0.50400001928E-02 0. -1.
    10030    2    1    2    0    0  0.00000000000E+00  0.00000000000E+00  0.18290682787E+04  0.37872261861E+04  0.33162616629E+04 0.  0.
        2    1    3    3  502    0  0.15444869589E+04 -0.41269651408E+03  0.41199556714E+03  0.16509084549E+04  0.25500000920E-02 0.  1.
       -2    1    3    3    0  502 -0.15444869589E+04  0.41269651408E+03  0.14170727115E+04  0.21363177312E+04  0.25500000920E-02 0. -1.
</event>
<event>
 5   0  0.8528625E-08  0.4042155E+04  0.7818609E-02  0.7996096E-01
        1   -1    0    0  501    0  0.00000000000E+00  0.00000000000E+00  0.23919806265E+04  0.23919806265E+04  0.50400001928E-02 0.  1.
       -1   -1    0    0    0  501  0.00000000000E+00  0.00000000000E+00 -0.17076870046E+04  0.17076870047E+04  0.50400001928E-02 0. -1.
    10030    2    1    2    0    0  0.00000000000E+00  0.00000000000E+00  0.68429362186E+03  0.40996676312E+04  0.40421549853E+04 0.  0.
        2    1    3    3  502    0  0.61660243632E+03  0.73115478403E+03  0.21479197920E+04  0.23512433552E+04  0.25500000920E-02 0.  1.
       -2    1    3    3    0  502 -0.61660243632E+03 -0.73115478403E+03 -0.14636261701E+04  0.17484242759E+04  0.25500000920E-02 0. -1.
</event>
<event>
 5   0  0.2661693E-07  0.4034616E+04  0.7818609E-02  0.7997600E-01
        2   -1    0    0  501    0  0.00000000000E+00  0.00000000000E+00  0.25583963029E+04  0.25583963029E+04  0.25500000920E-02 0. -1.
       -2   -1    0    0    0  501  0.00000000000E+00  0.00000000000E+00 -0.15906570752E+04  0.15906570752E+04  0.25500000920E-02 0.  1.
    10030    2    1    2    0    0  0.00000000000E+00  0.00000000000E+00  0.96773922770E+03  0.41490533780E+04  0.40346158084E+04 0.  0.
        1    1    3    3  502    0 -0.10429011314E+04  0.51482894604E+03  0.21789052494E+04  0.24698825274E+04  0.50400001928E-02 0. -1.
       -1    1    3    3    0  502  0.10429011314E+04 -0.51482894604E+03 -0.12111660217E+04  0.16791708506E+04  0.50400001928E-02 0.  1.
</event>
<event>
 5   0  0.8583262E-08  0.3990490E+04  0.7818609E-02  0.8006468E-01
        1   -1    0    0  501    0  0.00000000000E+00  0.00000000000E+00  0.30248013199E+04  0.30248013199E+04  0.50400001928E-02 0. -1.
       -1   -1    0    0    0  501  0.00000000000E+00  0.00000000000E+00 -0.13161204397E+04  0.13161204397E+04  0.50400001928E-02 0.  1.
    10030    2    1    2    0    0  0.00000000000E+00  0.00000000000E+00  0.17086808802E+04  0.43409217596E+04  0.39904901168E+04 0.  0.
        1    1    3    3  502    0  0.19460957013E+04  0.32888562052E+03  0.53616825882E+03  0.20452214139E+04  0.50400001928E-02 0.  1.
       -1    1    3    3    0  502 -0.19460957013E+04 -0.32888562052E+03  0.11725126214E+04  0.22957003457E+04  0.50400001928E-02 0. -1.
</event>
<event>
 5   0  0.8528625E-08  0.3031114E+04  0.7818609E-02  0.8234902E-01
       -1   -1    0    0    0  501  0.00000000000E+00  0.00000000000E+00  0.19030699443E+04  0.19030699443E+04  0.50400001928E-02 0. -1.
        1   -1    0    0  501    0  0.00000000000E+00  0.00000000000E+00 -0.12069510966E+04  0.12069510966E+04  0.50400001928E-02 0.  1.
    10030    2    1    2    0    0  0.00000000000E+00  0.00000000000E+00  0.69611884771E+03  0.31100210408E+04  0.30311135618E+04 0.  0.
        5    1    3    3  502    0 -0.45078772526E+03  0.47152958137E+03 -0.10555217467E+04  0.12408456661E+04  0.46999998093E+01 0.  1.
       -5    1    3    3    0  502  0.45078772526E+03 -0.47152958137E+03  0.17516405944E+04  0.18691753747E+04  0.46999998093E+01 0. -1.
</event>
<event>
 5   0  0.8583262E-08  0.4001316E+04  0.7818609E-02  0.8004281E-01
        1   -1    0    0  501    0  0.00000000000E+00  0.00000000000E+00  0.21984005963E+04  0.21984005963E+04  0.50400001928E-02 0.  1.
       -1   -1    0    0    0  501  0.00000000000E+00  0.00000000000E+00 -0.18207021369E+04  0.18207021369E+04  0.50400001928E-02 0. -1.
    10030    2    1    2    0    0  0.00000000000E+00  0.00000000000E+00  0.37769845934E+03  0.40191027332E+04  0.40013161152E+04 0.  0.
        1    1    3    3  502    0 -0.11862163794E+04 -0.11158115456E+04 -0.97842151909E+03  0.18998561454E+04  0.50400001928E-02 0. -1.
       -1    1    3    3    0  502  0.11862163794E+04  0.11158115456E+04  0.13561199784E+04  0.21192465878E+04  0.50400001928E-02 0.  1.
</event>
<event>
 5   0  0.8528625E-08  0.3917173E+04  0.7818609E-02  0.8021467E-01
       -1   -1    0    0    0  501  0.00000000000E+00  0.00000000000E+00  0.26871210030E+04  0.26871210030E+04  0.50400001928E-02 0. -1.
        1   -1    0    0  501    0  0.00000000000E+00  0.00000000000E+00 -0.14275728957E+04  0.14275728957E+04  0.50400001928E-02 0.  1.
    10030    2    1    2    0    0  0.00000000000E+00  0.00000000000E+00  0.12595481073E+04  0.41146938987E+04  0.39171730170E+04 0.  0.
        3    1    3    3  502    0 -0.19315599840E+04 -0.11123143358E+03  0.30984318512E+03  0.19594129766E+04  0.10100000352E+00 0.  1.
       -3    1    3    3    0  502  0.19315599840E+04  0.11123143358E+03  0.94970492220E+03  0.21552809220E+04  0.10100000352E+00 0. -1.
</event>
<event>
 5   0  0.2661693E-07  0.3960589E+04  0.7818609E-02  0.8012545E-01
       -2   -1    0    0    0  501  0.00000000000E+00  0.00000000000E+00  0.13567419659E+04  0.13567419659E+04  0.25500000920E-02 0.  1.
        2   -1    0    0  501    0  0.00000000000E+00  0.00000000000E+00 -0.28904284991E+04  0.28904284991E+04  0.25500000920E-02 0. -1.
    10030    2    1    2    0    0  0.00000000000E+00  0.00000000000E+00 -0.15336865332E+04  0.42471704650E+04  0.39605886654E+04 0.  0.
        1    1    3    3  502    0  0.14691518295E+03 -0.14644876557E+04  0.65388286355E+03  0.16105498949E+04  0.50400001928E-02 0.  1.
       -1    1    3    3    0  502 -0.14691518295E+03  0.14644876557E+04 -0.21875693968E+04  0.26366205701E+04  0.50400001928E-02 0. -1.
</event>
<event>
 5   0  0.2661693E-07  0.3001327E+04  0.7818609E-02  0.8243352E-01
        2   -1    0    0  501    0  0.00000000000E+00  0.00000000000E+00  0.30186547035E+04  0.30186547035E+04  0.25500000920E-02 0. -1.
       -2   -1    0    0    0  501  0.00000000000E+00  0.00000000000E+00 -0.74602452785E+03  0.74602452785E+03  0.25500000920E-02 0.  1.
    10030    2    1    2    0    0  0.00000000000E+00  0.00000000000E+00  0.22726301757E+04  0.37646792314E+04  0.30013266733E+04 0.  0.
        1    1    3    3  502    0  0.65208551329E+03  0.12343805171E+02  0.28315860349E+04  0.29057266491E+04  0.50400001928E-02 0. -1.
       -1    1    3    3    0  502 -0.65208551329E+03 -0.12343805171E+02 -0.55895585917E+03  0.85895258233E+03  0.50400001928E-02 0.  1.
</event>
<event>
 5   0  0.2666978E-07  0.3683838E+04  0.7818609E-02  0.8071553E-01
        2   -1    0    0  501    0  0.00000000000E+00  0.00000000000E+00  0.23417529235E+04  0.23417529235E+04  0.25500000920E-02 0.  1.
       -2   -1    0    0    0  501  0.00000000000E+00  0.00000000000E+00 -0.14487716966E+04  0.14487716966E+04  0.25500000920E-02 0. -1.
    10030    2    1    2    0    0  0.00000000000E+00  0.00000000000E+00  0.89298122683E+03  0.37905246201E+04  0.36838378661E+04 0.  0.
        4    1    3    3  502    0  0.14596410835E+04 -0.12925456245E+03 -0.70180604402E+03  0.16247437247E+04  0.12699999809E+01 0. -1.
       -4    1    3    3    0  502 -0.14596410835E+04  0.12925456245E+03  0.15947872709E+04  0.21657808954E+04  0.12699999809E+01 0.  1.
</event>
<event>
 5   0  0.8528625E-08  0.4011691E+04  0.7818609E-02  0.8002192E-01
        1   -1    0    0  501    0  0.00000000000E+00  0.00000000000E+00  0.18546432428E+04  0.18546432428E+04  0.50400001928E-02 0. -1.
       -1   -1    0    0    0  501  0.00000000000E+00  0.00000000000E+00 -0.21693751473E+04  0.21693751473E+04  0.50400001928E-02 0.  1.
    10030    2    1    2    0    0  0.00000000000E+00  0.00000000000E+00 -0.31473190458E+03  0.40240183901E+04  0.40116913930E+04 0.  0.
        2    1    3    3  502    0 -0.16528897439E+04  0.10124150879E+04  0.36034801862E+03  0.19715170580E+04  0.25500000920E-02 0. -1.
       -2    1    3    3    0  502  0.16528897439E+04 -0.10124150879E+04 -0.67507992320E+03  0.20525013321E+04  0.25500000920E-02 0.  1.
</event>
<event>
 5   0  0.2704088E-07  0.3796528E+04  0.7818609E-02  0.8046900E-01
        2   -1    0    0  501    0  0.00000000000E+00  0.00000000000E+00  0.14052375427E+04  0.14052375427E+04  0.25500000920E-02 0.  1.
       -2   -1    0    0    0  501  0.00000000000E+00  0.00000000000E+00 -0.25642683698E+04  0.25642683698E+04  0.25500000920E-02 0. -1.
    10030    2    1    2    0    0  0.00000000000E+00  0.00000000000E+00 -0.11590308271E+04  0.39695059126E+04  0.37965279838E+04 0.  0.
        5    1    3    3  502    0 -0.44702400278E+03  0.17890821593E+04 -0.10502955546E+04  0.21222130605E+04  0.46999998093E+01 0. -1.
       -5    1    3    3    0  502  0.44702400278E+03 -0.17890821593E+04 -0.10873527243E+03  0.18472928521E+04  0.46999998093E+01 0.  1.
</event>
<event>
 5   0  0.2704088E-07  0.4033019E+04  0.7818609E-02  0.7997919E-01
        2   -1    0    0  501    0  0.00000000000E+00  0.00000000000E+00  0.26659337770E+04  0.26659337770E+04  0.25500000920E-02 0. -1.
       -2   -1    0    0    0  501  0.00000000000E+00  0.00000000000E+00 -0.15252853023E+04  0.15252853023E+04  0.25500000920E-02 0.  1.
    10030    2    1    2    0    0  0.00000000000E+00  0.00000000000E+00  0.11406484747E+04  0.41912190793E+04  0.40330185256E+04 0.  0.
        5    1    3    3  502    0 -0.13139893358E+04  0.13029609528E+04 -0.26236282905E+03  0.18689921249E+04  0.46999998093E+01 0.  1.
       -5    1    3    3    0  502  0.13139893358E+04 -0.13029609528E+04  0.14030113037E+04  0.23222269543E+04  0.46999998093E+01 0. -1.
</event>
<event>
 5   0  0.2839279E-07  0.3436914E+04  0.7818609E-02  0.8128905E-01
       -2   -1    0    0    0  501  0.00000000000E+00  0.00000000000E+00  0.19177807853E+04  0.19177807853E+04  0.25500000920E-02 0.  1.
        2   -1    0    0  501    0  0.00000000000E+00  0.00000000000E+00 -0.15398497448E+04  0.15398497448E+04  0.25500000920E-02 0. -1.
    10030    2    1    2    0    0  0.00000000000E+00  0.00000000000E+00  0.37793104045E+03  0.34576305301E+04  0.34369138790E+04 0.  0.
        3    1    3    3  502    0 -0.60432918602E+03 -0.15263494231E+04  0.70010077212E+03  0.17846841255E+04  0.10100000352E+00 0.  1.
       -3    1    3    3    0  502  0.60432918602E+03  0.15263494231E+04 -0.32216973166E+03  0.16729464046E+04  0.10100000352E+00 0. -1.
</event>
<event>
 5   0  0.2704088E-07  0.4117357E+04  0.7818609E-02  0.7981281E-01
        2   -1    0    0  501    0  0.00000000000E+00  0.00000000000E+00  0.23501251321E+04  0.23501251321E+04  0.25500000920E-02 0.  1.
       -2   -1    0    0    0  501  0.00000000000E+00  0.00000000000E+00 -0.18033754009E+04  0.18033754009E+04  0.25500000920E-02 0. -1.
    10030    2    1    2    0    0  0.00000000000E+00  0.00000000000E+00  0.54674973121E+03  0.41535005331E+04  0.41173573332E+04 0.  0.
        5    1    3    3  502    0 -0.43930013589E+03  0.39083123385E+03  0.22636107841E+04  0.23387367391E+04  0.46999998093E+01 0.  1.
       -5    1    3    3    0  502  0.43930013589E+03 -0.39083123385E+03 -0.17168610529E+04  0.18147637939E+04  0.46999998093E+01 0. -1.
</event>
<event>
 5   0  0.2730801E-07  0.4000081E+04  0.7818609E-02  0.8004530E-01
       -2   -1    0    0    0  501  0.00000000000E+00  0.00000000000E+00  0.21692071834E+04  0.21692071834E+04  0.25500000920E-02 0. -1.
        2   -1    0    0  501    0  0.00000000000E+00  0.00000000000E+00 -0.18440659428E+04  0.18440659428E+04  0.25500000920E-02 0.  1.
    10030    2    1    2    0    0  0.00000000000E+00  0.00000000000E+00  0.32514124064E+03  0.40132731263E+04  0.40000805441E+04 0.  0.
        2    1    3    3  502    0 -0.11545034442E+04 -0.10516332049E+02  0.18011048422E+04  0.21393848294E+04  0.25500000920E-02 0. -1.
       -2    1    3    3    0  502  0.11545034442E+04  0.10516332049E+02 -0.14759636015E+04  0.18738882968E+04  0.25500000920E-02 0.  1.
</event>
<event>
 5   0  0.2704088E-07  0.4040823E+04  0.7818609E-02  0.7996362E-01
       -2   -1    0    0    0  501  0.00000000000E+00  0.00000000000E+00  0.22953680342E+04  0.22953680342E+04  0.25500000920E-02 0. -1.
        2   -1    0    0  501    0  0.00000000000E+00  0.00000000000E+00 -0.17783911713E+04  0.17783911713E+04  0.25500000920E-02 0.  1.
    10030    2    1    2    0    0  0.00000000000E+00  0.00000000000E+00  0.51697686287E+03  0.40737592054E+04  0.40408228107E+04 0.  0.
        5    1    3    3  502    0  0.19872968577E+04  0.24409615790E+03  0.53107801265E+03  0.20714723460E+04  0.46999998093E+01 0. -1.
       -5    1    3    3    0  502 -0.19872968577E+04 -0.24409615790E+03 -0.14101149777E+02  0.20022868594E+04  0.46999998093E+01 0.  1.
</event>
<event>
 5   0  0.2730801E-07  0.3512993E+04  0.7818609E-02  0.8110718E-01
        2   -1    0    0  501    0  0.00000000000E+00  0.00000000000E+00  0.26780315699E+04  0.26780315699E+04  0.25500000920E-02 0. -1.
       -2   -1    0    0    0  501  0.00000000000E+00  0.00000000000E+00 -0.11520703688E+04  0.11520703688E+04  0.25500000920E-02 0.  1.
    10030    2    1    2    0    0  0.00000000000E+00  0.00000000000E+00  0.15259612011E+04  0.38301019388E+04  0.35129934919E+04 0.  0.
        2    1    3    3  502    0  0.31470542626E+02 -0.82378605974E+03  0.24540083669E+04  0.25887778839E+04  0.25500000920E-02 0. -1.
       -2    1    3    3    0  502 -0.31470542626E+02  0.82378605974E+03 -0.92804716580E+03  0.12413240549E+04  0.25500000920E-02 0.  1.
</event>
<event>
 5   0  0.2666978E-07  0.3542421E+04  0.7818609E-02  0.8103810E-01
        2   -1    0    0  501    0  0.00000000000E+00  0.00000000000E+00  0.16867447984E+04  0.16867447984E+04  0.25500000920E-02 0.  1.
       -2   -1    0    0    0  501  0.00000000000E+00  0.00000000000E+00 -0.18599060222E+04  0.18599060222E+04  0.25500000920E-02 0. -1.
    10030    2    1    2    0    0  0.00000000000E+00  0.00000000000E+00 -0.17316122386E+03  0.35466508206E+04  0.35424210978E+04 0.  0.
        4    1    3    3  502    0 -0.15473714738E+04  0.48921629238E+03  0.62383984044E+03  0.17386399334E+04  0.12699999809E+01 0.  1.
       -4    1    3    3    0  502  0.15473714738E+04 -0.48921629238E+03 -0.79700106430E+03  0.18080108872E+04  0.12699999809E+01 0. -1.
</event>
<event>
 5   0  0.2661693E-07  0.4025718E+04  0.7818609E-02  0.7999378E-01
        2   -1    0    0  501    0  0.00000000000E+00  0.00000000000E+00  0.28824106441E+04  0.28824106441E+04  0.25500000920E-02 0. -1.
       -2   -1    0    0    0  501  0.00000000000E+00  0.00000000000E+00 -0.14056292832E+04  0.14056292833E+04  0.25500000920E-02 0.  1.
    10030    2    1    2    0    0  0.00000000000E+00  0.00000000000E+00  0.14767813609E+04  0.42880399274E+04  0.40257177287E+04 0.  0.
        1    1    3    3  502    0 -0.12849643916E+04 -0.14428718705E+04  0.13717504642E+03  0.19369640460E+04  0.50400001928E-02 0.  1.
       -1    1    3    3    0  502  0.12849643916E+04  0.14428718705E+04  0.13396063145E+04  0.23510758814E+04  0.50400001928E-02 0. -1.
</event>
<event>
 5   0  0.8583262E-08  0.4452163E+04  0.7818609E-02  0.7919066E-01
        1   -1    0    0  501    0  0.00000000000E+00  0.00000000000E+00  0.21383910990E+04  0.21383910990E+04  0.50400001928E-02 0. -1.
       -1   -1    0    0    0  501  0.00000000000E+00  0.00000000000E+00 -0.23173675877E+04  0.23173675877E+04  0.50400001928E-02 0.  1.
    10030    2    1    2    0    0  0.00000000000E+00  0.00000000000E+00 -0.17897648873E+03  0.44557586867E+04  0.44521627206E+04 0.  0.
        1    1    3    3  502    0 -0.13843805028E+04 -0.67062600079E+03 -0.16998837939E+04  0.22925648349E+04  0.50400001928E-02 0.  1.
       -1    1    3    3    0  502  0.13843805028E+04  0.67062600079E+03  0.15209073052E+04  0.21631938518E+04  0.50400001928E-02 0. -1.
</event>
<event>
 5   0  0.8528625E-08  0.4004516E+04  0.7818609E-02  0.8003636E-01
        1   -1    0    0  501    0  0.00000000000E+00  0.00000000000E+00  0.21006186788E+04  0.21006186788E+04  0.50400001928E-02 0. -1.
       -1   -1    0    0    0  501  0.00000000000E+00  0.00000000000E+00 -0.19085026123E+04  0.19085026123E+04  0.50400001928E-02 0.  1.
    10030    2    1    2    0    0  0.00000000000E+00  0.00000000000E+00  0.19211606648E+03  0.40091212912E+04  0.40045155692E+04 0.  0.
        5    1    3    3  502    0  0.15501664060E+04  0.10181208815E+04 -0.65941448034E+03  0.19683585960E+04  0.46999998093E+01 0.  1.
       -5    1    3    3    0  502 -0.15501664060E+04 -0.10181208815E+04  0.85153054683E+03  0.20407626951E+04  0.46999998093E+01 0. -1.
</event>
<event>
 5   0  0.8528625E-08  0.3780922E+04  0.7818609E-02  0.8050261E-01
        1   -1    0    0  501    0  0.00000000000E+00  0.00000000000E+00  0.32384956493E+04  0.32384956493E+04  0.50400001928E-02 0.  1.
       -1   -1    0    0    0  501  0.00000000000E+00  0.00000000000E+00 -0.11035503195E+04  0.11035503195E+04  0.50400001928E-02 0. -1.
    10030    2    1    2    0    0  0.00000000000E+00  0.00000000000E+00  0.21349453297E+04  0.43420459688E+04  0.37809220614E+04 0.  0.
        2    1    3    3  502    0  0.13487294669E+04 -0.11229828385E+04  0.26057209770E+03  0.17742771623E+04  0.25500000920E-02 0. -1.
       -2    1    3    3    0  502 -0.13487294669E+04  0.11229828385E+04  0.18743732320E+04  0.25677688065E+04  0.25500000920E-02 0.  1.
</event>
<event>
 5   0  0.8528625E-08  0.4003777E+04  0.7818609E-02  0.8003785E-01
        3   -1    0    0  501    0  0.00000000000E+00  0.00000000000E+00  0.23738297399E+04  0.23738297420E+04  0.10100000352E+00 0.  1.
       -3   -1    0    0    0  501  0.00000000000E+00  0.00000000000E+00 -0.16882241336E+04  0.16882241366E+04  0.10100000352E+00 0. -1.
    10030    2    1    2    0    0  0.00000000000E+00  0.00000000000E+00  0.68560560624E+03  0.40620538786E+04  0.40037765504E+04 0.  0.
        4    1    3    3  502    0 -0.10619824353E+04  0.33884156983E+03  0.20298152676E+04  0.23157659502E+04  0.12699999809E+01 0.  1.
       -4    1    3    3    0  502  0.10619824353E+04 -0.33884156983E+03 -0.13442096614E+04  0.17462879285E+04  0.12699999809E+01 0. -1.
</event>
<event>
 5   0  0.2661693E-07  0.3342616E+04  0.7818609E-02  0.8152136E-01
       -2   -1    0    0    0  501  0.00000000000E+00  0.00000000000E+00  0.14890799856E+04  0.14890799856E+04  0.25500000920E-02 0.  1.
        2   -1    0    0  501    0  0.00000000000E+00  0.00000000000E+00 -0.18758361408E+04  0.18758361408E+04  0.25500000920E-02 0. -1.
    10030    2    1    2    0    0  0.00000000000E+00  0.00000000000E+00 -0.38675615522E+03  0.33649161265E+04  0.33426157743E+04 0.  0.
        1    1    3    3  502    0 -0.14547508781E+04 -0.74920175301E+03  0.14898892514E+03  0.16431071431E+04  0.50400001928E-02 0.  1.
       -1    1    3    3    0  502  0.14547508781E+04  0.74920175301E+03 -0.53574508036E+03  0.17218089833E+04  0.50400001928E-02 0. -1.
</event>
<event>
 5   0  0.2666978E-07  0.4036376E+04  0.7818609E-02  0.7997248E-01
       -2   -1    0    0    0  501  0.00000000000E+00  0.00000000000E+00  0.19246667086E+04  0.19246667086E+04  0.25500000920E-02 0.  1.
        2   -1    0    0  501    0  0.00000000000E+00  0.00000000000E+00 -0.21162536159E+04  0.21162536159E+04  0.25500000920E-02 0. -1.
    10030    2    1    2    0    0  0.00000000000E+00  0.00000000000E+00 -0.19158690724E+03  0.40409203245E+04  0.40363760387E+04 0.  0.
        4    1    3    3  502    0 -0.11727382667E+04 -0.15733317149E+04  0.37632367095E+03  0.19980762862E+04  0.12699999809E+01 0.  1.
       -4    1    3    3    0  502  0.11727382667E+04  0.15733317149E+04 -0.56791057819E+03  0.20428440383E+04  0.12699999809E+01 0. -1.
</event>
<event>
 5   0  0.8528625E-08  0.3978617E+04  0.7818609E-02  0.8008874E-01
       -1   -1    0    0    0  501  0.00000000000E+00  0.00000000000E+00  0.17638242928E+04  0.17638242928E+04  0.50400001928E-02 0. -1.
        1   -1    0    0  501    0  0.00000000000E+00  0.00000000000E+00 -0.22436181659E+04  0.22436181659E+04  0.50400001928E-02 0.  1.
    10030    2    1    2    0    0  0.00000000000E+00  0.00000000000E+00 -0.47979387312E+03  0.40074424587E+04  0.39786169581E+04 0.  0.
        4    1    3    3  502    0 -0.10637729074E+04 -0.26010682448E+03 -0.19126755131E+04  0.22039958235E+04  0.12699999809E+01 0.  1.
       -4    1    3    3    0  502  0.10637729074E+04  0.26010682448E+03  0.14328816400E+04  0.18034466352E+04  0.12699999809E+01 0. -1.
</event>
<event>
 5   0  0.8528625E-08  0.4039734E+04  0.7818609E-02  0.7996578E-01
       -1   -1    0    0    0  501  0.00000000000E+00  0.00000000000E+00  0.14343760435E+04  0.14343760435E+04  0.50400001928E-02 0.  1.
        1   -1    0    0  501    0  0.00000000000E+00  0.00000000000E+00 -0.28443472604E+04  0.28443472604E+04  0.50400001928E-02 0. -1.
    10030    2    1    2    0    0  0.00000000000E+00  0.00000000000E+00 -0.14099712169E+04  0.42787233039E+04  0.40397344317E+04 0.  0.
        2    1    3    3  502    0 -0.55964563443E+03 -0.17889567751E+04 -0.15020297297E+04  0.24020122582E+04  0.25500000920E-02 0.  1.
       -2    1    3    3    0  502  0.55964563443E+03  0.17889567751E+04  0.92058512800E+02  0.18767110457E+04  0.25500000920E-02 0. -1.
</event>
<event>
 5   0  0.8528625E-08  0.4087864E+04  0.7818609E-02  0.7987053E-01
        1   -1    0    0  501    0  0.00000000000E+00  0.00000000000E+00  0.28277152169E+04  0.28277152169E+04  0.50400001928E-02 0.  1.
       -1   -1    0    0    0  501  0.00000000000E+00  0.00000000000E+00 -0.14773966859E+04  0.14773966859E+04  0.50400001928E-02 0. -1.
    10030    2    1    2    0    0  0.00000000000E+00  0.00000000000E+00  0.13503185310E+04  0.43051119029E+04  0.40878635448E+04 0.  0.
        2    1    3    3  502    0 -0.98800733077E+03 -0.33428896851E+03  0.25263436953E+04  0.27331886263E+04  0.25500000920E-02 0.  1.
       -2    1    3    3    0  502  0.98800733077E+03  0.33428896851E+03 -0.11760251643E+04  0.15719232765E+04  0.25500000920E-02 0. -1.
</event>
<event>
 5   0  0.2730801E-07  0.3322399E+04  0.7818609E-02  0.8157219E-01
        2   -1    0    0  501    0  0.00000000000E+00  0.00000000000E+00  0.78196376625E+03  0.78196376625E+03  0.25500000920E-02 0.  1.
       -2   -1    0    0    0  501  0.00000000000E+00  0.00000000000E+00 -0.35290422191E+04  0.35290422191E+04  0.25500000920E-02 0. -1.
    10030    2    1    2    0    0  0.00000000000E+00  0.00000000000E+00 -0.27470784529E+04  0.43110059854E+04  0.33223986184E+04 0.  0.
        2    1    3    3  502    0  0.12429845280E+04  0.97500950784E+03 -0.70693125896E+03  0.17307240918E+04  0.25500000920E-02 0.  1.
       -2    1    3    3    0  502 -0.12429845280E+04 -0.97500950784E+03 -0.20401471939E+04  0.25802818935E+04  0.25500000920E-02 0. -1.
</event>
<event>
 5   0  0.8583262E-08  0.4006539E+04  0.7818609E-02  0.8003229E-01
       -1   -1    0    0    0  501  0.00000000000E+00  0.00000000000E+00  0.20169427389E+04  0.20169427389E+04  0.50400001928E-02 0. -1.
        1   -1    0    0  501    0  0.00000000000E+00  0.00000000000E+00 -0.19896888280E+04  0.19896888280E+04  0.50400001928E-02 0.  1.
    10030    2    1    2    0    0  0.00000000000E+00  0.00000000000E+00  0.27253910895E+02  0.40066315669E+04  0.40065388725E+04 0.  0.
        1    1    3    3  502    0 -0.18914594218E+04 -0.30670571711E+03  0.59793602632E+03  0.20072903708E+04  0.50400001928E-02 0. -1.
       -1    1    3    3    0  502  0.18914594218E+04  0.30670571711E+03 -0.57068211543E+03  0.19993411960E+04  0.50400001928E-02 0.  1.
</event>
<event>
 5   0  0.8528625E-08  0.4006321E+04  0.7818609E-02  0.8003273E-01
        1   -1    0    0  501    0  0.00000000000E+00  0.00000000000E+00  0.24100525197E+04  0.24100525197E+04  0.50400001928E-02 0.  1.
       -1   -1    0    0    0  501  0.00000000000E+00  0.00000000000E+00 -0.16649647498E+04  0.16649647498E+04  0.50400001928E-02 0. -1.
    10030    2    1    2    0    0  0.00000000000E+00  0.00000000000E+00  0.74508776996E+03  0.40750172695E+04  0.40063212505E+04 0.  0.
        4    1    3    3  502    0 -0.15192987311E+04 -0.12965024887E+04  0.21673922240E+03  0.20090208663E+04  0.12699999809E+01 0.  1.
       -4    1    3    3    0  502  0.15192987311E+04  0.12965024887E+04  0.52834854756E+03  0.20659964033E+04  0.12699999809E+01 0. -1.
</event>
<event>
 5   0  0.8528625E-08  0.4099174E+04  0.7818609E-02  0.7984833E-01
        1   -1    0    0  501    0  0.00000000000E+00  0.00000000000E+00  0.23576634454E+04  0.23576634454E+04  0.50400001928E-02 0.  1.
       -1   -1    0    0    0  501  0.00000000000E+00  0.00000000000E+00 -0.17817670935E+04  0.17817670935E+04  0.50400001928E-02 0. -1.
    10030    2    1    2    0    0  0.00000000000E+00  0.00000000000E+00  0.57589635193E+03  0.41394305389E+04  0.40991741337E+04 0.  0.
        3    1    3    3  502    0 -0.18001778613E+04 -0.44207387043E+03 -0.59513258622E+03  0.19468570684E+04  0.10100000352E+00 0. -1.
       -3    1    3    3    0  502  0.18001778613E+04  0.44207387043E+03  0.11710289382E+04  0.21925734705E+04  0.10100000352E+00 0.  1.
</event>
<event>
 5   0  0.8528625E-08  0.3866943E+04  0.7818609E-02  0.8031940E-01
        1   -1    0    0  501    0  0.00000000000E+00  0.00000000000E+00  0.12979704353E+04  0.12979704353E+04  0.50400001928E-02 0.  1.
       -1   -1    0    0    0  501  0.00000000000E+00  0.00000000000E+00 -0.28801215955E+04  0.28801215955E+04  0.50400001928E-02 0. -1.
    10030    2    1    2    0    0  0.00000000000E+00  0.00000000000E+00 -0.15821511603E+04  0.41780920308E+04  0.38669433308E+04 0.  0.
        4    1    3    3  502    0  0.15816451915E+04 -0.50440681759E+03 -0.18619254265E+04  0.24945531977E+04  0.12699999809E+01 0. -1.
       -4    1    3    3    0  502 -0.15816451915E+04  0.50440681759E+03  0.27977426626E+03  0.16835388331E+04  0.12699999809E+01 0.  1.
</event>
<event>
 5   0  0.2666978E-07  0.3956192E+04  0.7818609E-02  0.8013443E-01
        2   -1    0    0  501    0  0.00000000000E+00  0.00000000000E+00  0.21908691014E+04  0.21908691014E+04  0.25500000920E-02 0.  1.
       -2   -1    0    0    0  501  0.00000000000E+00  0.00000000000E+00 -0.17859871386E+04  0.17859871386E+04  0.25500000920E-02 0. -1.
    10030    2    1    2    0    0  0.00000000000E+00  0.00000000000E+00  0.40488196281E+03  0.39768562400E+04  0.39561921275E+04 0.  0.
        4    1    3    3  502    0  0.51324405358E+03  0.37769104903E+03  0.20848654014E+04  0.21800769119E+04  0.12699999809E+01 0.  1.
       -4    1    3    3    0  502 -0.51324405358E+03 -0.37769104903E+03 -0.16799834386E+04  0.17967793281E+04  0.12699999809E+01 0. -1.
</event>
<event>
 5   0  0.2730801E-07  0.3839658E+04  0.7818609E-02  0.8037698E-01
        2   -1    0    0  501    0  0.00000000000E+00  0.00000000000E+00  0.22748234040E+04  0.22748234040E+04  0.25500000920E-02 0. -1.
       -2   -1    0    0    0  501  0.00000000000E+00  0.00000000000E+00 -0.16202326249E+04  0.16202326249E+04  0.25500000920E-02 0.  1.
    10030    2    1    2    0    0  0.00000000000E+00  0.00000000000E+00  0.65459077913E+03  0.38950560289E+04  0.38396578467E+04 0.  0.
        2    1    3    3  502    0  0.14129897823E+04  0.91565694195E+03  0.12629781515E+04  0.21047758958E+04  0.25500000920E-02 0. -1.
       -2    1    3    3    0  502 -0.14129897823E+04 -0.91565694195E+03 -0.60838737239E+03  0.17902801331E+04  0.25500000920E-02 0.  1.
</event>
<event>
 5   0  0.2704088E-07  0.2869754E+04  0.7818609E-02  0.8281934E-01
       -2   -1    0    0    0  501  0.00000000000E+00  0.00000000000E+00  0.11066072898E+04  0.11066072898E+04  0.25500000920E-02 0. -1.
        2   -1    0    0  501    0  0.00000000000E+00  0.00000000000E+00 -0.18605257319E+04  0.18605257319E+04  0.25500000920E-02 0.  1.
    10030    2    1    2    0    0  0.00000000000E+00  0.00000000000E+00 -0.75391844208E+03  0.29671330217E+04  0.28697535349E+04 0.  0.
        5    1    3    3  502    0  0.11770005803E+04 -0.53169957392E+03  0.26940561403E+03  0.13193317543E+04  0.46999998093E+01 0.  1.
       -5    1    3    3    0  502 -0.11770005803E+04  0.53169957392E+03 -0.10233240561E+04  0.16478012674E+04  0.46999998093E+01 0. -1.
</event>
<event>
 5   0  0.2839279E-07  0.3928655E+04  0.7818609E-02  0.8019096E-01
        2   -1    0    0  501    0  0.00000000000E+00  0.00000000000E+00  0.32829334825E+04  0.32829334825E+04  0.25500000920E-02 0. -1.
       -2   -1    0    0    0  501  0.00000000000E+00  0.00000000000E+00 -0.11753460721E+04  0.11753460721E+04  0.25500000920E-02 0.  1.
    10030    2    1    2    0    0  0.00000000000E+00  0.00000000000E+00  0.21075874104E+04  0.44582795546E+04  0.39286552272E+04 0.  0.
        3    1    3    3  502    0 -0.18328778744E+04  0.66289802509E+02  0.25558748787E+03  0.18517992911E+04  0.10100000352E+00 0.  1.
       -3    1    3    3    0  502  0.18328778744E+04 -0.66289802509E+02  0.18519999226E+04  0.26064802635E+04  0.10100000352E+00 0. -1.
</event>
<event>
 5   0  0.2661693E-07  0.3913834E+04  0.7818609E-02  0.8022158E-01
        2   -1    0    0  501    0  0.00000000000E+00  0.00000000000E+00  0.22431311784E+04  0.22431311784E+04  0.25500000920E-02 0.  1.
       -2   -1    0    0    0  501  0.00000000000E+00  0.00000000000E+00 -0.17072228014E+04  0.17072228014E+04  0.25500000920E-02 0. -1.
    10030    2    1    2    0    0  0.00000000000E+00  0.00000000000E+00  0.53590837692E+03  0.39503539798E+04  0.39138342808E+04 0.  0.
        1    1    3    3  502    0 -0.29805444756E+03  0.14694737032E+04  0.15371994771E+04  0.21473638840E+04  0.50400001928E-02 0.  1.
       -1    1    3    3    0  502  0.29805444756E+03 -0.14694737032E+04 -0.10012911002E+04  0.18029900958E+04  0.50400001928E-02 0. -1.
</event>
<event>
 5   0  0.8528625E-08  0.3894437E+04  0.7818609E-02  0.8026187E-01
       -1   -1    0    0    0  501  0.00000000000E+00  0.00000000000E+00  0.23239817755E+04  0.23239817755E+04  0.50400001928E-02 0. -1.
        1   -1    0    0  501    0  0.00000000000E+00  0.00000000000E+00 -0.16315358904E+04  0.16315358904E+04  0.50400001928E-02 0.  1.
    10030    2    1    2    0    0  0.00000000000E+00  0.00000000000E+00  0.69244588508E+03  0.39555176659E+04  0.38944368915E+04 0.  0.
        3    1    3    3  502    0 -0.96304134968E+03 -0.16210023017E+04  0.84022830742E+03  0.20642385332E+04  0.10100000352E+00 0. -1.
       -3    1    3    3    0  502  0.96304134968E+03  0.16210023017E+04 -0.14778242234E+03  0.18912791327E+04  0.10100000352E+00 0.  1.
</event>
<event>
 5   0  0.8528625E-08  0.3908592E+04  0.7818609E-02  0.8023245E-01
        1   -1    0    0  501    0  0.00000000000E+00  0.00000000000E+00  0.21503747492E+04  0.21503747492E+04  0.50400001928E-02 0.  1.
       -1   -1    0    0    0  501  0.00000000000E+00  0.00000000000E+00 -0.17760964913E+04  0.17760964913E+04  0.50400001928E-02 0. -1.
    10030    2    1    2    0    0  0.00000000000E+00  0.00000000000E+00  0.37427825791E+03  0.39264712405E+04  0.39085920980E+04 0.  0.
        3    1    3    3  502    0 -0.12773749706E+04 -0.46773748679E+03  0.15966996870E+04  0.20975974525E+04  0.10100000352E+00 0.  1.
       -3    1    3    3    0  502  0.12773749706E+04  0.46773748679E+03 -0.12224214291E+04  0.18288737880E+04  0.10100000352E+00 0. -1.
</event>
<event>
 5   0  0.2704088E-07  0.3968120E+04  0.7818609E-02  0.8011009E-01
       -2   -1    0    0    0  501  0.00000000000E+00  0.00000000000E+00  0.23207781293E+04  0.23207781293E+04  0.25500000920E-02 0.  1.
        2   -1    0    0  501    0  0.00000000000E+00  0.00000000000E+00 -0.16961959752E+04  0.16961959752E+04  0.25500000920E-02 0. -1.
    10030    2    1    2    0    0  0.00000000000E+00  0.00000000000E+00  0.62458215408E+03  0.40169741044E+04  0.39681202210E+04 0.  0.
        5    1    3    3  502    0  0.13350561696E+04 -0.20565297130E+03 -0.11588050320E+04  0.17797525987E+04  0.46999998093E+01 0. -1.
       -5    1    3    3    0  502 -0.13350561696E+04  0.20565297130E+03  0.17833871860E+04  0.22372215057E+04  0.46999998093E+01 0.  1.
</event>
<event>
 5   0  0.8528625E-08  0.3804355E+04  0.7818609E-02  0.8045221E-01
       -1   -1    0    0    0  501  0.00000000000E+00  0.00000000000E+00  0.15543374487E+04  0.15543374487E+04  0.50400001928E-02 0.  1.
        1   -1    0    0  501    0  0.00000000000E+00  0.00000000000E+00 -0.23278593341E+04  0.23278593341E+04  0.50400001928E-02 0. -1.
    10030    2    1    2    0    0  0.00000000000E+00  0.00000000000E+00 -0.77352188532E+03  0.38821967828E+04  0.38043548406E+04 0.  0.
        4    1    3    3  502    0 -0.13037080960E+04  0.13248961682E+04 -0.79909886082E+03  0.20232561030E+04  0.12699999809E+01 0. -1.
       -4    1    3    3    0  502  0.13037080960E+04 -0.13248961682E+04  0.25576975502E+02  0.18589406798E+04  0.12699999809E+01 0.  1.
</event>
<event>
 5   0  0.2661693E-07  0.3998286E+04  0.7818609E-02  0.8004892E-01
       -2   -1    0    0    0  501  0.00000000000E+00  0.00000000000E+00  0.17851802958E+04  0.17851802958E+04  0.25500000920E-02 0. -1.
        2   -1    0    0  501    0  0.00000000000E+00  0.00000000000E+00 -0.22387503798E+04  0.22387503798E+04  0.25500000920E-02 0.  1.
    10030    2    1    2    0    0  0.00000000000E+00  0.00000000000E+00 -0.45357008399E+03  0.40239306757E+04  0.39982861655E+04 0.  0.
        1    1    3    3  502    0  0.10485870934E+04  0.43553499621E+02  0.14856397059E+04  0.18189439616E+04  0.50400001928E-02 0. -1.
       -1    1    3    3    0  502 -0.10485870934E+04 -0.43553499621E+02 -0.19392097899E+04  0.22049867140E+04  0.50400001928E-02 0.  1.
</event>
<event>
 5   0  0.2839279E-07  0.4074807E+04  0.7818609E-02  0.7989623E-01
       -2   -1    0    0    0  501  0.00000000000E+00  0.00000000000E+00  0.14632788749E+04  0.14632788749E+04  0.25500000920E-02 0.  1.
        2   -1    0    0  501    0  0.00000000000E+00  0.00000000000E+00 -0.28367890327E+04  0.28367890327E+04  0.25500000920E-02 0. -1.
    10030    2    1    2    0    0  0.00000000000E+00  0.00000000000E+00 -0.13735101578E+04  0.43000679077E+04  0.40748072171E+04 0.  0.
        3    1    3    3  502    0  0.14915507139E+04 -0.13569128306E+04 -0.37895013795E+03  0.20517161547E+04  0.10100000352E+00 0.  1.
       -3    1    3    3    0  502 -0.14915507139E+04  0.13569128306E+04 -0.99456001983E+03  0.22483517530E+04  0.10100000352E+00 0. -1.
</event>
<event>
 5   0  0.8528625E-08  0.3968929E+04  0.7818609E-02  0.8010844E-01
       -1   -1    0    0    0  501  0.00000000000E+00  0.00000000000E+00  0.17615220208E+04  0.17615220208E+04  0.50400001928E-02 0.  1.
        1   -1    0    0  501    0  0.00000000000E+00  0.00000000000E+00 -0.22356231653E+04  0.22356231653E+04  0.50400001928E-02 0. -1.
    10030    2    1    2    0    0  0.00000000000E+00  0.00000000000E+00 -0.47410114444E+03  0.39971451861E+04  0.39689290424E+04 0.  0.
        3    1    3    3  502    0 -0.80749667305E+03 -0.11920738499E+04  0.11383113443E+04  0.18354410008E+04  0.10100000352E+00 0.  1.
       -3    1    3    3    0  502  0.80749667305E+03  0.11920738499E+04 -0.16124124887E+04  0.21617041853E+04  0.10100000352E+00 0. -1.
</event>
<event>
 5   0  0.2839279E-07  0.4006860E+04  0.7818609E-02  0.8003164E-01
        2   -1    0    0  501    0  0.00000000000E+00  0.00000000000E+00  0.21844016838E+04  0.21844016838E+04  0.25500000920E-02 0. -1.
       -2   -1    0    0    0  501  0.00000000000E+00  0.00000000000E+00 -0.18374510574E+04  0.18374510574E+04  0.25500000920E-02 0.  1.
    10030    2    1    2    0    0  0.00000000000E+00  0.00000000000E+00  0.34695062638E+03  0.40218527412E+04  0.40068597099E+04 0.  0.
        3    1    3    3  502    0  0.80676544042E+03  0.17500691948E+04  0.72335594084E+03  0.20583625749E+04  0.10100000352E+00 0.  1.
       -3    1    3    3    0  502 -0.80676544042E+03 -0.17500691948E+04 -0.37640531445E+03  0.19634901663E+04  0.10100000352E+00 0. -1.
</event>
<event>
 5   0  0.2661693E-07  0.4022208E+04  0.7818609E-02  0.8000081E-01
       -2   -1    0    0    0  501  0.00000000000E+00  0.00000000000E+00  0.18562754055E+04  0.18562754056E+04  0.25500000920E-02 0. -1.
        2   -1    0    0  501    0  0.00000000000E+00  0.00000000000E+00 -0.21788469959E+04  0.21788469959E+04  0.25500000920E-02 0.  1.
    10030    2    1    2    0    0  0.00000000000E+00  0.00000000000E+00 -0.32257159037E+03  0.40351224015E+04  0.40222083939E+04 0.  0.
        1    1    3    3  502    0  0.16457573902E+04 -0.85946135426E+03  0.61407916993E+03  0.19555777749E+04  0.50400001928E-02 0. -1.
       -1    1    3    3    0  502 -0.16457573902E+04  0.85946135426E+03 -0.93665076030E+03  0.20795446265E+04  0.50400001928E-02 0.  1.
</event>
<event>
 5   0  0.8528625E-08  0.3991223E+04  0.7818609E-02  0.8006320E-01
       -1   -1    0    0    0  501  0.00000000000E+00  0.00000000000E+00  0.19524760932E+04  0.19524760932E+04  0.50400001928E-02 0. -1.
        1   -1    0    0  501    0  0.00000000000E+00  0.00000000000E+00 -0.20396997849E+04  0.20396997849E+04  0.50400001928E-02 0.  1.
    10030    2    1    2    0    0  0.00000000000E+00  0.00000000000E+00 -0.87223691762E+02  0.39921758781E+04  0.39912229040E+04 0.  0.
        2    1    3    3  502    0  0.67266267171E+03 -0.78195353310E+03 -0.17523928558E+04  0.20334225136E+04  0.25500000920E-02 0.  1.
       -2    1    3    3    0  502 -0.67266267171E+03  0.78195353310E+03  0.16651691641E+04  0.19587533645E+04  0.25500000920E-02 0. -1.
</event>
<event>
 5   0  0.2666978E-07  0.3964032E+04  0.7818609E-02  0.8011842E-01
        2   -1    0    0  501    0  0.00000000000E+00  0.00000000000E+00  0.14781459474E+04  0.14781459474E+04  0.25500000920E-02 0. -1.
       -2   -1    0    0    0  501  0.00000000000E+00  0.00000000000E+00 -0.26576449933E+04  0.26576449933E+04  0.25500000920E-02 0.  1.
    10030    2    1    2    0    0  0.00000000000E+00  0.00000000000E+00 -0.11794990459E+04  0.41357909408E+04  0.39640318750E+04 0.  0.
        4    1    3    3  502    0  0.16439863507E+04  0.61647115612E+03  0.36969254719E+03  0.17942692106E+04  0.12699999809E+01 0. -1.
       -4    1    3    3    0  502 -0.16439863507E+04 -0.61647115612E+03 -0.15491915931E+04  0.23415217302E+04  0.12699999809E+01 0.  1.
</event>
<event>
 5   0  0.2730801E-07  0.3991309E+04  0.7818609E-02  0.8006302E-01
       -2   -1    0    0    0  501  0.00000000000E+00  0.00000000000E+00  0.13322186410E+04  0.13322186410E+04  0.25500000920E-02 0. -1.
        2   -1    0    0  501    0  0.00000000000E+00  0.00000000000E+00 -0.29894766608E+04  0.29894766608E+04  0.25500000920E-02 0.  1.
    10030    2    1    2    0    0  0.00000000000E+00  0.00000000000E+00 -0.16572580198E+04  0.43216953018E+04  0.39913088252E+04 0.  0.
        2    1    3    3  502    0  0.45059430542E+03  0.16593183447E+04  0.26827429693E+03  0.17402136924E+04  0.25500000920E-02 0. -1.
       -2    1    3    3    0  502 -0.45059430542E+03 -0.16593183447E+04 -0.19255323167E+04  0.25814816094E+04  0.25500000920E-02 0.  1.
</event>
<event>
 5   0  0.8528625E-08  0.3970943E+04  0.7818609E-02  0.8010434E-01
        1   -1    0    0  501    0  0.00000000000E+00  0.00000000000E+00  0.22087212258E+04  0.22087212258E+04  0.50400001928E-02 0.  1.
       -1   -1    0    0    0  501  0.00000000000E+00  0.00000000000E+00 -0.17847867304E+04  0.17847867305E+04  0.50400001928E-02 0. -1.
    10030    2    1    2    0    0  0.00000000000E+00  0.00000000000E+00  0.42393449535E+03  0.39935079563E+04  0.39709426262E+04 0.  0.
        3    1    3    3  502    0 -0.10110149955E+04 -0.62486597018E+03 -0.13875068542E+04  0.18269603396E+04  0.10100000352E+00 0. -1.
       -3    1    3    3    0  502  0.10110149955E+04  0.62486597018E+03  0.18114413496E+04  0.21665476166E+04  0.10100000352E+00 0.  1.
</event>
<event>
 5   0  0.8528625E-08  0.3807471E+04  0.7818609E-02  0.8044554E-01
        1   -1    0    0  501    0  0.00000000000E+00  0.00000000000E+00  0.14809803316E+04  0.14809803317E+04  0.50400001928E-02 0. -1.
       -1   -1    0    0    0  501  0.00000000000E+00  0.00000000000E+00 -0.24471687242E+04  0.24471687242E+04  0.50400001928E-02 0.  1.
    10030    2    1    2    0    0  0.00000000000E+00  0.00000000000E+00 -0.96618839251E+03  0.39281490558E+04  0.38074709447E+04 0.  0.
        4    1    3    3  502    0 -0.14752689812E+04 -0.11437753756E+04 -0.86852098035E+03  0.20588761456E+04  0.12699999809E+01 0.  1.
       -4    1    3    3    0  502  0.14752689812E+04  0.11437753756E+04 -0.97667412156E+02  0.18692729102E+04  0.12699999809E+01 0. -1.
</event>
<event>
 5   0  0.8528625E-08  0.4055217E+04  0.7818609E-02  0.7993499E-01
       -1   -1    0    0    0  501  0.00000000000E+00  0.00000000000E+00  0.15247070469E+04  0.15247070469E+04  0.50400001928E-02 0. -1.
        1   -1    0    0  501    0  0.00000000000E+00  0.00000000000E+00 -0.26963842258E+04  0.26963842258E+04  0.50400001928E-02 0.  1.
    10030    2    1    2    0    0  0.00000000000E+00  0.00000000000E+00 -0.11716771789E+04  0.42210912727E+04  0.40552169018E+04 0.  0.
        5    1    3    3  502    0  0.16256597058E+04 -0.11979166874E+04 -0.77607092937E+03  0.21633497282E+04  0.46999998093E+01 0. -1.
       -5    1    3    3    0  502 -0.16256597058E+04  0.11979166874E+04 -0.39560624953E+03  0.20577415445E+04  0.46999998093E+01 0.  1.
</event>
<event>
 5   0  0.8528625E-08  0.3994069E+04  0.7818609E-02  0.8005744E-01
        1   -1    0    0  501    0  0.00000000000E+00  0.00000000000E+00  0.19561434628E+04  0.19561434628E+04  0.50400001928E-02 0.  1.
       -1   -1    0    0    0  501  0.00000000000E+00  0.00000000000E+00 -0.20387803254E+04  0.20387803254E+04  0.50400001928E-02 0. -1.
    10030    2    1    2    0    0  0.00000000000E+00  0.00000000000E+00 -0.82636862645E+02  0.39949237882E+04  0.39940690057E+04 0.  0.
        4    1    3    3  502    0  0.17402145425E+04  0.75037837391E+02 -0.10183426449E+04  0.20176720959E+04  0.12699999809E+01 0. -1.
       -4    1    3    3    0  502 -0.17402145425E+04 -0.75037837391E+02  0.93570578228E+03  0.19772516924E+04  0.12699999809E+01 0.  1.
</event>
<event>
 5   0  0.8583262E-08  0.4101195E+04  0.7818609E-02  0.7984438E-01
       -1   -1    0    0    0  501  0.00000000000E+00  0.00000000000E+00  0.26455865073E+04  0.26455865073E+04  0.50400001928E-02 0. -1.
        1   -1    0    0  501    0  0.00000000000E+00  0.00000000000E+00 -0.15894206868E+04  0.15894206868E+04  0.50400001928E-02 0.  1.
    10030    2    1    2    0    0  0.00000000000E+00  0.00000000000E+00  0.10561658206E+04  0.42350071941E+04  0.41011949105E+04 0.  0.
        1    1    3    3  502    0  0.15129393087E+04 -0.11391656266E+04 -0.28387125022E+03  0.19150108520E+04  0.50400001928E-02 0.  1.
       -1    1    3    3    0  502 -0.15129393087E+04  0.11391656266E+04  0.13400370708E+04  0.23199963421E+04  0.50400001928E-02 0. -1.
</event>
<event>
 5   0  0.2704088E-07  0.3064570E+04  0.7818609E-02  0.8225529E-01
        2   -1    0    0  501    0  0.00000000000E+00  0.00000000000E+00  0.19093181466E+04  0.19093181466E+04  0.25500000920E-02 0. -1.
       -2   -1    0    0    0  501  0.00000000000E+00  0.00000000000E+00 -0.12297047033E+04  0.12297047033E+04  0.25500000920E-02 0.  1.
    10030    2    1    2    0    0  0.00000000000E+00  0.00000000000E+00  0.67961344330E+03  0.31390228499E+04  0.30645701199E+04 0.  0.
        5    1    3    3  502    0 -0.14446244749E+04  0.41053655435E+03  0.28456051541E+02  0.15021025174E+04  0.46999998093E+01 0.  1.
       -5    1    3    3    0  502  0.14446244749E+04 -0.41053655435E+03  0.65115739176E+03  0.16369203325E+04  0.46999998093E+01 0. -1.
</event>
<event>
 5   0  0.8528625E-08  0.4051494E+04  0.7818609E-02  0.7994238E-01
       -1   -1    0    0    0  501  0.00000000000E+00  0.00000000000E+00  0.16248245306E+04  0.16248245306E+04  0.50400001928E-02 0. -1.
        1   -1    0    0  501    0  0.00000000000E+00  0.00000000000E+00 -0.25255968964E+04  0.25255968965E+04  0.50400001928E-02 0.  1.
    10030    2    1    2    0    0  0.00000000000E+00  0.00000000000E+00 -0.90077236586E+03  0.41504214270E+04  0.40514944363E+04 0.  0.
        4    1    3    3  502    0 -0.17202533956E+03 -0.29262527481E+03  0.15954828229E+04  0.16311926067E+04  0.12699999809E+01 0. -1.
       -4    1    3    3    0  502  0.17202533956E+03  0.29262527481E+03 -0.24962551888E+04  0.25192288204E+04  0.12699999809E+01 0.  1.
</event>
<event>
 5   0  0.8528625E-08  0.3784897E+04  0.7818609E-02  0.8049404E-01
        4   -1    0    0  501    0  0.00000000000E+00  0.00000000000E+00  0.19393660772E+04  0.19393664930E+04  0.12699999809E+01 0.  1.
       -4   -1    0    0    0  501  0.00000000000E+00  0.00000000000E+00 -0.18466649508E+04  0.18466653875E+04  0.12699999809E+01 0. -1.
    10030    2    1    2    0    0  0.00000000000E+00  0.00000000000E+00  0.92701126383E+02  0.37860318806E+04  0.37848968152E+04 0.  0.
        3    1    3    3  502    0 -0.44332087462E+03  0.12449476414E+04 -0.13086526364E+04  0.18598386383E+04  0.10100000352E+00 0. -1.
       -3    1    3    3    0  502  0.44332087462E+03 -0.12449476414E+04  0.14013537628E+04  0.19261932422E+04  0.10100000352E+00 0.  1.
</event>
<event>
 5   0  0.2839279E-07  0.3977936E+04  0.7818609E-02  0.8009012E-01
       -2   -1    0    0    0  501  0.00000000000E+00  0.00000000000E+00  0.22923180569E+04  0.22923180569E+04  0.25500000920E-02 0. -1.
        2   -1    0    0  501    0  0.00000000000E+00  0.00000000000E+00 -0.17257614780E+04  0.17257614780E+04  0.25500000920E-02 0.  1.
    10030    2    1    2    0    0  0.00000000000E+00  0.00000000000E+00  0.56655657888E+03  0.40180795350E+04  0.39779362479E+04 0.  0.
        3    1    3    3  502    0 -0.34130814197E+03 -0.48445976966E+03 -0.16345132496E+04  0.17386276455E+04  0.10100000352E+00 0.  1.
       -3    1    3    3    0  502  0.34130814197E+03  0.48445976966E+03  0.22010698285E+04  0.22794518895E+04  0.10100000352E+00 0. -1.
</event>
<event>
 5   0  0.2839279E-07  0.3559548E+04  0.7818609E-02  0.8099821E-01
        2   -1    0    0  501    0  0.00000000000E+00  0.00000000000E+00  0.14364699484E+04  0.14364699484E+04  0.25500000920E-02 0.  1.
       -2   -1    0    0    0  501  0.00000000000E+00  0.00000000000E+00 -0.22051252361E+04  0.22051252361E+04  0.25500000920E-02 0. -1.
    10030    2    1    2    0    0  0.00000000000E+00  0.00000000000E+00 -0.76865528764E+03  0.36415951845E+04  0.35595483613E+04 0.  0.
        3    1    3    3  502    0 -0.14226876216E+04  0.25836862747E+03 -0.14459367523E+04  0.20448783627E+04  0.10100000352E+00 0. -1.
       -3    1    3    3    0  502  0.14226876216E+04 -0.25836862747E+03  0.67728146462E+03  0.15967168218E+04  0.10100000352E+00 0.  1.
</event>
<event>
 5   0  0.8528625E-08  0.4022203E+04  0.7818609E-02  0.8000082E-01
       -1   -1    0    0    0  501  0.00000000000E+00  0.00000000000E+00  0.23936383884E+04  0.23936383884E+04  0.50400001928E-02 0.  1.
        1   -1    0    0  501    0  0.00000000000E+00  0.00000000000E+00 -0.16896995242E+04  0.16896995242E+04  0.50400001928E-02 0. -1.
    10030    2    1    2    0    0  0.00000000000E+00  0.00000000000E+00  0.70393886419E+03  0.40833379125E+04  0.40222032002E+04 0.  0.
        5    1    3    3  502    0 -0.92606500527E+03  0.11441991959E+04  0.17430960357E+04  0.22814894419E+04  0.46999998093E+01 0.  1.
       -5    1    3    3    0  502  0.92606500527E+03 -0.11441991959E+04 -0.10391571715E+04  0.18018484706E+04  0.46999998093E+01 0. -1.
</event>
<event>
 5   0  0.2704088E-07  0.3936358E+04  0.7818609E-02  0.8017510E-01
        2   -1    0    0  501    0  0.00000000000E+00  0.00000000000E+00  0.23796665312E+04  0.23796665312E+04  0.25500000920E-02 0.  1.
       -2   -1    0    0    0  501  0.00000000000E+00  0.00000000000E+00 -0.16278450682E+04  0.16278450683E+04  0.25500000920E-02 0. -1.
    10030    2    1    2    0    0  0.00000000000E+00  0.00000000000E+00  0.75182146297E+03  0.40075115995E+04  0.39363579242E+04 0.  0.
        5    1    3    3  502    0 -0.15751576652E+04  0.11692456009E+04  0.21349843486E+03  0.19732867549E+04  0.46999998093E+01 0.  1.
       -5    1    3    3    0  502  0.15751576652E+04 -0.11692456009E+04  0.53832302812E+03  0.20342248445E+04  0.46999998093E+01 0. -1.
</event>
<event>
 5   0  0.2839279E-07  0.3949032E+04  0.7818609E-02  0.8014908E-01
       -2   -1    0    0    0  501  0.00000000000E+00  0.00000000000E+00  0.20642266005E+04  0.20642266005E+04  0.25500000920E-02 0. -1.
        2   -1    0    0  501    0  0.00000000000E+00  0.00000000000E+00 -0.18887043597E+04  0.18887043597E+04  0.25500000920E-02 0.  1.
    10030    2    1    2    0    0  0.00000000000E+00  0.00000000000E+00  0.17552224079E+03  0.39529309603E+04  0.39490321750E+04 0.  0.
        3    1    3    3  502    0 -0.14962526968E+04 -0.98153663115E+03 -0.74764506084E+03  0.19393708872E+04  0.10100000352E+00 0.  1.
       -3    1    3    3    0  502  0.14962526968E+04  0.98153663115E+03  0.92316730164E+03  0.20135600731E+04  0.10100000352E+00 0. -1.
</event>
<event>
 5   0  0.8528625E-08  0.3972172E+04  0.7818609E-02  0.8010184E-01
        1   -1    0    0  501    0  0.00000000000E+00  0.00000000000E+00  0.22606543109E+04  0.22606543110E+04  0.50400001928E-02 0. -1.
       -1   -1    0    0    0  501  0.00000000000E+00  0.00000000000E+00 -0.17448650810E+04  0.17448650810E+04  0.50400001928E-02 0.  1.
    10030    2    1    2    0    0  0.00000000000E+00  0.00000000000E+00  0.51578922997E+03  0.40055193919E+04  0.39721715811E+04 0.  0.
        3    1    3    3  502    0  0.12479692926E+04 -0.83401048948E+03 -0.10536149101E+04  0.18338771063E+04  0.10100000352E+00 0.  1.
       -3    1    3    3    0  502 -0.12479692926E+04  0.83401048948E+03  0.15694041401E+04  0.21716422857E+04  0.10100000352E+00 0. -1.
</event>
<event>
 5   0  0.8528625E-08  0.3981829E+04  0.7818609E-02  0.8008222E-01
        1   -1    0    0  501    0  0.00000000000E+00  0.00000000000E+00  0.11096514072E+04  0.11096514072E+04  0.50400001928E-02 0. -1.
       -1   -1    0    0    0  501  0.00000000000E+00  0.00000000000E+00 -0.35720598068E+04  0.35720598068E+04  0.50400001928E-02 0.  1.
    10030    2    1    2    0    0  0.00000000000E+00  0.00000000000E+00 -0.24624083996E+04  0.46817112141E+04  0.39818293240E+04 0.  0.
        3    1    3    3  502    0  0.20192575104E+03  0.14607707898E+04 -0.28038872816E+04  0.31680292308E+04  0.10100000352E+00 0.  1.
       -3    1    3    3    0  502 -0.20192575104E+03 -0.14607707898E+04  0.34147888197E+03  0.15136819832E+04  0.10100000352E+00 0. -1.
</event>
<event>
 5   0  0.8528625E-08  0.4041045E+04  0.7818609E-02  0.7996317E-01
        1   -1    0    0  501    0  0.00000000000E+00  0.00000000000E+00  0.20848419274E+04  0.20848419274E+04  0.50400001928E-02 0. -1.
       -1   -1    0    0    0  501  0.00000000000E+00  0.00000000000E+00 -0.19581873017E+04  0.19581873017E+04  0.50400001928E-02 0.  1.
    10030    2    1    2    0    0  0.00000000000E+00  0.00000000000E+00  0.12665462567E+03  0.40430292291E+04  0.40410449086E+04 0.  0.
        4    1    3    3  502    0 -0.14253967179E+04 -0.12570500451E+04  0.74965159246E+03  0.20430148659E+04  0.12699999809E+01 0.  1.
       -4    1    3    3    0  502  0.14253967179E+04  0.12570500451E+04 -0.62299696678E+03  0.20000143632E+04  0.12699999809E+01 0. -1.
</event>
<event>
 5   0  0.2661693E-07  0.3870747E+04  0.7818609E-02  0.8031141E-01
        2   -1    0    0  501    0  0.00000000000E+00  0.00000000000E+00  0.23966632942E+04  0.23966632942E+04  0.25500000920E-02 0.  1.
       -2   -1    0    0    0  501  0.00000000000E+00  0.00000000000E+00 -0.15628685849E+04  0.15628685849E+04  0.25500000920E-02 0. -1.
    10030    2    1    2    0    0  0.00000000000E+00  0.00000000000E+00  0.83379470930E+03  0.39595318791E+04  0.38707465797E+04 0.  0.
        1    1    3    3  502    0 -0.20313164635E+03  0.16684668572E+04  0.13983981164E+04  0.21864494989E+04  0.50400001928E-02 0.  1.
       -1    1    3    3    0  502  0.20313164635E+03 -0.16684668572E+04 -0.56460340712E+03  0.17730823801E+04  0.50400001928E-02 0. -1.
</event>
<event>
 5   0  0.2704088E-07  0.3254641E+04  0.7818609E-02  0.8174534E-01
       -2   -1    0    0    0  501  0.00000000000E+00  0.00000000000E+00  0.12406600039E+04  0.12406600039E+04  0.25500000920E-02 0.  1.
        2   -1    0    0  501    0  0.00000000000E+00  0.00000000000E+00 -0.21344860019E+04  0.21344860019E+04  0.25500000920E-02 0. -1.
    10030    2    1    2    0    0  0.00000000000E+00  0.00000000000E+00 -0.89382599793E+03  0.33751460058E+04  0.32546406324E+04 0.  0.
        5    1    3    3  502    0  0.14166958000E+04 -0.69086725358E+03 -0.27174016198E+02  0.15764152591E+04  0.46999998093E+01 0.  1.
       -5    1    3    3    0  502 -0.14166958000E+04  0.69086725358E+03 -0.86665198174E+03  0.17987307468E+04  0.46999998093E+01 0. -1.
</event>
<event>
 5   0  0.2730801E-07  0.3778633E+04  0.7818609E-02  0.8050756E-01
       -2   -1    0    0    0  501  0.00000000000E+00  0.00000000000E+00  0.15950028787E+04  0.15950028787E+04  0.25500000920E-02 0.  1.
        2   -1    0    0  501    0  0.00000000000E+00  0.00000000000E+00 -0.22379373190E+04  0.22379373190E+04  0.25500000920E-02 0. -1.
    10030    2    1    2    0    0  0.00000000000E+00  0.00000000000E+00 -0.64293444029E+03  0.38329401977E+04  0.37786328037E+04 0.  0.
        2    1    3    3  502    0 -0.11790539707E+04  0.98663783951E+03  0.79244742880E+03  0.17296229125E+04  0.25500000920E-02 0.  1.
       -2    1    3    3    0  502  0.11790539707E+04 -0.98663783951E+03 -0.14353818691E+04  0.21033172852E+04  0.25500000920E-02 0. -1.
</event>
<event>
 5   0  0.2839279E-07  0.4063786E+04  0.7818609E-02  0.7991801E-01
        2   -1    0    0  501    0  0.00000000000E+00  0.00000000000E+00  0.15165959281E+04  0.15165959281E+04  0.25500000920E-02 0. -1.
       -2   -1    0    0    0  501  0.00000000000E+00  0.00000000000E+00 -0.27222730215E+04  0.27222730215E+04  0.25500000920E-02 0.  1.
    10030    2    1    2    0    0  0.00000000000E+00  0.00000000000E+00 -0.12056770933E+04  0.42388689496E+04  0.40637855158E+04 0.  0.
        3    1    3    3  502    0 -0.13024484303E+04 -0.49651218866E+03 -0.21449426173E+04  0.25580608102E+04  0.10100000352E+00 0.  1.
       -3    1    3    3    0  502  0.13024484303E+04  0.49651218866E+03  0.93926552394E+03  0.16808081394E+04  0.10100000352E+00 0. -1.
</event>
<event>
 5   0  0.8528625E-08  0.4039492E+04  0.7818609E-02  0.7996627E-01
        1   -1    0    0  501    0  0.00000000000E+00  0.00000000000E+00  0.20268552621E+04  0.20268552621E+04  0.50400001928E-02 0.  1.
       -1   -1    0    0    0  501  0.00000000000E+00  0.00000000000E+00 -0.20126613910E+04  0.20126613910E+04  0.50400001928E-02 0. -1.
    10030    2    1    2    0    0  0.00000000000E+00  0.00000000000E+00  0.14193871164E+02  0.40395166531E+04  0.40394917161E+04 0.  0.
        4    1    3    3  502    0 -0.11318104352E+04  0.15038154271E+04  0.73984699352E+03  0.20223330306E+04  0.12699999809E+01 0.  1.
       -4    1    3    3    0  502  0.11318104352E+04 -0.15038154271E+04 -0.72565312235E+03  0.20171836225E+04  0.12699999809E+01 0. -1.
</event>
<event>
 5   0  0.8583262E-08  0.3558198E+04  0.7818609E-02  0.8100135E-01
       -1   -1    0    0    0  501  0.00000000000E+00  0.00000000000E+00  0.13901936869E+04  0.13901936869E+04  0.50400001928E-02 0.  1.
        1   -1    0    0  501    0  0.00000000000E+00  0.00000000000E+00 -0.22767996477E+04  0.22767996477E+04  0.50400001928E-02 0. -1.
    10030    2    1    2    0    0  0.00000000000E+00  0.00000000000E+00 -0.88660596082E+03  0.36669933347E+04  0.35581975756E+04 0.  0.
        1    1    3    3  502    0  0.45459573550E+02 -0.14241238097E+04  0.65463415652E+03  0.15680373328E+04  0.50400001928E-02 0.  1.
       -1    1    3    3    0  502 -0.45459573550E+02  0.14241238097E+04 -0.15412401173E+04  0.20989560018E+04  0.50400001928E-02 0. -1.
</event>
<event>
 5   0  0.2839279E-07  0.4002529E+04  0.7818609E-02  0.8004037E-01
        2   -1    0    0  501    0  0.00000000000E+00  0.00000000000E+00  0.27116345089E+04  0.27116345089E+04  0.25500000920E-02 0.  1.
       -2   -1    0    0    0  501  0.00000000000E+00  0.00000000000E+00 -0.14769905881E+04  0.14769905881E+04  0.25500000920E-02 0. -1.
    10030    2    1    2    0    0  0.00000000000E+00  0.00000000000E+00  0.12346439209E+04  0.41886250970E+04  0.40025285248E+04 0.  0.
        3    1    3    3  502    0 -0.13419789807E+04  0.11176106856E+04 -0.40540778722E+03  0.17928515592E+04  0.10100000352E+00 0. -1.
       -3    1    3    3    0  502  0.13419789807E+04 -0.11176106856E+04  0.16400517081E+04  0.23957735378E+04  0.10100000352E+00 0.  1.
</event>
<event>
 5   0  0.2704088E-07  0.3979825E+04  0.7818609E-02  0.8008629E-01
       -2   -1    0    0    0  501  0.00000000000E+00  0.00000000000E+00  0.18530267539E+04  0.18530267539E+04  0.25500000920E-02 0. -1.
        2   -1    0    0  501    0  0.00000000000E+00  0.00000000000E+00 -0.21369102047E+04  0.21369102047E+04  0.25500000920E-02 0.  1.
    10030    2    1    2    0    0  0.00000000000E+00  0.00000000000E+00 -0.28388345078E+03  0.39899369586E+04  0.39798250112E+04 0.  0.
        5    1    3    3  502    0  0.15275790596E+04  0.79398415945E+02 -0.14179394086E+04  0.20857555342E+04  0.46999998093E+01 0.  1.
       -5    1    3    3    0  502 -0.15275790596E+04 -0.79398415945E+02  0.11340559579E+04  0.19041814245E+04  0.46999998093E+01 0. -1.
</event>
<event>
 5   0  0.8528625E-08  0.3963827E+04  0.7818609E-02  0.8011884E-01
        1   -1    0    0  501    0  0.00000000000E+00  0.00000000000E+00  0.19397150941E+04  0.19397150941E+04  0.50400001928E-02 0.  1.
       -1   -1    0    0    0  501  0.00000000000E+00  0.00000000000E+00 -0.20250297580E+04  0.20250297580E+04  0.50400001928E-02 0. -1.
    10030    2    1    2    0    0  0.00000000000E+00  0.00000000000E+00 -0.85314663947E+02  0.39647448521E+04  0.39638268315E+04 0.  0.
        3    1    3    3  502    0  0.15600787654E+03  0.51369410861E+03 -0.19509148649E+04  0.20234349297E+04  0.10100000352E+00 0. -1.
       -3    1    3    3    0  502 -0.15600787654E+03 -0.51369410861E+03  0.18656002009E+04  0.19413099224E+04  0.10100000352E+00 0.  1.
</event>
<event>
 5   0  0.8528625E-08  0.2966105E+04  0.7818609E-02  0.8253477E-01
        1   -1    0    0  501    0  0.00000000000E+00  0.00000000000E+00  0.20555923079E+04  0.20555923079E+04  0.50400001928E-02 0. -1.
       -1   -1    0    0    0  501  0.00000000000E+00  0.00000000000E+00 -0.10699807144E+04  0.10699807144E+04  0.50400001928E-02 0.  1.
    10030    2    1    2    0    0  0.00000000000E+00  0.00000000000E+00  0.98561159349E+03  0.31255730223E+04  0.29661046011E+04 0.  0.
        4    1    3    3  502    0 -0.43656315290E+03  0.11849071006E+04  0.13123400946E+04  0.18212167252E+04  0.12699999809E+01 0.  1.
       -4    1    3    3    0  502  0.43656315290E+03 -0.11849071006E+04 -0.32672850107E+03  0.13043562971E+04  0.12699999809E+01 0. -1.
</event>
<event>
 5   0  0.8528625E-08  0.4067133E+04  0.7818609E-02  0.7991139E-01
       -1   -1    0    0    0  501  0.00000000000E+00  0.00000000000E+00  0.29520560999E+04  0.29520560999E+04  0.50400001928E-02 0.  1.
        1   -1    0    0  501    0  0.00000000000E+00  0.00000000000E+00 -0.14008515069E+04  0.14008515069E+04  0.50400001928E-02 0. -1.
    10030    2    1    2    0    0  0.00000000000E+00  0.00000000000E+00  0.15512045930E+04  0.43529076068E+04  0.40671327670E+04 0.  0.
        2    1    3    3  502    0  0.19804616283E+04 -0.46057398620E+03  0.81004383234E+03  0.21887274084E+04  0.25500000920E-02 0.  1.
       -2    1    3    3    0  502 -0.19804616283E+04  0.46057398620E+03  0.74116076068E+03  0.21641801984E+04  0.25500000920E-02 0. -1.
</event>
<event>
 5   0  0.2666978E-07  0.3753583E+04  0.7818609E-02  0.8056190E-01
       -2   -1    0    0    0  501  0.00000000000E+00  0.00000000000E+00  0.31068899449E+04  0.31068899449E+04  0.25500000920E-02 0.  1.
        2   -1    0    0  501    0  0.00000000000E+00  0.00000000000E+00 -0.11337211395E+04  0.11337211395E+04  0.25500000920E-02 0. -1.
    10030    2    1    2    0    0  0.00000000000E+00  0.00000000000E+00  0.19731688054E+04  0.42406110843E+04  0.37535832526E+04 0.  0.
        4    1    3    3  502    0 -0.69971699627E+02  0.17312048960E+04  0.17161336620E+03  0.17410971228E+04  0.12699999809E+01 0. -1.
       -4    1    3    3    0  502  0.69971699627E+02 -0.17312048960E+04  0.18015554392E+04  0.24995139616E+04  0.12699999809E+01 0.  1.
</event>
<event>
 5   0  0.8528625E-08  0.3948243E+04  0.7818609E-02  0.8015070E-01
       -1   -1    0    0    0  501  0.00000000000E+00  0.00000000000E+00  0.12956643005E+04  0.12956643005E+04  0.50400001928E-02 0. -1.
        1   -1    0    0  501    0  0.00000000000E+00  0.00000000000E+00 -0.30078440004E+04  0.30078440004E+04  0.50400001928E-02 0.  1.
    10030    2    1    2    0    0  0.00000000000E+00  0.00000000000E+00 -0.17121796999E+04  0.43035083009E+04  0.39482432006E+04 0.  0.
        5    1    3    3  502    0  0.18641945400E+03 -0.18856297280E+04 -0.25237214587E+03  0.19115610045E+04  0.46999998093E+01 0.  1.
       -5    1    3    3    0  502 -0.18641945400E+03  0.18856297280E+04 -0.14598075540E+04  0.23919472964E+04  0.46999998093E+01 0. -1.
</event>
<event>
 5   0  0.2704088E-07  0.3999008E+04  0.7818609E-02  0.8004747E-01
       -2   -1    0    0    0  501  0.00000000000E+00  0.00000000000E+00  0.21534690334E+04  0.21534690334E+04  0.25500000920E-02 0. -1.
        2   -1    0    0  501    0  0.00000000000E+00  0.00000000000E+00 -0.18565466461E+04  0.18565466461E+04  0.25500000920E-02 0.  1.
    10030    2    1    2    0    0  0.00000000000E+00  0.00000000000E+00  0.29692238728E+03  0.40100156795E+04  0.39990077327E+04 0.  0.
        5    1    3    3  502    0 -0.70761994565E+03 -0.86521568091E+03 -0.15140136616E+04  0.18819095673E+04  0.46999998093E+01 0.  1.
       -5    1    3    3    0  502  0.70761994565E+03  0.86521568091E+03  0.18109360489E+04  0.21281061123E+04  0.46999998093E+01 0. -1.
</event>
<event>
 5   0  0.8528625E-08  0.3893336E+04  0.7818609E-02  0.8026417E-01
        1   -1    0    0  501    0  0.00000000000E+00  0.00000000000E+00  0.20195879302E+04  0.20195879302E+04  0.50400001928E-02 0. -1.
       -1   -1    0    0    0  501  0.00000000000E+00  0.00000000000E+00 -0.18763804630E+04  0.18763804630E+04  0.50400001928E-02 0.  1.
    10030    2    1    2    0    0  0.00000000000E+00  0.00000000000E+00  0.14320746725E+03  0.38959683932E+04  0.38933355034E+04 0.  0.
        2    1    3    3  502    0 -0.95807480425E+03  0.57981431603E+03  0.16649818155E+04  0.20065533677E+04  0.25500000920E-02 0. -1.
       -2    1    3    3    0  502  0.95807480425E+03 -0.57981431603E+03 -0.15217743482E+04  0.18894150255E+04  0.25500000920E-02 0.  1.
</event>
<event>
 5   0  0.2661693E-07  0.3987218E+04  0.7818609E-02  0.8007130E-01
       -2   -1    0    0    0  501  0.00000000000E+00  0.00000000000E+00  0.28639831628E+04  0.28639831628E+04  0.25500000920E-02 0. -1.
        2   -1    0    0  501    0  0.00000000000E+00  0.00000000000E+00 -0.13877443771E+04  0.13877443771E+04  0.25500000920E-02 0.  1.
    10030    2    1    2    0    0  0.00000000000E+00  0.00000000000E+00  0.14762387857E+04  0.42517275399E+04  0.39872178422E+04 0.  0.
        1    1    3    3  502    0  0.13348602636E+03 -0.15891663355E+04  0.20138145173E+04  0.25687968139E+04  0.50400001928E-02 0. -1.
       -1    1    3    3    0  502 -0.13348602636E+03  0.15891663355E+04 -0.53757573156E+03  0.16829307260E+04  0.50400001928E-02 0.  1.
</event>
<event>
 5   0  0.8528625E-08  0.4176739E+04  0.7818609E-02  0.7969812E-01
       -1   -1    0    0    0  501  0.00000000000E+00  0.00000000000E+00  0.24007501421E+04  0.24007501421E+04  0.50400001928E-02 0. -1.
        1   -1    0    0  501    0  0.00000000000E+00  0.00000000000E+00 -0.18166351585E+04  0.18166351585E+04  0.50400001928E-02 0.  1.
    10030    2    1    2    0    0  0.00000000000E+00  0.00000000000E+00  0.58411498362E+03  0.42173853006E+04  0.41767389744E+04 0.  0.
        5    1    3    3  502    0 -0.59412121482E+03 -0.78246142716E+03 -0.15687107596E+04  0.18509731063E+04  0.46999998093E+01 0.  1.
       -5    1    3    3    0  502  0.59412121482E+03  0.78246142716E+03  0.21528257432E+04  0.23664121943E+04  0.46999998093E+01 0. -1.
</event>
<event>
 5   0  0.8528625E-08  0.4045477E+04  0.7818609E-02  0.7995435E-01
        1   -1    0    0  501    0  0.00000000000E+00  0.00000000000E+00  0.12521462578E+04  0.12521462578E+04  0.50400001928E-02 0. -1.
       -1   -1    0    0    0  501  0.00000000000E+00  0.00000000000E+00 -0.32675667570E+04  0.32675667570E+04  0.50400001928E-02 0.  1.
    10030    2    1    2    0    0  0.00000000000E+00  0.00000000000E+00 -0.20154204992E+04  0.45197130148E+04  0.40454772212E+04 0.  0.
        2    1    3    3  502    0 -0.12018764337E+04 -0.14962653544E+04 -0.17214722145E+04  0.25781356749E+04  0.25500000920E-02 0.  1.
       -2    1    3    3    0  502  0.12018764337E+04  0.14962653544E+04 -0.29394828471E+03  0.19415773399E+04  0.25500000920E-02 0. -1.
</event>
<event>
 5   0  0.2730801E-07  0.4083990E+04  0.7818609E-02  0.7987814E-01
        2   -1    0    0  501    0  0.00000000000E+00  0.00000000000E+00  0.26708547764E+04  0.26708547764E+04  0.25500000920E-02 0. -1.
       -2   -1    0    0    0  501  0.00000000000E+00  0.00000000000E+00 -0.15612015470E+04  0.15612015470E+04  0.25500000920E-02 0.  1.
    10030    2    1    2    0    0  0.00000000000E+00  0.00000000000E+00  0.11096532294E+04  0.42320563233E+04  0.40839895243E+04 0.  0.
        2    1    3    3  502    0  0.10823047894E+04  0.39895817603E+03 -0.11912534311E+04  0.16582026476E+04  0.25500000920E-02 0.  1.
       -2    1    3    3    0  502 -0.10823047894E+04 -0.39895817603E+03  0.23009066605E+04  0.25738536757E+04  0.25500000920E-02 0. -1.
</event>
<event>
 5   0  0.2730801E-07  0.3982731E+04  0.7818609E-02  0.8008039E-01
       -2   -1    0    0    0  501  0.00000000000E+00  0.00000000000E+00  0.13253020016E+04  0.13253020016E+04  0.25500000920E-02 0. -1.
        2   -1    0    0  501    0  0.00000000000E+00  0.00000000000E+00 -0.29921758013E+04  0.29921758013E+04  0.25500000920E-02 0.  1.
    10030    2    1    2    0    0  0.00000000000E+00  0.00000000000E+00 -0.16668737996E+04  0.43174778029E+04  0.39827310121E+04 0.  0.
        2    1    3    3  502    0 -0.14186740132E+04  0.37769634332E+03  0.62510176797E+03  0.15956323837E+04  0.25500000920E-02 0. -1.
       -2    1    3    3    0  502  0.14186740132E+04 -0.37769634332E+03 -0.22919755676E+04  0.27218454192E+04  0.25500000920E-02 0.  1.
</event>
<event>
 5   0  0.2666978E-07  0.3964503E+04  0.7818609E-02  0.8011746E-01
       -2   -1    0    0    0  501  0.00000000000E+00  0.00000000000E+00  0.16675755387E+04  0.16675755387E+04  0.25500000920E-02 0.  1.
        2   -1    0    0  501    0  0.00000000000E+00  0.00000000000E+00 -0.23563078440E+04  0.23563078440E+04  0.25500000920E-02 0. -1.
    10030    2    1    2    0    0  0.00000000000E+00  0.00000000000E+00 -0.68873230536E+03  0.40238833827E+04  0.39645031579E+04 0.  0.
        4    1    3    3  502    0 -0.19109640908E+04  0.48593752065E+03 -0.13784699264E+03  0.19765936448E+04  0.12699999809E+01 0. -1.
       -4    1    3    3    0  502  0.19109640908E+04 -0.48593752065E+03 -0.55088531272E+03  0.20472897379E+04  0.12699999809E+01 0.  1.
</event>
<event>
 5   0  0.2730801E-07  0.3975274E+04  0.7818609E-02  0.8009553E-01
        2   -1    0    0  501    0  0.00000000000E+00  0.00000000000E+00  0.25216521380E+04  0.25216521380E+04  0.25500000920E-02 0. -1.
       -2   -1    0    0    0  501  0.00000000000E+00  0.00000000000E+00 -0.15667116104E+04  0.15667116104E+04  0.25500000920E-02 0.  1.
    10030    2    1    2    0    0  0.00000000000E+00  0.00000000000E+00  0.95494052764E+03  0.40883637484E+04  0.39752744217E+04 0.  0.
        2    1    3    3  502    0 -0.84578652633E+02  0.19818416606E+04  0.34798473405E+03  0.20139372610E+04  0.25500000920E-02 0.  1.
       -2    1    3    3    0  502  0.84578652633E+02 -0.19818416606E+04  0.60695579359E+03  0.20744264874E+04  0.25500000920E-02 0. -1.
</event>
<event>
 5   0  0.2730801E-07  0.3993899E+04  0.7818609E-02  0.8005778E-01
       -2   -1    0    0    0  501  0.00000000000E+00  0.00000000000E+00  0.15246065525E+04  0.15246065525E+04  0.25500000920E-02 0. -1.
        2   -1    0    0  501    0  0.00000000000E+00  0.00000000000E+00 -0.26156303940E+04  0.26156303940E+04  0.25500000920E-02 0.  1.
    10030    2    1    2    0    0  0.00000000000E+00  0.00000000000E+00 -0.10910238416E+04  0.41402369465E+04  0.39938989660E+04 0.  0.
        2    1    3    3  502    0  0.14429558093E+04  0.13080593360E+04 -0.88135490085E+02  0.19495918954E+04  0.25500000920E-02 0. -1.
       -2    1    3    3    0  502 -0.14429558093E+04 -0.13080593360E+04 -0.10028883515E+04  0.21906450511E+04  0.25500000920E-02 0.  1.
</event>
<event>
 5   0  0.2839279E-07  0.3958754E+04  0.7818609E-02  0.8012919E-01
       -2   -1    0    0    0  501  0.00000000000E+00  0.00000000000E+00  0.20465295523E+04  0.20465295524E+04  0.25500000920E-02 0.  1.
        2   -1    0    0  501    0  0.00000000000E+00  0.00000000000E+00 -0.19144276411E+04  0.19144276411E+04  0.25500000920E-02 0. -1.
    10030    2    1    2    0    0  0.00000000000E+00  0.00000000000E+00  0.13210191121E+03  0.39609571935E+04  0.39587537147E+04 0.  0.
        3    1    3    3  502    0 -0.10303481536E+04 -0.66387850155E+03  0.16211299144E+04  0.20323420460E+04  0.10100000352E+00 0.  1.
       -3    1    3    3    0  502  0.10303481536E+04  0.66387850155E+03 -0.14890280032E+04  0.19286151475E+04  0.10100000352E+00 0. -1.
</event>
<event>
 5   0  0.8528625E-08  0.3997386E+04  0.7818609E-02  0.8005074E-01
        1   -1    0    0  501    0  0.00000000000E+00  0.00000000000E+00  0.12755434139E+04  0.12755434139E+04  0.50400001928E-02 0.  1.
       -1   -1    0    0    0  501  0.00000000000E+00  0.00000000000E+00 -0.31318217172E+04  0.31318217172E+04  0.50400001928E-02 0. -1.
    10030    2    1    2    0    0  0.00000000000E+00  0.00000000000E+00 -0.18562783033E+04  0.44073651311E+04  0.39973864286E+04 0.  0.
        4    1    3    3  502    0 -0.86373460983E+03 -0.64086210087E+03  0.92928669181E+03  0.14213785833E+04  0.12699999809E+01 0.  1.
       -4    1    3    3    0  502  0.86373460983E+03  0.64086210087E+03 -0.27855649951E+04  0.29859865478E+04  0.12699999809E+01 0. -1.
</event>
<event>
 5   0  0.8583262E-08  0.4063281E+04  0.7818609E-02  0.7991901E-01
       -1   -1    0    0    0  501  0.00000000000E+00  0.00000000000E+00  0.17765901403E+04  0.17765901403E+04  0.50400001928E-02 0.  1.
        1   -1    0    0  501    0  0.00000000000E+00  0.00000000000E+00 -0.23233065273E+04  0.23233065273E+04  0.50400001928E-02 0. -1.
    10030    2    1    2    0    0  0.00000000000E+00  0.00000000000E+00 -0.54671638697E+03  0.40998966676E+04  0.40632811713E+04 0.  0.
        1    1    3    3  502    0 -0.10894878309E+04 -0.35505685616E+03 -0.19661274780E+04  0.22756771222E+04  0.50400001928E-02 0. -1.
       -1    1    3    3    0  502  0.10894878309E+04  0.35505685616E+03  0.14194110910E+04  0.18242195454E+04  0.50400001928E-02 0.  1.
</event>
<event>
 5   0  0.8528625E-08  0.4058414E+04  0.7818609E-02  0.7992865E-01
       -1   -1    0    0    0  501  0.00000000000E+00  0.00000000000E+00  0.16824398799E+04  0.16824398799E+04  0.50400001928E-02 0.  1.
        1   -1    0    0  501    0  0.00000000000E+00  0.00000000000E+00 -0.24474459273E+04  0.24474459273E+04  0.50400001928E-02 0. -1.
    10030    2    1    2    0    0  0.00000000000E+00  0.00000000000E+00 -0.76500604741E+03  0.41298858073E+04  0.40584137947E+04 0.  0.
        3    1    3    3  502    0 -0.15297488789E+04  0.30041626467E+03 -0.17043395541E+04  0.23097954218E+04  0.10100000352E+00 0. -1.
       -3    1    3    3    0  502  0.15297488789E+04 -0.30041626467E+03  0.93933350665E+03  0.18200903855E+04  0.10100000352E+00 0.  1.
</event>
<event>
 5   0  0.8528625E-08  0.4031902E+04  0.7818609E-02  0.7998142E-01
       -1   -1    0    0    0  501  0.00000000000E+00  0.00000000000E+00  0.26072503296E+04  0.26072503296E+04  0.50400001928E-02 0.  1.
        1   -1    0    0  501    0  0.00000000000E+00  0.00000000000E+00 -0.15587527192E+04  0.15587527192E+04  0.50400001928E-02 0. -1.
    10030    2    1    2    0    0  0.00000000000E+00  0.00000000000E+00  0.10484976104E+04  0.41660030488E+04  0.40319020529E+04 0.  0.
        2    1    3    3  502    0 -0.55607438065E+03  0.46507949374E+03  0.24679151706E+04  0.25721825249E+04  0.25500000920E-02 0.  1.
       -2    1    3    3    0  502  0.55607438065E+03 -0.46507949374E+03 -0.14194175602E+04  0.15938205239E+04  0.25500000920E-02 0. -1.
</event>
<event>
 5   0  0.8528625E-08  0.4171236E+04  0.7818609E-02  0.7970866E-01
       -1   -1    0    0    0  501  0.00000000000E+00  0.00000000000E+00  0.26887937993E+04  0.26887937993E+04  0.50400001928E-02 0.  1.
        1   -1    0    0  501    0  0.00000000000E+00  0.00000000000E+00 -0.16177526486E+04  0.16177526486E+04  0.50400001928E-02 0. -1.
    10030    2    1    2    0    0  0.00000000000E+00  0.00000000000E+00  0.10710411507E+04  0.43065464480E+04  0.41712364069E+04 0.  0.
        3    1    3    3  502    0  0.10184079578E+04 -0.13310557748E+04  0.18171340351E+04  0.24720113988E+04  0.10100000352E+00 0.  1.
       -3    1    3    3    0  502 -0.10184079578E+04  0.13310557748E+04 -0.74609288444E+03  0.18345350491E+04  0.10100000352E+00 0. -1.
</event>
<event>
 5   0  0.2666978E-07  0.3575295E+04  0.7818609E-02  0.8096174E-01
        2   -1    0    0  501    0  0.00000000000E+00  0.00000000000E+00  0.15125649615E+04  0.15125649615E+04  0.25500000920E-02 0.  1.
       -2   -1    0    0    0  501  0.00000000000E+00  0.00000000000E+00 -0.21127582684E+04  0.21127582684E+04  0.25500000920E-02 0. -1.
    10030    2    1    2    0    0  0.00000000000E+00  0.00000000000E+00 -0.60019330686E+03  0.36253232299E+04  0.35752953047E+04 0.  0.
        4    1    3    3  502    0 -0.11564051827E+04 -0.13531518615E+04 -0.13228283004E+03  0.17848790623E+04  0.12699999809E+01 0.  1.
       -4    1    3    3    0  502  0.11564051827E+04  0.13531518615E+04 -0.46791047681E+03  0.18404441676E+04  0.12699999809E+01 0. -1.
</event>
<event>
 5   0  0.2666978E-07  0.3920295E+04  0.7818609E-02  0.8020821E-01
        2   -1    0    0  501    0  0.00000000000E+00  0.00000000000E+00  0.23409723928E+04  0.23409723928E+04  0.25500000920E-02 0.  1.
       -2   -1    0    0    0  501  0.00000000000E+00  0.00000000000E+00 -0.16412747811E+04  0.16412747811E+04  0.25500000920E-02 0. -1.
    10030    2    1    2    0    0  0.00000000000E+00  0.00000000000E+00  0.69969761166E+03  0.39822471739E+04  0.39202953724E+04 0.  0.
        4    1    3    3  502    0  0.37550305748E+03 -0.27314575831E+03 -0.15845999376E+04  0.16512327900E+04  0.12699999809E+01 0. -1.
       -4    1    3    3    0  502 -0.37550305748E+03  0.27314575831E+03  0.22842975493E+04  0.23310143839E+04  0.12699999809E+01 0.  1.
</event>
<event>
 5   0  0.2730801E-07  0.4081374E+04  0.7818609E-02  0.7988329E-01
        2   -1    0    0  501    0  0.00000000000E+00  0.00000000000E+00  0.24664083032E+04  0.24664083032E+04  0.25500000920E-02 0. -1.
       -2   -1    0    0    0  501  0.00000000000E+00  0.00000000000E+00 -0.16884486195E+04  0.16884486195E+04  0.25500000920E-02 0.  1.
    10030    2    1    2    0    0  0.00000000000E+00  0.00000000000E+00  0.77795968368E+03  0.41548569226E+04  0.40813741287E+04 0.  0.
        2    1    3    3  502    0 -0.83887059348E+03 -0.16150685818E+04  0.13287767480E+04  0.22533970007E+04  0.25500000920E-02 0. -1.
       -2    1    3    3    0  502  0.83887059348E+03  0.16150685818E+04 -0.55081706435E+03  0.19014599220E+04  0.25500000920E-02 0.  1.
</event>
<event>
 5   0  0.8528625E-08  0.3999496E+04  0.7818609E-02  0.8004648E-01
       -1   -1    0    0    0  501  0.00000000000E+00  0.00000000000E+00  0.22835233974E+04  0.22835233974E+04  0.50400001928E-02 0. -1.
        1   -1    0    0  501    0  0.00000000000E+00  0.00000000000E+00 -0.17512372530E+04  0.17512372530E+04  0.50400001928E-02 0.  1.
    10030    2    1    2    0    0  0.00000000000E+00  0.00000000000E+00  0.53228614436E+03  0.40347606504E+04  0.39994955890E+04 0.  0.
        4    1    3    3  502    0  0.40861926115E+03  0.81742269682E+03 -0.15282592188E+04  0.17806536493E+04  0.12699999809E+01 0.  1.
       -4    1    3    3    0  502 -0.40861926115E+03 -0.81742269682E+03  0.20605453632E+04  0.22541070011E+04  0.12699999809E+01 0. -1.
</event>
<event>
 5   0  0.8528625E-08  0.3906341E+04  0.7818609E-02  0.8023712E-01
       -1   -1    0    0    0  501  0.00000000000E+00  0.00000000000E+00  0.26552131045E+04  0.26552131046E+04  0.50400001928E-02 0. -1.
        1   -1    0    0  501    0  0.00000000000E+00  0.00000000000E+00 -0.14367491394E+04  0.14367491394E+04  0.50400001928E-02 0.  1.
    10030    2    1    2    0    0  0.00000000000E+00  0.00000000000E+00  0.12184639652E+04  0.40919622439E+04  0.39063410721E+04 0.  0.
        3    1    3    3  502    0 -0.62381277286E+03 -0.35024001775E-01  0.25480551391E+04  0.26233046675E+04  0.10100000352E+00 0. -1.
       -3    1    3    3    0  502  0.62381277286E+03  0.35024001775E-01 -0.13295911739E+04  0.14686575764E+04  0.10100000352E+00 0.  1.
</event>
<event>
 5   0  0.8528625E-08  0.4126954E+04  0.7818609E-02  0.7979414E-01
        1   -1    0    0  501    0  0.00000000000E+00  0.00000000000E+00  0.24078828083E+04  0.24078828083E+04  0.50400001928E-02 0.  1.
       -1   -1    0    0    0  501  0.00000000000E+00  0.00000000000E+00 -0.17683322531E+04  0.17683322531E+04  0.50400001928E-02 0. -1.
    10030    2    1    2    0    0  0.00000000000E+00  0.00000000000E+00  0.63955055522E+03  0.41762150613E+04  0.41269537586E+04 0.  0.
        4    1    3    3  502    0 -0.34885563432E+03 -0.10457520028E+04 -0.14453615438E+04  0.18177923727E+04  0.12699999809E+01 0. -1.
       -4    1    3    3    0  502  0.34885563432E+03  0.10457520028E+04  0.20849120990E+04  0.23584226887E+04  0.12699999809E+01 0.  1.
</event>
<event>
 5   0  0.8528625E-08  0.4047257E+04  0.7818609E-02  0.7995081E-01
        1   -1    0    0  501    0  0.00000000000E+00  0.00000000000E+00  0.14317981905E+04  0.14317981905E+04  0.50400001928E-02 0. -1.
       -1   -1    0    0    0  501  0.00000000000E+00  0.00000000000E+00 -0.28600902082E+04  0.28600902082E+04  0.50400001928E-02 0.  1.
    10030    2    1    2    0    0  0.00000000000E+00  0.00000000000E+00 -0.14282920177E+04  0.42918883987E+04  0.40472568413E+04 0.  0.
        4    1    3    3  502    0 -0.18651251494E+04 -0.38890685427E+03  0.90813292024E+01  0.19052623041E+04  0.12699999809E+01 0. -1.
       -4    1    3    3    0  502  0.18651251494E+04  0.38890685427E+03 -0.14373733469E+04  0.23866260946E+04  0.12699999809E+01 0.  1.
</event>
<event>
 5   0  0.2661693E-07  0.3987405E+04  0.7818609E-02  0.8007092E-01
       -2   -1    0    0    0  501  0.00000000000E+00  0.00000000000E+00  0.24413530763E+04  0.24413530763E+04  0.25500000920E-02 0. -1.
        2   -1    0    0  501    0  0.00000000000E+00  0.00000000000E+00 -0.16281342209E+04  0.16281342209E+04  0.25500000920E-02 0.  1.
    10030    2    1    2    0    0  0.00000000000E+00  0.00000000000E+00  0.81321885538E+03  0.40694872972E+04  0.39874054165E+04 0.  0.
        1    1    3    3  502    0 -0.14352705401E+04  0.65533524787E+03 -0.83724275523E+03  0.17861806296E+04  0.50400001928E-02 0.  1.
       -1    1    3    3    0  502  0.14352705401E+04 -0.65533524787E+03  0.16504616106E+04  0.22833066676E+04  0.50400001928E-02 0. -1.
</event>
<event>
 5   0  0.2730801E-07  0.3996503E+04  0.7818609E-02  0.8005252E-01
       -2   -1    0    0    0  501  0.00000000000E+00  0.00000000000E+00  0.14894084083E+04  0.14894084083E+04  0.25500000920E-02 0.  1.
        2   -1    0    0  501    0  0.00000000000E+00  0.00000000000E+00 -0.26809361759E+04  0.26809361759E+04  0.25500000920E-02 0. -1.
    10030    2    1    2    0    0  0.00000000000E+00  0.00000000000E+00 -0.11915277676E+04  0.41703445843E+04  0.39965029126E+04 0.  0.
        2    1    3    3  502    0 -0.20318647240E+03 -0.62081374384E+03  0.13748503844E+04  0.15221392927E+04  0.25500000920E-02 0.  1.
       -2    1    3    3    0  502  0.20318647240E+03  0.62081374384E+03 -0.25663781520E+04  0.26482052915E+04  0.25500000920E-02 0. -1.
</event>
<event>
 5   0  0.2839279E-07  0.3842233E+04  0.7818609E-02  0.8037152E-01
        2   -1    0    0  501    0  0.00000000000E+00  0.00000000000E+00  0.14973437061E+04  0.14973437061E+04  0.25500000920E-02 0.  1.
       -2   -1    0    0    0  501  0.00000000000E+00  0.00000000000E+00 -0.24648236050E+04  0.24648236050E+04  0.25500000920E-02 0. -1.
    10030    2    1    2    0    0  0.00000000000E+00  0.00000000000E+00 -0.96747989894E+03  0.39621673111E+04  0.38422327423E+04 0.  0.
        3    1    3    3  502    0  0.82447276066E+03 -0.44884065353E+03  0.12447295296E+04  0.15590269008E+04  0.10100000352E+00 0.  1.
       -3    1    3    3    0  502 -0.82447276066E+03  0.44884065353E+03 -0.22122094286E+04  0.24031404102E+04  0.10100000352E+00 0. -1.
</event>
<event>
 5   0  0.2704088E-07  0.4273176E+04  0.7818609E-02  0.7951597E-01
       -2   -1    0    0    0  501  0.00000000000E+00  0.00000000000E+00  0.29111997650E+04  0.29111997650E+04  0.25500000920E-02 0.  1.
        2   -1    0    0  501    0  0.00000000000E+00  0.00000000000E+00 -0.15680849567E+04  0.15680849567E+04  0.25500000920E-02 0. -1.
    10030    2    1    2    0    0  0.00000000000E+00  0.00000000000E+00  0.13431148083E+04  0.44792847217E+04  0.42731761290E+04 0.  0.
        5    1    3    3  502    0 -0.72691305655E+03 -0.10748930275E+04 -0.11077203065E+04  0.17061254290E+04  0.46999998093E+01 0. -1.
       -5    1    3    3    0  502  0.72691305655E+03  0.10748930275E+04  0.24508351148E+04  0.27731592926E+04  0.46999998093E+01 0.  1.
</event>
<event>
 5   0  0.8528625E-08  0.3916416E+04  0.7818609E-02  0.8021624E-01
       -1   -1    0    0    0  501  0.00000000000E+00  0.00000000000E+00  0.18017473980E+04  0.18017473980E+04  0.50400001928E-02 0.  1.
        1   -1    0    0  501    0  0.00000000000E+00  0.00000000000E+00 -0.21282555365E+04  0.21282555365E+04  0.50400001928E-02 0. -1.
    10030    2    1    2    0    0  0.00000000000E+00  0.00000000000E+00 -0.32650813853E+03  0.39300029344E+04  0.39164161551E+04 0.  0.
        5    1    3    3  502    0 -0.18240199210E+04 -0.71208561737E+03 -0.14215288968E+03  0.19632483625E+04  0.46999998093E+01 0.  1.
       -5    1    3    3    0  502  0.18240199210E+04  0.71208561737E+03 -0.18435524885E+03  0.19667545720E+04  0.46999998093E+01 0. -1.
</event>
<event>
 5   0  0.8528625E-08  0.3986911E+04  0.7818609E-02  0.8007192E-01
        1   -1    0    0  501    0  0.00000000000E+00  0.00000000000E+00  0.21699370155E+04  0.21699370155E+04  0.50400001928E-02 0. -1.
       -1   -1    0    0    0  501  0.00000000000E+00  0.00000000000E+00 -0.18313272357E+04  0.18313272357E+04  0.50400001928E-02 0.  1.
    10030    2    1    2    0    0  0.00000000000E+00  0.00000000000E+00  0.33860977982E+03  0.40012642512E+04  0.39869109628E+04 0.  0.
        2    1    3    3  502    0  0.14195143085E+04 -0.30970178721E+03 -0.12005003155E+04  0.18847114041E+04  0.25500000920E-02 0.  1.
       -2    1    3    3    0  502 -0.14195143085E+04  0.30970178721E+03  0.15391100953E+04  0.21165528471E+04  0.25500000920E-02 0. -1.
</event>
<event>
 5   0  0.8528625E-08  0.3948910E+04  0.7818609E-02  0.8014933E-01
        1   -1    0    0  501    0  0.00000000000E+00  0.00000000000E+00  0.23049874186E+04  0.23049874186E+04  0.50400001928E-02 0.  1.
       -1   -1    0    0    0  501  0.00000000000E+00  0.00000000000E+00 -0.16913203926E+04  0.16913203926E+04  0.50400001928E-02 0. -1.
    10030    2    1    2    0    0  0.00000000000E+00  0.00000000000E+00  0.61366702601E+03  0.39963078111E+04  0.39489098372E+04 0.  0.
        5    1    3    3  502    0  0.63210451973E+03  0.18315154020E+04  0.69145495127E+03  0.20572157960E+04  0.46999998093E+01 0.  1.
       -5    1    3    3    0  502 -0.63210451973E+03 -0.18315154020E+04 -0.77787925254E+02  0.19390920151E+04  0.46999998093E+01 0. -1.
</event>
<event>
 5   0  0.2730801E-07  0.3864257E+04  0.7818609E-02  0.8032504E-01
        2   -1    0    0  501    0  0.00000000000E+00  0.00000000000E+00  0.12674782761E+04  0.12674782761E+04  0.25500000920E-02 0. -1.
       -2   -1    0    0    0  501  0.00000000000E+00  0.00000000000E+00 -0.29453137563E+04  0.29453137563E+04  0.25500000920E-02 0.  1.
    10030    2    1    2    0    0  0.00000000000E+00  0.00000000000E+00 -0.16778354802E+04  0.42127920324E+04  0.38642573426E+04 0.  0.
        2    1    3    3  502    0 -0.18926070944E+04  0.28730573607E+03 -0.11244883584E+04  0.22201306872E+04  0.25500000920E-02 0. -1.
       -2    1    3    3    0  502  0.18926070944E+04 -0.28730573607E+03 -0.55334712178E+03  0.19926613453E+04  0.25500000920E-02 0.  1.
</event>
<event>
 5   0  0.2661693E-07  0.4004769E+04  0.7818609E-02  0.8003585E-01
        2   -1    0    0  501    0  0.00000000000E+00  0.00000000000E+00  0.16923502172E+04  0.16923502172E+04  0.25500000920E-02 0. -1.
       -2   -1    0    0    0  501  0.00000000000E+00  0.00000000000E+00 -0.23692163111E+04  0.23692163111E+04  0.25500000920E-02 0.  1.
    10030    2    1    2    0    0  0.00000000000E+00  0.00000000000E+00 -0.67686609392E+03  0.40615665283E+04  0.40047690264E+04 0.  0.
        1    1    3    3  502    0 -0.18577447515E+04 -0.35871906084E+03 -0.10032053332E+04  0.21415685529E+04  0.50400001928E-02 0.  1.
       -1    1    3    3    0  502  0.18577447515E+04  0.35871906084E+03  0.32633923924E+03  0.19199979754E+04  0.50400001928E-02 0. -1.
</event>
<event>
 5   0  0.2661693E-07  0.3965644E+04  0.7818609E-02  0.8011513E-01
       -2   -1    0    0    0  501  0.00000000000E+00  0.00000000000E+00  0.22721425994E+04  0.22721425994E+04  0.25500000920E-02 0.  1.
        2   -1    0    0  501    0  0.00000000000E+00  0.00000000000E+00 -0.17303419916E+04  0.17303419916E+04  0.25500000920E-02 0. -1.
    10030    2    1    2    0    0  0.00000000000E+00  0.00000000000E+00  0.54180060783E+03  0.40024845910E+04  0.39656443364E+04 0.  0.
        1    1    3    3  502    0  0.16648853934E+04  0.28629108742E+03 -0.77690483057E+03  0.18594050327E+04  0.50400001928E-02 0. -1.
       -1    1    3    3    0  502 -0.16648853934E+04 -0.28629108742E+03  0.13187054384E+04  0.21430795583E+04  0.50400001928E-02 0.  1.
</event>
<event>
 5   0  0.2839279E-07  0.3974199E+04  0.7818609E-02  0.8009772E-01
        2   -1    0    0  501    0  0.00000000000E+00  0.00000000000E+00  0.11645241387E+04  0.11645241387E+04  0.25500000920E-02 0. -1.
       -2   -1    0    0    0  501  0.00000000000E+00  0.00000000000E+00 -0.33907105136E+04  0.33907105136E+04  0.25500000920E-02 0.  1.
    10030    2    1    2    0    0  0.00000000000E+00  0.00000000000E+00 -0.22261863749E+04  0.45552346523E+04  0.39741989082E+04 0.  0.
        3    1    3    3  502    0  0.49729482689E+03 -0.13413224389E+04 -0.26939031931E+04  0.30501741678E+04  0.10100000352E+00 0.  1.
       -3    1    3    3    0  502 -0.49729482689E+03  0.13413224389E+04  0.46771681818E+03  0.15050604845E+04  0.10100000352E+00 0. -1.
</event>
<event>
 5   0  0.8528625E-08  0.4216423E+04  0.7818609E-02  0.7962256E-01
       -1   -1    0    0    0  501  0.00000000000E+00  0.00000000000E+00  0.21686247708E+04  0.21686247708E+04  0.50400001928E-02 0. -1.
        1   -1    0    0  501    0  0.00000000000E+00  0.00000000000E+00 -0.20494812923E+04  0.20494812923E+04  0.50400001928E-02 0.  1.
    10030    2    1    2    0    0  0.00000000000E+00  0.00000000000E+00  0.11914347857E+03  0.42181060631E+04  0.42164230802E+04 0.  0.
        4    1    3    3  502    0 -0.15730611636E+04 -0.79380071599E+03 -0.10984365286E+04  0.20763442444E+04  0.12699999809E+01 0.  1.
       -4    1    3    3    0  502  0.15730611636E+04  0.79380071599E+03  0.12175800072E+04  0.21417618187E+04  0.12699999809E+01 0. -1.
</event>
<event>
 5   0  0.2839279E-07  0.4008335E+04  0.7818609E-02  0.8002867E-01
       -2   -1    0    0    0  501  0.00000000000E+00  0.00000000000E+00  0.16495938678E+04  0.16495938678E+04  0.25500000920E-02 0. -1.
        2   -1    0    0  501    0  0.00000000000E+00  0.00000000000E+00 -0.24349558202E+04  0.24349558202E+04  0.25500000920E-02 0.  1.
    10030    2    1    2    0    0  0.00000000000E+00  0.00000000000E+00 -0.78536195242E+03  0.40845496881E+04  0.40083354099E+04 0.  0.
        3    1    3    3  502    0 -0.14558234010E+04  0.34016952482E+03 -0.17528073750E+04  0.23037948660E+04  0.10100000352E+00 0. -1.
       -3    1    3    3    0  502  0.14558234010E+04 -0.34016952482E+03  0.96744542258E+03  0.17807548221E+04  0.10100000352E+00 0.  1.
</event>
<event>
 5   0  0.8528625E-08  0.3698892E+04  0.7818609E-02  0.8068207E-01
       -1   -1    0    0    0  501  0.00000000000E+00  0.00000000000E+00  0.16529224422E+04  0.16529224423E+04  0.50400001928E-02 0. -1.
        1   -1    0    0  501    0  0.00000000000E+00  0.00000000000E+00 -0.20693353215E+04  0.20693353215E+04  0.50400001928E-02 0.  1.
    10030    2    1    2    0    0  0.00000000000E+00  0.00000000000E+00 -0.41641287922E+03  0.37222577637E+04  0.36988921549E+04 0.  0.
        2    1    3    3  502    0  0.12843914663E+04 -0.75608082354E+03 -0.13101722401E+04  0.19844069515E+04  0.25500000920E-02 0.  1.
       -2    1    3    3    0  502 -0.12843914663E+04  0.75608082354E+03  0.89375936088E+03  0.17378508122E+04  0.25500000920E-02 0. -1.
</event>
<event>
 5   0  0.2704088E-07  0.3963449E+04  0.7818609E-02  0.8011961E-01
       -2   -1    0    0    0  501  0.00000000000E+00  0.00000000000E+00  0.12976384730E+04  0.12976384730E+04  0.25500000920E-02 0. -1.
        2   -1    0    0  501    0  0.00000000000E+00  0.00000000000E+00 -0.30264450758E+04  0.30264450758E+04  0.25500000920E-02 0.  1.
    10030    2    1    2    0    0  0.00000000000E+00  0.00000000000E+00 -0.17288066027E+04  0.43240835488E+04  0.39634487845E+04 0.  0.
        5    1    3    3  502    0 -0.39479342296E+03  0.65203752874E+03 -0.28601086854E+04  0.29599423251E+04  0.46999998093E+01 0.  1.
       -5    1    3    3    0  502  0.39479342296E+03 -0.65203752874E+03  0.11313020827E+04  0.13641412236E+04  0.46999998093E+01 0. -1.
</event>
<event>
 5   0  0.2839279E-07  0.3771895E+04  0.7818609E-02  0.8052213E-01
        2   -1    0    0  501    0  0.00000000000E+00  0.00000000000E+00  0.17207522729E+04  0.17207522729E+04  0.25500000920E-02 0. -1.
       -2   -1    0    0    0  501  0.00000000000E+00  0.00000000000E+00 -0.20670012722E+04  0.20670012722E+04  0.25500000920E-02 0.  1.
    10030    2    1    2    0    0  0.00000000000E+00  0.00000000000E+00 -0.34624899938E+03  0.37877535451E+04  0.37718945570E+04 0.  0.
        3    1    3    3  502    0  0.10589814723E+04 -0.14979995611E+04  0.26615349503E+03  0.18537211594E+04  0.10100000352E+00 0. -1.
       -3    1    3    3    0  502 -0.10589814723E+04  0.14979995611E+04 -0.61240249441E+03  0.19340323857E+04  0.10100000352E+00 0.  1.
</event>
<event>
 5   0  0.8528625E-08  0.4280016E+04  0.7818609E-02  0.7950324E-01
       -1   -1    0    0    0  501  0.00000000000E+00  0.00000000000E+00  0.17270681451E+04  0.17270681452E+04  0.50400001928E-02 0. -1.
        1   -1    0    0  501    0  0.00000000000E+00  0.00000000000E+00 -0.26516810897E+04  0.26516810897E+04  0.50400001928E-02 0.  1.
    10030    2    1    2    0    0  0.00000000000E+00  0.00000000000E+00 -0.92461294458E+03  0.43787492349E+04  0.42800158603E+04 0.  0.
        2    1    3    3  502    0 -0.20785272957E+04 -0.13610067744E+03 -0.96437655334E+03  0.22953913065E+04  0.25500000920E-02 0. -1.
       -2    1    3    3    0  502  0.20785272957E+04  0.13610067744E+03  0.39763608764E+02  0.20833579284E+04  0.25500000920E-02 0.  1.
</event>
<event>
 5   0  0.8528625E-08  0.3484123E+04  0.7818609E-02  0.8117563E-01
        1   -1    0    0  501    0  0.00000000000E+00  0.00000000000E+00  0.20506830195E+04  0.20506830195E+04  0.50400001928E-02 0.  1.
       -1   -1    0    0    0  501  0.00000000000E+00  0.00000000000E+00 -0.14798864304E+04  0.14798864304E+04  0.50400001928E-02 0. -1.
    10030    2    1    2    0    0  0.00000000000E+00  0.00000000000E+00  0.57079658915E+03  0.35305694499E+04  0.34841228300E+04 0.  0.
        2    1    3    3  502    0 -0.31907680180E+03 -0.22188194540E+03 -0.14353964819E+04  0.14870792391E+04  0.25500000920E-02 0. -1.
       -2    1    3    3    0  502  0.31907680180E+03  0.22188194540E+03  0.20061930711E+04  0.20434902108E+04  0.25500000920E-02 0.  1.
</event>
<event>
 5   0  0.8528625E-08  0.3810736E+04  0.7818609E-02  0.8043855E-01
       -3   -1    0    0    0  501  0.00000000000E+00  0.00000000000E+00  0.17920055994E+04  0.17920056022E+04  0.10100000352E+00 0. -1.
        3   -1    0    0  501    0  0.00000000000E+00  0.00000000000E+00 -0.20259017599E+04  0.20259017624E+04  0.10100000352E+00 0.  1.
    10030    2    1    2    0    0  0.00000000000E+00  0.00000000000E+00 -0.23389616050E+03  0.38179073647E+04  0.38107360485E+04 0.  0.
        3    1    3    3  502    0 -0.17405924045E+04  0.10987350306E+03  0.65175925488E+03  0.18618604249E+04  0.10100000352E+00 0.  1.
       -3    1    3    3    0  502  0.17405924045E+04 -0.10987350306E+03 -0.88565541537E+03  0.19560469397E+04  0.10100000352E+00 0. -1.
</event>
<event>
 5   0  0.2730801E-07  0.2963724E+04  0.7818609E-02  0.8254166E-01
        2   -1    0    0  501    0  0.00000000000E+00  0.00000000000E+00  0.19135076860E+04  0.19135076860E+04  0.25500000920E-02 0.  1.
       -2   -1    0    0    0  501  0.00000000000E+00  0.00000000000E+00 -0.11475860695E+04  0.11475860695E+04  0.25500000920E-02 0. -1.
    10030    2    1    2    0    0  0.00000000000E+00  0.00000000000E+00  0.76592161649E+03  0.30610937555E+04  0.29637238497E+04 0.  0.
        2    1    3    3  502    0 -0.37157427518E+03 -0.13498738068E+04  0.88438774169E+03  0.16560097868E+04  0.25500000920E-02 0.  1.
       -2    1    3    3    0  502  0.37157427518E+03  0.13498738068E+04 -0.11846612520E+03  0.14050839687E+04  0.25500000920E-02 0. -1.
</event>
<event>
 5   0  0.2730801E-07  0.3810789E+04  0.7818609E-02  0.8043844E-01
       -2   -1    0    0    0  501  0.00000000000E+00  0.00000000000E+00  0.19113172714E+04  0.19113172714E+04  0.25500000920E-02 0.  1.
        2   -1    0    0  501    0  0.00000000000E+00  0.00000000000E+00 -0.18994900260E+04  0.18994900260E+04  0.25500000920E-02 0. -1.
    10030    2    1    2    0    0  0.00000000000E+00  0.00000000000E+00  0.11827245431E+02  0.38108072974E+04  0.38107889438E+04 0.  0.
        2    1    3    3  502    0 -0.13338332672E+04  0.29793287771E+03 -0.13217421640E+04  0.19012831279E+04  0.25500000920E-02 0. -1.
       -2    1    3    3    0  502  0.13338332672E+04 -0.29793287771E+03  0.13335694094E+04  0.19095241695E+04  0.25500000920E-02 0.  1.
</event>
<event>
 5   0  0.8528625E-08  0.3961350E+04  0.7818609E-02  0.8012389E-01
       -1   -1    0    0    0  501  0.00000000000E+00  0.00000000000E+00  0.14032706297E+04  0.14032706297E+04  0.50400001928E-02 0.  1.
        1   -1    0    0  501    0  0.00000000000E+00  0.00000000000E+00 -0.27956636289E+04  0.27956636289E+04  0.50400001928E-02 0. -1.
    10030    2    1    2    0    0  0.00000000000E+00  0.00000000000E+00 -0.13923929992E+04  0.41989342586E+04  0.39613495988E+04 0.  0.
        3    1    3    3  502    0 -0.75909134409E+03 -0.14055948441E+04 -0.19373896096E+04  0.25110545681E+04  0.10100000352E+00 0. -1.
       -3    1    3    3    0  502  0.75909134409E+03  0.14055948441E+04  0.54499661036E+03  0.16878796906E+04  0.10100000352E+00 0.  1.
</event>
<event>
 5   0  0.2666978E-07  0.3995893E+04  0.7818609E-02  0.8005376E-01
        2   -1    0    0  501    0  0.00000000000E+00  0.00000000000E+00  0.26350547336E+04  0.26350547336E+04  0.25500000920E-02 0.  1.
       -2   -1    0    0    0  501  0.00000000000E+00  0.00000000000E+00 -0.15148793121E+04  0.15148793121E+04  0.25500000920E-02 0. -1.
    10030    2    1    2    0    0  0.00000000000E+00  0.00000000000E+00  0.11201754215E+04  0.41499340457E+04  0.39958928426E+04 0.  0.
        4    1    3    3  502    0  0.15834819611E+04  0.22101004430E+03  0.18044107838E+04  0.24108422699E+04  0.12699999809E+01 0. -1.
       -4    1    3    3    0  502 -0.15834819611E+04 -0.22101004430E+03 -0.68423536232E+03  0.17390917758E+04  0.12699999809E+01 0.  1.
</event>
<event>
 5   0  0.8583262E-08  0.4020173E+04  0.7818609E-02  0.8000489E-01
       -1   -1    0    0    0  501  0.00000000000E+00  0.00000000000E+00  0.17367846921E+04  0.17367846921E+04  0.50400001928E-02 0. -1.
        1   -1    0    0  501    0  0.00000000000E+00  0.00000000000E+00 -0.23263954442E+04  0.23263954442E+04  0.50400001928E-02 0.  1.
    10030    2    1    2    0    0  0.00000000000E+00  0.00000000000E+00 -0.58961075214E+03  0.40631801363E+04  0.40201731282E+04 0.  0.
        1    1    3    3  502    0 -0.19193611620E+04  0.59702232908E+03 -0.30295785055E+03  0.20327730791E+04  0.50400001928E-02 0. -1.
       -1    1    3    3    0  502  0.19193611620E+04 -0.59702232908E+03 -0.28665290158E+03  0.20304070572E+04  0.50400001928E-02 0.  1.
</event>
<event>
 5   0  0.2730801E-07  0.3833450E+04  0.7818609E-02  0.8039015E-01
        2   -1    0    0  501    0  0.00000000000E+00  0.00000000000E+00  0.22711360587E+04  0.22711360587E+04  0.25500000920E-02 0. -1.
       -2   -1    0    0    0  501  0.00000000000E+00  0.00000000000E+00 -0.16176196416E+04  0.16176196416E+04  0.25500000920E-02 0.  1.
    10030    2    1    2    0    0  0.00000000000E+00  0.00000000000E+00  0.65351641712E+03  0.38887557002E+04  0.38334497765E+04 0.  0.
        2    1    3    3  502    0 -0.33878618736E+03 -0.91823413839E+03 -0.13450178945E+04  0.16634311378E+04  0.25500000920E-02 0.  1.
       -2    1    3    3    0  502  0.33878618736E+03  0.91823413839E+03  0.19985343116E+04  0.22253245625E+04  0.25500000920E-02 0. -1.
</event>
<event>
 5   0  0.8528625E-08  0.3905251E+04  0.7818609E-02  0.8023938E-01
       -1   -1    0    0    0  501  0.00000000000E+00  0.00000000000E+00  0.22198821744E+04  0.22198821744E+04  0.50400001928E-02 0.  1.
        1   -1    0    0  501    0  0.00000000000E+00  0.00000000000E+00 -0.17175444693E+04  0.17175444693E+04  0.50400001928E-02 0. -1.
    10030    2    1    2    0    0  0.00000000000E+00  0.00000000000E+00  0.50233770504E+03  0.39374266437E+04  0.39052510041E+04 0.  0.
        5    1    3    3  502    0  0.68900113519E+03  0.15590637569E+04 -0.70921360708E+03  0.18461875292E+04  0.46999998093E+01 0. -1.
       -5    1    3    3    0  502 -0.68900113519E+03 -0.15590637569E+04  0.12115513121E+04  0.20912391146E+04  0.46999998093E+01 0.  1.
</event>
<event>
 5   0  0.2661693E-07  0.3981246E+04  0.7818609E-02  0.8008340E-01
       -2   -1    0    0    0  501  0.00000000000E+00  0.00000000000E+00  0.12405559111E+04  0.12405559111E+04  0.25500000920E-02 0. -1.
        2   -1    0    0  501    0  0.00000000000E+00  0.00000000000E+00 -0.31941977312E+04  0.31941977312E+04  0.25500000920E-02 0.  1.
    10030    2    1    2    0    0  0.00000000000E+00  0.00000000000E+00 -0.19536418200E+04  0.44347536423E+04  0.39812464765E+04 0.  0.
        1    1    3    3  502    0 -0.11811807728E+04 -0.14075701434E+03  0.80110793740E+03  0.14341459070E+04  0.50400001928E-02 0. -1.
       -1    1    3    3    0  502  0.11811807728E+04  0.14075701434E+03 -0.27547497574E+04  0.30006077353E+04  0.50400001928E-02 0.  1.
</event>
<event>
 5   0  0.2704088E-07  0.4047241E+04  0.7818609E-02  0.7995084E-01
        2   -1    0    0  501    0  0.00000000000E+00  0.00000000000E+00  0.19726110919E+04  0.19726110919E+04  0.25500000920E-02 0.  1.
       -2   -1    0    0    0  501  0.00000000000E+00  0.00000000000E+00 -0.20759485507E+04  0.20759485507E+04  0.25500000920E-02 0. -1.
    10030    2    1    2    0    0  0.00000000000E+00  0.00000000000E+00 -0.10333745878E+03  0.40485596425E+04  0.40472406092E+04 0.  0.
        5    1    3    3  502    0  0.63478522191E+03  0.19130357588E+04 -0.23161330571E+03  0.20288728165E+04  0.46999998093E+01 0.  1.
       -5    1    3    3    0  502 -0.63478522191E+03 -0.19130357588E+04  0.12827584693E+03  0.20196868260E+04  0.46999998093E+01 0. -1.
</event>
<event>
 5   0  0.8528625E-08  0.3999974E+04  0.7818609E-02  0.8004552E-01
       -1   -1    0    0    0  501  0.00000000000E+00  0.00000000000E+00  0.18117902333E+04  0.18117902333E+04  0.50400001928E-02 0.  1.
        1   -1    0    0  501    0  0.00000000000E+00  0.00000000000E+00 -0.22077328981E+04  0.22077328981E+04  0.50400001928E-02 0. -1.
    10030    2    1    2    0    0  0.00000000000E+00  0.00000000000E+00 -0.39594266481E+03  0.40195231314E+04  0.39999744512E+04 0.  0.
        3    1    3    3  502    0  0.15329709689E+04 -0.32631525105E+03 -0.14464065904E+04  0.21327385375E+04  0.10100000352E+00 0. -1.
       -3    1    3    3    0  502 -0.15329709689E+04  0.32631525105E+03  0.10504639256E+04  0.18867845939E+04  0.10100000352E+00 0.  1.
</event>
<event>
 5   0  0.8528625E-08  0.3968004E+04  0.7818609E-02  0.8011032E-01
        1   -1    0    0  501    0  0.00000000000E+00  0.00000000000E+00  0.24511677420E+04  0.24511677420E+04  0.50400001928E-02 0.  1.
       -1   -1    0    0    0  501  0.00000000000E+00  0.00000000000E+00 -0.16058726803E+04  0.16058726803E+04  0.50400001928E-02 0. -1.
    10030    2    1    2    0    0  0.00000000000E+00  0.00000000000E+00  0.84529506163E+03  0.40570404223E+04  0.39680036853E+04 0.  0.
        4    1    3    3  502    0 -0.97611406564E+02  0.12503657099E+04  0.19944518184E+04  0.23560097759E+04  0.12699999809E+01 0.  1.
       -4    1    3    3    0  502  0.97611406564E+02 -0.12503657099E+04 -0.11491567568E+04  0.17010306464E+04  0.12699999809E+01 0. -1.
</event>
<event>
 5   0  0.8528625E-08  0.3958271E+04  0.7818609E-02  0.8013018E-01
        1   -1    0    0  501    0  0.00000000000E+00  0.00000000000E+00  0.24531300690E+04  0.24531300690E+04  0.50400001928E-02 0. -1.
       -1   -1    0    0    0  501  0.00000000000E+00  0.00000000000E+00 -0.15967265069E+04  0.15967265069E+04  0.50400001928E-02 0.  1.
    10030    2    1    2    0    0  0.00000000000E+00  0.00000000000E+00  0.85640356213E+03  0.40498565759E+04  0.39582712419E+04 0.  0.
        4    1    3    3  502    0  0.92862903782E+03 -0.16789644519E+04  0.92492715502E+03  0.21299683978E+04  0.12699999809E+01 0.  1.
       -4    1    3    3    0  502 -0.92862903782E+03  0.16789644519E+04 -0.68523592887E+02  0.19198881781E+04  0.12699999809E+01 0. -1.
</event>
<event>
 5   0  0.2730801E-07  0.3966480E+04  0.7818609E-02  0.8011343E-01
        2   -1    0    0  501    0  0.00000000000E+00  0.00000000000E+00  0.25454206753E+04  0.25454206753E+04  0.25500000920E-02 0. -1.
       -2   -1    0    0    0  501  0.00000000000E+00  0.00000000000E+00 -0.15452221331E+04  0.15452221331E+04  0.25500000920E-02 0.  1.
    10030    2    1    2    0    0  0.00000000000E+00  0.00000000000E+00  0.10001985422E+04  0.40906428084E+04  0.39664797317E+04 0.  0.
        2    1    3    3  502    0 -0.50018474323E+03 -0.13953472869E+04 -0.85874246368E+03  0.17130725167E+04  0.25500000920E-02 0.  1.
       -2    1    3    3    0  502  0.50018474323E+03  0.13953472869E+04  0.18589410059E+04  0.23775702917E+04  0.25500000920E-02 0. -1.
</event>
<event>
 5   0  0.2730801E-07  0.3973881E+04  0.7818609E-02  0.8009836E-01
       -2   -1    0    0    0  501  0.00000000000E+00  0.00000000000E+00  0.21010955627E+04  0.21010955627E+04  0.25500000920E-02 0.  1.
        2   -1    0    0  501    0  0.00000000000E+00  0.00000000000E+00 -0.18789879706E+04  0.18789879706E+04  0.25500000920E-02 0. -1.
    10030    2    1    2    0    0  0.00000000000E+00  0.00000000000E+00  0.22210759212E+03  0.39800835333E+04  0.39738813708E+04 0.  0.
        2    1    3    3  502    0  0.12186778853E+03  0.74107612247E+03 -0.17313518689E+04  0.18872267673E+04  0.25500000920E-02 0. -1.
       -2    1    3    3    0  502 -0.12186778853E+03 -0.74107612247E+03  0.19534594610E+04  0.20928567660E+04  0.25500000920E-02 0.  1.
</event>
<event>
 5   0  0.2666978E-07  0.3728985E+04  0.7818609E-02  0.8061569E-01
        2   -1    0    0  501    0  0.00000000000E+00  0.00000000000E+00  0.22438458426E+04  0.22438458426E+04  0.25500000920E-02 0. -1.
       -2   -1    0    0    0  501  0.00000000000E+00  0.00000000000E+00 -0.15492737704E+04  0.15492737704E+04  0.25500000920E-02 0.  1.
    10030    2    1    2    0    0  0.00000000000E+00  0.00000000000E+00  0.69457207219E+03  0.37931196129E+04  0.37289845849E+04 0.  0.
        4    1    3    3  502    0  0.11358905370E+04 -0.83201763766E+03 -0.89595812190E+03  0.16689047997E+04  0.12699999809E+01 0.  1.
       -4    1    3    3    0  502 -0.11358905370E+04  0.83201763766E+03  0.15905301941E+04  0.21242148132E+04  0.12699999809E+01 0. -1.
</event>
<event>
 5   0  0.2704088E-07  0.3949923E+04  0.7818609E-02  0.8014725E-01
        2   -1    0    0  501    0  0.00000000000E+00  0.00000000000E+00  0.13469920513E+04  0.13469920513E+04  0.25500000920E-02 0.  1.
       -2   -1    0    0    0  501  0.00000000000E+00  0.00000000000E+00 -0.28956915788E+04  0.28956915788E+04  0.25500000920E-02 0. -1.
    10030    2    1    2    0    0  0.00000000000E+00  0.00000000000E+00 -0.15486995276E+04  0.42426836301E+04  0.39499233104E+04 0.  0.
        5    1    3    3  502    0  0.19661697861E+04 -0.18583675721E+03 -0.76401802845E+03  0.21175704394E+04  0.46999998093E+01 0. -1.
       -5    1    3    3    0  502 -0.19661697861E+04  0.18583675721E+03 -0.78468149912E+03  0.21251131907E+04  0.46999998093E+01 0.  1.
</event>
<event>
 5   0  0.2730801E-07  0.4042969E+04  0.7818609E-02  0.7995934E-01
       -2   -1    0    0    0  501  0.00000000000E+00  0.00000000000E+00  0.21461201111E+04  0.21461201111E+04  0.25500000920E-02 0. -1.
        2   -1    0    0  501    0  0.00000000000E+00  0.00000000000E+00 -0.19040868475E+04  0.19040868475E+04  0.25500000920E-02 0.  1.
    10030    2    1    2    0    0  0.00000000000E+00  0.00000000000E+00  0.24203326367E+03  0.40502069586E+04  0.40429687492E+04 0.  0.
        2    1    3    3  502    0 -0.19375944378E+02  0.13943385367E+04  0.15871406828E+04  0.21127164810E+04  0.25500000920E-02 0. -1.
       -2    1    3    3    0  502  0.19375944378E+02 -0.13943385367E+04 -0.13451074191E+04  0.19374904776E+04  0.25500000920E-02 0.  1.
</event>
<event>
 5   0  0.2661693E-07  0.4005408E+04  0.7818609E-02  0.8003457E-01
       -2   -1    0    0    0  501  0.00000000000E+00  0.00000000000E+00  0.23890652375E+04  0.23890652375E+04  0.25500000920E-02 0. -1.
        2   -1    0    0  501    0  0.00000000000E+00  0.00000000000E+00 -0.16788252500E+04  0.16788252500E+04  0.25500000920E-02 0.  1.
    10030    2    1    2    0    0  0.00000000000E+00  0.00000000000E+00  0.71023998755E+03  0.40678904875E+04  0.40054078667E+04 0.  0.
        1    1    3    3  502    0 -0.81095487747E+03 -0.16418472887E+04  0.11786408131E+04  0.21777292070E+04  0.50400001928E-02 0. -1.
       -1    1    3    3    0  502  0.81095487747E+03  0.16418472887E+04 -0.46840082553E+03  0.18901612805E+04  0.50400001928E-02 0.  1.
</event>
<event>
 5   0  0.2666978E-07  0.3956480E+04  0.7818609E-02  0.8013384E-01
       -2   -1    0    0    0  501  0.00000000000E+00  0.00000000000E+00  0.19304236547E+04  0.19304236547E+04  0.25500000920E-02 0. -1.
        2   -1    0    0  501    0  0.00000000000E+00  0.00000000000E+00 -0.20272406195E+04  0.20272406195E+04  0.25500000920E-02 0.  1.
    10030    2    1    2    0    0  0.00000000000E+00  0.00000000000E+00 -0.96816964806E+02  0.39576642741E+04  0.39564798726E+04 0.  0.
        4    1    3    3  502    0  0.13315818543E+04  0.61051086200E+03  0.12814999094E+04  0.19462983785E+04  0.12699999809E+01 0. -1.
       -4    1    3    3    0  502 -0.13315818543E+04 -0.61051086200E+03 -0.13783168742E+04  0.20113658956E+04  0.12699999809E+01 0.  1.
</event>
<event>
 5   0  0.2666978E-07  0.3848179E+04  0.7818609E-02  0.8035894E-01
       -2   -1    0    0    0  501  0.00000000000E+00  0.00000000000E+00  0.18221867606E+04  0.18221867606E+04  0.25500000920E-02 0.  1.
        2   -1    0    0  501    0  0.00000000000E+00  0.00000000000E+00 -0.20316905060E+04  0.20316905060E+04  0.25500000920E-02 0. -1.
    10030    2    1    2    0    0  0.00000000000E+00  0.00000000000E+00 -0.20950374542E+03  0.38538772667E+04  0.38481785519E+04 0.  0.
        4    1    3    3  502    0 -0.29709783691E+03  0.75070091762E+03 -0.18538487590E+04  0.20220227067E+04  0.12699999809E+01 0. -1.
       -4    1    3    3    0  502  0.29709783691E+03 -0.75070091762E+03  0.16443450136E+04  0.18318545600E+04  0.12699999809E+01 0.  1.
</event>
<event>
 5   0  0.2704088E-07  0.4034104E+04  0.7818609E-02  0.7997702E-01
       -2   -1    0    0    0  501  0.00000000000E+00  0.00000000000E+00  0.16870475183E+04  0.16870475183E+04  0.25500000920E-02 0.  1.
        2   -1    0    0  501    0  0.00000000000E+00  0.00000000000E+00 -0.24116093878E+04  0.24116093878E+04  0.25500000920E-02 0. -1.
    10030    2    1    2    0    0  0.00000000000E+00  0.00000000000E+00 -0.72456186953E+03  0.40986569061E+04  0.40341044274E+04 0.  0.
        5    1    3    3  502    0  0.95770489620E+03 -0.49868920266E+03 -0.20932412995E+04  0.23553281761E+04  0.46999998093E+01 0. -1.
       -5    1    3    3    0  502 -0.95770489620E+03  0.49868920266E+03  0.13686794300E+04  0.17433287301E+04  0.46999998093E+01 0.  1.
</event>
<event>
 5   0  0.8528625E-08  0.4002746E+04  0.7818609E-02  0.8003993E-01
       -1   -1    0    0    0  501  0.00000000000E+00  0.00000000000E+00  0.25285715205E+04  0.25285715205E+04  0.50400001928E-02 0. -1.
        1   -1    0    0  501    0  0.00000000000E+00  0.00000000000E+00 -0.15840933023E+04  0.15840933023E+04  0.50400001928E-02 0.  1.
    10030    2    1    2    0    0  0.00000000000E+00  0.00000000000E+00  0.94447821818E+03  0.41126648229E+04  0.40027456627E+04 0.  0.
        4    1    3    3  502    0 -0.12084560006E+02  0.70415571294E+03 -0.14525740589E+04  0.16142968482E+04  0.12699999809E+01 0.  1.
       -4    1    3    3    0  502  0.12084560006E+02 -0.70415571294E+03  0.23970522771E+04  0.24983679746E+04  0.12699999809E+01 0. -1.
</event>
<event>
 5   0  0.2704088E-07  0.3960086E+04  0.7818609E-02  0.8012647E-01
       -2   -1    0    0    0  501  0.00000000000E+00  0.00000000000E+00  0.25172407999E+04  0.25172407999E+04  0.25500000920E-02 0.  1.
        2   -1    0    0  501    0  0.00000000000E+00  0.00000000000E+00 -0.15574868103E+04  0.15574868103E+04  0.25500000920E-02 0. -1.
    10030    2    1    2    0    0  0.00000000000E+00  0.00000000000E+00  0.95975398956E+03  0.40747276102E+04  0.39600855265E+04 0.  0.
        5    1    3    3  502    0 -0.14581434792E+04  0.12429239328E+04 -0.34088064722E+02  0.19163054023E+04  0.46999998093E+01 0. -1.
       -5    1    3    3    0  502  0.14581434792E+04 -0.12429239328E+04  0.99384205429E+03  0.21584222079E+04  0.46999998093E+01 0.  1.
</event>
<event>
 5   0  0.2839279E-07  0.3995936E+04  0.7818609E-02  0.8005367E-01
       -2   -1    0    0    0  501  0.00000000000E+00  0.00000000000E+00  0.15072561521E+04  0.15072561521E+04  0.25500000920E-02 0.  1.
        2   -1    0    0  501    0  0.00000000000E+00  0.00000000000E+00 -0.26484390232E+04  0.26484390232E+04  0.25500000920E-02 0. -1.
    10030    2    1    2    0    0  0.00000000000E+00  0.00000000000E+00 -0.11411828711E+04  0.41556951753E+04  0.39959359410E+04 0.  0.
        3    1    3    3  502    0 -0.56031883863E+03 -0.39469375090E+03 -0.25223594896E+04  0.26138167042E+04  0.10100000352E+00 0. -1.
       -3    1    3    3    0  502  0.56031883863E+03  0.39469375090E+03  0.13811766185E+04  0.15418784711E+04  0.10100000352E+00 0.  1.
</event>
<event>
 5   0  0.8528625E-08  0.3967859E+04  0.7818609E-02  0.8011062E-01
       -1   -1    0    0    0  501  0.00000000000E+00  0.00000000000E+00  0.17570777594E+04  0.17570777594E+04  0.50400001928E-02 0.  1.
        1   -1    0    0  501    0  0.00000000000E+00  0.00000000000E+00 -0.22400694365E+04  0.22400694365E+04  0.50400001928E-02 0. -1.
    10030    2    1    2    0    0  0.00000000000E+00  0.00000000000E+00 -0.48299167708E+03  0.39971471960E+04  0.39678589625E+04 0.  0.
        2    1    3    3  502    0 -0.40228260015E+03  0.19424816522E+04 -0.21110818662E+03  0.19949017335E+04  0.25500000920E-02 0.  1.
       -2    1    3    3    0  502  0.40228260015E+03 -0.19424816522E+04 -0.27188349046E+03  0.20022454625E+04  0.25500000920E-02 0. -1.
</event>
<event>
 5   0  0.8583262E-08  0.4040335E+04  0.7818609E-02  0.7996459E-01
       -1   -1    0    0    0  501  0.00000000000E+00  0.00000000000E+00  0.17837159113E+04  0.17837159113E+04  0.50400001928E-02 0. -1.
        1   -1    0    0  501    0  0.00000000000E+00  0.00000000000E+00 -0.22879637209E+04  0.22879637209E+04  0.50400001928E-02 0.  1.
    10030    2    1    2    0    0  0.00000000000E+00  0.00000000000E+00 -0.50424780958E+03  0.40716796322E+04  0.40403352798E+04 0.  0.
        1    1    3    3  502    0  0.11953414132E+04  0.67590720901E+03  0.12410541682E+04  0.18509206081E+04  0.50400001928E-02 0. -1.
       -1    1    3    3    0  502 -0.11953414132E+04 -0.67590720901E+03 -0.17453019777E+04  0.22207590240E+04  0.50400001928E-02 0.  1.
</event>
<event>
 5   0  0.8528625E-08  0.4069457E+04  0.7818609E-02  0.7990680E-01
        1   -1    0    0  501    0  0.00000000000E+00  0.00000000000E+00  0.27163359339E+04  0.27163359339E+04  0.50400001928E-02 0. -1.
       -1   -1    0    0    0  501  0.00000000000E+00  0.00000000000E+00 -0.15241563154E+04  0.15241563154E+04  0.50400001928E-02 0.  1.
    10030    2    1    2    0    0  0.00000000000E+00  0.00000000000E+00  0.11921796186E+04  0.42404922493E+04  0.40694572456E+04 0.  0.
        5    1    3    3  502    0  0.22624386663E+03  0.20099261235E+04  0.82700955872E+03  0.21851673184E+04  0.46999998093E+01 0. -1.
       -5    1    3    3    0  502 -0.22624386663E+03 -0.20099261235E+04  0.36517005986E+03  0.20553249309E+04  0.46999998093E+01 0.  1.
</event>
<event>
 5   0  0.8528625E-08  0.4075292E+04  0.7818609E-02  0.7989528E-01
       -1   -1    0    0    0  501  0.00000000000E+00  0.00000000000E+00  0.18889368068E+04  0.18889368068E+04  0.50400001928E-02 0. -1.
        1   -1    0    0  501    0  0.00000000000E+00  0.00000000000E+00 -0.21980623775E+04  0.21980623775E+04  0.50400001928E-02 0.  1.
    10030    2    1    2    0    0  0.00000000000E+00  0.00000000000E+00 -0.30912557071E+03  0.40869991842E+04  0.40752918562E+04 0.  0.
        5    1    3    3  502    0 -0.45312320711E+03  0.13379528543E+04 -0.16272978574E+04  0.21548918506E+04  0.46999998093E+01 0.  1.
       -5    1    3    3    0  502  0.45312320711E+03 -0.13379528543E+04  0.13181722867E+04  0.19321073336E+04  0.46999998093E+01 0. -1.
</event>
<event>
 5   0  0.2661693E-07  0.2939606E+04  0.7818609E-02  0.8261190E-01
        2   -1    0    0  501    0  0.00000000000E+00  0.00000000000E+00  0.15622154030E+04  0.15622154030E+04  0.25500000920E-02 0. -1.
       -2   -1    0    0    0  501  0.00000000000E+00  0.00000000000E+00 -0.13828568415E+04  0.13828568415E+04  0.25500000920E-02 0.  1.
    10030    2    1    2    0    0  0.00000000000E+00  0.00000000000E+00  0.17935856143E+03  0.29450722445E+04  0.29396055912E+04 0.  0.
        1    1    3    3  502    0  0.11214044981E+03 -0.14140311539E+04  0.47544166033E+03  0.14960295308E+04  0.50400001928E-02 0. -1.
       -1    1    3    3    0  502 -0.11214044981E+03  0.14140311539E+04 -0.29608309890E+03  0.14490427137E+04  0.50400001928E-02 0.  1.
</event>
<event>
 5   0  0.2661693E-07  0.4019967E+04  0.7818609E-02  0.8000531E-01
       -2   -1    0    0    0  501  0.00000000000E+00  0.00000000000E+00  0.22514421453E+04  0.22514421453E+04  0.25500000920E-02 0. -1.
        2   -1    0    0  501    0  0.00000000000E+00  0.00000000000E+00 -0.17944202159E+04  0.17944202159E+04  0.25500000920E-02 0.  1.
    10030    2    1    2    0    0  0.00000000000E+00  0.00000000000E+00  0.45702192936E+03  0.40458623612E+04  0.40199668160E+04 0.  0.
        1    1    3    3  502    0  0.69944290944E+03  0.61796494697E+03 -0.15631057793E+04  0.18205495700E+04  0.50400001928E-02 0.  1.
       -1    1    3    3    0  502 -0.69944290944E+03 -0.61796494697E+03  0.20201277087E+04  0.22253127912E+04  0.50400001928E-02 0. -1.
</event>
<event>
 5   0  0.8583262E-08  0.3592820E+04  0.7818609E-02  0.8092138E-01
       -1   -1    0    0    0  501  0.00000000000E+00  0.00000000000E+00  0.12184388641E+04  0.12184388641E+04  0.50400001928E-02 0. -1.
        1   -1    0    0  501    0  0.00000000000E+00  0.00000000000E+00 -0.26485433610E+04  0.26485433610E+04  0.50400001928E-02 0.  1.
    10030    2    1    2    0    0  0.00000000000E+00  0.00000000000E+00 -0.14301044969E+04  0.38669822250E+04  0.35928195970E+04 0.  0.
        1    1    3    3  502    0  0.10967674691E+04 -0.52637771679E+03 -0.21377007419E+04  0.24596212806E+04  0.50400001928E-02 0.  1.
       -1    1    3    3    0  502 -0.10967674691E+04  0.52637771679E+03  0.70759624500E+03  0.14073609444E+04  0.50400001928E-02 0. -1.
</event>
<event>
 5   0  0.2730801E-07  0.4044828E+04  0.7818609E-02  0.7995564E-01
        2   -1    0    0  501    0  0.00000000000E+00  0.00000000000E+00  0.33270604220E+04  0.33270604220E+04  0.25500000920E-02 0. -1.
       -2   -1    0    0    0  501  0.00000000000E+00  0.00000000000E+00 -0.12293609108E+04  0.12293609108E+04  0.25500000920E-02 0.  1.
    10030    2    1    2    0    0  0.00000000000E+00  0.00000000000E+00  0.20976995112E+04  0.45564213328E+04  0.40448278236E+04 0.  0.
        2    1    3    3  502    0  0.64703976937E+03 -0.93644213403E+03  0.29319854715E+04  0.31451745800E+04  0.25500000920E-02 0. -1.
       -2    1    3    3    0  502 -0.64703976937E+03  0.93644213403E+03 -0.83428596034E+03  0.14112467528E+04  0.25500000920E-02 0.  1.
</event>
<event>
 5   0  0.2704088E-07  0.3991860E+04  0.7818609E-02  0.8006191E-01
        2   -1    0    0  501    0  0.00000000000E+00  0.00000000000E+00  0.22018114632E+04  0.22018114632E+04  0.25500000920E-02 0.  1.
       -2   -1    0    0    0  501  0.00000000000E+00  0.00000000000E+00 -0.18092997776E+04  0.18092997776E+04  0.25500000920E-02 0. -1.
    10030    2    1    2    0    0  0.00000000000E+00  0.00000000000E+00  0.39251168561E+03  0.40111112409E+04  0.39918602134E+04 0.  0.
        5    1    3    3  502    0  0.17178302984E+04  0.43694911101E+03  0.11182042019E+04  0.20957738873E+04  0.46999998093E+01 0.  1.
       -5    1    3    3    0  502 -0.17178302984E+04 -0.43694911101E+03 -0.72569251633E+03  0.19153373535E+04  0.46999998093E+01 0. -1.
</event>
<event>
 5   0  0.2704088E-07  0.4041791E+04  0.7818609E-02  0.7996169E-01
        2   -1    0    0  501    0  0.00000000000E+00  0.00000000000E+00  0.22457782092E+04  0.22457782092E+04  0.25500000920E-02 0.  1.
       -2   -1    0    0    0  501  0.00000000000E+00  0.00000000000E+00 -0.18185316899E+04  0.18185316899E+04  0.25500000920E-02 0. -1.
    10030    2    1    2    0    0  0.00000000000E+00  0.00000000000E+00  0.42724651928E+03  0.40643098991E+04  0.40417911089E+04 0.  0.
        5    1    3    3  502    0  0.68810148707E+03  0.14546060337E+04  0.14429871002E+04  0.21613875708E+04  0.46999998093E+01 0.  1.
       -5    1    3    3    0  502 -0.68810148707E+03 -0.14546060337E+04 -0.10157405809E+04  0.19029223283E+04  0.46999998093E+01 0. -1.
</event>
<event>
 5   0  0.8583262E-08  0.3816167E+04  0.7818609E-02  0.8042694E-01
       -1   -1    0    0    0  501  0.00000000000E+00  0.00000000000E+00  0.14193348296E+04  0.14193348296E+04  0.50400001928E-02 0. -1.
        1   -1    0    0  501    0  0.00000000000E+00  0.00000000000E+00 -0.25651326323E+04  0.25651326323E+04  0.50400001928E-02 0.  1.
    10030    2    1    2    0    0  0.00000000000E+00  0.00000000000E+00 -0.11457978027E+04  0.39844674619E+04  0.38161667089E+04 0.  0.
        1    1    3    3  502    0  0.41766744296E+03 -0.13885907459E+04 -0.18678177007E+04  0.23646084910E+04  0.50400001928E-02 0.  1.
       -1    1    3    3    0  502 -0.41766744296E+03  0.13885907459E+04  0.72201989791E+03  0.16198589709E+04  0.50400001928E-02 0. -1.
</event>
<event>
 5   0  0.8528625E-08  0.3109297E+04  0.7818609E-02  0.8213191E-01
        1   -1    0    0  501    0  0.00000000000E+00  0.00000000000E+00  0.25384171374E+04  0.25384171374E+04  0.50400001928E-02 0.  1.
       -1   -1    0    0    0  501  0.00000000000E+00  0.00000000000E+00 -0.95214142313E+03  0.95214142314E+03  0.50400001928E-02 0. -1.
    10030    2    1    2    0    0  0.00000000000E+00  0.00000000000E+00  0.15862757143E+04  0.34905585605E+04  0.31092970947E+04 0.  0.
        4    1    3    3  502    0  0.13953846819E+04  0.66195192423E+03  0.59341330767E+03  0.16545149522E+04  0.12699999809E+01 0. -1.
       -4    1    3    3    0  502 -0.13953846819E+04 -0.66195192423E+03  0.99286240658E+03  0.18360436083E+04  0.12699999809E+01 0.  1.
</event>
<event>
 5   0  0.2839279E-07  0.3787493E+04  0.7818609E-02  0.8048844E-01
       -2   -1    0    0    0  501  0.00000000000E+00  0.00000000000E+00  0.22643584516E+04  0.22643584516E+04  0.25500000920E-02 0. -1.
        2   -1    0    0  501    0  0.00000000000E+00  0.00000000000E+00 -0.15837931004E+04  0.15837931004E+04  0.25500000920E-02 0.  1.
    10030    2    1    2    0    0  0.00000000000E+00  0.00000000000E+00  0.68056535116E+03  0.38481515520E+04  0.37874927287E+04 0.  0.
        3    1    3    3  502    0 -0.18311047331E+04 -0.46832015865E+03  0.46052916965E+03  0.19453419856E+04  0.10100000352E+00 0.  1.
       -3    1    3    3    0  502  0.18311047331E+04  0.46832015865E+03  0.22003618151E+03  0.19028095664E+04  0.10100000352E+00 0. -1.
</event>
<event>
 5   0  0.2661693E-07  0.4032152E+04  0.7818609E-02  0.7998092E-01
       -2   -1    0    0    0  501  0.00000000000E+00  0.00000000000E+00  0.14823635349E+04  0.14823635349E+04  0.25500000920E-02 0.  1.
        2   -1    0    0  501    0  0.00000000000E+00  0.00000000000E+00 -0.27419468941E+04  0.27419468941E+04  0.25500000920E-02 0. -1.
    10030    2    1    2    0    0  0.00000000000E+00  0.00000000000E+00 -0.12595833592E+04  0.42243104290E+04  0.40321518277E+04 0.  0.
        1    1    3    3  502    0  0.48920251539E+03 -0.98575482261E+03  0.11399513150E+04  0.15844622659E+04  0.50400001928E-02 0.  1.
       -1    1    3    3    0  502 -0.48920251539E+03  0.98575482261E+03 -0.23995346743E+04  0.26398481631E+04  0.50400001928E-02 0. -1.
</event>
<event>
 5   0  0.2704088E-07  0.4118461E+04  0.7818609E-02  0.7981066E-01
        2   -1    0    0  501    0  0.00000000000E+00  0.00000000000E+00  0.19950052606E+04  0.19950052606E+04  0.25500000920E-02 0. -1.
       -2   -1    0    0    0  501  0.00000000000E+00  0.00000000000E+00 -0.21255238596E+04  0.21255238596E+04  0.25500000920E-02 0.  1.
    10030    2    1    2    0    0  0.00000000000E+00  0.00000000000E+00 -0.13051859907E+03  0.41205291202E+04  0.41184614999E+04 0.  0.
        5    1    3    3  502    0 -0.42834201735E+03 -0.16103610690E+04 -0.12756887840E+04  0.20986051605E+04  0.46999998093E+01 0.  1.
       -5    1    3    3    0  502  0.42834201735E+03  0.16103610690E+04  0.11451701849E+04  0.20219239597E+04  0.46999998093E+01 0. -1.
</event>
<event>
 5   0  0.8528625E-08  0.3925598E+04  0.7818609E-02  0.8019726E-01
       -1   -1    0    0    0  501  0.00000000000E+00  0.00000000000E+00  0.14994102615E+04  0.14994102615E+04  0.50400001928E-02 0. -1.
        1   -1    0    0  501    0  0.00000000000E+00  0.00000000000E+00 -0.25693966993E+04  0.25693966993E+04  0.50400001928E-02 0.  1.
    10030    2    1    2    0    0  0.00000000000E+00  0.00000000000E+00 -0.10699864378E+04  0.40688069609E+04  0.39255979300E+04 0.  0.
        2    1    3    3  502    0  0.11839893085E+04 -0.56269810373E+03 -0.20491494269E+04  0.24325857051E+04  0.25500000920E-02 0.  1.
       -2    1    3    3    0  502 -0.11839893085E+04  0.56269810373E+03  0.97916298912E+03  0.16362212558E+04  0.25500000920E-02 0. -1.
</event>
<event>
 5   0  0.2839279E-07  0.4032707E+04  0.7818609E-02  0.7997981E-01
       -2   -1    0    0    0  501  0.00000000000E+00  0.00000000000E+00  0.16922902718E+04  0.16922902718E+04  0.25500000920E-02 0. -1.
        2   -1    0    0  501    0  0.00000000000E+00  0.00000000000E+00 -0.24024729313E+04  0.24024729313E+04  0.25500000920E-02 0.  1.
    10030    2    1    2    0    0  0.00000000000E+00  0.00000000000E+00 -0.71018265949E+03  0.40947632032E+04  0.40327070660E+04 0.  0.
        3    1    3    3  502    0 -0.15438894793E+04  0.75952277546E+03  0.71237677988E+03  0.18622433400E+04  0.10100000352E+00 0. -1.
       -3    1    3    3    0  502  0.15438894793E+04 -0.75952277546E+03 -0.14225594394E+04  0.22325198632E+04  0.10100000352E+00 0.  1.
</event>
<event>
 5   0  0.2666978E-07  0.4035729E+04  0.7818609E-02  0.7997377E-01
        2   -1    0    0  501    0  0.00000000000E+00  0.00000000000E+00  0.25741889395E+04  0.25741889395E+04  0.25500000920E-02 0.  1.
       -2   -1    0    0    0  501  0.00000000000E+00  0.00000000000E+00 -0.15817710364E+04  0.15817710364E+04  0.25500000920E-02 0. -1.
    10030    2    1    2    0    0  0.00000000000E+00  0.00000000000E+00  0.99241790310E+03  0.41559599759E+04  0.40357291816E+04 0.  0.
        4    1    3    3  502    0 -0.18005762051E+04 -0.42527342678E+03 -0.33329679580E+03  0.18798990730E+04  0.12699999809E+01 0. -1.
       -4    1    3    3    0  502  0.18005762051E+04  0.42527342678E+03  0.13257146989E+04  0.22760609029E+04  0.12699999809E+01 0.  1.
</event>
<event>
 5   0  0.2839279E-07  0.3987969E+04  0.7818609E-02  0.8006978E-01
       -2   -1    0    0    0  501  0.00000000000E+00  0.00000000000E+00  0.27612213248E+04  0.27612213248E+04  0.25500000920E-02 0. -1.
        2   -1    0    0  501    0  0.00000000000E+00  0.00000000000E+00 -0.14399330274E+04  0.14399330274E+04  0.25500000920E-02 0.  1.
    10030    2    1    2    0    0  0.00000000000E+00  0.00000000000E+00  0.13212882973E+04  0.42011543522E+04  0.39879687971E+04 0.  0.
        3    1    3    3  502    0 -0.92209117361E+03  0.88075797622E+03 -0.95427066630E+03  0.15926767594E+04  0.10100000352E+00 0.  1.
       -3    1    3    3    0  502  0.92209117361E+03 -0.88075797622E+03  0.22755589637E+04  0.26084775928E+04  0.10100000352E+00 0. -1.
</event>
<event>
 5   0  0.2666978E-07  0.3956430E+04  0.7818609E-02  0.8013394E-01
        2   -1    0    0  501    0  0.00000000000E+00  0.00000000000E+00  0.19850122131E+04  0.19850122131E+04  0.25500000920E-02 0. -1.
       -2   -1    0    0    0  501  0.00000000000E+00  0.00000000000E+00 -0.19714413456E+04  0.19714413456E+04  0.25500000920E-02 0.  1.
    10030    2    1    2    0    0  0.00000000000E+00  0.00000000000E+00  0.13570867476E+02  0.39564535588E+04  0.39564302842E+04 0.  0.
        4    1    3    3  502    0 -0.17879102621E+03 -0.19005123683E+04  0.52584536514E+03  0.19800071853E+04  0.12699999809E+01 0. -1.
       -4    1    3    3    0  502  0.17879102621E+03  0.19005123683E+04 -0.51227449767E+03  0.19764463734E+04  0.12699999809E+01 0.  1.
</event>
<event>
 5   0  0.2661693E-07  0.3992340E+04  0.7818609E-02  0.8006094E-01
        2   -1    0    0  501    0  0.00000000000E+00  0.00000000000E+00  0.16245168212E+04  0.16245168212E+04  0.25500000920E-02 0. -1.
       -2   -1    0    0    0  501  0.00000000000E+00  0.00000000000E+00 -0.24528491507E+04  0.24528491507E+04  0.25500000920E-02 0.  1.
    10030    2    1    2    0    0  0.00000000000E+00  0.00000000000E+00 -0.82833232948E+03  0.40773659719E+04  0.39923400182E+04 0.  0.
        1    1    3    3  502    0  0.13243914294E+03 -0.31609969034E+03 -0.24225766759E+04  0.24466991829E+04  0.50400001928E-02 0.  1.
       -1    1    3    3    0  502 -0.13243914294E+03  0.31609969034E+03  0.15942443464E+04  0.16306667891E+04  0.50400001928E-02 0. -1.
</event>
<event>
 5   0  0.8528625E-08  0.3896415E+04  0.7818609E-02  0.8025775E-01
       -1   -1    0    0    0  501  0.00000000000E+00  0.00000000000E+00  0.16310846939E+04  0.16310846939E+04  0.50400001928E-02 0. -1.
        1   -1    0    0  501    0  0.00000000000E+00  0.00000000000E+00 -0.23269865403E+04  0.23269865403E+04  0.50400001928E-02 0.  1.
    10030    2    1    2    0    0  0.00000000000E+00  0.00000000000E+00 -0.69590184641E+03  0.39580712341E+04  0.38964148284E+04 0.  0.
        4    1    3    3  502    0 -0.19548663618E+03  0.92544840019E+03 -0.20780873992E+04  0.22832254856E+04  0.12699999809E+01 0.  1.
       -4    1    3    3    0  502  0.19548663618E+03 -0.92544840019E+03  0.13821855528E+04  0.16748457486E+04  0.12699999809E+01 0. -1.
</event>
<event>
 5   0  0.2839279E-07  0.3975481E+04  0.7818609E-02  0.8009511E-01
        2   -1    0    0  501    0  0.00000000000E+00  0.00000000000E+00  0.15557217099E+04  0.15557217099E+04  0.25500000920E-02 0. -1.
       -2   -1    0    0    0  501  0.00000000000E+00  0.00000000000E+00 -0.25397298811E+04  0.25397298811E+04  0.25500000920E-02 0.  1.
    10030    2    1    2    0    0  0.00000000000E+00  0.00000000000E+00 -0.98400817119E+03  0.40954515910E+04  0.39754813109E+04 0.  0.
        3    1    3    3  502    0  0.22696970957E+03  0.15693234561E+04 -0.17268520677E+04  0.23444209163E+04  0.10100000352E+00 0.  1.
       -3    1    3    3    0  502 -0.22696970957E+03 -0.15693234561E+04  0.74284389655E+03  0.17510306747E+04  0.10100000352E+00 0. -1.
</event>
<event>
 5   0  0.2704088E-07  0.4024290E+04  0.7818609E-02  0.7999664E-01
       -2   -1    0    0    0  501  0.00000000000E+00  0.00000000000E+00  0.18102682218E+04  0.18102682218E+04  0.25500000920E-02 0. -1.
        2   -1    0    0  501    0  0.00000000000E+00  0.00000000000E+00 -0.22365342403E+04  0.22365342403E+04  0.25500000920E-02 0.  1.
    10030    2    1    2    0    0  0.00000000000E+00  0.00000000000E+00 -0.42626601850E+03  0.40468024621E+04  0.40242896825E+04 0.  0.
        5    1    3    3  502    0  0.12395245373E+04 -0.75784286833E+03  0.11867602982E+04  0.18759448251E+04  0.46999998093E+01 0. -1.
       -5    1    3    3    0  502 -0.12395245373E+04  0.75784286833E+03 -0.16130263167E+04  0.21708576369E+04  0.46999998093E+01 0.  1.
</event>
<event>
 5   0  0.8528625E-08  0.3994218E+04  0.7818609E-02  0.8005714E-01
       -1   -1    0    0    0  501  0.00000000000E+00  0.00000000000E+00  0.28276251315E+04  0.28276251315E+04  0.50400001928E-02 0.  1.
        1   -1    0    0  501    0  0.00000000000E+00  0.00000000000E+00 -0.14105277174E+04  0.14105277175E+04  0.50400001928E-02 0. -1.
    10030    2    1    2    0    0  0.00000000000E+00  0.00000000000E+00  0.14170974141E+04  0.42381528490E+04  0.39942176318E+04 0.  0.
        3    1    3    3  502    0 -0.82463901406E+03  0.93257029149E+03  0.23655637951E+04  0.26731271820E+04  0.10100000352E+00 0.  1.
       -3    1    3    3    0  502  0.82463901406E+03 -0.93257029149E+03 -0.94846638107E+03  0.15650256670E+04  0.10100000352E+00 0. -1.
</event>
<event>
 5   0  0.8528625E-08  0.3949600E+04  0.7818609E-02  0.8014792E-01
       -1   -1    0    0    0  501  0.00000000000E+00  0.00000000000E+00  0.16702055005E+04  0.16702055005E+04  0.50400001928E-02 0.  1.
        1   -1    0    0  501    0  0.00000000000E+00  0.00000000000E+00 -0.23349434785E+04  0.23349434786E+04  0.50400001928E-02 0. -1.
    10030    2    1    2    0    0  0.00000000000E+00  0.00000000000E+00 -0.66473797803E+03  0.40051489791E+04  0.39496002032E+04 0.  0.
        4    1    3    3  502    0 -0.13772344154E+04  0.12790926231E+04  0.28194086143E+03  0.19006169619E+04  0.12699999809E+01 0. -1.
       -4    1    3    3    0  502  0.13772344154E+04 -0.12790926231E+04 -0.94667883947E+03  0.21045320172E+04  0.12699999809E+01 0.  1.
</event>
<event>
 5   0  0.2666978E-07  0.4059159E+04  0.7818609E-02  0.7992718E-01
       -2   -1    0    0    0  501  0.00000000000E+00  0.00000000000E+00  0.30598426616E+04  0.30598426616E+04  0.25500000920E-02 0.  1.
        2   -1    0    0  501    0  0.00000000000E+00  0.00000000000E+00 -0.13462103939E+04  0.13462103939E+04  0.25500000920E-02 0. -1.
    10030    2    1    2    0    0  0.00000000000E+00  0.00000000000E+00  0.17136322677E+04  0.44060530555E+04  0.40591585308E+04 0.  0.
        4    1    3    3  502    0  0.16051962671E+04  0.29229569895E+03 -0.45344594611E+03  0.16934304445E+04  0.12699999809E+01 0. -1.
       -4    1    3    3    0  502 -0.16051962671E+04 -0.29229569895E+03  0.21670782139E+04  0.27126226109E+04  0.12699999809E+01 0.  1.
</event>
<event>
 5   0  0.8528625E-08  0.2925966E+04  0.7818609E-02  0.8265194E-01
        1   -1    0    0  501    0  0.00000000000E+00  0.00000000000E+00  0.24921592619E+04  0.24921592619E+04  0.50400001928E-02 0. -1.
       -1   -1    0    0    0  501  0.00000000000E+00  0.00000000000E+00 -0.85882109060E+03  0.85882109061E+03  0.50400001928E-02 0.  1.
    10030    2    1    2    0    0  0.00000000000E+00  0.00000000000E+00  0.16333381713E+04  0.33509803525E+04  0.29259657792E+04 0.  0.
        3    1    3    3  502    0  0.99412311172E+03 -0.10613009026E+04  0.63314716111E+03  0.15860377375E+04  0.10100000352E+00 0.  1.
       -3    1    3    3    0  502 -0.99412311172E+03  0.10613009026E+04  0.10001910102E+04  0.17649426150E+04  0.10100000352E+00 0. -1.
</event>
<event>
 5   0  0.2704088E-07  0.3992315E+04  0.7818609E-02  0.8006099E-01
        2   -1    0    0  501    0  0.00000000000E+00  0.00000000000E+00  0.15957963365E+04  0.15957963365E+04  0.25500000920E-02 0.  1.
       -2   -1    0    0    0  501  0.00000000000E+00  0.00000000000E+00 -0.24969633642E+04  0.24969633642E+04  0.25500000920E-02 0. -1.
    10030    2    1    2    0    0  0.00000000000E+00  0.00000000000E+00 -0.90116702763E+03  0.40927597007E+04  0.39923151123E+04 0.  0.
        5    1    3    3  502    0  0.64732084091E+03  0.87271536987E+02  0.14831353144E+04  0.16206026789E+04  0.46999998093E+01 0.  1.
       -5    1    3    3    0  502 -0.64732084091E+03 -0.87271536987E+02 -0.23843023420E+04  0.24721570218E+04  0.46999998093E+01 0. -1.
</event>
<event>
 5   0  0.2730801E-07  0.4054336E+04  0.7818609E-02  0.7993674E-01
       -2   -1    0    0    0  501  0.00000000000E+00  0.00000000000E+00  0.14675319352E+04  0.14675319352E+04  0.25500000920E-02 0.  1.
        2   -1    0    0  501    0  0.00000000000E+00  0.00000000000E+00 -0.28002179351E+04  0.28002179351E+04  0.25500000920E-02 0. -1.
    10030    2    1    2    0    0  0.00000000000E+00  0.00000000000E+00 -0.13326860000E+04  0.42677498703E+04  0.40543355782E+04 0.  0.
        2    1    3    3  502    0  0.15109815238E+04  0.13504859177E+04 -0.61337669921E+03  0.21173352012E+04  0.25500000920E-02 0.  1.
       -2    1    3    3    0  502 -0.15109815238E+04 -0.13504859177E+04 -0.71930930077E+03  0.21504146691E+04  0.25500000920E-02 0. -1.
</event>
<event>
 5   0  0.2704088E-07  0.4065039E+04  0.7818609E-02  0.7991553E-01
        2   -1    0    0  501    0  0.00000000000E+00  0.00000000000E+00  0.16302706892E+04  0.16302706892E+04  0.25500000920E-02 0. -1.
       -2   -1    0    0    0  501  0.00000000000E+00  0.00000000000E+00 -0.25340181773E+04  0.25340181773E+04  0.25500000920E-02 0.  1.
    10030    2    1    2    0    0  0.00000000000E+00  0.00000000000E+00 -0.90374748810E+03  0.41642888665E+04  0.40650390209E+04 0.  0.
        5    1    3    3  502    0  0.16766119781E+04 -0.45569207317E+02 -0.16279496389E+04  0.23373802418E+04  0.46999998093E+01 0.  1.
       -5    1    3    3    0  502 -0.16766119781E+04  0.45569207317E+02  0.72420215079E+03  0.18269086247E+04  0.46999998093E+01 0. -1.
</event>
<event>
 5   0  0.8528625E-08  0.4010895E+04  0.7818609E-02  0.8002352E-01
       -1   -1    0    0    0  501  0.00000000000E+00  0.00000000000E+00  0.22819319595E+04  0.22819319595E+04  0.50400001928E-02 0. -1.
        1   -1    0    0  501    0  0.00000000000E+00  0.00000000000E+00 -0.17624626350E+04  0.17624626350E+04  0.50400001928E-02 0.  1.
    10030    2    1    2    0    0  0.00000000000E+00  0.00000000000E+00  0.51946932453E+03  0.40443945945E+04  0.40108950693E+04 0.  0.
        5    1    3    3  502    0  0.64258405658E+03  0.17136559953E+04 -0.56703205147E+03  0.19160058918E+04  0.46999998093E+01 0. -1.
       -5    1    3    3    0  502 -0.64258405658E+03 -0.17136559953E+04  0.10865013760E+04  0.21283887027E+04  0.46999998093E+01 0.  1.
</event>
<event>
 5   0  0.8528625E-08  0.4397948E+04  0.7818609E-02  0.7928751E-01
       -1   -1    0    0    0  501  0.00000000000E+00  0.00000000000E+00  0.21501536384E+04  0.21501536384E+04  0.50400001928E-02 0.  1.
        1   -1    0    0  501    0  0.00000000000E+00  0.00000000000E+00 -0.22489033267E+04  0.22489033267E+04  0.50400001928E-02 0. -1.
    10030    2    1    2    0    0  0.00000000000E+00  0.00000000000E+00 -0.98749688280E+02  0.43990569652E+04  0.43979484629E+04 0.  0.
        4    1    3    3  502    0  0.10297014927E+04  0.10260665953E+04 -0.16997568495E+04  0.22365761294E+04  0.12699999809E+01 0. -1.
       -4    1    3    3    0  502 -0.10297014927E+04 -0.10260665953E+04  0.16010071612E+04  0.21624808358E+04  0.12699999809E+01 0.  1.
</event>
<event>
 5   0  0.2839279E-07  0.3944524E+04  0.7818609E-02  0.8015832E-01
       -2   -1    0    0    0  501  0.00000000000E+00  0.00000000000E+00  0.18812185007E+04  0.18812185007E+04  0.25500000920E-02 0. -1.
        2   -1    0    0  501    0  0.00000000000E+00  0.00000000000E+00 -0.20677113215E+04  0.20677113215E+04  0.25500000920E-02 0.  1.
    10030    2    1    2    0    0  0.00000000000E+00  0.00000000000E+00 -0.18649282080E+03  0.39489298221E+04  0.39445236934E+04 0.  0.
        3    1    3    3  502    0 -0.12604396567E+04  0.21737692033E+03 -0.15962081411E+04  0.20454440333E+04  0.10100000352E+00 0.  1.
       -3    1    3    3    0  502  0.12604396567E+04 -0.21737692033E+03  0.14097153203E+04  0.19034857888E+04  0.10100000352E+00 0. -1.
</event>
<event>
 5   0  0.8528625E-08  0.3969275E+04  0.7818609E-02  0.8010774E-01
       -1   -1    0    0    0  501  0.00000000000E+00  0.00000000000E+00  0.23572604998E+04  0.23572604998E+04  0.50400001928E-02 0.  1.
        1   -1    0    0  501    0  0.00000000000E+00  0.00000000000E+00 -0.16709170672E+04  0.16709170672E+04  0.50400001928E-02 0. -1.
    10030    2    1    2    0    0  0.00000000000E+00  0.00000000000E+00  0.68634343255E+03  0.40281775670E+04  0.39692754004E+04 0.  0.
        2    1    3    3  502    0  0.13559742148E+04  0.11467893717E+04 -0.55597545493E+03  0.18608870575E+04  0.25500000920E-02 0. -1.
       -2    1    3    3    0  502 -0.13559742148E+04 -0.11467893717E+04  0.12423188875E+04  0.21672905095E+04  0.25500000920E-02 0.  1.
</event>
<event>
 5   0  0.2666978E-07  0.3983142E+04  0.7818609E-02  0.8007956E-01
        2   -1    0    0  501    0  0.00000000000E+00  0.00000000000E+00  0.26743177807E+04  0.26743177807E+04  0.25500000920E-02 0.  1.
       -2   -1    0    0    0  501  0.00000000000E+00  0.00000000000E+00 -0.14831275438E+04  0.14831275438E+04  0.25500000920E-02 0. -1.
    10030    2    1    2    0    0  0.00000000000E+00  0.00000000000E+00  0.11911902369E+04  0.41574453245E+04  0.39831416552E+04 0.  0.
        4    1    3    3  502    0  0.15623952961E+03 -0.91999421947E+03  0.24320061298E+04  0.26048907046E+04  0.12699999809E+01 0.  1.
       -4    1    3    3    0  502 -0.15623952961E+03  0.91999421947E+03 -0.12408158930E+04  0.15525546199E+04  0.12699999809E+01 0. -1.
</event>
<event>
 5   0  0.8528625E-08  0.4017925E+04  0.7818609E-02  0.8000940E-01
       -1   -1    0    0    0  501  0.00000000000E+00  0.00000000000E+00  0.28975072058E+04  0.28975072058E+04  0.50400001928E-02 0.  1.
        1   -1    0    0  501    0  0.00000000000E+00  0.00000000000E+00 -0.13928971412E+04  0.13928971412E+04  0.50400001928E-02 0. -1.
    10030    2    1    2    0    0  0.00000000000E+00  0.00000000000E+00  0.15046100647E+04  0.42904043470E+04  0.40179245904E+04 0.  0.
        4    1    3    3  502    0 -0.12360235308E+03 -0.11733417086E+04 -0.98397816850E+03  0.15363017138E+04  0.12699999809E+01 0. -1.
       -4    1    3    3    0  502  0.12360235308E+03  0.11733417086E+04  0.24885882332E+04  0.27541026332E+04  0.12699999809E+01 0.  1.
</event>
<event>
 5   0  0.8583262E-08  0.3256791E+04  0.7818609E-02  0.8173978E-01
        1   -1    0    0  501    0  0.00000000000E+00  0.00000000000E+00  0.17415687387E+04  0.17415687387E+04  0.50400001928E-02 0.  1.
       -1   -1    0    0    0  501  0.00000000000E+00  0.00000000000E+00 -0.15225765271E+04  0.15225765271E+04  0.50400001928E-02 0. -1.
    10030    2    1    2    0    0  0.00000000000E+00  0.00000000000E+00  0.21899221165E+03  0.32641452658E+04  0.32567908633E+04 0.  0.
        1    1    3    3  502    0 -0.47247337786E+03 -0.28446498209E+02  0.16711003439E+04  0.17368409989E+04  0.50400001928E-02 0.  1.
       -1    1    3    3    0  502  0.47247337786E+03  0.28446498209E+02 -0.14521081322E+04  0.15273042669E+04  0.50400001928E-02 0. -1.
</event>
<event>
 5   0  0.8528625E-08  0.4012414E+04  0.7818609E-02  0.8002047E-01
       -1   -1    0    0    0  501  0.00000000000E+00  0.00000000000E+00  0.15634594652E+04  0.15634594652E+04  0.50400001928E-02 0. -1.
        1   -1    0    0  501    0  0.00000000000E+00  0.00000000000E+00 -0.25743343454E+04  0.25743343454E+04  0.50400001928E-02 0.  1.
    10030    2    1    2    0    0  0.00000000000E+00  0.00000000000E+00 -0.10108748801E+04  0.41377938106E+04  0.40124144347E+04 0.  0.
        5    1    3    3  502    0 -0.35693327047E+03  0.19741930954E+04 -0.50300328391E+03  0.20683022340E+04  0.46999998093E+01 0. -1.
       -5    1    3    3    0  502  0.35693327047E+03 -0.19741930954E+04 -0.50787159624E+03  0.20694915766E+04  0.46999998093E+01 0.  1.
</event>
<event>
 5   0  0.8528625E-08  0.4021598E+04  0.7818609E-02  0.8000204E-01
        1   -1    0    0  501    0  0.00000000000E+00  0.00000000000E+00  0.18100344527E+04  0.18100344527E+04  0.50400001928E-02 0.  1.
       -1   -1    0    0    0  501  0.00000000000E+00  0.00000000000E+00 -0.22338319055E+04  0.22338319055E+04  0.50400001928E-02 0. -1.
    10030    2    1    2    0    0  0.00000000000E+00  0.00000000000E+00 -0.42379745283E+03  0.40438663582E+04  0.40215980458E+04 0.  0.
        3    1    3    3  502    0  0.92877962722E+03  0.14481821797E+04  0.83475365493E+03  0.19122439426E+04  0.10100000352E+00 0.  1.
       -3    1    3    3    0  502 -0.92877962722E+03 -0.14481821797E+04 -0.12585511078E+04  0.21316224156E+04  0.10100000352E+00 0. -1.
</event>
<event>
 5   0  0.2730801E-07  0.4017176E+04  0.7818609E-02  0.8001091E-01
       -2   -1    0    0    0  501  0.00000000000E+00  0.00000000000E+00  0.18187866839E+04  0.18187866839E+04  0.25500000920E-02 0.  1.
        2   -1    0    0  501    0  0.00000000000E+00  0.00000000000E+00 -0.22181958310E+04  0.22181958310E+04  0.25500000920E-02 0. -1.
    10030    2    1    2    0    0  0.00000000000E+00  0.00000000000E+00 -0.39940914707E+03  0.40369825149E+04  0.40171756445E+04 0.  0.
        2    1    3    3  502    0 -0.16072361768E+03  0.14163757981E+04  0.12223600540E+04  0.18777956716E+04  0.25500000920E-02 0.  1.
       -2    1    3    3    0  502  0.16072361768E+03 -0.14163757981E+04 -0.16217692011E+04  0.21591868433E+04  0.25500000920E-02 0. -1.
</event>
<event>
 5   0  0.8528625E-08  0.3696449E+04  0.7818609E-02  0.8068749E-01
       -1   -1    0    0    0  501  0.00000000000E+00  0.00000000000E+00  0.21748280596E+04  0.21748280596E+04  0.50400001928E-02 0.  1.
        1   -1    0    0  501    0  0.00000000000E+00  0.00000000000E+00 -0.15706682787E+04  0.15706682787E+04  0.50400001928E-02 0. -1.
    10030    2    1    2    0    0  0.00000000000E+00  0.00000000000E+00  0.60415978093E+03  0.37454963383E+04  0.36964488065E+04 0.  0.
        4    1    3    3  502    0  0.15784616601E+03  0.10180715502E+04  0.18568935193E+04  0.21235442657E+04  0.12699999809E+01 0.  1.
       -4    1    3    3    0  502 -0.15784616601E+03 -0.10180715502E+04 -0.12527337384E+04  0.16219520726E+04  0.12699999809E+01 0. -1.
</event>
<event>
 5   0  0.2839279E-07  0.4350512E+04  0.7818609E-02  0.7937343E-01
       -2   -1    0    0    0  501  0.00000000000E+00  0.00000000000E+00  0.14657920213E+04  0.14657920213E+04  0.25500000920E-02 0.  1.
        2   -1    0    0  501    0  0.00000000000E+00  0.00000000000E+00 -0.32281102962E+04  0.32281102962E+04  0.25500000920E-02 0. -1.
    10030    2    1    2    0    0  0.00000000000E+00  0.00000000000E+00 -0.17623182749E+04  0.46939023175E+04  0.43505118393E+04 0.  0.
        3    1    3    3  502    0 -0.27186882536E+03 -0.54752905974E+03  0.13712079773E+04  0.15013034525E+04  0.10100000352E+00 0.  1.
       -3    1    3    3    0  502  0.27186882536E+03  0.54752905974E+03 -0.31335262521E+04  0.31925988649E+04  0.10100000352E+00 0. -1.
</event>
<event>
 5   0  0.2666978E-07  0.3950218E+04  0.7818609E-02  0.8014665E-01
       -2   -1    0    0    0  501  0.00000000000E+00  0.00000000000E+00  0.30716234458E+04  0.30716234458E+04  0.25500000920E-02 0. -1.
        2   -1    0    0  501    0  0.00000000000E+00  0.00000000000E+00 -0.12700307669E+04  0.12700307669E+04  0.25500000920E-02 0.  1.
    10030    2    1    2    0    0  0.00000000000E+00  0.00000000000E+00  0.18015926789E+04  0.43416542127E+04  0.39502183638E+04 0.  0.
        4    1    3    3  502    0  0.11635099063E+04 -0.15925777154E+04  0.10160469701E+04  0.22186509731E+04  0.12699999809E+01 0. -1.
       -4    1    3    3    0  502 -0.11635099063E+04  0.15925777154E+04  0.78554570876E+03  0.21230032396E+04  0.12699999809E+01 0.  1.
</event>
<event>
 5   0  0.8528625E-08  0.4004237E+04  0.7818609E-02  0.8003692E-01
        1   -1    0    0  501    0  0.00000000000E+00  0.00000000000E+00  0.20120435048E+04  0.20120435048E+04  0.50400001928E-02 0. -1.
       -1   -1    0    0    0  501  0.00000000000E+00  0.00000000000E+00 -0.19922426539E+04  0.19922426539E+04  0.50400001928E-02 0.  1.
    10030    2    1    2    0    0  0.00000000000E+00  0.00000000000E+00  0.19800850898E+02  0.40042861587E+04  0.40042372017E+04 0.  0.
        3    1    3    3  502    0 -0.11047960175E+04  0.15732378035E+04  0.56921706604E+03  0.20049088521E+04  0.10100000352E+00 0. -1.
       -3    1    3    3    0  502  0.11047960175E+04 -0.15732378035E+04 -0.54941621515E+03  0.19993773066E+04  0.10100000352E+00 0.  1.
</event>
<event>
 5   0  0.2704088E-07  0.3615084E+04  0.7818609E-02  0.8087045E-01
        2   -1    0    0  501    0  0.00000000000E+00  0.00000000000E+00  0.22406350586E+04  0.22406350586E+04  0.25500000920E-02 0.  1.
       -2   -1    0    0    0  501  0.00000000000E+00  0.00000000000E+00 -0.14581617065E+04  0.14581617065E+04  0.25500000920E-02 0. -1.
    10030    2    1    2    0    0  0.00000000000E+00  0.00000000000E+00  0.78247335210E+03  0.36987967650E+04  0.36150840879E+04 0.  0.
        5    1    3    3  502    0  0.12637949821E+04 -0.94196650860E+01 -0.93094110575E+03  0.15696942120E+04  0.46999998093E+01 0. -1.
       -5    1    3    3    0  502 -0.12637949821E+04  0.94196650860E+01  0.17134144578E+04  0.21291025530E+04  0.46999998093E+01 0.  1.
</event>
<event>
 5   0  0.2661693E-07  0.3953677E+04  0.7818609E-02  0.8013957E-01
       -2   -1    0    0    0  501  0.00000000000E+00  0.00000000000E+00  0.13980984136E+04  0.13980984136E+04  0.25500000920E-02 0.  1.
        2   -1    0    0  501    0  0.00000000000E+00  0.00000000000E+00 -0.27951472061E+04  0.27951472061E+04  0.25500000920E-02 0. -1.
    10030    2    1    2    0    0  0.00000000000E+00  0.00000000000E+00 -0.13970487925E+04  0.41932456197E+04  0.39536772122E+04 0.  0.
        1    1    3    3  502    0 -0.58165205060E+03 -0.12528444176E+04  0.80136400687E+03  0.15969103025E+04  0.50400001928E-02 0.  1.
       -1    1    3    3    0  502  0.58165205060E+03  0.12528444176E+04 -0.21984127994E+04  0.25963353172E+04  0.50400001928E-02 0. -1.
</event>
<event>
 5   0  0.2839279E-07  0.4034076E+04  0.7818609E-02  0.7997707E-01
       -2   -1    0    0    0  501  0.00000000000E+00  0.00000000000E+00  0.27380276530E+04  0.27380276530E+04  0.25500000920E-02 0.  1.
        2   -1    0    0  501    0  0.00000000000E+00  0.00000000000E+00 -0.14859024115E+04  0.14859024115E+04  0.25500000920E-02 0. -1.
    10030    2    1    2    0    0  0.00000000000E+00  0.00000000000E+00  0.12521252414E+04  0.42239300645E+04  0.40340758012E+04 0.  0.
        3    1    3    3  502    0  0.79397624381E+03 -0.32249011309E+03 -0.12858071685E+04  0.15452178596E+04  0.10100000352E+00 0. -1.
       -3    1    3    3    0  502 -0.79397624381E+03  0.32249011309E+03  0.25379324100E+04  0.26787122049E+04  0.10100000352E+00 0.  1.
</event>
<event>
 5   0  0.8583262E-08  0.3972794E+04  0.7818609E-02  0.8010057E-01
        1   -1    0    0  501    0  0.00000000000E+00  0.00000000000E+00  0.16127099583E+04  0.16127099583E+04  0.50400001928E-02 0. -1.
       -1   -1    0    0    0  501  0.00000000000E+00  0.00000000000E+00 -0.24466723703E+04  0.24466723703E+04  0.50400001928E-02 0.  1.
    10030    2    1    2    0    0  0.00000000000E+00  0.00000000000E+00 -0.83396241199E+03  0.40593823286E+04  0.39727939268E+04 0.  0.
        1    1    3    3  502    0 -0.87229294827E+03  0.51464157065E+03  0.13290700059E+04  0.16709811532E+04  0.50400001928E-02 0. -1.
       -1    1    3    3    0  502  0.87229294827E+03 -0.51464157065E+03 -0.21630324179E+04  0.23884011754E+04  0.50400001928E-02 0.  1.
</event>
<event>
 5   0  0.8528625E-08  0.3930868E+04  0.7818609E-02  0.8018640E-01
       -1   -1    0    0    0  501  0.00000000000E+00  0.00000000000E+00  0.20874081380E+04  0.20874081380E+04  0.50400001928E-02 0.  1.
        1   -1    0    0  501    0  0.00000000000E+00  0.00000000000E+00 -0.18505874547E+04  0.18505874547E+04  0.50400001928E-02 0. -1.
    10030    2    1    2    0    0  0.00000000000E+00  0.00000000000E+00  0.23682068328E+03  0.39379955927E+04  0.39308682567E+04 0.  0.
        2    1    3    3  502    0 -0.76462012118E+02  0.15512089697E+04  0.13251006919E+04  0.20415649759E+04  0.25500000920E-02 0.  1.
       -2    1    3    3    0  502  0.76462012118E+02 -0.15512089697E+04 -0.10882800087E+04  0.18964306168E+04  0.25500000920E-02 0. -1.
</event>
<event>
 5   0  0.2661693E-07  0.3974100E+04  0.7818609E-02  0.8009792E-01
        2   -1    0    0  501    0  0.00000000000E+00  0.00000000000E+00  0.22120610115E+04  0.22120610115E+04  0.25500000920E-02 0.  1.
       -2   -1    0    0    0  501  0.00000000000E+00  0.00000000000E+00 -0.17849272312E+04  0.17849272312E+04  0.25500000920E-02 0. -1.
    10030    2    1    2    0    0  0.00000000000E+00  0.00000000000E+00  0.42713378037E+03  0.39969882427E+04  0.39741001178E+04 0.  0.
        1    1    3    3  502    0  0.66362668160E+03  0.18689020157E+04  0.33745431255E+03  0.20117332154E+04  0.50400001928E-02 0.  1.
       -1    1    3    3    0  502 -0.66362668160E+03 -0.18689020157E+04  0.89679467817E+02  0.19852550274E+04  0.50400001928E-02 0. -1.
</event>
<event>
 5   0  0.2839279E-07  0.3940047E+04  0.7818609E-02  0.8016751E-01
        2   -1    0    0  501    0  0.00000000000E+00  0.00000000000E+00  0.23627418253E+04  0.23627418253E+04  0.25500000920E-02 0. -1.
       -2   -1    0    0    0  501  0.00000000000E+00  0.00000000000E+00 -0.16425801599E+04  0.16425801599E+04  0.25500000920E-02 0.  1.
    10030    2    1    2    0    0  0.00000000000E+00  0.00000000000E+00  0.72016166541E+03  0.40053219852E+04  0.39400471293E+04 0.  0.
        3    1    3    3  502    0 -0.14470361195E+04  0.10104199790E+03 -0.99499569647E+03  0.17590166180E+04  0.10100000352E+00 0.  1.
       -3    1    3    3    0  502  0.14470361195E+04 -0.10104199790E+03  0.17151573619E+04  0.22463053672E+04  0.10100000352E+00 0. -1.
</event>
<event>
 5   0  0.8528625E-08  0.4107556E+04  0.7818609E-02  0.7983194E-01
        1   -1    0    0  501    0  0.00000000000E+00  0.00000000000E+00  0.31187438465E+04  0.31187438465E+04  0.50400001928E-02 0. -1.
       -1   -1    0    0    0  501  0.00000000000E+00  0.00000000000E+00 -0.13524691430E+04  0.13524691430E+04  0.50400001928E-02 0.  1.
    10030    2    1    2    0    0  0.00000000000E+00  0.00000000000E+00  0.17662747035E+04  0.44712129895E+04  0.41075563623E+04 0.  0.
        5    1    3    3  502    0  0.29659504329E+03 -0.13975644054E+04  0.24891681471E+04  0.28700409477E+04  0.46999998093E+01 0. -1.
       -5    1    3    3    0  502 -0.29659504329E+03  0.13975644054E+04 -0.72289344361E+03  0.16011720419E+04  0.46999998093E+01 0.  1.
</event>
<event>
 5   0  0.2839279E-07  0.3617188E+04  0.7818609E-02  0.8086566E-01
        2   -1    0    0  501    0  0.00000000000E+00  0.00000000000E+00  0.20501823922E+04  0.20501823922E+04  0.25500000920E-02 0. -1.
       -2   -1    0    0    0  501  0.00000000000E+00  0.00000000000E+00 -0.15954741706E+04  0.15954741706E+04  0.25500000920E-02 0.  1.
    10030    2    1    2    0    0  0.00000000000E+00  0.00000000000E+00  0.45470822161E+03  0.36456565627E+04  0.36171884395E+04 0.  0.
        3    1    3    3  502    0  0.17805493572E+03  0.30017285883E+03 -0.15612125719E+04  0.15997474833E+04  0.10100000352E+00 0.  1.
       -3    1    3    3    0  502 -0.17805493572E+03 -0.30017285883E+03  0.20159207935E+04  0.20459090794E+04  0.10100000352E+00 0. -1.
</event>
<event>
 5   0  0.8528625E-08  0.3999143E+04  0.7818609E-02  0.8004719E-01
       -1   -1    0    0    0  501  0.00000000000E+00  0.00000000000E+00  0.21138760501E+04  0.21138760502E+04  0.50400001928E-02 0.  1.
        1   -1    0    0  501    0  0.00000000000E+00  0.00000000000E+00 -0.18914479989E+04  0.18914479990E+04  0.50400001928E-02 0. -1.
    10030    2    1    2    0    0  0.00000000000E+00  0.00000000000E+00  0.22242805120E+03  0.40053240491E+04  0.39991432208E+04 0.  0.
        4    1    3    3  502    0  0.14251006343E+04  0.11160689201E+04  0.96209363492E+03  0.20499140049E+04  0.12699999809E+01 0.  1.
       -4    1    3    3    0  502 -0.14251006343E+04 -0.11160689201E+04 -0.73966558372E+03  0.19554100442E+04  0.12699999809E+01 0. -1.
</event>
<event>
 5   0  0.8528625E-08  0.3886800E+04  0.7818609E-02  0.8027780E-01
       -1   -1    0    0    0  501  0.00000000000E+00  0.00000000000E+00  0.12288282261E+04  0.12288282261E+04  0.50400001928E-02 0. -1.
        1   -1    0    0  501    0  0.00000000000E+00  0.00000000000E+00 -0.30735002830E+04  0.30735002830E+04  0.50400001928E-02 0.  1.
    10030    2    1    2    0    0  0.00000000000E+00  0.00000000000E+00 -0.18446720568E+04  0.43023285091E+04  0.38868001753E+04 0.  0.
        4    1    3    3  502    0  0.13392890171E+04  0.83910109091E+02  0.63367299682E+03  0.14840077687E+04  0.12699999809E+01 0. -1.
       -4    1    3    3    0  502 -0.13392890171E+04 -0.83910109091E+02 -0.24783450537E+04  0.28183207404E+04  0.12699999809E+01 0.  1.
</event>
<event>
 5   0  0.2839279E-07  0.3832152E+04  0.7818609E-02  0.8039290E-01
       -2   -1    0    0    0  501  0.00000000000E+00  0.00000000000E+00  0.34478307913E+04  0.34478307913E+04  0.25500000920E-02 0. -1.
        2   -1    0    0  501    0  0.00000000000E+00  0.00000000000E+00 -0.10648279655E+04  0.10648279655E+04  0.25500000920E-02 0.  1.
    10030    2    1    2    0    0  0.00000000000E+00  0.00000000000E+00  0.23830028258E+04  0.45126587567E+04  0.38321516915E+04 0.  0.
        3    1    3    3  502    0 -0.18905196667E+04 -0.23679148797E+03  0.95244484194E+03  0.21300906099E+04  0.10100000352E+00 0. -1.
       -3    1    3    3    0  502  0.18905196667E+04  0.23679148797E+03  0.14305579839E+04  0.23825681469E+04  0.10100000352E+00 0.  1.
</event>
<event>
 5   0  0.8528625E-08  0.3552289E+04  0.7818609E-02  0.8101509E-01
        1   -1    0    0  501    0  0.00000000000E+00  0.00000000000E+00  0.22965168704E+04  0.22965168704E+04  0.50400001928E-02 0.  1.
       -1   -1    0    0    0  501  0.00000000000E+00  0.00000000000E+00 -0.13736846432E+04  0.13736846432E+04  0.50400001928E-02 0. -1.
    10030    2    1    2    0    0  0.00000000000E+00  0.00000000000E+00  0.92283222722E+03  0.36702015135E+04  0.35522893787E+04 0.  0.
        5    1    3    3  502    0  0.16407039206E+04  0.66818701370E+03  0.32956904284E+03  0.18019492457E+04  0.46999998093E+01 0. -1.
       -5    1    3    3    0  502 -0.16407039206E+04 -0.66818701370E+03  0.59326318438E+03  0.18682522678E+04  0.46999998093E+01 0.  1.
</event>
<event>
 5   0  0.8583262E-08  0.4067560E+04  0.7818609E-02  0.7991055E-01
       -1   -1    0    0    0  501  0.00000000000E+00  0.00000000000E+00  0.14316872403E+04  0.14316872403E+04  0.50400001928E-02 0. -1.
        1   -1    0    0  501    0  0.00000000000E+00  0.00000000000E+00 -0.28890814344E+04  0.28890814344E+04  0.50400001928E-02 0.  1.
    10030    2    1    2    0    0  0.00000000000E+00  0.00000000000E+00 -0.14573941941E+04  0.43207686748E+04  0.40675599693E+04 0.  0.
        1    1    3    3  502    0 -0.63428837557E+01 -0.12274695725E+04  0.99383323969E+03  0.15793752853E+04  0.50400001928E-02 0. -1.
       -1    1    3    3    0  502  0.63428837557E+01  0.12274695725E+04 -0.24512274338E+04  0.27413933894E+04  0.50400001928E-02 0.  1.
</event>
<event>
 5   0  0.8528625E-08  0.2868487E+04  0.7818609E-02  0.8282316E-01
       -1   -1    0    0    0  501  0.00000000000E+00  0.00000000000E+00  0.21322589221E+04  0.21322589221E+04  0.50400001928E-02 0. -1.
        1   -1    0    0  501    0  0.00000000000E+00  0.00000000000E+00 -0.96473033179E+03  0.96473033180E+03  0.50400001928E-02 0.  1.
    10030    2    1    2    0    0  0.00000000000E+00  0.00000000000E+00  0.11675285903E+04  0.30969892539E+04  0.28684873068E+04 0.  0.
        4    1    3    3  502    0 -0.84379563453E+03 -0.77186822633E+02  0.18331426538E+04  0.20194956005E+04  0.12699999809E+01 0. -1.
       -4    1    3    3    0  502  0.84379563453E+03  0.77186822633E+02 -0.66561406356E+03  0.10774936533E+04  0.12699999809E+01 0.  1.
</event>
<event>
 5   0  0.2730801E-07  0.3968911E+04  0.7818609E-02  0.8010848E-01
        2   -1    0    0  501    0  0.00000000000E+00  0.00000000000E+00  0.25396091861E+04  0.25396091861E+04  0.25500000920E-02 0.  1.
       -2   -1    0    0    0  501  0.00000000000E+00  0.00000000000E+00 -0.15506575181E+04  0.15506575181E+04  0.25500000920E-02 0. -1.
    10030    2    1    2    0    0  0.00000000000E+00  0.00000000000E+00  0.98895166795E+03  0.40902667042E+04  0.39689112247E+04 0.  0.
        2    1    3    3  502    0  0.53954024615E+03 -0.18093705588E+04  0.11240042233E+04  0.21973418010E+04  0.25500000920E-02 0.  1.
       -2    1    3    3    0  502 -0.53954024615E+03  0.18093705588E+04 -0.13505255534E+03  0.18929249032E+04  0.25500000920E-02 0. -1.
</event>
<event>
 5   0  0.2730801E-07  0.4178735E+04  0.7818609E-02  0.7969430E-01
       -2   -1    0    0    0  501  0.00000000000E+00  0.00000000000E+00  0.19040131628E+04  0.19040131628E+04  0.25500000920E-02 0.  1.
        2   -1    0    0  501    0  0.00000000000E+00  0.00000000000E+00 -0.22927660369E+04  0.22927660369E+04  0.25500000920E-02 0. -1.
    10030    2    1    2    0    0  0.00000000000E+00  0.00000000000E+00 -0.38875287415E+03  0.41967791997E+04  0.41787350782E+04 0.  0.
        2    1    3    3  502    0  0.23360245999E+03  0.14474731627E+04  0.13005765990E+04  0.19599102418E+04  0.25500000920E-02 0.  1.
       -2    1    3    3    0  502 -0.23360245999E+03 -0.14474731627E+04 -0.16893294731E+04  0.22368689579E+04  0.25500000920E-02 0. -1.
</event>
<event>
 5   0  0.2730801E-07  0.4084932E+04  0.7818609E-02  0.7987629E-01
        2   -1    0    0  501    0  0.00000000000E+00  0.00000000000E+00  0.18099232512E+04  0.18099232512E+04  0.25500000920E-02 0. -1.
       -2   -1    0    0    0  501  0.00000000000E+00  0.00000000000E+00 -0.23048868610E+04  0.23048868610E+04  0.25500000920E-02 0.  1.
    10030    2    1    2    0    0  0.00000000000E+00  0.00000000000E+00 -0.49496360976E+03  0.41148101121E+04  0.40849324700E+04 0.  0.
        2    1    3    3  502    0 -0.24954485834E+03  0.20264952763E+04 -0.19501843379E+03  0.20510943251E+04  0.25500000920E-02 0. -1.
       -2    1    3    3    0  502  0.24954485834E+03 -0.20264952763E+04 -0.29994517597E+03  0.20637157870E+04  0.25500000920E-02 0.  1.
</event>
<event>
 5   0  0.8528625E-08  0.3206855E+04  0.7818609E-02  0.8187009E-01
       -1   -1    0    0    0  501  0.00000000000E+00  0.00000000000E+00  0.12973991036E+04  0.12973991036E+04  0.50400001928E-02 0.  1.
        1   -1    0    0  501    0  0.00000000000E+00  0.00000000000E+00 -0.19816416608E+04  0.19816416608E+04  0.50400001928E-02 0. -1.
    10030    2    1    2    0    0  0.00000000000E+00  0.00000000000E+00 -0.68424255720E+03  0.32790407644E+04  0.32068552287E+04 0.  0.
        2    1    3    3  502    0  0.73365392653E+03 -0.10454432117E+04  0.64912297130E+03  0.14326758966E+04  0.25500000920E-02 0.  1.
       -2    1    3    3    0  502 -0.73365392653E+03  0.10454432117E+04 -0.13333655285E+04  0.18463648679E+04  0.25500000920E-02 0. -1.
</event>
<event>
 5   0  0.8528625E-08  0.3909234E+04  0.7818609E-02  0.8023111E-01
       -1   -1    0    0    0  501  0.00000000000E+00  0.00000000000E+00  0.13286853444E+04  0.13286853444E+04  0.50400001928E-02 0.  1.
        1   -1    0    0  501    0  0.00000000000E+00  0.00000000000E+00 -0.28754198218E+04  0.28754198218E+04  0.50400001928E-02 0. -1.
    10030    2    1    2    0    0  0.00000000000E+00  0.00000000000E+00 -0.15467344774E+04  0.42041051663E+04  0.39092342863E+04 0.  0.
        4    1    3    3  502    0  0.10917163542E+04  0.58269066815E+02 -0.25158570202E+04  0.27431328880E+04  0.12699999809E+01 0. -1.
       -4    1    3    3    0  502 -0.10917163542E+04 -0.58269066815E+02  0.96912254278E+03  0.14609722783E+04  0.12699999809E+01 0.  1.
</event>
<event>
 5   0  0.8528625E-08  0.3991719E+04  0.7818609E-02  0.8006219E-01
        1   -1    0    0  501    0  0.00000000000E+00  0.00000000000E+00  0.18662878833E+04  0.18662878833E+04  0.50400001928E-02 0.  1.
       -1   -1    0    0    0  501  0.00000000000E+00  0.00000000000E+00 -0.21344266306E+04  0.21344266306E+04  0.50400001928E-02 0. -1.
    10030    2    1    2    0    0  0.00000000000E+00  0.00000000000E+00 -0.26813874726E+03  0.40007145139E+04  0.39917187068E+04 0.  0.
        3    1    3    3  502    0  0.15117640618E+04 -0.12544617985E+04 -0.48749641025E+03  0.20240448964E+04  0.10100000352E+00 0. -1.
       -3    1    3    3    0  502 -0.15117640618E+04  0.12544617985E+04  0.21935766299E+03  0.19766696175E+04  0.10100000352E+00 0.  1.
</event>
<event>
 5   0  0.2704088E-07  0.4038185E+04  0.7818609E-02  0.7996887E-01
       -2   -1    0    0    0  501  0.00000000000E+00  0.00000000000E+00  0.17752346790E+04  0.17752346790E+04  0.25500000920E-02 0.  1.
        2   -1    0    0  501    0  0.00000000000E+00  0.00000000000E+00 -0.22964484342E+04  0.22964484342E+04  0.25500000920E-02 0. -1.
    10030    2    1    2    0    0  0.00000000000E+00  0.00000000000E+00 -0.52121375517E+03  0.40716831132E+04  0.40381851859E+04 0.  0.
        5    1    3    3  502    0 -0.16523669199E+03 -0.17030478546E+04  0.82021684695E+03  0.18974859487E+04  0.46999998093E+01 0.  1.
       -5    1    3    3    0  502  0.16523669199E+03  0.17030478546E+04 -0.13414306021E+04  0.21741971644E+04  0.46999998093E+01 0. -1.
</event>
<event>
 5   0  0.8528625E-08  0.4020944E+04  0.7818609E-02  0.8000335E-01
       -1   -1    0    0    0  501  0.00000000000E+00  0.00000000000E+00  0.16025198301E+04  0.16025198301E+04  0.50400001928E-02 0. -1.
        1   -1    0    0  501    0  0.00000000000E+00  0.00000000000E+00 -0.25222766511E+04  0.25222766511E+04  0.50400001928E-02 0.  1.
    10030    2    1    2    0    0  0.00000000000E+00  0.00000000000E+00 -0.91975682101E+03  0.41247964813E+04  0.40209443421E+04 0.  0.
        4    1    3    3  502    0 -0.11960468466E+04  0.28009775391E+03 -0.20925290108E+04  0.24264505115E+04  0.12699999809E+01 0.  1.
       -4    1    3    3    0  502  0.11960468466E+04 -0.28009775391E+03  0.11727721898E+04  0.16983459698E+04  0.12699999809E+01 0. -1.
</event>
<event>
 5   0  0.2704088E-07  0.4002922E+04  0.7818609E-02  0.8003957E-01
        2   -1    0    0  501    0  0.00000000000E+00  0.00000000000E+00  0.19149673756E+04  0.19149673756E+04  0.25500000920E-02 0. -1.
       -2   -1    0    0    0  501  0.00000000000E+00  0.00000000000E+00 -0.20918616901E+04  0.20918616901E+04  0.25500000920E-02 0.  1.
    10030    2    1    2    0    0  0.00000000000E+00  0.00000000000E+00 -0.17689431450E+03  0.40068290658E+04  0.40029223780E+04 0.  0.
        5    1    3    3  502    0  0.87851701539E+02  0.34192311577E+03 -0.20604448586E+04  0.20904746934E+04  0.46999998093E+01 0.  1.
       -5    1    3    3    0  502 -0.87851701539E+02 -0.34192311577E+03  0.18835505441E+04  0.19163543724E+04  0.46999998093E+01 0. -1.
</event>
<event>
 5   0  0.8528625E-08  0.3975563E+04  0.7818609E-02  0.8009494E-01
        1   -1    0    0  501    0  0.00000000000E+00  0.00000000000E+00  0.11783296340E+04  0.11783296340E+04  0.50400001928E-02 0.  1.
       -1   -1    0    0    0  501  0.00000000000E+00  0.00000000000E+00 -0.33532851150E+04  0.33532851150E+04  0.50400001928E-02 0. -1.
    10030    2    1    2    0    0  0.00000000000E+00  0.00000000000E+00 -0.21749554810E+04  0.45316147490E+04  0.39755629650E+04 0.  0.
        4    1    3    3  502    0  0.34471473545E+03  0.13911590978E+04 -0.26574860252E+04  0.30193352698E+04  0.12699999809E+01 0. -1.
       -4    1    3    3    0  502 -0.34471473545E+03 -0.13911590978E+04  0.48253054427E+03  0.15122794792E+04  0.12699999809E+01 0.  1.
</event>
<event>
 5   0  0.8528625E-08  0.4229337E+04  0.7818609E-02  0.7959815E-01
        3   -1    0    0  501    0  0.00000000000E+00  0.00000000000E+00  0.28286967823E+04  0.28286967841E+04  0.10100000352E+00 0. -1.
       -3   -1    0    0    0  501  0.00000000000E+00  0.00000000000E+00 -0.15808770725E+04  0.15808770757E+04  0.10100000352E+00 0.  1.
    10030    2    1    2    0    0  0.00000000000E+00  0.00000000000E+00  0.12478197098E+04  0.44095738598E+04  0.42293365434E+04 0.  0.
        5    1    3    3  502    0  0.12344086458E+04 -0.74218454464E+03  0.22381801602E+04  0.26615925914E+04  0.46999998093E+01 0. -1.
       -5    1    3    3    0  502 -0.12344086458E+04  0.74218454464E+03 -0.99036045039E+03  0.17479812684E+04  0.46999998093E+01 0.  1.
</event>
<event>
 5   0  0.8528625E-08  0.4047534E+04  0.7818609E-02  0.7995026E-01
       -1   -1    0    0    0  501  0.00000000000E+00  0.00000000000E+00  0.30120734233E+04  0.30120734233E+04  0.50400001928E-02 0.  1.
        1   -1    0    0  501    0  0.00000000000E+00  0.00000000000E+00 -0.13597387115E+04  0.13597387115E+04  0.50400001928E-02 0. -1.
    10030    2    1    2    0    0  0.00000000000E+00  0.00000000000E+00  0.16523347117E+04  0.43718121348E+04  0.40475339828E+04 0.  0.
        3    1    3    3  502    0 -0.16908973244E+04 -0.88096968989E+03  0.93284400768E+02  0.19089115605E+04  0.10100000352E+00 0. -1.
       -3    1    3    3    0  502  0.16908973244E+04  0.88096968989E+03  0.15590503110E+04  0.24629005742E+04  0.10100000352E+00 0.  1.
</event>
<event>
 5   0  0.8528625E-08  0.3974227E+04  0.7818609E-02  0.8009766E-01
        1   -1    0    0  501    0  0.00000000000E+00  0.00000000000E+00  0.24837338559E+04  0.24837338559E+04  0.50400001928E-02 0. -1.
       -1   -1    0    0    0  501  0.00000000000E+00  0.00000000000E+00 -0.15897916221E+04  0.15897916221E+04  0.50400001928E-02 0.  1.
    10030    2    1    2    0    0  0.00000000000E+00  0.00000000000E+00  0.89394223381E+03  0.40735254779E+04  0.39742266043E+04 0.  0.
        3    1    3    3  502    0 -0.70333166345E+03 -0.18567286503E+03  0.23423549547E+04  0.24527080107E+04  0.10100000352E+00 0. -1.
       -3    1    3    3    0  502  0.70333166345E+03  0.18567286503E+03 -0.14484127209E+04  0.16208174672E+04  0.10100000352E+00 0.  1.
</event>
<event>
 5   0  0.2666978E-07  0.4015939E+04  0.7818609E-02  0.8001339E-01
       -2   -1    0    0    0  501  0.00000000000E+00  0.00000000000E+00  0.27158554251E+04  0.27158554251E+04  0.25500000920E-02 0. -1.
        2   -1    0    0  501    0  0.00000000000E+00  0.00000000000E+00 -0.14845938886E+04  0.14845938886E+04  0.25500000920E-02 0.  1.
    10030    2    1    2    0    0  0.00000000000E+00  0.00000000000E+00  0.12312615365E+04  0.42004493137E+04  0.40159394251E+04 0.  0.
        4    1    3    3  502    0  0.13282257744E+04 -0.13554747017E+04 -0.70595944553E+02  0.18990736624E+04  0.12699999809E+01 0.  1.
       -4    1    3    3    0  502 -0.13282257744E+04  0.13554747017E+04  0.13018574811E+04  0.23013756514E+04  0.12699999809E+01 0. -1.
</event>
<event>
 5   0  0.2730801E-07  0.3380826E+04  0.7818609E-02  0.8142628E-01
       -2   -1    0    0    0  501  0.00000000000E+00  0.00000000000E+00  0.12137154701E+04  0.12137154701E+04  0.25500000920E-02 0. -1.
        2   -1    0    0  501    0  0.00000000000E+00  0.00000000000E+00 -0.23543383614E+04  0.23543383614E+04  0.25500000920E-02 0.  1.
    10030    2    1    2    0    0  0.00000000000E+00  0.00000000000E+00 -0.11406228913E+04  0.35680538315E+04  0.33808264617E+04 0.  0.
        2    1    3    3  502    0  0.11113274197E+04 -0.88234830462E+03  0.39920798024E+03  0.14740943579E+04  0.25500000920E-02 0. -1.
       -2    1    3    3    0  502 -0.11113274197E+04  0.88234830462E+03 -0.15398308715E+04  0.20939594736E+04  0.25500000920E-02 0.  1.
</event>
<event>
 5   0  0.8528625E-08  0.3732892E+04  0.7818609E-02  0.8060711E-01
       -1   -1    0    0    0  501  0.00000000000E+00  0.00000000000E+00  0.15281715387E+04  0.15281715387E+04  0.50400001928E-02 0.  1.
        1   -1    0    0  501    0  0.00000000000E+00  0.00000000000E+00 -0.22796010479E+04  0.22796010479E+04  0.50400001928E-02 0. -1.
    10030    2    1    2    0    0  0.00000000000E+00  0.00000000000E+00 -0.75142950920E+03  0.38077725866E+04  0.37328924126E+04 0.  0.
        3    1    3    3  502    0  0.15631556674E+03  0.92541451715E+03 -0.20213951625E+04  0.22286464498E+04  0.10100000352E+00 0. -1.
       -3    1    3    3    0  502 -0.15631556674E+03 -0.92541451715E+03  0.12699656533E+04  0.15791261368E+04  0.10100000352E+00 0.  1.
</event>
<event>
 5   0  0.2839279E-07  0.3986756E+04  0.7818609E-02  0.8007224E-01
        2   -1    0    0  501    0  0.00000000000E+00  0.00000000000E+00  0.19102445229E+04  0.19102445229E+04  0.25500000920E-02 0. -1.
       -2   -1    0    0    0  501  0.00000000000E+00  0.00000000000E+00 -0.20801292423E+04  0.20801292423E+04  0.25500000920E-02 0.  1.
    10030    2    1    2    0    0  0.00000000000E+00  0.00000000000E+00 -0.16988471942E+03  0.39903737653E+04  0.39867558200E+04 0.  0.
        3    1    3    3  502    0 -0.31407750683E+03 -0.16399812743E+04 -0.11746783953E+04  0.20415809077E+04  0.10100000352E+00 0.  1.
       -3    1    3    3    0  502  0.31407750683E+03  0.16399812743E+04  0.10047936759E+04  0.19487928575E+04  0.10100000352E+00 0. -1.
</event>
<event>
 5   0  0.8583262E-08  0.3870336E+04  0.7818609E-02  0.8031227E-01
       -1   -1    0    0    0  501  0.00000000000E+00  0.00000000000E+00  0.19878238766E+04  0.19878238766E+04  0.50400001928E-02 0.  1.
        1   -1    0    0  501    0  0.00000000000E+00  0.00000000000E+00 -0.18839073893E+04  0.18839073893E+04  0.50400001928E-02 0. -1.
    10030    2    1    2    0    0  0.00000000000E+00  0.00000000000E+00  0.10391648729E+03  0.38717312660E+04  0.38703364659E+04 0.  0.
        1    1    3    3  502    0 -0.13100853574E+04  0.62101253805E+03 -0.12302586755E+04  0.19014511891E+04  0.50400001928E-02 0. -1.
       -1    1    3    3    0  502  0.13100853574E+04 -0.62101253805E+03  0.13341751628E+04  0.19702800768E+04  0.50400001928E-02 0.  1.
</event>
<event>
 5   0  0.8528625E-08  0.4000996E+04  0.7818609E-02  0.8004346E-01
        1   -1    0    0  501    0  0.00000000000E+00  0.00000000000E+00  0.21850743538E+04  0.21850743538E+04  0.50400001928E-02 0. -1.
       -1   -1    0    0    0  501  0.00000000000E+00  0.00000000000E+00 -0.18315135141E+04  0.18315135141E+04  0.50400001928E-02 0.  1.
    10030    2    1    2    0    0  0.00000000000E+00  0.00000000000E+00  0.35356083970E+03  0.40165878678E+04  0.40009964799E+04 0.  0.
        4    1    3    3  502    0  0.73876449584E+03 -0.14081902312E+02 -0.16895014890E+04  0.18440141471E+04  0.12699999809E+01 0.  1.
       -4    1    3    3    0  502 -0.73876449584E+03  0.14081902312E+02  0.20430623287E+04  0.21725737208E+04  0.12699999809E+01 0. -1.
</event>
<event>
 5   0  0.8528625E-08  0.4007526E+04  0.7818609E-02  0.8003030E-01
        1   -1    0    0  501    0  0.00000000000E+00  0.00000000000E+00  0.16505432265E+04  0.16505432265E+04  0.50400001928E-02 0. -1.
       -1   -1    0    0    0  501  0.00000000000E+00  0.00000000000E+00 -0.24325727928E+04  0.24325727928E+04  0.50400001928E-02 0.  1.
    10030    2    1    2    0    0  0.00000000000E+00  0.00000000000E+00 -0.78202956631E+03  0.40831160193E+04  0.40075261926E+04 0.  0.
        5    1    3    3  502    0  0.30148677264E+02 -0.16682218189E+04 -0.15215253432E+04  0.22580820268E+04  0.46999998093E+01 0.  1.
       -5    1    3    3    0  502 -0.30148677264E+02  0.16682218189E+04  0.73949577690E+03  0.18250339925E+04  0.46999998093E+01 0. -1.
</event>
<event>
 5   0  0.2839279E-07  0.3968443E+04  0.7818609E-02  0.8010943E-01
       -2   -1    0    0    0  501  0.00000000000E+00  0.00000000000E+00  0.19904433146E+04  0.19904433146E+04  0.25500000920E-02 0.  1.
        2   -1    0    0  501    0  0.00000000000E+00  0.00000000000E+00 -0.19780188390E+04  0.19780188390E+04  0.25500000920E-02 0. -1.
    10030    2    1    2    0    0  0.00000000000E+00  0.00000000000E+00  0.12424475634E+02  0.39684621536E+04  0.39684427043E+04 0.  0.
        3    1    3    3  502    0 -0.10153178226E+04  0.12131299256E+04 -0.11915331144E+04  0.19804811714E+04  0.10100000352E+00 0. -1.
       -3    1    3    3    0  502  0.10153178226E+04 -0.12131299256E+04  0.12039575900E+04  0.19879809823E+04  0.10100000352E+00 0.  1.
</event>
<event>
 5   0  0.8583262E-08  0.3992753E+04  0.7818609E-02  0.8006010E-01
        1   -1    0    0  501    0  0.00000000000E+00  0.00000000000E+00  0.23423439040E+04  0.23423439040E+04  0.50400001928E-02 0. -1.
       -1   -1    0    0    0  501  0.00000000000E+00  0.00000000000E+00 -0.17015088390E+04  0.17015088390E+04  0.50400001928E-02 0.  1.
    10030    2    1    2    0    0  0.00000000000E+00  0.00000000000E+00  0.64083506496E+03  0.40438527430E+04  0.39927528632E+04 0.  0.
        1    1    3    3  502    0  0.16740263268E+04  0.91100175972E+03  0.92235587105E+03  0.21173163916E+04  0.50400001928E-02 0. -1.
       -1    1    3    3    0  502 -0.16740263268E+04 -0.91100175972E+03 -0.28152080609E+03  0.19265363514E+04  0.50400001928E-02 0.  1.
</event>
<event>
 5   0  0.2661693E-07  0.4661069E+04  0.7818609E-02  0.7883030E-01
       -2   -1    0    0    0  501  0.00000000000E+00  0.00000000000E+00  0.22258227767E+04  0.22258227767E+04  0.25500000920E-02 0. -1.
        2   -1    0    0  501    0  0.00000000000E+00  0.00000000000E+00 -0.24401724305E+04  0.24401724305E+04  0.25500000920E-02 0.  1.
    10030    2    1    2    0    0  0.00000000000E+00  0.00000000000E+00 -0.21434965381E+03  0.46659952071E+04  0.46610691369E+04 0.  0.
        1    1    3    3  502    0  0.72643392582E+03  0.78187092556E+03  0.19668166339E+04  0.22377211766E+04  0.50400001928E-02 0. -1.
       -1    1    3    3    0  502 -0.72643392582E+03 -0.78187092556E+03 -0.21811662877E+04  0.24282740305E+04  0.50400001928E-02 0.  1.
</event>
<event>
 5   0  0.8528625E-08  0.3987574E+04  0.7818609E-02  0.8007058E-01
        1   -1    0    0  501    0  0.00000000000E+00  0.00000000000E+00  0.14999578317E+04  0.14999578317E+04  0.50400001928E-02 0. -1.
       -1   -1    0    0    0  501  0.00000000000E+00  0.00000000000E+00 -0.26501989303E+04  0.26501989303E+04  0.50400001928E-02 0.  1.
    10030    2    1    2    0    0  0.00000000000E+00  0.00000000000E+00 -0.11502410986E+04  0.41501567619E+04  0.39875740198E+04 0.  0.
        4    1    3    3  502    0 -0.11147484946E+04  0.11827684462E+04 -0.17770119263E+04  0.24081898602E+04  0.12699999809E+01 0.  1.
       -4    1    3    3    0  502  0.11147484946E+04 -0.11827684462E+04  0.62677082769E+03  0.17419669018E+04  0.12699999809E+01 0. -1.
</event>
<event>
 5   0  0.8528625E-08  0.3938364E+04  0.7818609E-02  0.8017097E-01
        1   -1    0    0  501    0  0.00000000000E+00  0.00000000000E+00  0.16141917732E+04  0.16141917732E+04  0.50400001928E-02 0.  1.
       -1   -1    0    0    0  501  0.00000000000E+00  0.00000000000E+00 -0.24022407316E+04  0.24022407316E+04  0.50400001928E-02 0. -1.
    10030    2    1    2    0    0  0.00000000000E+00  0.00000000000E+00 -0.78804895842E+03  0.40164325048E+04  0.39383637345E+04 0.  0.
        5    1    3    3  502    0 -0.89862067558E+03  0.37030845678E+02 -0.21805385734E+04  0.23587413937E+04  0.46999998093E+01 0. -1.
       -5    1    3    3    0  502  0.89862067558E+03 -0.37030845678E+02  0.13924896150E+04  0.16576911112E+04  0.46999998093E+01 0.  1.
</event>
<event>
 5   0  0.8528625E-08  0.4007583E+04  0.7818609E-02  0.8003019E-01
        1   -1    0    0  501    0  0.00000000000E+00  0.00000000000E+00  0.19480326710E+04  0.19480326710E+04  0.50400001928E-02 0.  1.
       -1   -1    0    0    0  501  0.00000000000E+00  0.00000000000E+00 -0.20611462463E+04  0.20611462463E+04  0.50400001928E-02 0. -1.
    10030    2    1    2    0    0  0.00000000000E+00  0.00000000000E+00 -0.11311357526E+03  0.40091789173E+04  0.40075829261E+04 0.  0.
        2    1    3    3  502    0 -0.16453046893E+04 -0.20273017093E+03 -0.11826396332E+04  0.20363603672E+04  0.25500000920E-02 0. -1.
       -2    1    3    3    0  502  0.16453046893E+04  0.20273017093E+03  0.10695260580E+04  0.19728185501E+04  0.25500000920E-02 0.  1.
</event>
<event>
 5   0  0.8528625E-08  0.4020801E+04  0.7818609E-02  0.8000364E-01
       -1   -1    0    0    0  501  0.00000000000E+00  0.00000000000E+00  0.17174177914E+04  0.17174177915E+04  0.50400001928E-02 0.  1.
        1   -1    0    0  501    0  0.00000000000E+00  0.00000000000E+00 -0.23533640047E+04  0.23533640047E+04  0.50400001928E-02 0. -1.
    10030    2    1    2    0    0  0.00000000000E+00  0.00000000000E+00 -0.63594621325E+03  0.40707817962E+04  0.40208005230E+04 0.  0.
        4    1    3    3  502    0 -0.14797243863E+04 -0.10518102053E+04  0.55637003976E+03  0.18987991472E+04  0.12699999809E+01 0.  1.
       -4    1    3    3    0  502  0.14797243863E+04  0.10518102053E+04 -0.11923162530E+04  0.21719826490E+04  0.12699999809E+01 0. -1.
</event>
<event>
 5   0  0.8528625E-08  0.3971825E+04  0.7818609E-02  0.8010254E-01
        1   -1    0    0  501    0  0.00000000000E+00  0.00000000000E+00  0.29042015248E+04  0.29042015248E+04  0.50400001928E-02 0.  1.
       -1   -1    0    0    0  501  0.00000000000E+00  0.00000000000E+00 -0.13579806198E+04  0.13579806198E+04  0.50400001928E-02 0. -1.
    10030    2    1    2    0    0  0.00000000000E+00  0.00000000000E+00  0.15462209050E+04  0.42621821446E+04  0.39718254678E+04 0.  0.
        5    1    3    3  502    0 -0.53960937963E+03 -0.36529990032E+03 -0.12399839068E+04  0.14007870927E+04  0.46999998093E+01 0. -1.
       -5    1    3    3    0  502  0.53960937963E+03  0.36529990032E+03  0.27862048118E+04  0.28613950519E+04  0.46999998093E+01 0.  1.
</event>
<event>
 5   0  0.2730801E-07  0.3959690E+04  0.7818609E-02  0.8012728E-01
        2   -1    0    0  501    0  0.00000000000E+00  0.00000000000E+00  0.20773406214E+04  0.20773406214E+04  0.25500000920E-02 0. -1.
       -2   -1    0    0    0  501  0.00000000000E+00  0.00000000000E+00 -0.18869252949E+04  0.18869252949E+04  0.25500000920E-02 0.  1.
    10030    2    1    2    0    0  0.00000000000E+00  0.00000000000E+00  0.19041532656E+03  0.39642659163E+04  0.39596901721E+04 0.  0.
        2    1    3    3  502    0 -0.87272536852E+03  0.17546507863E+04  0.37720248953E+03  0.19956779973E+04  0.25500000920E-02 0.  1.
       -2    1    3    3    0  502  0.87272536852E+03 -0.17546507863E+04 -0.18678716297E+03  0.19685879190E+04  0.25500000920E-02 0. -1.
</event>
<event>
 5   0  0.8583262E-08  0.3987085E+04  0.7818609E-02  0.8007157E-01
       -1   -1    0    0    0  501  0.00000000000E+00  0.00000000000E+00  0.13277076877E+04  0.13277076877E+04  0.50400001928E-02 0.  1.
        1   -1    0    0  501    0  0.00000000000E+00  0.00000000000E+00 -0.29932880391E+04  0.29932880391E+04  0.50400001928E-02 0. -1.
    10030    2    1    2    0    0  0.00000000000E+00  0.00000000000E+00 -0.16655803514E+04  0.43209957268E+04  0.39870849206E+04 0.  0.
        1    1    3    3  502    0 -0.16648736373E+04 -0.77833727141E+03 -0.16698748581E+04  0.24831623342E+04  0.50400001928E-02 0. -1.
       -1    1    3    3    0  502  0.16648736373E+04  0.77833727141E+03  0.42945067795E+01  0.18378333926E+04  0.50400001928E-02 0.  1.
</event>
<event>
 5   0  0.8583262E-08  0.3973271E+04  0.7818609E-02  0.8009961E-01
       -1   -1    0    0    0  501  0.00000000000E+00  0.00000000000E+00  0.22474256369E+04  0.22474256369E+04  0.50400001928E-02 0.  1.
        1   -1    0    0  501    0  0.00000000000E+00  0.00000000000E+00 -0.17561070375E+04  0.17561070375E+04  0.50400001928E-02 0. -1.
    10030    2    1    2    0    0  0.00000000000E+00  0.00000000000E+00  0.49131859933E+03  0.40035326744E+04  0.39732706816E+04 0.  0.
        1    1    3    3  502    0  0.14770008028E+04 -0.47193605325E+03 -0.10057600886E+04  0.18481905653E+04  0.50400001928E-02 0. -1.
       -1    1    3    3    0  502 -0.14770008028E+04  0.47193605325E+03  0.14970786879E+04  0.21553421092E+04  0.50400001928E-02 0.  1.
</event>
<event>
 5   0  0.8583262E-08  0.4022242E+04  0.7818609E-02  0.8000075E-01
        1   -1    0    0  501    0  0.00000000000E+00  0.00000000000E+00  0.24359549200E+04  0.24359549200E+04  0.50400001928E-02 0.  1.
       -1   -1    0    0    0  501  0.00000000000E+00  0.00000000000E+00 -0.16603787812E+04  0.16603787812E+04  0.50400001928E-02 0. -1.
    10030    2    1    2    0    0  0.00000000000E+00  0.00000000000E+00  0.77557613880E+03  0.40963337011E+04  0.40222420917E+04 0.  0.
        1    1    3    3  502    0  0.18450344079E+04  0.49338338781E+02 -0.42568807356E+03  0.18941479810E+04  0.50400001928E-02 0.  1.
       -1    1    3    3    0  502 -0.18450344079E+04 -0.49338338781E+02  0.12012642124E+04  0.22021857201E+04  0.50400001928E-02 0. -1.
</event>
<event>
 5   0  0.2666978E-07  0.2968604E+04  0.7818609E-02  0.8252753E-01
       -2   -1    0    0    0  501  0.00000000000E+00  0.00000000000E+00  0.13473145698E+04  0.13473145698E+04  0.25500000920E-02 0.  1.
        2   -1    0    0  501    0  0.00000000000E+00  0.00000000000E+00 -0.16352174602E+04  0.16352174602E+04  0.25500000920E-02 0. -1.
    10030    2    1    2    0    0  0.00000000000E+00  0.00000000000E+00 -0.28790289038E+03  0.29825320301E+04  0.29686039204E+04 0.  0.
        4    1    3    3  502    0 -0.13965598968E+02  0.74735231346E+03  0.11444145637E+04  0.13669004444E+04  0.12699999809E+01 0.  1.
       -4    1    3    3    0  502  0.13965598968E+02 -0.74735231346E+03 -0.14323174541E+04  0.16156315857E+04  0.12699999809E+01 0. -1.
</event>
<event>
 5   0  0.8528625E-08  0.3682942E+04  0.7818609E-02  0.8071753E-01
       -1   -1    0    0    0  501  0.00000000000E+00  0.00000000000E+00  0.19392469483E+04  0.19392469483E+04  0.50400001928E-02 0.  1.
        1   -1    0    0  501    0  0.00000000000E+00  0.00000000000E+00 -0.17486246238E+04  0.17486246238E+04  0.50400001928E-02 0. -1.
    10030    2    1    2    0    0  0.00000000000E+00  0.00000000000E+00  0.19062232454E+03  0.36878715722E+04  0.36829417403E+04 0.  0.
        3    1    3    3  502    0  0.21367935643E+02 -0.65140820173E+03 -0.16292676175E+04  0.17547940659E+04  0.10100000352E+00 0. -1.
       -3    1    3    3    0  502 -0.21367935643E+02  0.65140820173E+03  0.18198899420E+04  0.19330775063E+04  0.10100000352E+00 0.  1.
</event>
<event>
 5   0  0.2666978E-07  0.4014365E+04  0.7818609E-02  0.8001655E-01
        2   -1    0    0  501    0  0.00000000000E+00  0.00000000000E+00  0.16941812825E+04  0.16941812825E+04  0.25500000920E-02 0.  1.
       -2   -1    0    0    0  501  0.00000000000E+00  0.00000000000E+00 -0.23780108714E+04  0.23780108714E+04  0.25500000920E-02 0. -1.
    10030    2    1    2    0    0  0.00000000000E+00  0.00000000000E+00 -0.68382958894E+03  0.40721921539E+04  0.40143649599E+04 0.  0.
        4    1    3    3  502    0 -0.70683458664E+03  0.17288976854E+04  0.40357117517E+03  0.19109091150E+04  0.12699999809E+01 0. -1.
       -4    1    3    3    0  502  0.70683458664E+03 -0.17288976854E+04 -0.10874007641E+04  0.21612830389E+04  0.12699999809E+01 0.  1.
</event>
<event>
 5   0  0.2839279E-07  0.3987592E+04  0.7818609E-02  0.8007054E-01
       -2   -1    0    0    0  501  0.00000000000E+00  0.00000000000E+00  0.25514321519E+04  0.25514321519E+04  0.25500000920E-02 0. -1.
        2   -1    0    0  501    0  0.00000000000E+00  0.00000000000E+00 -0.15580360092E+04  0.15580360092E+04  0.25500000920E-02 0.  1.
    10030    2    1    2    0    0  0.00000000000E+00  0.00000000000E+00  0.99339614269E+03  0.41094681611E+04  0.39875923401E+04 0.  0.
        3    1    3    3  502    0  0.86410165211E+03 -0.37488175665E+03 -0.13142857849E+04  0.16169586053E+04  0.10100000352E+00 0.  1.
       -3    1    3    3    0  502 -0.86410165211E+03  0.37488175665E+03  0.23076819276E+04  0.24925095558E+04  0.10100000352E+00 0. -1.
</event>
<event>
 5   0  0.2661693E-07  0.4557885E+04  0.7818609E-02  0.7900580E-01
        2   -1    0    0  501    0  0.00000000000E+00  0.00000000000E+00  0.26548601740E+04  0.26548601740E+04  0.25500000920E-02 0.  1.
       -2   -1    0    0    0  501  0.00000000000E+00  0.00000000000E+00 -0.19562535808E+04  0.19562535808E+04  0.25500000920E-02 0. -1.
    10030    2    1    2    0    0  0.00000000000E+00  0.00000000000E+00  0.69860659325E+03  0.46111137548E+04  0.45578853526E+04 0.  0.
        1    1    3    3  502    0 -0.18929542934E+04  0.67986491458E+03  0.14333049050E+04  0.24697884950E+04  0.50400001928E-02 0.  1.
       -1    1    3    3    0  502  0.18929542934E+04 -0.67986491458E+03 -0.73469831180E+03  0.21413252598E+04  0.50400001928E-02 0. -1.
</event>
<event>
 5   0  0.2666978E-07  0.4032962E+04  0.7818609E-02  0.7997930E-01
       -2   -1    0    0    0  501  0.00000000000E+00  0.00000000000E+00  0.20815799250E+04  0.20815799250E+04  0.25500000920E-02 0. -1.
        2   -1    0    0  501    0  0.00000000000E+00  0.00000000000E+00 -0.19534181231E+04  0.19534181231E+04  0.25500000920E-02 0.  1.
    10030    2    1    2    0    0  0.00000000000E+00  0.00000000000E+00  0.12816180184E+03  0.40349980481E+04  0.40329621621E+04 0.  0.
        4    1    3    3  502    0  0.16977360649E+04 -0.42454410773E+02 -0.10237049122E+04  0.19829481796E+04  0.12699999809E+01 0.  1.
       -4    1    3    3    0  502 -0.16977360649E+04  0.42454410773E+02  0.11518667140E+04  0.20520498685E+04  0.12699999809E+01 0. -1.
</event>
<event>
 5   0  0.8528625E-08  0.3987528E+04  0.7818609E-02  0.8007067E-01
       -1   -1    0    0    0  501  0.00000000000E+00  0.00000000000E+00  0.18895087763E+04  0.18895087764E+04  0.50400001928E-02 0. -1.
        1   -1    0    0  501    0  0.00000000000E+00  0.00000000000E+00 -0.21037720081E+04  0.21037720081E+04  0.50400001928E-02 0.  1.
    10030    2    1    2    0    0  0.00000000000E+00  0.00000000000E+00 -0.21426323173E+03  0.39932807844E+04  0.39875283937E+04 0.  0.
        3    1    3    3  502    0  0.86253721328E+03 -0.17156953024E+04  0.42984601973E+03  0.19678283527E+04  0.10100000352E+00 0. -1.
       -3    1    3    3    0  502 -0.86253721328E+03  0.17156953024E+04 -0.64410925146E+03  0.20254524317E+04  0.10100000352E+00 0.  1.
</event>
<event>
 5   0  0.2839279E-07  0.2933936E+04  0.7818609E-02  0.8262851E-01
       -2   -1    0    0    0  501  0.00000000000E+00  0.00000000000E+00  0.18964957631E+04  0.18964957631E+04  0.25500000920E-02 0. -1.
        2   -1    0    0  501    0  0.00000000000E+00  0.00000000000E+00 -0.11347220452E+04  0.11347220452E+04  0.25500000920E-02 0.  1.
    10030    2    1    2    0    0  0.00000000000E+00  0.00000000000E+00  0.76177371782E+03  0.30312178083E+04  0.29339362986E+04 0.  0.
        3    1    3    3  502    0 -0.89654698210E+03 -0.12856452263E+03  0.15731299276E+04  0.18152308688E+04  0.10100000352E+00 0. -1.
       -3    1    3    3    0  502  0.89654698210E+03  0.12856452263E+03 -0.81135620982E+03  0.12159869395E+04  0.10100000352E+00 0.  1.
</event>
<event>
 5   0  0.8528625E-08  0.3552004E+04  0.7818609E-02  0.8101575E-01
       -1   -1    0    0    0  501  0.00000000000E+00  0.00000000000E+00  0.13713137862E+04  0.13713137862E+04  0.50400001928E-02 0. -1.
        1   -1    0    0  501    0  0.00000000000E+00  0.00000000000E+00 -0.23001181417E+04  0.23001181417E+04  0.50400001928E-02 0.  1.
    10030    2    1    2    0    0  0.00000000000E+00  0.00000000000E+00 -0.92880435551E+03  0.36714319278E+04  0.35520043454E+04 0.  0.
        3    1    3    3  502    0 -0.53941614002E+03  0.13025182275E+04  0.65203472574E+03  0.15532780817E+04  0.10100000352E+00 0. -1.
       -3    1    3    3    0  502  0.53941614002E+03 -0.13025182275E+04 -0.15808390812E+04  0.21181538462E+04  0.10100000352E+00 0.  1.
</event>
<event>
 5   0  0.2666978E-07  0.3999333E+04  0.7818609E-02  0.8004681E-01
       -2   -1    0    0    0  501  0.00000000000E+00  0.00000000000E+00  0.20803677786E+04  0.20803677786E+04  0.25500000920E-02 0. -1.
        2   -1    0    0  501    0  0.00000000000E+00  0.00000000000E+00 -0.19220957889E+04  0.19220957889E+04  0.25500000920E-02 0.  1.
    10030    2    1    2    0    0  0.00000000000E+00  0.00000000000E+00  0.15827198965E+03  0.40024635675E+04  0.39993330177E+04 0.  0.
        4    1    3    3  502    0  0.27807350733E+03  0.14424406055E+04  0.14369237452E+04  0.20549236576E+04  0.12699999809E+01 0. -1.
       -4    1    3    3    0  502 -0.27807350733E+03 -0.14424406055E+04 -0.12786517555E+04  0.19475399099E+04  0.12699999809E+01 0.  1.
</event>
<event>
 5   0  0.2730801E-07  0.4011248E+04  0.7818609E-02  0.8002281E-01
       -2   -1    0    0    0  501  0.00000000000E+00  0.00000000000E+00  0.18325922464E+04  0.18325922464E+04  0.25500000920E-02 0. -1.
        2   -1    0    0  501    0  0.00000000000E+00  0.00000000000E+00 -0.21949931296E+04  0.21949931296E+04  0.25500000920E-02 0.  1.
    10030    2    1    2    0    0  0.00000000000E+00  0.00000000000E+00 -0.36240088315E+03  0.40275853760E+04  0.40112478808E+04 0.  0.
        2    1    3    3  502    0 -0.12993977551E+04  0.68334645154E+03 -0.15531956363E+04  0.21372443902E+04  0.25500000920E-02 0.  1.
       -2    1    3    3    0  502  0.12993977551E+04 -0.68334645154E+03  0.11907947531E+04  0.18903409859E+04  0.25500000920E-02 0. -1.
</event>
<event>
 5   0  0.2661693E-07  0.4073541E+04  0.7818609E-02  0.7989873E-01
        2   -1    0    0  501    0  0.00000000000E+00  0.00000000000E+00  0.21893395186E+04  0.21893395186E+04  0.25500000920E-02 0.  1.
       -2   -1    0    0    0  501  0.00000000000E+00  0.00000000000E+00 -0.18948335435E+04  0.18948335435E+04  0.25500000920E-02 0. -1.
    10030    2    1    2    0    0  0.00000000000E+00  0.00000000000E+00  0.29450597509E+03  0.40841730621E+04  0.40735409452E+04 0.  0.
        1    1    3    3  502    0 -0.11026819650E+04  0.23044122904E+03  0.18485682830E+04  0.21647668172E+04  0.50400001928E-02 0.  1.
       -1    1    3    3    0  502  0.11026819650E+04 -0.23044122904E+03 -0.15540623079E+04  0.19194062449E+04  0.50400001928E-02 0. -1.
</event>
<event>
 5   0  0.2839279E-07  0.4021335E+04  0.7818609E-02  0.8000256E-01
       -2   -1    0    0    0  501  0.00000000000E+00  0.00000000000E+00  0.15546927860E+04  0.15546927860E+04  0.25500000920E-02 0. -1.
        2   -1    0    0  501    0  0.00000000000E+00  0.00000000000E+00 -0.26003752669E+04  0.26003752669E+04  0.25500000920E-02 0.  1.
    10030    2    1    2    0    0  0.00000000000E+00  0.00000000000E+00 -0.10456824808E+04  0.41550680529E+04  0.40213354341E+04 0.  0.
        3    1    3    3  502    0 -0.13391758593E+04  0.44562142059E+03 -0.20025321343E+04  0.24499194664E+04  0.10100000352E+00 0.  1.
       -3    1    3    3    0  502  0.13391758593E+04 -0.44562142059E+03  0.95684965345E+03  0.17051485865E+04  0.10100000352E+00 0. -1.
</event>
<event>
 5   0  0.2730801E-07  0.3947446E+04  0.7818609E-02  0.8015233E-01
       -2   -1    0    0    0  501  0.00000000000E+00  0.00000000000E+00  0.18094666502E+04  0.18094666502E+04  0.25500000920E-02 0. -1.
        2   -1    0    0  501    0  0.00000000000E+00  0.00000000000E+00 -0.21528896309E+04  0.21528896309E+04  0.25500000920E-02 0.  1.
    10030    2    1    2    0    0  0.00000000000E+00  0.00000000000E+00 -0.34342298073E+03  0.39623562811E+04  0.39474457507E+04 0.  0.
        2    1    3    3  502    0  0.73634674833E+02  0.26985820972E+03 -0.21328920231E+04  0.21511564102E+04  0.25500000920E-02 0.  1.
       -2    1    3    3    0  502 -0.73634674833E+02 -0.26985820972E+03  0.17894690424E+04  0.18111998709E+04  0.25500000920E-02 0. -1.
</event>
<event>
 5   0  0.8528625E-08  0.3911981E+04  0.7818609E-02  0.8022542E-01
        1   -1    0    0  501    0  0.00000000000E+00  0.00000000000E+00  0.26103444357E+04  0.26103444357E+04  0.50400001928E-02 0.  1.
       -1   -1    0    0    0  501  0.00000000000E+00  0.00000000000E+00 -0.14656685644E+04  0.14656685644E+04  0.50400001928E-02 0. -1.
    10030    2    1    2    0    0  0.00000000000E+00  0.00000000000E+00  0.11446758713E+04  0.40760130001E+04  0.39119814835E+04 0.  0.
        2    1    3    3  502    0 -0.99954625542E+03 -0.64576405770E+03  0.21897806044E+04  0.24922365518E+04  0.25500000920E-02 0.  1.
       -2    1    3    3    0  502  0.99954625542E+03  0.64576405770E+03 -0.10451047331E+04  0.15837764483E+04  0.25500000920E-02 0. -1.
</event>
<event>
 5   0  0.8528625E-08  0.3968241E+04  0.7818609E-02  0.8010984E-01
        1   -1    0    0  501    0  0.00000000000E+00  0.00000000000E+00  0.25765731204E+04  0.25765731204E+04  0.50400001928E-02 0. -1.
       -1   -1    0    0    0  501  0.00000000000E+00  0.00000000000E+00 -0.15278950983E+04  0.15278950983E+04  0.50400001928E-02 0.  1.
    10030    2    1    2    0    0  0.00000000000E+00  0.00000000000E+00  0.10486780221E+04  0.41044682186E+04  0.39682406384E+04 0.  0.
        2    1    3    3  502    0 -0.35565445419E+03  0.17901153761E+04  0.13293439460E+04  0.22579102013E+04  0.25500000920E-02 0. -1.
       -2    1    3    3    0  502  0.35565445419E+03 -0.17901153761E+04 -0.28066592389E+03  0.18465580173E+04  0.25500000920E-02 0.  1.
</event>
<event>
 5   0  0.8528625E-08  0.4030569E+04  0.7818609E-02  0.7998408E-01
       -1   -1    0    0    0  501  0.00000000000E+00  0.00000000000E+00  0.15018912081E+04  0.15018912081E+04  0.50400001928E-02 0.  1.
        1   -1    0    0  501    0  0.00000000000E+00  0.00000000000E+00 -0.27041711898E+04  0.27041711898E+04  0.50400001928E-02 0. -1.
    10030    2    1    2    0    0  0.00000000000E+00  0.00000000000E+00 -0.12022799817E+04  0.42060623979E+04  0.40305686622E+04 0.  0.
        4    1    3    3  502    0 -0.16411661764E+04 -0.11488210843E+04 -0.37214754713E+03  0.20375749587E+04  0.12699999809E+01 0.  1.
       -4    1    3    3    0  502  0.16411661764E+04  0.11488210843E+04 -0.83013243455E+03  0.21684874393E+04  0.12699999809E+01 0. -1.
</event>
<event>
 5   0  0.8528625E-08  0.3794183E+04  0.7818609E-02  0.8047404E-01
       -1   -1    0    0    0  501  0.00000000000E+00  0.00000000000E+00  0.25119825721E+04  0.25119825721E+04  0.50400001928E-02 0.  1.
        1   -1    0    0  501    0  0.00000000000E+00  0.00000000000E+00 -0.14327155196E+04  0.14327155196E+04  0.50400001928E-02 0. -1.
    10030    2    1    2    0    0  0.00000000000E+00  0.00000000000E+00  0.10792670525E+04  0.39446980918E+04  0.37941831354E+04 0.  0.
        5    1    3    3  502    0 -0.74529652605E+03 -0.15697665770E+04 -0.25167776072E+03  0.17558467483E+04  0.46999998093E+01 0. -1.
       -5    1    3    3    0  502  0.74529652605E+03  0.15697665770E+04  0.13309448132E+04  0.21888513435E+04  0.46999998093E+01 0.  1.
</event>
<event>
 5   0  0.8528625E-08  0.3530400E+04  0.7818609E-02  0.8106623E-01
        1   -1    0    0  501    0  0.00000000000E+00  0.00000000000E+00  0.20686094445E+04  0.20686094445E+04  0.50400001928E-02 0. -1.
       -1   -1    0    0    0  501  0.00000000000E+00  0.00000000000E+00 -0.15062926409E+04  0.15062926409E+04  0.50400001928E-02 0.  1.
    10030    2    1    2    0    0  0.00000000000E+00  0.00000000000E+00  0.56231680366E+03  0.35749020854E+04  0.35304000811E+04 0.  0.
        5    1    3    3  502    0 -0.42941064152E+03  0.94586424761E+03 -0.11640165806E+04  0.15601312008E+04  0.46999998093E+01 0.  1.
       -5    1    3    3    0  502  0.42941064152E+03 -0.94586424761E+03  0.17263333842E+04  0.20147708846E+04  0.46999998093E+01 0. -1.
</event>
<event>
 5   0  0.2839279E-07  0.4007724E+04  0.7818609E-02  0.8002990E-01
        2   -1    0    0  501    0  0.00000000000E+00  0.00000000000E+00  0.22979812837E+04  0.22979812837E+04  0.25500000920E-02 0.  1.
       -2   -1    0    0    0  501  0.00000000000E+00  0.00000000000E+00 -0.17473873137E+04  0.17473873137E+04  0.25500000920E-02 0. -1.
    10030    2    1    2    0    0  0.00000000000E+00  0.00000000000E+00  0.55059396996E+03  0.40453685974E+04  0.40077242132E+04 0.  0.
        3    1    3    3  502    0 -0.29994557548E+03 -0.10326744027E+04 -0.14314666890E+04  0.17903856183E+04  0.10100000352E+00 0. -1.
       -3    1    3    3    0  502  0.29994557548E+03  0.10326744027E+04  0.19820606590E+04  0.22549829791E+04  0.10100000352E+00 0.  1.
</event>
<event>
 5   0  0.2839279E-07  0.4001942E+04  0.7818609E-02  0.8004155E-01
        2   -1    0    0  501    0  0.00000000000E+00  0.00000000000E+00  0.26031080962E+04  0.26031080962E+04  0.25500000920E-02 0.  1.
       -2   -1    0    0    0  501  0.00000000000E+00  0.00000000000E+00 -0.15381174040E+04  0.15381174040E+04  0.25500000920E-02 0. -1.
    10030    2    1    2    0    0  0.00000000000E+00  0.00000000000E+00  0.10649906922E+04  0.41412255002E+04  0.40019424619E+04 0.  0.
        3    1    3    3  502    0 -0.15748103906E+04  0.12120537142E+04  0.29028959524E+03  0.20083251808E+04  0.10100000352E+00 0.  1.
       -3    1    3    3    0  502  0.15748103906E+04 -0.12120537142E+04  0.77470109697E+03  0.21329003194E+04  0.10100000352E+00 0. -1.
</event>
<event>
 5   0  0.8528625E-08  0.3710334E+04  0.7818609E-02  0.8065676E-01
        3   -1    0    0  501    0  0.00000000000E+00  0.00000000000E+00  0.20252691874E+04  0.20252691899E+04  0.10100000352E+00 0.  1.
       -3   -1    0    0    0  501  0.00000000000E+00  0.00000000000E+00 -0.16993515698E+04  0.16993515728E+04  0.10100000352E+00 0. -1.
    10030    2    1    2    0    0  0.00000000000E+00  0.00000000000E+00  0.32591761760E+03  0.37246207628E+04  0.37103338843E+04 0.  0.
        5    1    3    3  502    0 -0.75843190036E+03  0.13859307817E+04 -0.81320481230E+03  0.17768925786E+04  0.46999998093E+01 0. -1.
       -5    1    3    3    0  502  0.75843190036E+03 -0.13859307817E+04  0.11391224299E+04  0.19477281842E+04  0.46999998093E+01 0.  1.
</event>
<event>
 5   0  0.2661693E-07  0.3997944E+04  0.7818609E-02  0.8004961E-01
        2   -1    0    0  501    0  0.00000000000E+00  0.00000000000E+00  0.23352482013E+04  0.23352482013E+04  0.25500000920E-02 0. -1.
       -2   -1    0    0    0  501  0.00000000000E+00  0.00000000000E+00 -0.17111195807E+04  0.17111195807E+04  0.25500000920E-02 0.  1.
    10030    2    1    2    0    0  0.00000000000E+00  0.00000000000E+00  0.62412862059E+03  0.40463677820E+04  0.39979439331E+04 0.  0.
        1    1    3    3  502    0  0.19706553078E+04  0.25671314941E+03  0.93802276640E+02  0.19895182458E+04  0.50400001928E-02 0. -1.
       -1    1    3    3    0  502 -0.19706553078E+04 -0.25671314941E+03  0.53032634395E+03  0.20568495362E+04  0.50400001928E-02 0.  1.
</event>
<event>
 5   0  0.8528625E-08  0.4032392E+04  0.7818609E-02  0.7998044E-01
       -1   -1    0    0    0  501  0.00000000000E+00  0.00000000000E+00  0.20639074719E+04  0.20639074719E+04  0.50400001928E-02 0.  1.
        1   -1    0    0  501    0  0.00000000000E+00  0.00000000000E+00 -0.19695877836E+04  0.19695877836E+04  0.50400001928E-02 0. -1.
    10030    2    1    2    0    0  0.00000000000E+00  0.00000000000E+00  0.94319688343E+02  0.40334952555E+04  0.40323923138E+04 0.  0.
        2    1    3    3  502    0  0.15927381583E+04  0.10198996669E+04  0.74594721125E+03  0.20330881470E+04  0.25500000920E-02 0.  1.
       -2    1    3    3    0  502 -0.15927381583E+04 -0.10198996669E+04 -0.65162752291E+03  0.20004071086E+04  0.25500000920E-02 0. -1.
</event>
<event>
 5   0  0.2839279E-07  0.3997977E+04  0.7818609E-02  0.8004955E-01
        2   -1    0    0  501    0  0.00000000000E+00  0.00000000000E+00  0.20506005440E+04  0.20506005441E+04  0.25500000920E-02 0.  1.
       -2   -1    0    0    0  501  0.00000000000E+00  0.00000000000E+00 -0.19486754200E+04  0.19486754200E+04  0.25500000920E-02 0. -1.
    10030    2    1    2    0    0  0.00000000000E+00  0.00000000000E+00  0.10192512400E+03  0.39992759641E+04  0.39979769267E+04 0.  0.
        3    1    3    3  502    0 -0.35473420555E+03 -0.21554381853E+03  0.20070158769E+04  0.20494897498E+04  0.10100000352E+00 0.  1.
       -3    1    3    3    0  502  0.35473420555E+03  0.21554381853E+03 -0.19050907529E+04  0.19497862143E+04  0.10100000352E+00 0. -1.
</event>
<event>
 5   0  0.2666978E-07  0.4050195E+04  0.7818609E-02  0.7994496E-01
       -2   -1    0    0    0  501  0.00000000000E+00  0.00000000000E+00  0.19836238145E+04  0.19836238145E+04  0.25500000920E-02 0. -1.
        2   -1    0    0  501    0  0.00000000000E+00  0.00000000000E+00 -0.20674384766E+04  0.20674384766E+04  0.25500000920E-02 0.  1.
    10030    2    1    2    0    0  0.00000000000E+00  0.00000000000E+00 -0.83814662132E+02  0.40510622910E+04  0.40501951544E+04 0.  0.
        4    1    3    3  502    0 -0.10342038196E+04 -0.14487145253E+04  0.92404643293E+03  0.20055459953E+04  0.12699999809E+01 0. -1.
       -4    1    3    3    0  502  0.10342038196E+04  0.14487145253E+04 -0.10078610951E+04  0.20455162957E+04  0.12699999809E+01 0.  1.
</event>
<event>
 5   0  0.2704088E-07  0.4000859E+04  0.7818609E-02  0.8004373E-01
        2   -1    0    0  501    0  0.00000000000E+00  0.00000000000E+00  0.25016794975E+04  0.25016794975E+04  0.25500000920E-02 0.  1.
       -2   -1    0    0    0  501  0.00000000000E+00  0.00000000000E+00 -0.15996123626E+04  0.15996123627E+04  0.25500000920E-02 0. -1.
    10030    2    1    2    0    0  0.00000000000E+00  0.00000000000E+00  0.90206713489E+03  0.41012918602E+04  0.40008586337E+04 0.  0.
        5    1    3    3  502    0  0.76255631315E+03 -0.12695507384E+04 -0.92750849108E+03  0.17474396411E+04  0.46999998093E+01 0. -1.
       -5    1    3    3    0  502 -0.76255631315E+03  0.12695507384E+04  0.18295756260E+04  0.23538522191E+04  0.46999998093E+01 0.  1.
</event>
<event>
 5   0  0.8583262E-08  0.4024240E+04  0.7818609E-02  0.7999674E-01
       -1   -1    0    0    0  501  0.00000000000E+00  0.00000000000E+00  0.16540824212E+04  0.16540824212E+04  0.50400001928E-02 0.  1.
        1   -1    0    0  501    0  0.00000000000E+00  0.00000000000E+00 -0.24476572294E+04  0.24476572294E+04  0.50400001928E-02 0. -1.
    10030    2    1    2    0    0  0.00000000000E+00  0.00000000000E+00 -0.79357480825E+03  0.41017396506E+04  0.40242399513E+04 0.  0.
        1    1    3    3  502    0  0.11589900239E+04 -0.13718011039E+03  0.12738481897E+04  0.17276473797E+04  0.50400001928E-02 0.  1.
       -1    1    3    3    0  502 -0.11589900239E+04  0.13718011039E+03 -0.20674229980E+04  0.23740922709E+04  0.50400001928E-02 0. -1.
</event>
<event>
 5   0  0.8528625E-08  0.2920681E+04  0.7818609E-02  0.8266751E-01
       -1   -1    0    0    0  501  0.00000000000E+00  0.00000000000E+00  0.14973533180E+04  0.14973533180E+04  0.50400001928E-02 0. -1.
        1   -1    0    0  501    0  0.00000000000E+00  0.00000000000E+00 -0.14242427019E+04  0.14242427019E+04  0.50400001928E-02 0.  1.
    10030    2    1    2    0    0  0.00000000000E+00  0.00000000000E+00  0.73110616056E+02  0.29215960199E+04  0.29206811092E+04 0.  0.
        3    1    3    3  502    0  0.64935678856E+03 -0.10678263238E+04 -0.71911314879E+03  0.14418880080E+04  0.10100000352E+00 0. -1.
       -3    1    3    3    0  502 -0.64935678856E+03  0.10678263238E+04  0.79222376485E+03  0.14797080119E+04  0.10100000352E+00 0.  1.
</event>
<event>
 5   0  0.8528625E-08  0.3961703E+04  0.7818609E-02  0.8012317E-01
       -1   -1    0    0    0  501  0.00000000000E+00  0.00000000000E+00  0.20258002320E+04  0.20258002321E+04  0.50400001928E-02 0.  1.
        1   -1    0    0  501    0  0.00000000000E+00  0.00000000000E+00 -0.19369002735E+04  0.19369002735E+04  0.50400001928E-02 0. -1.
    10030    2    1    2    0    0  0.00000000000E+00  0.00000000000E+00  0.88899958512E+02  0.39627005056E+04  0.39617031810E+04 0.  0.
        4    1    3    3  502    0  0.14944735259E+04  0.57814171037E+03  0.12092483733E+04  0.20074815561E+04  0.12699999809E+01 0.  1.
       -4    1    3    3    0  502 -0.14944735259E+04 -0.57814171037E+03 -0.11203484148E+04  0.19552189495E+04  0.12699999809E+01 0. -1.
</event>
<event>
 5   0  0.8528625E-08  0.3917222E+04  0.7818609E-02  0.8021457E-01
       -1   -1    0    0    0  501  0.00000000000E+00  0.00000000000E+00  0.25954109616E+04  0.25954109616E+04  0.50400001928E-02 0.  1.
        1   -1    0    0  501    0  0.00000000000E+00  0.00000000000E+00 -0.14780536264E+04  0.14780536264E+04  0.50400001928E-02 0. -1.
    10030    2    1    2    0    0  0.00000000000E+00  0.00000000000E+00  0.11173573351E+04  0.40734645880E+04  0.39172217624E+04 0.  0.
        5    1    3    3  502    0  0.15601441186E+04 -0.35766932827E+03  0.17324874100E+04  0.23587097606E+04  0.46999998093E+01 0.  1.
       -5    1    3    3    0  502 -0.15601441186E+04  0.35766932827E+03 -0.61513007483E+03  0.17147548274E+04  0.46999998093E+01 0. -1.
</event>
<event>
 5   0  0.2839279E-07  0.4042683E+04  0.7818609E-02  0.7995991E-01
       -2   -1    0    0    0  501  0.00000000000E+00  0.00000000000E+00  0.21562959222E+04  0.21562959222E+04  0.25500000920E-02 0. -1.
        2   -1    0    0  501    0  0.00000000000E+00  0.00000000000E+00 -0.18948329193E+04  0.18948329193E+04  0.25500000920E-02 0.  1.
    10030    2    1    2    0    0  0.00000000000E+00  0.00000000000E+00  0.26146300290E+03  0.40511288414E+04  0.40426825238E+04 0.  0.
        3    1    3    3  502    0 -0.35547704159E+03  0.19870706345E+03  0.21147599929E+04  0.21536151610E+04  0.10100000352E+00 0. -1.
       -3    1    3    3    0  502  0.35547704159E+03 -0.19870706345E+03 -0.18532969900E+04  0.18975136804E+04  0.10100000352E+00 0.  1.
</event>
<event>
 5   0  0.8528625E-08  0.3862281E+04  0.7818609E-02  0.8032920E-01
       -1   -1    0    0    0  501  0.00000000000E+00  0.00000000000E+00  0.22247039548E+04  0.22247039548E+04  0.50400001928E-02 0.  1.
        1   -1    0    0  501    0  0.00000000000E+00  0.00000000000E+00 -0.16763145409E+04  0.16763145409E+04  0.50400001928E-02 0. -1.
    10030    2    1    2    0    0  0.00000000000E+00  0.00000000000E+00  0.54838941390E+03  0.39010184957E+04  0.38622809782E+04 0.  0.
        2    1    3    3  502    0 -0.53519073401E+03  0.21191471699E+03  0.21360404593E+04  0.22122399989E+04  0.25500000920E-02 0.  1.
       -2    1    3    3    0  502  0.53519073401E+03 -0.21191471699E+03 -0.15876510454E+04  0.16887784968E+04  0.25500000920E-02 0. -1.
</event>
<event>
 5   0  0.8528625E-08  0.4035231E+04  0.7818609E-02  0.7997477E-01
       -1   -1    0    0    0  501  0.00000000000E+00  0.00000000000E+00  0.15293196141E+04  0.15293196141E+04  0.50400001928E-02 0. -1.
        1   -1    0    0  501    0  0.00000000000E+00  0.00000000000E+00 -0.26618187952E+04  0.26618187952E+04  0.50400001928E-02 0.  1.
    10030    2    1    2    0    0  0.00000000000E+00  0.00000000000E+00 -0.11324991811E+04  0.41911384092E+04  0.40352306961E+04 0.  0.
        4    1    3    3  502    0 -0.17173598327E+04  0.54783011070E+03 -0.15075360359E+04  0.23499168363E+04  0.12699999809E+01 0.  1.
       -4    1    3    3    0  502  0.17173598327E+04 -0.54783011070E+03  0.37503685481E+03  0.18412215729E+04  0.12699999809E+01 0. -1.
</event>
<event>
 5   0  0.8528625E-08  0.3946531E+04  0.7818609E-02  0.8015421E-01
        1   -1    0    0  501    0  0.00000000000E+00  0.00000000000E+00  0.23347966148E+04  0.23347966148E+04  0.50400001928E-02 0.  1.
       -1   -1    0    0    0  501  0.00000000000E+00  0.00000000000E+00 -0.16677155636E+04  0.16677155636E+04  0.50400001928E-02 0. -1.
    10030    2    1    2    0    0  0.00000000000E+00  0.00000000000E+00  0.66708105128E+03  0.40025121784E+04  0.39465309589E+04 0.  0.
        3    1    3    3  502    0  0.52751895726E+02  0.35616215907E+03 -0.16341199867E+04  0.16733147902E+04  0.10100000352E+00 0. -1.
       -3    1    3    3    0  502 -0.52751895726E+02 -0.35616215907E+03  0.23012010379E+04  0.23291973882E+04  0.10100000352E+00 0.  1.
</event>
<event>
 5   0  0.8528625E-08  0.3910816E+04  0.7818609E-02  0.8022783E-01
       -1   -1    0    0    0  501  0.00000000000E+00  0.00000000000E+00  0.26181641552E+04  0.26181641552E+04  0.50400001928E-02 0. -1.
        1   -1    0    0  501    0  0.00000000000E+00  0.00000000000E+00 -0.14604203422E+04  0.14604203422E+04  0.50400001928E-02 0.  1.
    10030    2    1    2    0    0  0.00000000000E+00  0.00000000000E+00  0.11577438130E+04  0.40785844974E+04  0.39108158696E+04 0.  0.
        4    1    3    3  502    0 -0.86099910339E+03 -0.52542914292E+03 -0.11681695528E+04  0.15433784232E+04  0.12699999809E+01 0.  1.
       -4    1    3    3    0  502  0.86099910339E+03  0.52542914292E+03  0.23259133658E+04  0.25352060742E+04  0.12699999809E+01 0. -1.
</event>
<event>
 5   0  0.2730801E-07  0.3919134E+04  0.7818609E-02  0.8021061E-01
       -2   -1    0    0    0  501  0.00000000000E+00  0.00000000000E+00  0.18566952634E+04  0.18566952634E+04  0.25500000920E-02 0. -1.
        2   -1    0    0  501    0  0.00000000000E+00  0.00000000000E+00 -0.20681382478E+04  0.20681382478E+04  0.25500000920E-02 0.  1.
    10030    2    1    2    0    0  0.00000000000E+00  0.00000000000E+00 -0.21144298442E+03  0.39248335112E+04  0.39191338271E+04 0.  0.
        2    1    3    3  502    0 -0.14155853179E+04  0.12655796492E+04  0.37905775986E+03  0.19363001900E+04  0.25500000920E-02 0. -1.
       -2    1    3    3    0  502  0.14155853179E+04 -0.12655796492E+04 -0.59050074428E+03  0.19885333212E+04  0.25500000920E-02 0.  1.
</event>
<event>
 5   0  0.2704088E-07  0.4019263E+04  0.7818609E-02  0.8000672E-01
       -2   -1    0    0    0  501  0.00000000000E+00  0.00000000000E+00  0.20785851292E+04  0.20785851292E+04  0.25500000920E-02 0. -1.
        2   -1    0    0  501    0  0.00000000000E+00  0.00000000000E+00 -0.19429655583E+04  0.19429655583E+04  0.25500000920E-02 0.  1.
    10030    2    1    2    0    0  0.00000000000E+00  0.00000000000E+00  0.13561957094E+03  0.40215506875E+04  0.40192632738E+04 0.  0.
        5    1    3    3  502    0  0.20025771840E+04 -0.12445548653E+03 -0.45359313857E+02  0.20069589192E+04  0.46999998093E+01 0.  1.
       -5    1    3    3    0  502 -0.20025771840E+04  0.12445548653E+03  0.18097888479E+03  0.20145917683E+04  0.46999998093E+01 0. -1.
</event>
<event>
 5   0  0.2839279E-07  0.3987692E+04  0.7818609E-02  0.8007034E-01
        2   -1    0    0  501    0  0.00000000000E+00  0.00000000000E+00  0.29772735850E+04  0.29772735850E+04  0.25500000920E-02 0.  1.
       -2   -1    0    0    0  501  0.00000000000E+00  0.00000000000E+00 -0.13352558514E+04  0.13352558514E+04  0.25500000920E-02 0. -1.
    10030    2    1    2    0    0  0.00000000000E+00  0.00000000000E+00  0.16420177336E+04  0.43125294364E+04  0.39876920522E+04 0.  0.
        3    1    3    3  502    0 -0.69933477905E+03 -0.54688371470E+03 -0.11097140779E+04  0.14211320401E+04  0.10100000352E+00 0. -1.
       -3    1    3    3    0  502  0.69933477905E+03  0.54688371470E+03  0.27517318115E+04  0.28913973963E+04  0.10100000352E+00 0.  1.
</event>
<event>
 5   0  0.2704088E-07  0.4008654E+04  0.7818609E-02  0.8002803E-01
        2   -1    0    0  501    0  0.00000000000E+00  0.00000000000E+00  0.29170514680E+04  0.29170514680E+04  0.25500000920E-02 0. -1.
       -2   -1    0    0    0  501  0.00000000000E+00  0.00000000000E+00 -0.13771876063E+04  0.13771876063E+04  0.25500000920E-02 0.  1.
    10030    2    1    2    0    0  0.00000000000E+00  0.00000000000E+00  0.15398638617E+04  0.42942390743E+04  0.40086542025E+04 0.  0.
        5    1    3    3  502    0 -0.27668699919E+03  0.11077948176E+04 -0.99470651826E+03  0.15143408470E+04  0.46999998093E+01 0.  1.
       -5    1    3    3    0  502  0.27668699919E+03 -0.11077948176E+04  0.25345703799E+04  0.27798982273E+04  0.46999998093E+01 0. -1.
</event>
<event>
 5   0  0.8528625E-08  0.3804878E+04  0.7818609E-02  0.8045109E-01
       -1   -1    0    0    0  501  0.00000000000E+00  0.00000000000E+00  0.16484884349E+04  0.16484884349E+04  0.50400001928E-02 0.  1.
        1   -1    0    0  501    0  0.00000000000E+00  0.00000000000E+00 -0.21955113586E+04  0.21955113586E+04  0.50400001928E-02 0. -1.
    10030    2    1    2    0    0  0.00000000000E+00  0.00000000000E+00 -0.54702292366E+03  0.38439997935E+04  0.38048784913E+04 0.  0.
        4    1    3    3  502    0  0.99356345925E+03  0.20284919258E+03  0.13526838089E+04  0.16905831071E+04  0.12699999809E+01 0.  1.
       -4    1    3    3    0  502 -0.99356345925E+03 -0.20284919258E+03 -0.18997067325E+04  0.21534166863E+04  0.12699999809E+01 0. -1.
</event>
<event>
 5   0  0.8528625E-08  0.3985384E+04  0.7818609E-02  0.8007501E-01
       -1   -1    0    0    0  501  0.00000000000E+00  0.00000000000E+00  0.20845284978E+04  0.20845284978E+04  0.50400001928E-02 0.  1.
        1   -1    0    0  501    0  0.00000000000E+00  0.00000000000E+00 -0.19049018631E+04  0.19049018631E+04  0.50400001928E-02 0. -1.
    10030    2    1    2    0    0  0.00000000000E+00  0.00000000000E+00  0.17962663464E+03  0.39894303609E+04  0.39853844076E+04 0.  0.
        5    1    3    3  502    0  0.46054534154E+03 -0.31165412180E+02  0.20302669702E+04  0.20820853380E+04  0.46999998093E+01 0.  1.
       -5    1    3    3    0  502 -0.46054534154E+03  0.31165412180E+02 -0.18506403356E+04  0.19073450228E+04  0.46999998093E+01 0. -1.
</event>
<event>
 5   0  0.8528625E-08  0.3699467E+04  0.7818609E-02  0.8068080E-01
        1   -1    0    0  501    0  0.00000000000E+00  0.00000000000E+00  0.25982851009E+04  0.25982851009E+04  0.50400001928E-02 0.  1.
       -1   -1    0    0    0  501  0.00000000000E+00  0.00000000000E+00 -0.13168352648E+04  0.13168352648E+04  0.50400001928E-02 0. -1.
    10030    2    1    2    0    0  0.00000000000E+00  0.00000000000E+00  0.12814498361E+04  0.39151203657E+04  0.36994666907E+04 0.  0.
        3    1    3    3  502    0 -0.10495350113E+04  0.66282886290E+03  0.20920333178E+04  0.24325848915E+04  0.10100000352E+00 0.  1.
       -3    1    3    3    0  502  0.10495350113E+04 -0.66282886290E+03 -0.81058348161E+03  0.14825354742E+04  0.10100000352E+00 0. -1.
</event>
<event>
 5   0  0.8528625E-08  0.3920573E+04  0.7818609E-02  0.8020764E-01
       -1   -1    0    0    0  501  0.00000000000E+00  0.00000000000E+00  0.24202310050E+04  0.24202310050E+04  0.50400001928E-02 0. -1.
        1   -1    0    0  501    0  0.00000000000E+00  0.00000000000E+00 -0.15877507173E+04  0.15877507173E+04  0.50400001928E-02 0.  1.
    10030    2    1    2    0    0  0.00000000000E+00  0.00000000000E+00  0.83248028773E+03  0.40079817223E+04  0.39205731796E+04 0.  0.
        5    1    3    3  502    0  0.17340269911E+04 -0.31425801511E+03 -0.46144252525E+03  0.18216912471E+04  0.46999998093E+01 0.  1.
       -5    1    3    3    0  502 -0.17340269911E+04  0.31425801511E+03  0.12939228130E+04  0.21862904751E+04  0.46999998093E+01 0. -1.
</event>
<event>
 5   0  0.2730801E-07  0.3916042E+04  0.7818609E-02  0.8021701E-01
       -2   -1    0    0    0  501  0.00000000000E+00  0.00000000000E+00  0.17549883854E+04  0.17549883854E+04  0.25500000920E-02 0. -1.
        2   -1    0    0  501    0  0.00000000000E+00  0.00000000000E+00 -0.21845426984E+04  0.21845426984E+04  0.25500000920E-02 0.  1.
    10030    2    1    2    0    0  0.00000000000E+00  0.00000000000E+00 -0.42955431307E+03  0.39395310838E+04  0.39160424222E+04 0.  0.
        2    1    3    3  502    0  0.28644973462E+03  0.71897109494E+02  0.17324527153E+04  0.17574456053E+04  0.25500000920E-02 0. -1.
       -2    1    3    3    0  502 -0.28644973462E+03 -0.71897109494E+02 -0.21620070284E+04  0.21820854785E+04  0.25500000920E-02 0.  1.
</event>
<event>
 5   0  0.2839279E-07  0.3486093E+04  0.7818609E-02  0.8117094E-01
       -2   -1    0    0    0  501  0.00000000000E+00  0.00000000000E+00  0.16018604405E+04  0.16018604406E+04  0.25500000920E-02 0.  1.
        2   -1    0    0  501    0  0.00000000000E+00  0.00000000000E+00 -0.18966764888E+04  0.18966764888E+04  0.25500000920E-02 0. -1.
    10030    2    1    2    0    0  0.00000000000E+00  0.00000000000E+00 -0.29481604824E+03  0.34985369293E+04  0.34860929626E+04 0.  0.
        3    1    3    3  502    0  0.12782049801E+04 -0.52405992480E+03  0.91928980770E+03  0.16593795637E+04  0.10100000352E+00 0.  1.
       -3    1    3    3    0  502 -0.12782049801E+04  0.52405992480E+03 -0.12141058559E+04  0.18391573656E+04  0.10100000352E+00 0. -1.
</event>
<event>
 5   0  0.2839279E-07  0.3809326E+04  0.7818609E-02  0.8044156E-01
       -2   -1    0    0    0  501  0.00000000000E+00  0.00000000000E+00  0.13376351758E+04  0.13376351758E+04  0.25500000920E-02 0.  1.
        2   -1    0    0  501    0  0.00000000000E+00  0.00000000000E+00 -0.27120561176E+04  0.27120561177E+04  0.25500000920E-02 0. -1.
    10030    2    1    2    0    0  0.00000000000E+00  0.00000000000E+00 -0.13744209419E+04  0.40496912934E+04  0.38093262720E+04 0.  0.
        3    1    3    3  502    0 -0.55596891981E+03  0.69401234086E+03  0.11034053838E+04  0.14171302059E+04  0.10100000352E+00 0.  1.
       -3    1    3    3    0  502  0.55596891981E+03 -0.69401234086E+03 -0.24778263257E+04  0.26325610876E+04  0.10100000352E+00 0. -1.
</event>
<event>
 5   0  0.8528625E-08  0.3868222E+04  0.7818609E-02  0.8031671E-01
        1   -1    0    0  501    0  0.00000000000E+00  0.00000000000E+00  0.24806434245E+04  0.24806434245E+04  0.50400001928E-02 0.  1.
       -1   -1    0    0    0  501  0.00000000000E+00  0.00000000000E+00 -0.15079895885E+04  0.15079895885E+04  0.50400001928E-02 0. -1.
    10030    2    1    2    0    0  0.00000000000E+00  0.00000000000E+00  0.97265383599E+03  0.39886330130E+04  0.38682215330E+04 0.  0.
        2    1    3    3  502    0 -0.41069844521E+03 -0.43999214584E+02 -0.14619806283E+04  0.15192091697E+04  0.25500000920E-02 0. -1.
       -2    1    3    3    0  502  0.41069844521E+03  0.43999214584E+02  0.24346344642E+04  0.24694238434E+04  0.25500000920E-02 0.  1.
</event>
<event>
 5   0  0.2666978E-07  0.3996816E+04  0.7818609E-02  0.8005189E-01
        2   -1    0    0  501    0  0.00000000000E+00  0.00000000000E+00  0.21571377982E+04  0.21571377982E+04  0.25500000920E-02 0.  1.
       -2   -1    0    0    0  501  0.00000000000E+00  0.00000000000E+00 -0.18513577487E+04  0.18513577487E+04  0.25500000920E-02 0. -1.
    10030    2    1    2    0    0  0.00000000000E+00  0.00000000000E+00  0.30578004946E+03  0.40084955469E+04  0.39968156213E+04 0.  0.
        4    1    3    3  502    0 -0.16751015770E+04 -0.44925237570E+03  0.11486859097E+04  0.20802100669E+04  0.12699999809E+01 0.  1.
       -4    1    3    3    0  502  0.16751015770E+04  0.44925237570E+03 -0.84290586024E+03  0.19282854800E+04  0.12699999809E+01 0. -1.
</event>
<event>
 5   0  0.2839279E-07  0.4232503E+04  0.7818609E-02  0.7959218E-01
       -2   -1    0    0    0  501  0.00000000000E+00  0.00000000000E+00  0.22412724659E+04  0.22412724659E+04  0.25500000920E-02 0. -1.
        2   -1    0    0  501    0  0.00000000000E+00  0.00000000000E+00 -0.19982039911E+04  0.19982039911E+04  0.25500000920E-02 0.  1.
    10030    2    1    2    0    0  0.00000000000E+00  0.00000000000E+00  0.24306847475E+03  0.42394764570E+04  0.42325026103E+04 0.  0.
        3    1    3    3  502    0 -0.29991223710E+03 -0.15764779622E+03 -0.19708594512E+04  0.19997717780E+04  0.10100000352E+00 0.  1.
       -3    1    3    3    0  502  0.29991223710E+03  0.15764779622E+03  0.22139279260E+04  0.22397046790E+04  0.10100000352E+00 0. -1.
</event>
<event>
 5   0  0.2839279E-07  0.4019748E+04  0.7818609E-02  0.8000575E-01
        2   -1    0    0  501    0  0.00000000000E+00  0.00000000000E+00  0.24562822153E+04  0.24562822153E+04  0.25500000920E-02 0. -1.
       -2   -1    0    0    0  501  0.00000000000E+00  0.00000000000E+00 -0.16445965957E+04  0.16445965957E+04  0.25500000920E-02 0.  1.
    10030    2    1    2    0    0  0.00000000000E+00  0.00000000000E+00  0.81168561963E+03  0.41008788109E+04  0.40197479370E+04 0.  0.
        3    1    3    3  502    0  0.90370703747E+03 -0.15613398011E+04  0.13097992652E+04  0.22293592150E+04  0.10100000352E+00 0. -1.
       -3    1    3    3    0  502 -0.90370703747E+03  0.15613398011E+04 -0.49811364553E+03  0.18715195960E+04  0.10100000352E+00 0.  1.
</event>
<event>
 5   0  0.2839279E-07  0.4058688E+04  0.7818609E-02  0.7992811E-01
       -2   -1    0    0    0  501  0.00000000000E+00  0.00000000000E+00  0.22089873529E+04  0.22089873529E+04  0.25500000920E-02 0.  1.
        2   -1    0    0  501    0  0.00000000000E+00  0.00000000000E+00 -0.18643098324E+04  0.18643098324E+04  0.25500000920E-02 0. -1.
    10030    2    1    2    0    0  0.00000000000E+00  0.00000000000E+00  0.34467752052E+03  0.40732971853E+04  0.40586878873E+04 0.  0.
        3    1    3    3  502    0 -0.69792150656E+03  0.14384676287E+04  0.14266186579E+04  0.21427842527E+04  0.10100000352E+00 0.  1.
       -3    1    3    3    0  502  0.69792150656E+03 -0.14384676287E+04 -0.10819411374E+04  0.19305129326E+04  0.10100000352E+00 0. -1.
</event>
<event>
 5   0  0.2704088E-07  0.3999585E+04  0.7818609E-02  0.8004630E-01
        2   -1    0    0  501    0  0.00000000000E+00  0.00000000000E+00  0.20105132296E+04  0.20105132296E+04  0.25500000920E-02 0.  1.
       -2   -1    0    0    0  501  0.00000000000E+00  0.00000000000E+00 -0.19891292661E+04  0.19891292661E+04  0.25500000920E-02 0. -1.
    10030    2    1    2    0    0  0.00000000000E+00  0.00000000000E+00  0.21383963484E+02  0.39996424958E+04  0.39995853310E+04 0.  0.
        5    1    3    3  502    0 -0.10177101658E+04  0.30541032761E+03  0.17048647031E+04  0.20088790893E+04  0.46999998093E+01 0.  1.
       -5    1    3    3    0  502  0.10177101658E+04 -0.30541032761E+03 -0.16834807396E+04  0.19907634064E+04  0.46999998093E+01 0. -1.
</event>
<event>
 5   0  0.8528625E-08  0.3796576E+04  0.7818609E-02  0.8046890E-01
        1   -1    0    0  501    0  0.00000000000E+00  0.00000000000E+00  0.13810795171E+04  0.13810795171E+04  0.50400001928E-02 0.  1.
       -1   -1    0    0    0  501  0.00000000000E+00  0.00000000000E+00 -0.26091894603E+04  0.26091894603E+04  0.50400001928E-02 0. -1.
    10030    2    1    2    0    0  0.00000000000E+00  0.00000000000E+00 -0.12281099432E+04  0.39902689774E+04  0.37965764156E+04 0.  0.
        3    1    3    3  502    0  0.28271515236E+03  0.18559920000E+04 -0.31890055643E+03  0.19042929755E+04  0.10100000352E+00 0.  1.
       -3    1    3    3    0  502 -0.28271515236E+03 -0.18559920000E+04 -0.90920938674E+03  0.20859760019E+04  0.10100000352E+00 0. -1.
</event>
<event>
 5   0  0.8528625E-08  0.2988620E+04  0.7818609E-02  0.8246988E-01
        1   -1    0    0  501    0  0.00000000000E+00  0.00000000000E+00  0.17586120049E+04  0.17586120049E+04  0.50400001928E-02 0. -1.
       -1   -1    0    0    0  501  0.00000000000E+00  0.00000000000E+00 -0.12697298930E+04  0.12697298930E+04  0.50400001928E-02 0.  1.
    10030    2    1    2    0    0  0.00000000000E+00  0.00000000000E+00  0.48888211183E+03  0.30283418979E+04  0.29886199041E+04 0.  0.
        2    1    3    3  502    0 -0.51156557787E+03 -0.76186734605E+03  0.14394463975E+04  0.17070873219E+04  0.25500000920E-02 0. -1.
       -2    1    3    3    0  502  0.51156557787E+03  0.76186734605E+03 -0.95056428563E+03  0.13212545760E+04  0.25500000920E-02 0.  1.
</event>
<event>
 5   0  0.8528625E-08  0.3817904E+04  0.7818609E-02  0.8042324E-01
        1   -1    0    0  501    0  0.00000000000E+00  0.00000000000E+00  0.26038391606E+04  0.26038391606E+04  0.50400001928E-02 0. -1.
       -1   -1    0    0    0  501  0.00000000000E+00  0.00000000000E+00 -0.13995093806E+04  0.13995093806E+04  0.50400001928E-02 0.  1.
    10030    2    1    2    0    0  0.00000000000E+00  0.00000000000E+00  0.12043297801E+04  0.40033485412E+04  0.38179037865E+04 0.  0.
        4    1    3    3  502    0 -0.43143768702E+03  0.59038151804E+03 -0.12468363481E+04  0.14454381019E+04  0.12699999809E+01 0.  1.
       -4    1    3    3    0  502  0.43143768702E+03 -0.59038151804E+03  0.24511661282E+04  0.25579104393E+04  0.12699999809E+01 0. -1.
</event>
<event>
 5   0  0.2839279E-07  0.3643623E+04  0.7818609E-02  0.8080572E-01
       -2   -1    0    0    0  501  0.00000000000E+00  0.00000000000E+00  0.12655172762E+04  0.12655172762E+04  0.25500000920E-02 0.  1.
        2   -1    0    0  501    0  0.00000000000E+00  0.00000000000E+00 -0.26226410944E+04  0.26226410944E+04  0.25500000920E-02 0. -1.
    10030    2    1    2    0    0  0.00000000000E+00  0.00000000000E+00 -0.13571238182E+04  0.38881583706E+04  0.36436232595E+04 0.  0.
        3    1    3    3  502    0  0.20953641223E+03 -0.10224284794E+04 -0.22720059759E+04  0.25002553206E+04  0.10100000352E+00 0. -1.
       -3    1    3    3    0  502 -0.20953641223E+03  0.10224284794E+04  0.91488215768E+03  0.13879030500E+04  0.10100000352E+00 0.  1.
</event>
<event>
 5   0  0.2839279E-07  0.4010258E+04  0.7818609E-02  0.8002480E-01
        2   -1    0    0  501    0  0.00000000000E+00  0.00000000000E+00  0.17380362424E+04  0.17380362424E+04  0.25500000920E-02 0. -1.
       -2   -1    0    0    0  501  0.00000000000E+00  0.00000000000E+00 -0.23132676095E+04  0.23132676095E+04  0.25500000920E-02 0.  1.
    10030    2    1    2    0    0  0.00000000000E+00  0.00000000000E+00 -0.57523136703E+03  0.40513038519E+04  0.40102583177E+04 0.  0.
        3    1    3    3  502    0 -0.78142364464E+03 -0.17339087408E+04  0.35408683482E+03  0.19345386868E+04  0.10100000352E+00 0. -1.
       -3    1    3    3    0  502  0.78142364464E+03  0.17339087408E+04 -0.92931820185E+03  0.21167651651E+04  0.10100000352E+00 0.  1.
</event>
<event>
 5   0  0.2661693E-07  0.3240707E+04  0.7818609E-02  0.8178148E-01
        2   -1    0    0  501    0  0.00000000000E+00  0.00000000000E+00  0.14765015994E+04  0.14765015994E+04  0.25500000920E-02 0.  1.
       -2   -1    0    0    0  501  0.00000000000E+00  0.00000000000E+00 -0.17782209172E+04  0.17782209172E+04  0.25500000920E-02 0. -1.
    10030    2    1    2    0    0  0.00000000000E+00  0.00000000000E+00 -0.30171931778E+03  0.32547225166E+04  0.32407073477E+04 0.  0.
        1    1    3    3  502    0  0.99791857903E+03  0.89435685384E+03 -0.10657495174E+04  0.17121733867E+04  0.50400001928E-02 0. -1.
       -1    1    3    3    0  502 -0.99791857903E+03 -0.89435685384E+03  0.76403019959E+03  0.15425491299E+04  0.50400001928E-02 0.  1.
</event>
<event>
 5   0  0.8583262E-08  0.4017931E+04  0.7818609E-02  0.8000939E-01
       -1   -1    0    0    0  501  0.00000000000E+00  0.00000000000E+00  0.15016552120E+04  0.15016552120E+04  0.50400001928E-02 0.  1.
        1   -1    0    0  501    0  0.00000000000E+00  0.00000000000E+00 -0.26876618575E+04  0.26876618575E+04  0.50400001928E-02 0. -1.
    10030    2    1    2    0    0  0.00000000000E+00  0.00000000000E+00 -0.11860066456E+04  0.41893170695E+04  0.40179305302E+04 0.  0.
        1    1    3    3  502    0 -0.14864849296E+04 -0.13194919121E+04 -0.28858171144E+03  0.20084759785E+04  0.50400001928E-02 0.  1.
       -1    1    3    3    0  502  0.14864849296E+04  0.13194919121E+04 -0.89742493414E+03  0.21808410910E+04  0.50400001928E-02 0. -1.
</event>
<event>
 5   0  0.2730801E-07  0.3888897E+04  0.7818609E-02  0.8027342E-01
       -2   -1    0    0    0  501  0.00000000000E+00  0.00000000000E+00  0.26587062723E+04  0.26587062723E+04  0.25500000920E-02 0.  1.
        2   -1    0    0  501    0  0.00000000000E+00  0.00000000000E+00 -0.14220753673E+04  0.14220753673E+04  0.25500000920E-02 0. -1.
    10030    2    1    2    0    0  0.00000000000E+00  0.00000000000E+00  0.12366309050E+04  0.40807816396E+04  0.38888973752E+04 0.  0.
        2    1    3    3  502    0 -0.67566007765E+03  0.17460870819E+04  0.11691388769E+04  0.22073111135E+04  0.25500000920E-02 0.  1.
       -2    1    3    3    0  502  0.67566007765E+03 -0.17460870819E+04  0.67492028074E+02  0.18734705261E+04  0.25500000920E-02 0. -1.
</event>
<event>
 5   0  0.2839279E-07  0.3449958E+04  0.7818609E-02  0.8125753E-01
       -2   -1    0    0    0  501  0.00000000000E+00  0.00000000000E+00  0.12842999995E+04  0.12842999995E+04  0.25500000920E-02 0.  1.
        2   -1    0    0  501    0  0.00000000000E+00  0.00000000000E+00 -0.23168669553E+04  0.23168669553E+04  0.25500000920E-02 0. -1.
    10030    2    1    2    0    0  0.00000000000E+00  0.00000000000E+00 -0.10325669558E+04  0.36011669548E+04  0.34499578140E+04 0.  0.
        3    1    3    3  502    0 -0.17225297881E+04  0.79482216752E+00 -0.61219495576E+03  0.18280842914E+04  0.10100000352E+00 0. -1.
       -3    1    3    3    0  502  0.17225297881E+04 -0.79482216752E+00 -0.42037200008E+03  0.17730826634E+04  0.10100000352E+00 0.  1.
</event>
<event>
 5   0  0.8583262E-08  0.3838407E+04  0.7818609E-02  0.8037963E-01
       -1   -1    0    0    0  501  0.00000000000E+00  0.00000000000E+00  0.17120970170E+04  0.17120970170E+04  0.50400001928E-02 0.  1.
        1   -1    0    0  501    0  0.00000000000E+00  0.00000000000E+00 -0.21513630398E+04  0.21513630398E+04  0.50400001928E-02 0. -1.
    10030    2    1    2    0    0  0.00000000000E+00  0.00000000000E+00 -0.43926602277E+03  0.38634600568E+04  0.38384070878E+04 0.  0.
        1    1    3    3  502    0  0.10798129399E+04  0.79370244833E+03 -0.16024202943E+04  0.20889495832E+04  0.50400001928E-02 0. -1.
       -1    1    3    3    0  502 -0.10798129399E+04 -0.79370244833E+03  0.11631542715E+04  0.17745104736E+04  0.50400001928E-02 0.  1.
</event>
<event>
 5   0  0.2666978E-07  0.4003129E+04  0.7818609E-02  0.8003916E-01
        2   -1    0    0  501    0  0.00000000000E+00  0.00000000000E+00  0.19711914645E+04  0.19711914645E+04  0.25500000920E-02 0.  1.
       -2   -1    0    0    0  501  0.00000000000E+00  0.00000000000E+00 -0.20324051518E+04  0.20324051518E+04  0.25500000920E-02 0. -1.
    10030    2    1    2    0    0  0.00000000000E+00  0.00000000000E+00 -0.61213687327E+02  0.40035966163E+04  0.40031286203E+04 0.  0.
        4    1    3    3  502    0 -0.25887207923E+03  0.94763715662E+03  0.17135084814E+04  0.19751313533E+04  0.12699999809E+01 0.  1.
       -4    1    3    3    0  502  0.25887207923E+03 -0.94763715662E+03 -0.17747221688E+04  0.20284652630E+04  0.12699999809E+01 0. -1.
</event>
<event>
 5   0  0.2704088E-07  0.3832538E+04  0.7818609E-02  0.8039208E-01
        2   -1    0    0  501    0  0.00000000000E+00  0.00000000000E+00  0.18303129081E+04  0.18303129081E+04  0.25500000920E-02 0.  1.
       -2   -1    0    0    0  501  0.00000000000E+00  0.00000000000E+00 -0.20062617368E+04  0.20062617368E+04  0.25500000920E-02 0. -1.
    10030    2    1    2    0    0  0.00000000000E+00  0.00000000000E+00 -0.17594882868E+03  0.38365746449E+04  0.38325379340E+04 0.  0.
        5    1    3    3  502    0 -0.10256965595E+04 -0.15094469984E+02  0.15323048802E+04  0.18439798293E+04  0.46999998093E+01 0.  1.
       -5    1    3    3    0  502  0.10256965595E+04  0.15094469984E+02 -0.17082537088E+04  0.19925948155E+04  0.46999998093E+01 0. -1.
</event>
<event>
 5   0  0.2666978E-07  0.3995331E+04  0.7818609E-02  0.8005489E-01
        2   -1    0    0  501    0  0.00000000000E+00  0.00000000000E+00  0.24902104857E+04  0.24902104857E+04  0.25500000920E-02 0.  1.
       -2   -1    0    0    0  501  0.00000000000E+00  0.00000000000E+00 -0.16025422008E+04  0.16025422008E+04  0.25500000920E-02 0. -1.
    10030    2    1    2    0    0  0.00000000000E+00  0.00000000000E+00  0.88766828491E+03  0.40927526866E+04  0.39953309712E+04 0.  0.
        4    1    3    3  502    0  0.13081773783E+04 -0.38769744880E+03 -0.10508639120E+04  0.17221945126E+04  0.12699999809E+01 0. -1.
       -4    1    3    3    0  502 -0.13081773783E+04  0.38769744880E+03  0.19385321969E+04  0.23705581740E+04  0.12699999809E+01 0.  1.
</event>
<event>
 5   0  0.2839279E-07  0.3803587E+04  0.7818609E-02  0.8045386E-01
        2   -1    0    0  501    0  0.00000000000E+00  0.00000000000E+00  0.22589105943E+04  0.22589105943E+04  0.25500000920E-02 0.  1.
       -2   -1    0    0    0  501  0.00000000000E+00  0.00000000000E+00 -0.16011338488E+04  0.16011338488E+04  0.25500000920E-02 0. -1.
    10030    2    1    2    0    0  0.00000000000E+00  0.00000000000E+00  0.65777674546E+03  0.38600444431E+04  0.38035868408E+04 0.  0.
        3    1    3    3  502    0 -0.14985308697E+04  0.17193694847E+01  0.15172609304E+04  0.21325286550E+04  0.10100000352E+00 0.  1.
       -3    1    3    3    0  502  0.14985308697E+04 -0.17193694847E+01 -0.85948418489E+03  0.17275157880E+04  0.10100000352E+00 0. -1.
</event>
<event>
 5   0  0.2839279E-07  0.4029586E+04  0.7818609E-02  0.7998605E-01
       -2   -1    0    0    0  501  0.00000000000E+00  0.00000000000E+00  0.16922162178E+04  0.16922162178E+04  0.25500000920E-02 0. -1.
        2   -1    0    0  501    0  0.00000000000E+00  0.00000000000E+00 -0.23988610554E+04  0.23988610554E+04  0.25500000920E-02 0.  1.
    10030    2    1    2    0    0  0.00000000000E+00  0.00000000000E+00 -0.70664483768E+03  0.40910772732E+04  0.40295863719E+04 0.  0.
        3    1    3    3  502    0  0.69688178905E+03  0.47876788407E+03  0.15033901371E+04  0.17248318264E+04  0.10100000352E+00 0. -1.
       -3    1    3    3    0  502 -0.69688178905E+03 -0.47876788407E+03 -0.22100349748E+04  0.23662454468E+04  0.10100000352E+00 0.  1.
</event>
<event>
 5   0  0.2666978E-07  0.3293957E+04  0.7818609E-02  0.8164435E-01
       -2   -1    0    0    0  501  0.00000000000E+00  0.00000000000E+00  0.17653321904E+04  0.17653321904E+04  0.25500000920E-02 0. -1.
        2   -1    0    0  501    0  0.00000000000E+00  0.00000000000E+00 -0.15365600884E+04  0.15365600884E+04  0.25500000920E-02 0.  1.
    10030    2    1    2    0    0  0.00000000000E+00  0.00000000000E+00  0.22877210202E+03  0.33018922788E+04  0.32939574900E+04 0.  0.
        4    1    3    3  502    0  0.13952976887E+03  0.15364395777E+04 -0.46356352208E+03  0.16109028165E+04  0.12699999809E+01 0. -1.
       -4    1    3    3    0  502 -0.13952976887E+03 -0.15364395777E+04  0.69233562410E+03  0.16909894623E+04  0.12699999809E+01 0.  1.
</event>
<event>
 5   0  0.2839279E-07  0.4113050E+04  0.7818609E-02  0.7982121E-01
       -2   -1    0    0    0  501  0.00000000000E+00  0.00000000000E+00  0.23563443631E+04  0.23563443631E+04  0.25500000920E-02 0. -1.
        2   -1    0    0  501    0  0.00000000000E+00  0.00000000000E+00 -0.17948541588E+04  0.17948541588E+04  0.25500000920E-02 0.  1.
    10030    2    1    2    0    0  0.00000000000E+00  0.00000000000E+00  0.56149020431E+03  0.41511985218E+04  0.41130497101E+04 0.  0.
        3    1    3    3  502    0  0.12196414545E+04 -0.11660680865E+04 -0.90576684369E+03  0.19151119146E+04  0.10100000352E+00 0.  1.
       -3    1    3    3    0  502 -0.12196414545E+04  0.11660680865E+04  0.14672570480E+04  0.22360866072E+04  0.10100000352E+00 0. -1.
</event>
<event>
 5   0  0.8528625E-08  0.4083338E+04  0.7818609E-02  0.7987942E-01
        1   -1    0    0  501    0  0.00000000000E+00  0.00000000000E+00  0.13951465109E+04  0.13951465109E+04  0.50400001928E-02 0. -1.
       -1   -1    0    0    0  501  0.00000000000E+00  0.00000000000E+00 -0.29877956989E+04  0.29877956989E+04  0.50400001928E-02 0.  1.
    10030    2    1    2    0    0  0.00000000000E+00  0.00000000000E+00 -0.15926491880E+04  0.43829422098E+04  0.40833382150E+04 0.  0.
        5    1    3    3  502    0  0.85102121515E+03  0.15749678954E+04 -0.18499966777E+04  0.25743486123E+04  0.46999998093E+01 0.  1.
       -5    1    3    3    0  502 -0.85102121515E+03 -0.15749678954E+04  0.25734748969E+03  0.18085935974E+04  0.46999998093E+01 0. -1.
</event>
<event>
 5   0  0.2661693E-07  0.3984595E+04  0.7818609E-02  0.8007661E-01
       -2   -1    0    0    0  501  0.00000000000E+00  0.00000000000E+00  0.13228024604E+04  0.13228024604E+04  0.25500000920E-02 0.  1.
        2   -1    0    0  501    0  0.00000000000E+00  0.00000000000E+00 -0.30006361270E+04  0.30006361270E+04  0.25500000920E-02 0. -1.
    10030    2    1    2    0    0  0.00000000000E+00  0.00000000000E+00 -0.16778336666E+04  0.43234385874E+04  0.39845947607E+04 0.  0.
        1    1    3    3  502    0  0.86601180263E+03  0.15844876036E+04 -0.17523307016E+04  0.25161955998E+04  0.50400001928E-02 0.  1.
       -1    1    3    3    0  502 -0.86601180263E+03 -0.15844876036E+04  0.74497035024E+02  0.18072429877E+04  0.50400001928E-02 0. -1.
</event>
<event>
 5   0  0.8528625E-08  0.2895163E+04  0.7818609E-02  0.8274318E-01
       -1   -1    0    0    0  501  0.00000000000E+00  0.00000000000E+00  0.17224422009E+04  0.17224422009E+04  0.50400001928E-02 0. -1.
        1   -1    0    0  501    0  0.00000000000E+00  0.00000000000E+00 -0.12165817645E+04  0.12165817645E+04  0.50400001928E-02 0.  1.
    10030    2    1    2    0    0  0.00000000000E+00  0.00000000000E+00  0.50586043644E+03  0.29390239655E+04  0.28951627050E+04 0.  0.
        3    1    3    3  502    0  0.24193366386E+03  0.99202249244E+03 -0.78870020985E+03  0.12902281017E+04  0.10100000352E+00 0.  1.
       -3    1    3    3    0  502 -0.24193366386E+03 -0.99202249244E+03  0.12945606463E+04  0.16487958638E+04  0.10100000352E+00 0. -1.
</event>
<event>
 5   0  0.2666978E-07  0.4007917E+04  0.7818609E-02  0.8002951E-01
       -2   -1    0    0    0  501  0.00000000000E+00  0.00000000000E+00  0.26024372004E+04  0.26024372004E+04  0.25500000920E-02 0.  1.
        2   -1    0    0  501    0  0.00000000000E+00  0.00000000000E+00 -0.15431109674E+04  0.15431109674E+04  0.25500000920E-02 0. -1.
    10030    2    1    2    0    0  0.00000000000E+00  0.00000000000E+00  0.10593262330E+04  0.41455481679E+04  0.40079168584E+04 0.  0.
        4    1    3    3  502    0 -0.61380133470E+03 -0.14021121355E+04  0.18675957226E+04  0.24146606211E+04  0.12699999809E+01 0.  1.
       -4    1    3    3    0  502  0.61380133470E+03  0.14021121355E+04 -0.80826948956E+03  0.17308875468E+04  0.12699999809E+01 0. -1.
</event>
<event>
 5   0  0.2666978E-07  0.3015167E+04  0.7818609E-02  0.8239413E-01
        2   -1    0    0  501    0  0.00000000000E+00  0.00000000000E+00  0.14351174341E+04  0.14351174341E+04  0.25500000920E-02 0.  1.
       -2   -1    0    0    0  501  0.00000000000E+00  0.00000000000E+00 -0.15837086607E+04  0.15837086607E+04  0.25500000920E-02 0. -1.
    10030    2    1    2    0    0  0.00000000000E+00  0.00000000000E+00 -0.14859122663E+03  0.30188260949E+04  0.30151669338E+04 0.  0.
        4    1    3    3  502    0  0.50267762868E+03  0.23233917906E+03  0.13295972087E+04  0.14403113006E+04  0.12699999809E+01 0.  1.
       -4    1    3    3    0  502 -0.50267762868E+03 -0.23233917906E+03 -0.14781884353E+04  0.15785147942E+04  0.12699999809E+01 0. -1.
</event>
<event>
 5   0  0.2666978E-07  0.3071663E+04  0.7818609E-02  0.8223558E-01
       -2   -1    0    0    0  501  0.00000000000E+00  0.00000000000E+00  0.15570599042E+04  0.15570599042E+04  0.25500000920E-02 0.  1.
        2   -1    0    0  501    0  0.00000000000E+00  0.00000000000E+00 -0.15148927207E+04  0.15148927207E+04  0.25500000920E-02 0. -1.
    10030    2    1    2    0    0  0.00000000000E+00  0.00000000000E+00  0.42167183510E+02  0.30719526250E+04  0.30716632072E+04 0.  0.
        4    1    3    3  502    0  0.86304148440E+03  0.11638651143E+04  0.53040016300E+03  0.15429674507E+04  0.12699999809E+01 0.  1.
       -4    1    3    3    0  502 -0.86304148440E+03 -0.11638651143E+04 -0.48823297949E+03  0.15289851743E+04  0.12699999809E+01 0. -1.
</event>
<event>
 5   0  0.2661693E-07  0.4037351E+04  0.7818609E-02  0.7997054E-01
       -2   -1    0    0    0  501  0.00000000000E+00  0.00000000000E+00  0.19941133691E+04  0.19941133691E+04  0.25500000920E-02 0.  1.
        2   -1    0    0  501    0  0.00000000000E+00  0.00000000000E+00 -0.20435405818E+04  0.20435405818E+04  0.25500000920E-02 0. -1.
    10030    2    1    2    0    0  0.00000000000E+00  0.00000000000E+00 -0.49427212656E+02  0.40376539509E+04  0.40373514063E+04 0.  0.
        1    1    3    3  502    0 -0.12625944722E+04 -0.10100506966E+04 -0.12334002123E+04  0.20336231939E+04  0.50400001928E-02 0. -1.
       -1    1    3    3    0  502  0.12625944722E+04  0.10100506966E+04  0.11839729997E+04  0.20040307570E+04  0.50400001928E-02 0.  1.
</event>
<event>
 5   0  0.8528625E-08  0.3976476E+04  0.7818609E-02  0.8009309E-01
       -1   -1    0    0    0  501  0.00000000000E+00  0.00000000000E+00  0.30079975133E+04  0.30079975133E+04  0.50400001928E-02 0.  1.
        1   -1    0    0  501    0  0.00000000000E+00  0.00000000000E+00 -0.13141933909E+04  0.13141933909E+04  0.50400001928E-02 0. -1.
    10030    2    1    2    0    0  0.00000000000E+00  0.00000000000E+00  0.16938041224E+04  0.43221909042E+04  0.39764760539E+04 0.  0.
        4    1    3    3  502    0 -0.17312263755E+04 -0.39789261187E+03 -0.12384280122E+03  0.17806745762E+04  0.12699999809E+01 0. -1.
       -4    1    3    3    0  502  0.17312263755E+04  0.39789261187E+03  0.18176469236E+04  0.25415163280E+04  0.12699999809E+01 0.  1.
</event>
<event>
 5   0  0.8528625E-08  0.3833531E+04  0.7818609E-02  0.8038997E-01
        1   -1    0    0  501    0  0.00000000000E+00  0.00000000000E+00  0.16141905408E+04  0.16141905409E+04  0.50400001928E-02 0. -1.
       -1   -1    0    0    0  501  0.00000000000E+00  0.00000000000E+00 -0.22760567226E+04  0.22760567226E+04  0.50400001928E-02 0.  1.
    10030    2    1    2    0    0  0.00000000000E+00  0.00000000000E+00 -0.66186618175E+03  0.38902472635E+04  0.38335306088E+04 0.  0.
        5    1    3    3  502    0  0.12656191350E+04 -0.94704093554E+03 -0.14310797188E+04  0.21322967852E+04  0.46999998093E+01 0. -1.
       -5    1    3    3    0  502 -0.12656191350E+04  0.94704093554E+03  0.76921353709E+03  0.17579504783E+04  0.46999998093E+01 0.  1.
</event>
<event>
 5   0  0.2666978E-07  0.3994790E+04  0.7818609E-02  0.8005598E-01
        2   -1    0    0  501    0  0.00000000000E+00  0.00000000000E+00  0.22405654701E+04  0.22405654701E+04  0.25500000920E-02 0. -1.
       -2   -1    0    0    0  501  0.00000000000E+00  0.00000000000E+00 -0.17806159903E+04  0.17806159903E+04  0.25500000920E-02 0.  1.
    10030    2    1    2    0    0  0.00000000000E+00  0.00000000000E+00  0.45994947982E+03  0.40211814604E+04  0.39947899586E+04 0.  0.
        4    1    3    3  502    0 -0.15530842840E+04  0.45112849347E+03 -0.94994556347E+03  0.18756294669E+04  0.12699999809E+01 0.  1.
       -4    1    3    3    0  502  0.15530842840E+04 -0.45112849347E+03  0.14098950433E+04  0.21455519935E+04  0.12699999809E+01 0. -1.
</event>
<event>
 5   0  0.2661693E-07  0.3990468E+04  0.7818609E-02  0.8006472E-01
        2   -1    0    0  501    0  0.00000000000E+00  0.00000000000E+00  0.13257125138E+04  0.13257125138E+04  0.25500000920E-02 0.  1.
       -2   -1    0    0    0  501  0.00000000000E+00  0.00000000000E+00 -0.30028825860E+04  0.30028825860E+04  0.25500000920E-02 0. -1.
    10030    2    1    2    0    0  0.00000000000E+00  0.00000000000E+00 -0.16771700722E+04  0.43285950998E+04  0.39904681539E+04 0.  0.
        1    1    3    3  502    0  0.57938994181E+03  0.11368162720E+04 -0.25024812782E+04  0.28089956370E+04  0.50400001928E-02 0. -1.
       -1    1    3    3    0  502 -0.57938994181E+03 -0.11368162720E+04  0.82531120597E+03  0.15195994629E+04  0.50400001928E-02 0.  1.
</event>
<event>
 5   0  0.2730801E-07  0.4246522E+04  0.7818609E-02  0.7956581E-01
       -2   -1    0    0    0  501  0.00000000000E+00  0.00000000000E+00  0.21874728728E+04  0.21874728728E+04  0.25500000920E-02 0. -1.
        2   -1    0    0  501    0  0.00000000000E+00  0.00000000000E+00 -0.20609343347E+04  0.20609343347E+04  0.25500000920E-02 0.  1.
    10030    2    1    2    0    0  0.00000000000E+00  0.00000000000E+00  0.12653853807E+03  0.42484072075E+04  0.42465223182E+04 0.  0.
        2    1    3    3  502    0  0.16916725563E+04  0.10811606219E+04 -0.62810448929E+03  0.21036110804E+04  0.25500000920E-02 0.  1.
       -2    1    3    3    0  502 -0.16916725563E+04 -0.10811606219E+04  0.75464302736E+03  0.21447961271E+04  0.25500000920E-02 0. -1.
</event>
<event>
 5   0  0.2704088E-07  0.3608814E+04  0.7818609E-02  0.8088476E-01
       -2   -1    0    0    0  501  0.00000000000E+00  0.00000000000E+00  0.15136308508E+04  0.15136308508E+04  0.25500000920E-02 0.  1.
        2   -1    0    0  501    0  0.00000000000E+00  0.00000000000E+00 -0.21510422352E+04  0.21510422352E+04  0.25500000920E-02 0. -1.
    10030    2    1    2    0    0  0.00000000000E+00  0.00000000000E+00 -0.63741138435E+03  0.36646730860E+04  0.36088135937E+04 0.  0.
        5    1    3    3  502    0 -0.67911641944E+03  0.20061449427E+03 -0.20040381900E+04  0.21254732281E+04  0.46999998093E+01 0. -1.
       -5    1    3    3    0  502  0.67911641944E+03 -0.20061449427E+03  0.13666268057E+04  0.15391998579E+04  0.46999998093E+01 0.  1.
</event>
<event>
 5   0  0.2730801E-07  0.3939752E+04  0.7818609E-02  0.8016812E-01
        2   -1    0    0  501    0  0.00000000000E+00  0.00000000000E+00  0.19967868200E+04  0.19967868200E+04  0.25500000920E-02 0.  1.
       -2   -1    0    0    0  501  0.00000000000E+00  0.00000000000E+00 -0.19433275586E+04  0.19433275586E+04  0.25500000920E-02 0. -1.
    10030    2    1    2    0    0  0.00000000000E+00  0.00000000000E+00  0.53459261351E+02  0.39401143786E+04  0.39397516957E+04 0.  0.
        2    1    3    3  502    0  0.18933662492E+04  0.54341075997E+03  0.43459837274E+02  0.19702841838E+04  0.25500000920E-02 0. -1.
       -2    1    3    3    0  502 -0.18933662492E+04 -0.54341075997E+03  0.99994240773E+01  0.19698301947E+04  0.25500000920E-02 0.  1.
</event>
<event>
 5   0  0.8528625E-08  0.3919155E+04  0.7818609E-02  0.8021057E-01
        1   -1    0    0  501    0  0.00000000000E+00  0.00000000000E+00  0.17566862230E+04  0.17566862230E+04  0.50400001928E-02 0.  1.
       -1   -1    0    0    0  501  0.00000000000E+00  0.00000000000E+00 -0.21859016776E+04  0.21859016776E+04  0.50400001928E-02 0. -1.
    10030    2    1    2    0    0  0.00000000000E+00  0.00000000000E+00 -0.42921545462E+03  0.39425879007E+04  0.39191546854E+04 0.  0.
        3    1    3    3  502    0  0.13941216782E+04 -0.83232375300E+03 -0.13182568433E+04  0.20914442853E+04  0.10100000352E+00 0. -1.
       -3    1    3    3    0  502 -0.13941216782E+04  0.83232375300E+03  0.88904138869E+03  0.18511436153E+04  0.10100000352E+00 0.  1.
</event>
<event>
 5   0  0.2661693E-07  0.4009703E+04  0.7818609E-02  0.8002592E-01
        2   -1    0    0  501    0  0.00000000000E+00  0.00000000000E+00  0.18186986531E+04  0.18186986531E+04  0.25500000920E-02 0. -1.
       -2   -1    0    0    0  501  0.00000000000E+00  0.00000000000E+00 -0.22100579642E+04  0.22100579642E+04  0.25500000920E-02 0.  1.
    10030    2    1    2    0    0  0.00000000000E+00  0.00000000000E+00 -0.39135931105E+03  0.40287566173E+04  0.40097029530E+04 0.  0.
        1    1    3    3  502    0 -0.17479288610E+04  0.62261466477E+03  0.56722093057E+03  0.19402690298E+04  0.50400001928E-02 0. -1.
       -1    1    3    3    0  502  0.17479288610E+04 -0.62261466477E+03 -0.95858024162E+03  0.20884875876E+04  0.50400001928E-02 0.  1.
</event>
<event>
 5   0  0.8528625E-08  0.4019495E+04  0.7818609E-02  0.8000625E-01
        1   -1    0    0  501    0  0.00000000000E+00  0.00000000000E+00  0.27693575446E+04  0.27693575447E+04  0.50400001928E-02 0. -1.
       -1   -1    0    0    0  501  0.00000000000E+00  0.00000000000E+00 -0.14584917910E+04  0.14584917910E+04  0.50400001928E-02 0.  1.
    10030    2    1    2    0    0  0.00000000000E+00  0.00000000000E+00  0.13108657537E+04  0.42278493357E+04  0.40194951152E+04 0.  0.
        4    1    3    3  502    0  0.61927757671E+03  0.29832293035E+03 -0.13310010535E+04  0.14980209295E+04  0.12699999809E+01 0.  1.
       -4    1    3    3    0  502 -0.61927757671E+03 -0.29832293035E+03  0.26418668071E+04  0.27298284062E+04  0.12699999809E+01 0. -1.
</event>
<event>
 5   0  0.8528625E-08  0.4278810E+04  0.7818609E-02  0.7950548E-01
       -1   -1    0    0    0  501  0.00000000000E+00  0.00000000000E+00  0.25497969833E+04  0.25497969833E+04  0.50400001928E-02 0.  1.
        1   -1    0    0  501    0  0.00000000000E+00  0.00000000000E+00 -0.17950657851E+04  0.17950657851E+04  0.50400001928E-02 0. -1.
    10030    2    1    2    0    0  0.00000000000E+00  0.00000000000E+00  0.75473119823E+03  0.43448627685E+04  0.42788097989E+04 0.  0.
        4    1    3    3  502    0 -0.16960468261E+03  0.15538818093E+04 -0.11059158162E+04  0.19147756608E+04  0.12699999809E+01 0. -1.
       -4    1    3    3    0  502  0.16960468261E+03 -0.15538818093E+04  0.18606470144E+04  0.24300871077E+04  0.12699999809E+01 0.  1.
</event>
<event>
 5   0  0.2839279E-07  0.4042700E+04  0.7818609E-02  0.7995988E-01
       -2   -1    0    0    0  501  0.00000000000E+00  0.00000000000E+00  0.16015919622E+04  0.16015919622E+04  0.25500000920E-02 0. -1.
        2   -1    0    0  501    0  0.00000000000E+00  0.00000000000E+00 -0.25511212281E+04  0.25511212281E+04  0.25500000920E-02 0.  1.
    10030    2    1    2    0    0  0.00000000000E+00  0.00000000000E+00 -0.94952926594E+03  0.41527131903E+04  0.40426997185E+04 0.  0.
        3    1    3    3  502    0 -0.38003093079E+03  0.61501272211E+03 -0.24137744583E+04  0.25197165123E+04  0.10100000352E+00 0.  1.
       -3    1    3    3    0  502  0.38003093079E+03 -0.61501272211E+03  0.14642451924E+04  0.16329966780E+04  0.10100000352E+00 0. -1.
</event>
<event>
 5   0  0.2704088E-07  0.4032189E+04  0.7818609E-02  0.7998084E-01
       -2   -1    0    0    0  501  0.00000000000E+00  0.00000000000E+00  0.17607760933E+04  0.17607760933E+04  0.25500000920E-02 0. -1.
        2   -1    0    0  501    0  0.00000000000E+00  0.00000000000E+00 -0.23084346120E+04  0.23084346120E+04  0.25500000920E-02 0.  1.
    10030    2    1    2    0    0  0.00000000000E+00  0.00000000000E+00 -0.54765851865E+03  0.40692107053E+04  0.40321887247E+04 0.  0.
        5    1    3    3  502    0 -0.32754116274E+03  0.17665585953E+04  0.64922823322E+03  0.19103747990E+04  0.46999998093E+01 0. -1.
       -5    1    3    3    0  502  0.32754116274E+03 -0.17665585953E+04 -0.11968867519E+04  0.21588359064E+04  0.46999998093E+01 0.  1.
</event>
<event>
 5   0  0.2704088E-07  0.4070539E+04  0.7818609E-02  0.7990466E-01
       -2   -1    0    0    0  501  0.00000000000E+00  0.00000000000E+00  0.13042152391E+04  0.13042152391E+04  0.25500000920E-02 0. -1.
        2   -1    0    0  501    0  0.00000000000E+00  0.00000000000E+00 -0.31761033244E+04  0.31761033245E+04  0.25500000920E-02 0.  1.
    10030    2    1    2    0    0  0.00000000000E+00  0.00000000000E+00 -0.18718880854E+04  0.44803185635E+04  0.40705392059E+04 0.  0.
        5    1    3    3  502    0 -0.10365550956E+04  0.10583672266E+04 -0.24720436958E+04  0.28819454847E+04  0.46999998093E+01 0.  1.
       -5    1    3    3    0  502  0.10365550956E+04 -0.10583672266E+04  0.60015561045E+03  0.15983730789E+04  0.46999998093E+01 0. -1.
</event>
<event>
 5   0  0.2661693E-07  0.3974117E+04  0.7818609E-02  0.8009788E-01
        2   -1    0    0  501    0  0.00000000000E+00  0.00000000000E+00  0.23032606852E+04  0.23032606852E+04  0.25500000920E-02 0. -1.
       -2   -1    0    0    0  501  0.00000000000E+00  0.00000000000E+00 -0.17142656229E+04  0.17142656229E+04  0.25500000920E-02 0.  1.
    10030    2    1    2    0    0  0.00000000000E+00  0.00000000000E+00  0.58899506229E+03  0.40175263082E+04  0.39741165626E+04 0.  0.
        1    1    3    3  502    0  0.17536896997E+04  0.18360881495E+03 -0.63162107945E+03  0.18729882402E+04  0.50400001928E-02 0.  1.
       -1    1    3    3    0  502 -0.17536896997E+04 -0.18360881495E+03  0.12206161417E+04  0.21445380680E+04  0.50400001928E-02 0. -1.
</event>
<event>
 5   0  0.8583262E-08  0.4161793E+04  0.7818609E-02  0.7972680E-01
        1   -1    0    0  501    0  0.00000000000E+00  0.00000000000E+00  0.24747318910E+04  0.24747318910E+04  0.50400001928E-02 0. -1.
       -1   -1    0    0    0  501  0.00000000000E+00  0.00000000000E+00 -0.17497368246E+04  0.17497368246E+04  0.50400001928E-02 0.  1.
    10030    2    1    2    0    0  0.00000000000E+00  0.00000000000E+00  0.72499506640E+03  0.42244687157E+04  0.41617926526E+04 0.  0.
        1    1    3    3  502    0 -0.17298193761E+03  0.60811362522E+03 -0.16498838374E+04  0.17668733992E+04  0.50400001928E-02 0.  1.
       -1    1    3    3    0  502  0.17298193761E+03 -0.60811362522E+03  0.23748789038E+04  0.24575953165E+04  0.50400001928E-02 0. -1.
</event>
<event>
 5   0  0.2704088E-07  0.4001694E+04  0.7818609E-02  0.8004205E-01
       -2   -1    0    0    0  501  0.00000000000E+00  0.00000000000E+00  0.14394810094E+04  0.14394810094E+04  0.25500000920E-02 0.  1.
        2   -1    0    0  501    0  0.00000000000E+00  0.00000000000E+00 -0.27811339232E+04  0.27811339232E+04  0.25500000920E-02 0. -1.
    10030    2    1    2    0    0  0.00000000000E+00  0.00000000000E+00 -0.13416529138E+04  0.42206149327E+04  0.40016943747E+04 0.  0.
        5    1    3    3  502    0 -0.55842706535E+03  0.17547851392E+04 -0.14961005932E+04  0.23726463594E+04  0.46999998093E+01 0. -1.
       -5    1    3    3    0  502  0.55842706535E+03 -0.17547851392E+04  0.15444767941E+03  0.18479685732E+04  0.46999998093E+01 0.  1.
</event>
<event>
 5   0  0.2730801E-07  0.3749645E+04  0.7818609E-02  0.8057048E-01
        2   -1    0    0  501    0  0.00000000000E+00  0.00000000000E+00  0.16510482466E+04  0.16510482466E+04  0.25500000920E-02 0.  1.
       -2   -1    0    0    0  501  0.00000000000E+00  0.00000000000E+00 -0.21289254142E+04  0.21289254142E+04  0.25500000920E-02 0. -1.
    10030    2    1    2    0    0  0.00000000000E+00  0.00000000000E+00 -0.47787716765E+03  0.37799736608E+04  0.37496445550E+04 0.  0.
        2    1    3    3  502    0 -0.17528372504E+04  0.31277757176E+03  0.35291356196E+03  0.18151628627E+04  0.25500000920E-02 0.  1.
       -2    1    3    3    0  502  0.17528372504E+04 -0.31277757176E+03 -0.83079072961E+03  0.19648107981E+04  0.25500000920E-02 0. -1.
</event>
<event>
 5   0  0.2839279E-07  0.4033119E+04  0.7818609E-02  0.7997899E-01
       -2   -1    0    0    0  501  0.00000000000E+00  0.00000000000E+00  0.23392916604E+04  0.23392916604E+04  0.25500000920E-02 0.  1.
        2   -1    0    0  501    0  0.00000000000E+00  0.00000000000E+00 -0.17383516839E+04  0.17383516839E+04  0.25500000920E-02 0. -1.
    10030    2    1    2    0    0  0.00000000000E+00  0.00000000000E+00  0.60093997650E+03  0.40776433443E+04  0.40331186925E+04 0.  0.
        3    1    3    3  502    0 -0.15730425679E+04 -0.74162286581E+03  0.13325450929E+04  0.21909230544E+04  0.10100000352E+00 0. -1.
       -3    1    3    3    0  502  0.15730425679E+04  0.74162286581E+03 -0.73160511643E+03  0.18867202899E+04  0.10100000352E+00 0.  1.
</event>
<event>
 5   0  0.8583262E-08  0.4035110E+04  0.7818609E-02  0.7997501E-01
        1   -1    0    0  501    0  0.00000000000E+00  0.00000000000E+00  0.15916884089E+04  0.15916884090E+04  0.50400001928E-02 0. -1.
       -1   -1    0    0    0  501  0.00000000000E+00  0.00000000000E+00 -0.25573649029E+04  0.25573649029E+04  0.50400001928E-02 0.  1.
    10030    2    1    2    0    0  0.00000000000E+00  0.00000000000E+00 -0.96567649396E+03  0.41490533119E+04  0.40351099481E+04 0.  0.
        1    1    3    3  502    0 -0.10366361355E+04  0.28722566078E+03  0.12722332755E+04  0.16660403852E+04  0.50400001928E-02 0. -1.
       -1    1    3    3    0  502  0.10366361355E+04 -0.28722566078E+03 -0.22379097695E+04  0.24830129267E+04  0.50400001928E-02 0.  1.
</event>
<event>
 5   0  0.2839279E-07  0.4116912E+04  0.7818609E-02  0.7981368E-01
        2   -1    0    0  501    0  0.00000000000E+00  0.00000000000E+00  0.18916687404E+04  0.18916687404E+04  0.25500000920E-02 0.  1.
       -2   -1    0    0    0  501  0.00000000000E+00  0.00000000000E+00 -0.22399487340E+04  0.22399487340E+04  0.25500000920E-02 0. -1.
    10030    2    1    2    0    0  0.00000000000E+00  0.00000000000E+00 -0.34827999362E+03  0.41316174744E+04  0.41169119496E+04 0.  0.
        3    1    3    3  502    0 -0.67502240167E+03  0.11247323795E+03 -0.21224491936E+04  0.22300439596E+04  0.10100000352E+00 0. -1.
       -3    1    3    3    0  502  0.67502240167E+03 -0.11247323795E+03  0.17741692000E+04  0.19015735149E+04  0.10100000352E+00 0.  1.
</event>
<event>
 5   0  0.2704088E-07  0.4025326E+04  0.7818609E-02  0.7999457E-01
        2   -1    0    0  501    0  0.00000000000E+00  0.00000000000E+00  0.25295791770E+04  0.25295791770E+04  0.25500000920E-02 0. -1.
       -2   -1    0    0    0  501  0.00000000000E+00  0.00000000000E+00 -0.16013780916E+04  0.16013780916E+04  0.25500000920E-02 0.  1.
    10030    2    1    2    0    0  0.00000000000E+00  0.00000000000E+00  0.92820108541E+03  0.41309572687E+04  0.40253261608E+04 0.  0.
        5    1    3    3  502    0  0.28395713913E+03  0.90378339050E+03 -0.13582614483E+04  0.16560049293E+04  0.46999998093E+01 0.  1.
       -5    1    3    3    0  502 -0.28395713913E+03 -0.90378339050E+03  0.22864625338E+04  0.24749523394E+04  0.46999998093E+01 0. -1.
</event>
<event>
 5   0  0.8583262E-08  0.3974302E+04  0.7818609E-02  0.8009751E-01
       -1   -1    0    0    0  501  0.00000000000E+00  0.00000000000E+00  0.13824405613E+04  0.13824405613E+04  0.50400001928E-02 0. -1.
        1   -1    0    0  501    0  0.00000000000E+00  0.00000000000E+00 -0.28563750998E+04  0.28563750998E+04  0.50400001928E-02 0.  1.
    10030    2    1    2    0    0  0.00000000000E+00  0.00000000000E+00 -0.14739345384E+04  0.42388156611E+04  0.39743018488E+04 0.  0.
        1    1    3    3  502    0 -0.18710763580E+04 -0.15197283712E+03 -0.14320691948E+04  0.23611108952E+04  0.50400001928E-02 0.  1.
       -1    1    3    3    0  502  0.18710763580E+04  0.15197283712E+03 -0.41865343666E+02  0.18777047659E+04  0.50400001928E-02 0. -1.
</event>
<event>
 5   0  0.8528625E-08  0.3525026E+04  0.7818609E-02  0.8107885E-01
        1   -1    0    0  501    0  0.00000000000E+00  0.00000000000E+00  0.20118725496E+04  0.20118725496E+04  0.50400001928E-02 0. -1.
       -1   -1    0    0    0  501  0.00000000000E+00  0.00000000000E+00 -0.15440601856E+04  0.15440601856E+04  0.50400001928E-02 0.  1.
    10030    2    1    2    0    0  0.00000000000E+00  0.00000000000E+00  0.46781236396E+03  0.35559327352E+04  0.35250261289E+04 0.  0.
        2    1    3    3  502    0  0.75214627823E+03  0.76201735742E+03 -0.11783895241E+04  0.15921671858E+04  0.25500000920E-02 0.  1.
       -2    1    3    3    0  502 -0.75214627823E+03 -0.76201735742E+03  0.16462018881E+04  0.19637655494E+04  0.25500000920E-02 0. -1.
</event>
<event>
 5   0  0.2666978E-07  0.4092761E+04  0.7818609E-02  0.7986091E-01
       -2   -1    0    0    0  501  0.00000000000E+00  0.00000000000E+00  0.15123305454E+04  0.15123305454E+04  0.25500000920E-02 0. -1.
        2   -1    0    0  501    0  0.00000000000E+00  0.00000000000E+00 -0.27690203624E+04  0.27690203624E+04  0.25500000920E-02 0.  1.
    10030    2    1    2    0    0  0.00000000000E+00  0.00000000000E+00 -0.12566898170E+04  0.42813509078E+04  0.40927614516E+04 0.  0.
        4    1    3    3  502    0  0.10712498521E+04  0.28337933284E+03  0.11713339536E+04  0.16124220712E+04  0.12699999809E+01 0. -1.
       -4    1    3    3    0  502 -0.10712498521E+04 -0.28337933284E+03 -0.24280237706E+04  0.26689288367E+04  0.12699999809E+01 0.  1.
</event>
<event>
 5   0  0.2666978E-07  0.3796381E+04  0.7818609E-02  0.8046932E-01
        2   -1    0    0  501    0  0.00000000000E+00  0.00000000000E+00  0.18756053338E+04  0.18756053338E+04  0.25500000920E-02 0. -1.
       -2   -1    0    0    0  501  0.00000000000E+00  0.00000000000E+00 -0.19210474015E+04  0.19210474016E+04  0.25500000920E-02 0.  1.
    10030    2    1    2    0    0  0.00000000000E+00  0.00000000000E+00 -0.45442067743E+02  0.37966527354E+04  0.37963807780E+04 0.  0.
        4    1    3    3  502    0  0.15126700703E+04  0.55971144220E+03 -0.10236311283E+04  0.19103062424E+04  0.12699999809E+01 0.  1.
       -4    1    3    3    0  502 -0.15126700703E+04 -0.55971144220E+03  0.97818906054E+03  0.18863464929E+04  0.12699999809E+01 0. -1.
</event>
<event>
 5   0  0.2730801E-07  0.3999497E+04  0.7818609E-02  0.8004648E-01
        2   -1    0    0  501    0  0.00000000000E+00  0.00000000000E+00  0.18924984921E+04  0.18924984921E+04  0.25500000920E-02 0.  1.
       -2   -1    0    0    0  501  0.00000000000E+00  0.00000000000E+00 -0.21130769445E+04  0.21130769445E+04  0.25500000920E-02 0. -1.
    10030    2    1    2    0    0  0.00000000000E+00  0.00000000000E+00 -0.22057845239E+03  0.40055754367E+04  0.39994974341E+04 0.  0.
        2    1    3    3  502    0 -0.16271208620E+04  0.85166089188E+03  0.68220739957E+03  0.19591466281E+04  0.25500000920E-02 0. -1.
       -2    1    3    3    0  502  0.16271208620E+04 -0.85166089188E+03 -0.90278585196E+03  0.20464288086E+04  0.25500000920E-02 0.  1.
</event>
<event>
 5   0  0.2661693E-07  0.4013350E+04  0.7818609E-02  0.8001859E-01
        2   -1    0    0  501    0  0.00000000000E+00  0.00000000000E+00  0.21695693155E+04  0.21695693155E+04  0.25500000920E-02 0.  1.
       -2   -1    0    0    0  501  0.00000000000E+00  0.00000000000E+00 -0.18560107022E+04  0.18560107022E+04  0.25500000920E-02 0. -1.
    10030    2    1    2    0    0  0.00000000000E+00  0.00000000000E+00  0.31355861331E+03  0.40255800177E+04  0.40133496577E+04 0.  0.
        1    1    3    3  502    0  0.53464161611E+03  0.11377146990E+04 -0.14121187984E+04  0.18905861247E+04  0.50400001928E-02 0. -1.
       -1    1    3    3    0  502 -0.53464161611E+03 -0.11377146990E+04  0.17256774117E+04  0.21349938930E+04  0.50400001928E-02 0.  1.
</event>
<event>
 5   0  0.2666978E-07  0.4151249E+04  0.7818609E-02  0.7974711E-01
        2   -1    0    0  501    0  0.00000000000E+00  0.00000000000E+00  0.21038490916E+04  0.21038490916E+04  0.25500000920E-02 0. -1.
       -2   -1    0    0    0  501  0.00000000000E+00  0.00000000000E+00 -0.20477783940E+04  0.20477783940E+04  0.25500000920E-02 0.  1.
    10030    2    1    2    0    0  0.00000000000E+00  0.00000000000E+00  0.56070697666E+02  0.41516274856E+04  0.41512488309E+04 0.  0.
        4    1    3    3  502    0  0.14847586570E+04 -0.10505760784E+04 -0.97205423317E+03  0.20623068179E+04  0.12699999809E+01 0.  1.
       -4    1    3    3    0  502 -0.14847586570E+04  0.10505760784E+04  0.10281249308E+04  0.20893206677E+04  0.12699999809E+01 0. -1.
</event>
<event>
 5   0  0.2839279E-07  0.4117171E+04  0.7818609E-02  0.7981318E-01
       -2   -1    0    0    0  501  0.00000000000E+00  0.00000000000E+00  0.18099222385E+04  0.18099222385E+04  0.25500000920E-02 0.  1.
        2   -1    0    0  501    0  0.00000000000E+00  0.00000000000E+00 -0.23414121403E+04  0.23414121403E+04  0.25500000920E-02 0. -1.
    10030    2    1    2    0    0  0.00000000000E+00  0.00000000000E+00 -0.53148990176E+03  0.41513343788E+04  0.41171708258E+04 0.  0.
        3    1    3    3  502    0  0.18327784033E+03 -0.93244864928E+03  0.15755301844E+04  0.18399311461E+04  0.10100000352E+00 0.  1.
       -3    1    3    3    0  502 -0.18327784033E+03  0.93244864928E+03 -0.21070200862E+04  0.23114032327E+04  0.10100000352E+00 0. -1.
</event>
<event>
 5   0  0.8528625E-08  0.4085714E+04  0.7818609E-02  0.7987475E-01
       -1   -1    0    0    0  501  0.00000000000E+00  0.00000000000E+00  0.17154696752E+04  0.17154696752E+04  0.50400001928E-02 0. -1.
        1   -1    0    0  501    0  0.00000000000E+00  0.00000000000E+00 -0.24327245703E+04  0.24327245703E+04  0.50400001928E-02 0.  1.
    10030    2    1    2    0    0  0.00000000000E+00  0.00000000000E+00 -0.71725489513E+03  0.41481942455E+04  0.40857142476E+04 0.  0.
        3    1    3    3  502    0 -0.13005084079E+04  0.94006976294E+03 -0.16421641185E+04  0.22960305486E+04  0.10100000352E+00 0.  1.
       -3    1    3    3    0  502  0.13005084079E+04 -0.94006976294E+03  0.92490922334E+03  0.18521636968E+04  0.10100000352E+00 0. -1.
</event>
<event>
 5   0  0.8528625E-08  0.4007600E+04  0.7818609E-02  0.8003015E-01
        1   -1    0    0  501    0  0.00000000000E+00  0.00000000000E+00  0.18259325992E+04  0.18259325992E+04  0.50400001928E-02 0.  1.
       -1   -1    0    0    0  501  0.00000000000E+00  0.00000000000E+00 -0.21989940383E+04  0.21989940383E+04  0.50400001928E-02 0. -1.
    10030    2    1    2    0    0  0.00000000000E+00  0.00000000000E+00 -0.37306143907E+03  0.40249266376E+04  0.40076002296E+04 0.  0.
        3    1    3    3  502    0  0.18428718612E+03  0.19952734681E+04 -0.19828217726E+03  0.20135525351E+04  0.10100000352E+00 0.  1.
       -3    1    3    3    0  502 -0.18428718612E+03 -0.19952734681E+04 -0.17477926182E+03  0.20113741025E+04  0.10100000352E+00 0. -1.
</event>
<event>
 5   0  0.8528625E-08  0.4015127E+04  0.7818609E-02  0.8001502E-01
       -1   -1    0    0    0  501  0.00000000000E+00  0.00000000000E+00  0.22039029616E+04  0.22039029616E+04  0.50400001928E-02 0.  1.
        1   -1    0    0  501    0  0.00000000000E+00  0.00000000000E+00 -0.18287156234E+04  0.18287156234E+04  0.50400001928E-02 0. -1.
    10030    2    1    2    0    0  0.00000000000E+00  0.00000000000E+00  0.37518733823E+03  0.40326185850E+04  0.40151272848E+04 0.  0.
        4    1    3    3  502    0 -0.84296920969E+03 -0.49162338688E+03  0.19496651199E+04  0.21802491453E+04  0.12699999809E+01 0.  1.
       -4    1    3    3    0  502  0.84296920969E+03  0.49162338688E+03 -0.15744777817E+04  0.18523694396E+04  0.12699999809E+01 0. -1.
</event>
<event>
 5   0  0.8583262E-08  0.3954370E+04  0.7818609E-02  0.8013815E-01
        1   -1    0    0  501    0  0.00000000000E+00  0.00000000000E+00  0.19704732524E+04  0.19704732524E+04  0.50400001928E-02 0. -1.
       -1   -1    0    0    0  501  0.00000000000E+00  0.00000000000E+00 -0.19839195581E+04  0.19839195581E+04  0.50400001928E-02 0.  1.
    10030    2    1    2    0    0  0.00000000000E+00  0.00000000000E+00 -0.13446305622E+02  0.39543928105E+04  0.39543699494E+04 0.  0.
        1    1    3    3  502    0  0.12064227420E+04 -0.15307613087E+04 -0.33925237840E+03  0.19783271198E+04  0.50400001928E-02 0.  1.
       -1    1    3    3    0  502 -0.12064227420E+04  0.15307613087E+04  0.32580607278E+03  0.19760656907E+04  0.50400001928E-02 0. -1.
</event>
<event>
 5   0  0.2661693E-07  0.3935993E+04  0.7818609E-02  0.8017585E-01
        2   -1    0    0  501    0  0.00000000000E+00  0.00000000000E+00  0.13024628058E+04  0.13024628058E+04  0.25500000920E-02 0.  1.
       -2   -1    0    0    0  501  0.00000000000E+00  0.00000000000E+00 -0.29736044893E+04  0.29736044893E+04  0.25500000920E-02 0. -1.
    10030    2    1    2    0    0  0.00000000000E+00  0.00000000000E+00 -0.16711416836E+04  0.42760672951E+04  0.39359925033E+04 0.  0.
        1    1    3    3  502    0  0.11484893930E+04  0.14289254837E+04 -0.16130527037E+04  0.24418834839E+04  0.50400001928E-02 0. -1.
       -1    1    3    3    0  502 -0.11484893930E+04 -0.14289254837E+04 -0.58088979863E+02  0.18341838112E+04  0.50400001928E-02 0.  1.
</event>
<event>
 5   0  0.2666978E-07  0.3979485E+04  0.7818609E-02  0.8008698E-01
        2   -1    0    0  501    0  0.00000000000E+00  0.00000000000E+00  0.20211172180E+04  0.20211172180E+04  0.25500000920E-02 0.  1.
       -2   -1    0    0    0  501  0.00000000000E+00  0.00000000000E+00 -0.19588550261E+04  0.19588550261E+04  0.25500000920E-02 0. -1.
    10030    2    1    2    0    0  0.00000000000E+00  0.00000000000E+00  0.62262191874E+02  0.39799722442E+04  0.39794852034E+04 0.  0.
        4    1    3    3  502    0 -0.17276072567E+04  0.62501972719E+03 -0.73302885029E+03  0.19780316987E+04  0.12699999809E+01 0.  1.
       -4    1    3    3    0  502  0.17276072567E+04 -0.62501972719E+03  0.79529104216E+03  0.20019405454E+04  0.12699999809E+01 0. -1.
</event>
<event>
 5   0  0.2730801E-07  0.3131773E+04  0.7818609E-02  0.8207072E-01
       -2   -1    0    0    0  501  0.00000000000E+00  0.00000000000E+00  0.88720112649E+03  0.88720112650E+03  0.25500000920E-02 0. -1.
        2   -1    0    0  501    0  0.00000000000E+00  0.00000000000E+00 -0.27637473391E+04  0.27637473391E+04  0.25500000920E-02 0.  1.
    10030    2    1    2    0    0  0.00000000000E+00  0.00000000000E+00 -0.18765462126E+04  0.36509484656E+04  0.31317725030E+04 0.  0.
        2    1    3    3  502    0  0.98453610307E+03  0.53773179257E+03 -0.22118720779E+04  0.24800896975E+04  0.25500000920E-02 0.  1.
       -2    1    3    3    0  502 -0.98453610307E+03 -0.53773179257E+03  0.33532586521E+03  0.11708587681E+04  0.25500000920E-02 0. -1.
</event>
<event>
 5   0  0.8528625E-08  0.4097567E+04  0.7818609E-02  0.7985148E-01
       -3   -1    0    0    0  501  0.00000000000E+00  0.00000000000E+00  0.19234146190E+04  0.19234146216E+04  0.10100000352E+00 0. -1.
        3   -1    0    0  501    0  0.00000000000E+00  0.00000000000E+00 -0.21823234855E+04  0.21823234878E+04  0.10100000352E+00 0.  1.
    10030    2    1    2    0    0  0.00000000000E+00  0.00000000000E+00 -0.25890886650E+03  0.41057381094E+04  0.40975665488E+04 0.  0.
        1    1    3    3  502    0  0.10515771630E+04 -0.17582682879E+04 -0.11560646683E+03  0.20519957985E+04  0.50400001928E-02 0.  1.
       -1    1    3    3    0  502 -0.10515771630E+04  0.17582682879E+04 -0.14330239967E+03  0.20537423109E+04  0.50400001928E-02 0. -1.
</event>
<event>
 5   0  0.8528625E-08  0.4003723E+04  0.7818609E-02  0.8003796E-01
       -1   -1    0    0    0  501  0.00000000000E+00  0.00000000000E+00  0.22990380063E+04  0.22990380063E+04  0.50400001928E-02 0.  1.
        1   -1    0    0  501    0  0.00000000000E+00  0.00000000000E+00 -0.17430984808E+04  0.17430984808E+04  0.50400001928E-02 0. -1.
    10030    2    1    2    0    0  0.00000000000E+00  0.00000000000E+00  0.55593952548E+03  0.40421364872E+04  0.40037230954E+04 0.  0.
        3    1    3    3  502    0 -0.82090944226E+03  0.15338963578E+04  0.12777839636E+04  0.21585787493E+04  0.10100000352E+00 0. -1.
       -3    1    3    3    0  502  0.82090944226E+03 -0.15338963578E+04 -0.72184443813E+03  0.18835577379E+04  0.10100000352E+00 0.  1.
</event>
<event>
 5   0  0.2661693E-07  0.3684341E+04  0.7818609E-02  0.8071441E-01
       -2   -1    0    0    0  501  0.00000000000E+00  0.00000000000E+00  0.12344909335E+04  0.12344909335E+04  0.25500000920E-02 0.  1.
        2   -1    0    0  501    0  0.00000000000E+00  0.00000000000E+00 -0.27489813443E+04  0.27489813443E+04  0.25500000920E-02 0. -1.
    10030    2    1    2    0    0  0.00000000000E+00  0.00000000000E+00 -0.15144904108E+04  0.39834722778E+04  0.36843412143E+04 0.  0.
        1    1    3    3  502    0 -0.12790935880E+04 -0.25828674714E+03 -0.21631246678E+04  0.25262424229E+04  0.50400001928E-02 0. -1.
       -1    1    3    3    0  502  0.12790935880E+04  0.25828674714E+03  0.64863425703E+03  0.14572298549E+04  0.50400001928E-02 0.  1.
</event>
<event>
 5   0  0.8528625E-08  0.3957668E+04  0.7818609E-02  0.8013141E-01
        1   -1    0    0  501    0  0.00000000000E+00  0.00000000000E+00  0.23330733362E+04  0.23330733362E+04  0.50400001928E-02 0.  1.
       -1   -1    0    0    0  501  0.00000000000E+00  0.00000000000E+00 -0.16783804267E+04  0.16783804267E+04  0.50400001928E-02 0. -1.
    10030    2    1    2    0    0  0.00000000000E+00  0.00000000000E+00  0.65469290948E+03  0.40114537629E+04  0.39576683143E+04 0.  0.
        4    1    3    3  502    0  0.13471512380E+04  0.10171826901E+04  0.13740008661E+04  0.21765470534E+04  0.12699999809E+01 0.  1.
       -4    1    3    3    0  502 -0.13471512380E+04 -0.10171826901E+04 -0.71930795658E+03  0.18349067094E+04  0.12699999809E+01 0. -1.
</event>
<event>
 5   0  0.8528625E-08  0.4007254E+04  0.7818609E-02  0.8003085E-01
        1   -1    0    0  501    0  0.00000000000E+00  0.00000000000E+00  0.12296573893E+04  0.12296573893E+04  0.50400001928E-02 0.  1.
       -1   -1    0    0    0  501  0.00000000000E+00  0.00000000000E+00 -0.32647482169E+04  0.32647482169E+04  0.50400001928E-02 0. -1.
    10030    2    1    2    0    0  0.00000000000E+00  0.00000000000E+00 -0.20350908276E+04  0.44944056062E+04  0.40072543064E+04 0.  0.
        3    1    3    3  502    0 -0.19641120184E+04 -0.34455620500E+03 -0.79871971931E+03  0.21481173616E+04  0.10100000352E+00 0.  1.
       -3    1    3    3    0  502  0.19641120184E+04  0.34455620500E+03 -0.12363711083E+04  0.23462882446E+04  0.10100000352E+00 0. -1.
</event>
<event>
 5   0  0.8583262E-08  0.3989465E+04  0.7818609E-02  0.8006675E-01
       -1   -1    0    0    0  501  0.00000000000E+00  0.00000000000E+00  0.15294528036E+04  0.15294528036E+04  0.50400001928E-02 0.  1.
        1   -1    0    0  501    0  0.00000000000E+00  0.00000000000E+00 -0.26015563609E+04  0.26015563609E+04  0.50400001928E-02 0. -1.
    10030    2    1    2    0    0  0.00000000000E+00  0.00000000000E+00 -0.10721035573E+04  0.41310091645E+04  0.39894649616E+04 0.  0.
        1    1    3    3  502    0 -0.11400470539E+03 -0.93837324608E+03 -0.23549080608E+04  0.25375447576E+04  0.50400001928E-02 0. -1.
       -1    1    3    3    0  502  0.11400470539E+03  0.93837324608E+03  0.12828045036E+04  0.15934644069E+04  0.50400001928E-02 0.  1.
</event>
<event>
 5   0  0.8528625E-08  0.3912571E+04  0.7818609E-02  0.8022420E-01
       -3   -1    0    0    0  501  0.00000000000E+00  0.00000000000E+00  0.18864869633E+04  0.18864869660E+04  0.10100000352E+00 0.  1.
        3   -1    0    0  501    0  0.00000000000E+00  0.00000000000E+00 -0.20286665899E+04  0.20286665924E+04  0.10100000352E+00 0. -1.
    10030    2    1    2    0    0  0.00000000000E+00  0.00000000000E+00 -0.14217962653E+03  0.39151535584E+04  0.39125710651E+04 0.  0.
        1    1    3    3  502    0 -0.87715076675E+03 -0.17483379901E+04 -0.39862010272E+02  0.19564427350E+04  0.50400001928E-02 0.  1.
       -1    1    3    3    0  502  0.87715076675E+03  0.17483379901E+04 -0.10231761626E+03  0.19587108235E+04  0.50400001928E-02 0. -1.
</event>
<event>
 5   0  0.8528625E-08  0.3953640E+04  0.7818609E-02  0.8013965E-01
       -1   -1    0    0    0  501  0.00000000000E+00  0.00000000000E+00  0.13376321998E+04  0.13376321998E+04  0.50400001928E-02 0. -1.
        1   -1    0    0  501    0  0.00000000000E+00  0.00000000000E+00 -0.29214434923E+04  0.29214434923E+04  0.50400001928E-02 0.  1.
    10030    2    1    2    0    0  0.00000000000E+00  0.00000000000E+00 -0.15838112925E+04  0.42590756922E+04  0.39536397840E+04 0.  0.
        3    1    3    3  502    0 -0.14943638524E+04 -0.64197497594E+03  0.41853796489E+03  0.16794133593E+04  0.10100000352E+00 0. -1.
       -3    1    3    3    0  502  0.14943638524E+04  0.64197497594E+03 -0.20023492574E+04  0.25796623329E+04  0.10100000352E+00 0.  1.
</event>
<event>
 5   0  0.2666978E-07  0.2890943E+04  0.7818609E-02  0.8275577E-01
        2   -1    0    0  501    0  0.00000000000E+00  0.00000000000E+00  0.13099897749E+04  0.13099897749E+04  0.25500000920E-02 0.  1.
       -2   -1    0    0    0  501  0.00000000000E+00  0.00000000000E+00 -0.15949654558E+04  0.15949654558E+04  0.25500000920E-02 0. -1.
    10030    2    1    2    0    0  0.00000000000E+00  0.00000000000E+00 -0.28497568083E+03  0.29049552307E+04  0.28909434021E+04 0.  0.
        4    1    3    3  502    0 -0.65917643764E+03 -0.12244538626E+04  0.25386784803E+03  0.14135951806E+04  0.12699999809E+01 0. -1.
       -4    1    3    3    0  502  0.65917643764E+03  0.12244538626E+04 -0.53884352886E+03  0.14913600501E+04  0.12699999809E+01 0.  1.
</event>
<event>
 5   0  0.2661693E-07  0.3807082E+04  0.7818609E-02  0.8044637E-01
        2   -1    0    0  501    0  0.00000000000E+00  0.00000000000E+00  0.12234741475E+04  0.12234741475E+04  0.25500000920E-02 0. -1.
       -2   -1    0    0    0  501  0.00000000000E+00  0.00000000000E+00 -0.29616230689E+04  0.29616230689E+04  0.25500000920E-02 0.  1.
    10030    2    1    2    0    0  0.00000000000E+00  0.00000000000E+00 -0.17381489214E+04  0.41850972165E+04  0.38070824838E+04 0.  0.
        1    1    3    3  502    0  0.99044067622E+03  0.11175603567E+04 -0.21667776738E+04  0.26315089534E+04  0.50400001928E-02 0.  1.
       -1    1    3    3    0  502 -0.99044067622E+03 -0.11175603567E+04  0.42862875241E+03  0.15535882631E+04  0.50400001928E-02 0. -1.
</event>
<event>
 5   0  0.8528625E-08  0.4034632E+04  0.7818609E-02  0.7997596E-01
       -1   -1    0    0    0  501  0.00000000000E+00  0.00000000000E+00  0.19953505993E+04  0.19953505993E+04  0.50400001928E-02 0.  1.
        1   -1    0    0  501    0  0.00000000000E+00  0.00000000000E+00 -0.20395233540E+04  0.20395233540E+04  0.50400001928E-02 0. -1.
    10030    2    1    2    0    0  0.00000000000E+00  0.00000000000E+00 -0.44172754663E+02  0.40348739533E+04  0.40346321502E+04 0.  0.
        4    1    3    3  502    0 -0.34577093007E+03 -0.41281176358E+03 -0.19663200298E+04  0.20387219430E+04  0.12699999809E+01 0. -1.
       -4    1    3    3    0  502  0.34577093007E+03  0.41281176358E+03  0.19221472751E+04  0.19961520104E+04  0.12699999809E+01 0.  1.
</event>
<event>
 5   0  0.2704088E-07  0.3963673E+04  0.7818609E-02  0.8011915E-01
        2   -1    0    0  501    0  0.00000000000E+00  0.00000000000E+00  0.23109187923E+04  0.23109187923E+04  0.25500000920E-02 0. -1.
       -2   -1    0    0    0  501  0.00000000000E+00  0.00000000000E+00 -0.16996165151E+04  0.16996165152E+04  0.25500000920E-02 0.  1.
    10030    2    1    2    0    0  0.00000000000E+00  0.00000000000E+00  0.61130227718E+03  0.40105353075E+04  0.39636729152E+04 0.  0.
        5    1    3    3  502    0 -0.80481811318E+03  0.76795745784E+03  0.19652144176E+04  0.22582251105E+04  0.46999998093E+01 0. -1.
       -5    1    3    3    0  502  0.80481811318E+03 -0.76795745784E+03 -0.13539121405E+04  0.17523101970E+04  0.46999998093E+01 0.  1.
</event>
<event>
 5   0  0.8528625E-08  0.3991966E+04  0.7818609E-02  0.8006169E-01
        1   -1    0    0  501    0  0.00000000000E+00  0.00000000000E+00  0.16555161069E+04  0.16555161069E+04  0.50400001928E-02 0. -1.
       -1   -1    0    0    0  501  0.00000000000E+00  0.00000000000E+00 -0.24064695576E+04  0.24064695576E+04  0.50400001928E-02 0.  1.
    10030    2    1    2    0    0  0.00000000000E+00  0.00000000000E+00 -0.75095345073E+03  0.40619856644E+04  0.39919664895E+04 0.  0.
        4    1    3    3  502    0  0.67419005088E+03  0.95969261731E+03  0.12679072243E+04  0.17271747123E+04  0.12699999809E+01 0. -1.
       -4    1    3    3    0  502 -0.67419005088E+03 -0.95969261731E+03 -0.20188606750E+04  0.23348109522E+04  0.12699999809E+01 0.  1.
</event>
<event>
 5   0  0.8583262E-08  0.3955963E+04  0.7818609E-02  0.8013490E-01
        1   -1    0    0  501    0  0.00000000000E+00  0.00000000000E+00  0.21699476505E+04  0.21699476505E+04  0.50400001928E-02 0. -1.
       -1   -1    0    0    0  501  0.00000000000E+00  0.00000000000E+00 -0.18029978828E+04  0.18029978828E+04  0.50400001928E-02 0.  1.
    10030    2    1    2    0    0  0.00000000000E+00  0.00000000000E+00  0.36694976766E+03  0.39729455333E+04  0.39559631038E+04 0.  0.
        1    1    3    3  502    0 -0.16054014812E+04 -0.31716142711E+03 -0.93237798501E+03  0.18834102033E+04  0.50400001928E-02 0.  1.
       -1    1    3    3    0  502  0.16054014812E+04  0.31716142711E+03  0.12993277527E+04  0.20895353301E+04  0.50400001928E-02 0. -1.
</event>
<event>
 5   0  0.8528625E-08  0.3992712E+04  0.7818609E-02  0.8006018E-01
       -1   -1    0    0    0  501  0.00000000000E+00  0.00000000000E+00  0.31904745131E+04  0.31904745131E+04  0.50400001928E-02 0. -1.
        1   -1    0    0  501    0  0.00000000000E+00  0.00000000000E+00 -0.12491673812E+04  0.12491673812E+04  0.50400001928E-02 0.  1.
    10030    2    1    2    0    0  0.00000000000E+00  0.00000000000E+00  0.19413071319E+04  0.44396418943E+04  0.39927117063E+04 0.  0.
        3    1    3    3  502    0 -0.16728870985E+04  0.60946401197E+02 -0.23884049798E+03  0.16909495859E+04  0.10100000352E+00 0.  1.
       -3    1    3    3    0  502  0.16728870985E+04 -0.60946401197E+02  0.21801476299E+04  0.27486923084E+04  0.10100000352E+00 0. -1.
</event>
<event>
 5   0  0.8528625E-08  0.3969189E+04  0.7818609E-02  0.8010791E-01
        1   -1    0    0  501    0  0.00000000000E+00  0.00000000000E+00  0.19658214045E+04  0.19658214045E+04  0.50400001928E-02 0. -1.
       -1   -1    0    0    0  501  0.00000000000E+00  0.00000000000E+00 -0.20035467959E+04  0.20035467959E+04  0.50400001928E-02 0.  1.
    10030    2    1    2    0    0  0.00000000000E+00  0.00000000000E+00 -0.37725391421E+02  0.39693682004E+04  0.39691889228E+04 0.  0.
        3    1    3    3  502    0  0.12816327655E+04  0.14661997016E+04 -0.40136010886E+03  0.19883194053E+04  0.10100000352E+00 0.  1.
       -3    1    3    3    0  502 -0.12816327655E+04 -0.14661997016E+04  0.36363471744E+03  0.19810487950E+04  0.10100000352E+00 0. -1.
</event>
<event>
 5   0  0.2704088E-07  0.3932110E+04  0.7818609E-02  0.8018384E-01
        2   -1    0    0  501    0  0.00000000000E+00  0.00000000000E+00  0.24289456896E+04  0.24289456896E+04  0.25500000920E-02 0.  1.
       -2   -1    0    0    0  501  0.00000000000E+00  0.00000000000E+00 -0.15913786267E+04  0.15913786267E+04  0.25500000920E-02 0. -1.
    10030    2    1    2    0    0  0.00000000000E+00  0.00000000000E+00  0.83756706289E+03  0.40203243163E+04  0.39321099964E+04 0.  0.
        5    1    3    3  502    0  0.13333002669E+04  0.96149336313E+03  0.15214926387E+04  0.22398930842E+04  0.46999998093E+01 0.  1.
       -5    1    3    3    0  502 -0.13333002669E+04 -0.96149336313E+03 -0.68392557583E+03  0.17804312321E+04  0.46999998093E+01 0. -1.
</event>
<event>
 5   0  0.2661693E-07  0.3949131E+04  0.7818609E-02  0.8014888E-01
        2   -1    0    0  501    0  0.00000000000E+00  0.00000000000E+00  0.31133316742E+04  0.31133316742E+04  0.25500000920E-02 0.  1.
       -2   -1    0    0    0  501  0.00000000000E+00  0.00000000000E+00 -0.12523270142E+04  0.12523270142E+04  0.25500000920E-02 0. -1.
    10030    2    1    2    0    0  0.00000000000E+00  0.00000000000E+00  0.18610046600E+04  0.43656586884E+04  0.39491312259E+04 0.  0.
        1    1    3    3  502    0  0.97058764639E+03 -0.11420798753E+04  0.23515933979E+04  0.27886158448E+04  0.50400001928E-02 0. -1.
       -1    1    3    3    0  502 -0.97058764639E+03  0.11420798753E+04 -0.49058873786E+03  0.15770428436E+04  0.50400001928E-02 0.  1.
</event>
<event>
 5   0  0.8528625E-08  0.4011652E+04  0.7818609E-02  0.8002200E-01
        1   -1    0    0  501    0  0.00000000000E+00  0.00000000000E+00  0.19140336014E+04  0.19140336014E+04  0.50400001928E-02 0.  1.
       -1   -1    0    0    0  501  0.00000000000E+00  0.00000000000E+00 -0.21020206779E+04  0.21020206779E+04  0.50400001928E-02 0. -1.
    10030    2    1    2    0    0  0.00000000000E+00  0.00000000000E+00 -0.18798707652E+03  0.40160542794E+04  0.40116521327E+04 0.  0.
        4    1    3    3  502    0  0.76231560058E+03  0.15200487513E+04 -0.11589575358E+04  0.20578769312E+04  0.12699999809E+01 0. -1.
       -4    1    3    3    0  502 -0.76231560058E+03 -0.15200487513E+04  0.97097045930E+03  0.19581773482E+04  0.12699999809E+01 0.  1.
</event>
<event>
 5   0  0.8528625E-08  0.4057774E+04  0.7818609E-02  0.7992992E-01
       -1   -1    0    0    0  501  0.00000000000E+00  0.00000000000E+00  0.19269672984E+04  0.19269672985E+04  0.50400001928E-02 0. -1.
        1   -1    0    0  501    0  0.00000000000E+00  0.00000000000E+00 -0.21361968658E+04  0.21361968658E+04  0.50400001928E-02 0.  1.
    10030    2    1    2    0    0  0.00000000000E+00  0.00000000000E+00 -0.20922956737E+03  0.40631641643E+04  0.40577735292E+04 0.  0.
        3    1    3    3  502    0 -0.58262601315E+03  0.19251410575E+04  0.16174674083E+03  0.20178659968E+04  0.10100000352E+00 0.  1.
       -3    1    3    3    0  502  0.58262601315E+03 -0.19251410575E+04 -0.37097630820E+03  0.20452981675E+04  0.10100000352E+00 0. -1.
</event>
<event>
 5   0  0.2704088E-07  0.4144642E+04  0.7818609E-02  0.7975987E-01
        2   -1    0    0  501    0  0.00000000000E+00  0.00000000000E+00  0.22236049945E+04  0.22236049945E+04  0.25500000920E-02 0. -1.
       -2   -1    0    0    0  501  0.00000000000E+00  0.00000000000E+00 -0.19313297499E+04  0.19313297499E+04  0.25500000920E-02 0.  1.
    10030    2    1    2    0    0  0.00000000000E+00  0.00000000000E+00  0.29227524464E+03  0.41549347444E+04  0.41446420728E+04 0.  0.
        5    1    3    3  502    0 -0.19850360094E+04 -0.11373658691E+03 -0.43942630672E+03  0.20362763906E+04  0.46999998093E+01 0.  1.
       -5    1    3    3    0  502  0.19850360094E+04  0.11373658691E+03  0.73170155136E+03  0.21186583538E+04  0.46999998093E+01 0. -1.
</event>
<event>
 5   0  0.8528625E-08  0.3982747E+04  0.7818609E-02  0.8008036E-01
        1   -1    0    0  501    0  0.00000000000E+00  0.00000000000E+00  0.16304913765E+04  0.16304913765E+04  0.50400001928E-02 0.  1.
       -1   -1    0    0    0  501  0.00000000000E+00  0.00000000000E+00 -0.24321306382E+04  0.24321306382E+04  0.50400001928E-02 0. -1.
    10030    2    1    2    0    0  0.00000000000E+00  0.00000000000E+00 -0.80163926170E+03  0.40626220147E+04  0.39827468070E+04 0.  0.
        5    1    3    3  502    0 -0.57238762682E+03 -0.51264683322E+03  0.14731726014E+04  0.16615336212E+04  0.46999998093E+01 0.  1.
       -5    1    3    3    0  502  0.57238762682E+03  0.51264683322E+03 -0.22748118631E+04  0.24010883935E+04  0.46999998093E+01 0. -1.
</event>
<event>
 5   0  0.8528625E-08  0.3985855E+04  0.7818609E-02  0.8007406E-01
        1   -1    0    0  501    0  0.00000000000E+00  0.00000000000E+00  0.13572667411E+04  0.13572667411E+04  0.50400001928E-02 0.  1.
       -1   -1    0    0    0  501  0.00000000000E+00  0.00000000000E+00 -0.29262924491E+04  0.29262924491E+04  0.50400001928E-02 0. -1.
    10030    2    1    2    0    0  0.00000000000E+00  0.00000000000E+00 -0.15690257079E+04  0.42835591902E+04  0.39858546968E+04 0.  0.
        3    1    3    3  502    0  0.10862885311E+04 -0.11423867964E+04 -0.20948811585E+04  0.26217546498E+04  0.10100000352E+00 0. -1.
       -3    1    3    3    0  502 -0.10862885311E+04  0.11423867964E+04  0.52585545058E+03  0.16618045404E+04  0.10100000352E+00 0.  1.
</event>
<event>
 5   0  0.2666978E-07  0.4005174E+04  0.7818609E-02  0.8003504E-01
        2   -1    0    0  501    0  0.00000000000E+00  0.00000000000E+00  0.28960905119E+04  0.28960905119E+04  0.25500000920E-02 0. -1.
       -2   -1    0    0    0  501  0.00000000000E+00  0.00000000000E+00 -0.13847479490E+04  0.13847479490E+04  0.25500000920E-02 0.  1.
    10030    2    1    2    0    0  0.00000000000E+00  0.00000000000E+00  0.15113425628E+04  0.42808384609E+04  0.40051743515E+04 0.  0.
        4    1    3    3  502    0 -0.89192795760E+03  0.80556144073E+03  0.24677603394E+04  0.27448692905E+04  0.12699999809E+01 0. -1.
       -4    1    3    3    0  502  0.89192795760E+03 -0.80556144073E+03 -0.95641777652E+03  0.15359691704E+04  0.12699999809E+01 0.  1.
</event>
<event>
 5   0  0.2730801E-07  0.3984810E+04  0.7818609E-02  0.8007618E-01
        2   -1    0    0  501    0  0.00000000000E+00  0.00000000000E+00  0.31023330019E+04  0.31023330019E+04  0.25500000920E-02 0. -1.
       -2   -1    0    0    0  501  0.00000000000E+00  0.00000000000E+00 -0.12795783530E+04  0.12795783530E+04  0.25500000920E-02 0.  1.
    10030    2    1    2    0    0  0.00000000000E+00  0.00000000000E+00  0.18227546489E+04  0.43819113549E+04  0.39848102354E+04 0.  0.
        2    1    3    3  502    0 -0.17020488402E+04 -0.72254664600E+03  0.17273724254E+04  0.25303872048E+04  0.25500000920E-02 0.  1.
       -2    1    3    3    0  502  0.17020488402E+04  0.72254664600E+03  0.95382223471E+02  0.18515241501E+04  0.25500000920E-02 0. -1.
</event>
<event>
 5   0  0.8528625E-08  0.3275996E+04  0.7818609E-02  0.8169030E-01
       -1   -1    0    0    0  501  0.00000000000E+00  0.00000000000E+00  0.17077775866E+04  0.17077775866E+04  0.50400001928E-02 0.  1.
        1   -1    0    0  501    0  0.00000000000E+00  0.00000000000E+00 -0.15710699255E+04  0.15710699255E+04  0.50400001928E-02 0. -1.
    10030    2    1    2    0    0  0.00000000000E+00  0.00000000000E+00  0.13670766110E+03  0.32788475122E+04  0.32759963406E+04 0.  0.
        2    1    3    3  502    0  0.12272385277E+04 -0.37465172893E+03  0.10873556708E+04  0.16819098302E+04  0.25500000920E-02 0.  1.
       -2    1    3    3    0  502 -0.12272385277E+04  0.37465172893E+03 -0.95064800972E+03  0.15969376820E+04  0.25500000920E-02 0. -1.
</event>
<event>
 5   0  0.2730801E-07  0.3981894E+04  0.7818609E-02  0.8008209E-01
       -2   -1    0    0    0  501  0.00000000000E+00  0.00000000000E+00  0.13992849286E+04  0.13992849286E+04  0.25500000920E-02 0. -1.
        2   -1    0    0  501    0  0.00000000000E+00  0.00000000000E+00 -0.28327820892E+04  0.28327820892E+04  0.25500000920E-02 0.  1.
    10030    2    1    2    0    0  0.00000000000E+00  0.00000000000E+00 -0.14334971606E+04  0.42320670178E+04  0.39818936617E+04 0.  0.
        2    1    3    3  502    0 -0.56158848748E+03 -0.14345144663E+04 -0.20571997530E+04  0.25700747473E+04  0.25500000920E-02 0.  1.
       -2    1    3    3    0  502  0.56158848748E+03  0.14345144663E+04  0.62370259242E+03  0.16619922704E+04  0.25500000920E-02 0. -1.
</event>
<event>
 5   0  0.8528625E-08  0.3996254E+04  0.7818609E-02  0.8005303E-01
       -1   -1    0    0    0  501  0.00000000000E+00  0.00000000000E+00  0.25996777872E+04  0.25996777872E+04  0.50400001928E-02 0. -1.
        1   -1    0    0  501    0  0.00000000000E+00  0.00000000000E+00 -0.15357713031E+04  0.15357713032E+04  0.50400001928E-02 0.  1.
    10030    2    1    2    0    0  0.00000000000E+00  0.00000000000E+00  0.10639064840E+04  0.41354490903E+04  0.39962535170E+04 0.  0.
        2    1    3    3  502    0 -0.97934364423E+03  0.14184105862E+04  0.15778541229E+04  0.23367982792E+04  0.25500000920E-02 0. -1.
       -2    1    3    3    0  502  0.97934364423E+03 -0.14184105862E+04 -0.51394763891E+03  0.17986508111E+04  0.25500000920E-02 0.  1.
</event>
<event>
 5   0  0.8583262E-08  0.3966933E+04  0.7818609E-02  0.8011251E-01
        1   -1    0    0  501    0  0.00000000000E+00  0.00000000000E+00  0.24403585013E+04  0.24403585013E+04  0.50400001928E-02 0. -1.
       -1   -1    0    0    0  501  0.00000000000E+00  0.00000000000E+00 -0.16121157195E+04  0.16121157195E+04  0.50400001928E-02 0.  1.
    10030    2    1    2    0    0  0.00000000000E+00  0.00000000000E+00  0.82824278179E+03  0.40524742208E+04  0.39669334762E+04 0.  0.
        1    1    3    3  502    0  0.18513028202E+04  0.31705474780E+03  0.10652785075E+04  0.21593202967E+04  0.50400001928E-02 0. -1.
       -1    1    3    3    0  502 -0.18513028202E+04 -0.31705474780E+03 -0.23703572572E+03  0.18931539241E+04  0.50400001928E-02 0.  1.
</event>
<event>
 5   0  0.2730801E-07  0.4044116E+04  0.7818609E-02  0.7995706E-01
       -2   -1    0    0    0  501  0.00000000000E+00  0.00000000000E+00  0.22182020212E+04  0.22182020212E+04  0.25500000920E-02 0. -1.
        2   -1    0    0  501    0  0.00000000000E+00  0.00000000000E+00 -0.18432583231E+04  0.18432583231E+04  0.25500000920E-02 0.  1.
    10030    2    1    2    0    0  0.00000000000E+00  0.00000000000E+00  0.37494369812E+03  0.40614603442E+04  0.40441163869E+04 0.  0.
        2    1    3    3  502    0  0.15129226226E+04 -0.78670621180E+03  0.12788143100E+04  0.21314801348E+04  0.25500000920E-02 0. -1.
       -2    1    3    3    0  502 -0.15129226226E+04  0.78670621180E+03 -0.90387061192E+03  0.19299802094E+04  0.25500000920E-02 0.  1.
</event>
<event>
 5   0  0.2666978E-07  0.3382631E+04  0.7818609E-02  0.8142182E-01
        2   -1    0    0  501    0  0.00000000000E+00  0.00000000000E+00  0.12809763397E+04  0.12809763397E+04  0.25500000920E-02 0.  1.
       -2   -1    0    0    0  501  0.00000000000E+00  0.00000000000E+00 -0.22330996194E+04  0.22330996194E+04  0.25500000920E-02 0. -1.
    10030    2    1    2    0    0  0.00000000000E+00  0.00000000000E+00 -0.95212327970E+03  0.35140759591E+04  0.33826307966E+04 0.  0.
        4    1    3    3  502    0  0.48432761879E+03 -0.50207053213E+03  0.11245559415E+04  0.13233577521E+04  0.12699999809E+01 0.  1.
       -4    1    3    3    0  502 -0.48432761879E+03  0.50207053213E+03 -0.20766792212E+04  0.21907182070E+04  0.12699999809E+01 0. -1.
</event>
<event>
 5   0  0.2661693E-07  0.3790793E+04  0.7818609E-02  0.8048133E-01
       -2   -1    0    0    0  501  0.00000000000E+00  0.00000000000E+00  0.15965018073E+04  0.15965018073E+04  0.25500000920E-02 0.  1.
        2   -1    0    0  501    0  0.00000000000E+00  0.00000000000E+00 -0.22502502436E+04  0.22502502436E+04  0.25500000920E-02 0. -1.
    10030    2    1    2    0    0  0.00000000000E+00  0.00000000000E+00 -0.65374843631E+03  0.38467520508E+04  0.37907933632E+04 0.  0.
        1    1    3    3  502    0  0.69808728145E+03 -0.12975717120E+04 -0.15367453102E+04  0.21289913924E+04  0.50400001928E-02 0. -1.
       -1    1    3    3    0  502 -0.69808728145E+03  0.12975717120E+04  0.88299687390E+03  0.17177606585E+04  0.50400001928E-02 0.  1.
</event>
<event>
 5   0  0.2661693E-07  0.3897707E+04  0.7818609E-02  0.8025506E-01
        2   -1    0    0  501    0  0.00000000000E+00  0.00000000000E+00  0.12116544012E+04  0.12116544012E+04  0.25500000920E-02 0.  1.
       -2   -1    0    0    0  501  0.00000000000E+00  0.00000000000E+00 -0.31345811364E+04  0.31345811364E+04  0.25500000920E-02 0. -1.
    10030    2    1    2    0    0  0.00000000000E+00  0.00000000000E+00 -0.19229267352E+04  0.43462355375E+04  0.38977065204E+04 0.  0.
        1    1    3    3  502    0  0.47245572061E+03 -0.23344905532E+03 -0.30536236712E+04  0.30987627200E+04  0.50400001928E-02 0. -1.
       -1    1    3    3    0  502 -0.47245572061E+03  0.23344905532E+03  0.11306969360E+04  0.12474728175E+04  0.50400001928E-02 0.  1.
</event>
<event>
 5   0  0.8528625E-08  0.3750953E+04  0.7818609E-02  0.8056763E-01
        1   -1    0    0  501    0  0.00000000000E+00  0.00000000000E+00  0.20609353400E+04  0.20609353400E+04  0.50400001928E-02 0.  1.
       -1   -1    0    0    0  501  0.00000000000E+00  0.00000000000E+00 -0.17067067739E+04  0.17067067740E+04  0.50400001928E-02 0. -1.
    10030    2    1    2    0    0  0.00000000000E+00  0.00000000000E+00  0.35422856609E+03  0.37676421140E+04  0.37509531085E+04 0.  0.
        2    1    3    3  502    0 -0.12810212571E+04  0.10202860991E+04 -0.74096175756E+03  0.17975048015E+04  0.25500000920E-02 0. -1.
       -2    1    3    3    0  502  0.12810212571E+04 -0.10202860991E+04  0.10951903237E+04  0.19701373125E+04  0.25500000920E-02 0.  1.
</event>
<event>
 5   0  0.8528625E-08  0.3060612E+04  0.7818609E-02  0.8226631E-01
       -1   -1    0    0    0  501  0.00000000000E+00  0.00000000000E+00  0.12211287922E+04  0.12211287922E+04  0.50400001928E-02 0. -1.
        1   -1    0    0  501    0  0.00000000000E+00  0.00000000000E+00 -0.19177637255E+04  0.19177637255E+04  0.50400001928E-02 0.  1.
    10030    2    1    2    0    0  0.00000000000E+00  0.00000000000E+00 -0.69663493329E+03  0.31388925177E+04  0.30606120315E+04 0.  0.
        2    1    3    3  502    0  0.22897084685E+03  0.54346623252E+03 -0.17965441523E+04  0.18908606733E+04  0.25500000920E-02 0.  1.
       -2    1    3    3    0  502 -0.22897084685E+03 -0.54346623252E+03  0.10999092190E+04  0.12480318444E+04  0.25500000920E-02 0. -1.
</event>
<event>
 5   0  0.2661693E-07  0.3940221E+04  0.7818609E-02  0.8016716E-01
        2   -1    0    0  501    0  0.00000000000E+00  0.00000000000E+00  0.26191740177E+04  0.26191740177E+04  0.25500000920E-02 0. -1.
       -2   -1    0    0    0  501  0.00000000000E+00  0.00000000000E+00 -0.14818930632E+04  0.14818930632E+04  0.25500000920E-02 0.  1.
    10030    2    1    2    0    0  0.00000000000E+00  0.00000000000E+00  0.11372809544E+04  0.41010670809E+04  0.39402212163E+04 0.  0.
        1    1    3    3  502    0  0.96280844959E+03  0.16719499916E+04  0.98356019579E+03  0.21655963483E+04  0.50400001928E-02 0. -1.
       -1    1    3    3    0  502 -0.96280844959E+03 -0.16719499916E+04  0.15372075865E+03  0.19354707326E+04  0.50400001928E-02 0.  1.
</event>
<event>
 5   0  0.2704088E-07  0.4004897E+04  0.7818609E-02  0.8003559E-01
        2   -1    0    0  501    0  0.00000000000E+00  0.00000000000E+00  0.22142827088E+04  0.22142827088E+04  0.25500000920E-02 0. -1.
       -2   -1    0    0    0  501  0.00000000000E+00  0.00000000000E+00 -0.18108801875E+04  0.18108801875E+04  0.25500000920E-02 0.  1.
    10030    2    1    2    0    0  0.00000000000E+00  0.00000000000E+00  0.40340252131E+03  0.40251628963E+04  0.40048973454E+04 0.  0.
        5    1    3    3  502    0  0.15420406533E+04  0.63340070646E+03 -0.91327827375E+03  0.19008380065E+04  0.46999998093E+01 0.  1.
       -5    1    3    3    0  502 -0.15420406533E+04 -0.63340070646E+03  0.13166807951E+04  0.21243248898E+04  0.46999998093E+01 0. -1.
</event>
<event>
 5   0  0.2666978E-07  0.4005452E+04  0.7818609E-02  0.8003448E-01
        2   -1    0    0  501    0  0.00000000000E+00  0.00000000000E+00  0.14876968515E+04  0.14876968515E+04  0.25500000920E-02 0. -1.
       -2   -1    0    0    0  501  0.00000000000E+00  0.00000000000E+00 -0.26960547151E+04  0.26960547151E+04  0.25500000920E-02 0.  1.
    10030    2    1    2    0    0  0.00000000000E+00  0.00000000000E+00 -0.12083578637E+04  0.41837515666E+04  0.40054523395E+04 0.  0.
        4    1    3    3  502    0  0.14928662199E+04  0.78901625537E+01 -0.19985950042E+04  0.24946132784E+04  0.12699999809E+01 0.  1.
       -4    1    3    3    0  502 -0.14928662199E+04 -0.78901625537E+01  0.79023714054E+03  0.16891382881E+04  0.12699999809E+01 0. -1.
</event>
<event>
 5   0  0.8583262E-08  0.3965890E+04  0.7818609E-02  0.8011463E-01
        1   -1    0    0  501    0  0.00000000000E+00  0.00000000000E+00  0.23330745132E+04  0.23330745133E+04  0.50400001928E-02 0. -1.
       -1   -1    0    0    0  501  0.00000000000E+00  0.00000000000E+00 -0.16853598261E+04  0.16853598261E+04  0.50400001928E-02 0.  1.
    10030    2    1    2    0    0  0.00000000000E+00  0.00000000000E+00  0.64771468719E+03  0.40184343393E+04  0.39658895879E+04 0.  0.
        1    1    3    3  502    0 -0.84826625243E+03 -0.17902583595E+04  0.23616926526E+03  0.19950830937E+04  0.50400001928E-02 0.  1.
       -1    1    3    3    0  502  0.84826625243E+03  0.17902583595E+04  0.41154542194E+03  0.20233512456E+04  0.50400001928E-02 0. -1.
</event>
<event>
 5   0  0.2839279E-07  0.4006890E+04  0.7818609E-02  0.8003158E-01
       -2   -1    0    0    0  501  0.00000000000E+00  0.00000000000E+00  0.22312849608E+04  0.22312849608E+04  0.25500000920E-02 0.  1.
        2   -1    0    0  501    0  0.00000000000E+00  0.00000000000E+00 -0.17988696997E+04  0.17988696997E+04  0.25500000920E-02 0. -1.
    10030    2    1    2    0    0  0.00000000000E+00  0.00000000000E+00  0.43241526116E+03  0.40301546605E+04  0.40068895205E+04 0.  0.
        3    1    3    3  502    0  0.12270062774E+04 -0.80061144676E+03 -0.11582066194E+04  0.18676096158E+04  0.10100000352E+00 0. -1.
       -3    1    3    3    0  502 -0.12270062774E+04  0.80061144676E+03  0.15906218805E+04  0.21625450448E+04  0.10100000352E+00 0.  1.
</event>
<event>
 5   0  0.2661693E-07  0.3919350E+04  0.7818609E-02  0.8021017E-01
        2   -1    0    0  501    0  0.00000000000E+00  0.00000000000E+00  0.15333394263E+04  0.15333394263E+04  0.25500000920E-02 0.  1.
       -2   -1    0    0    0  501  0.00000000000E+00  0.00000000000E+00 -0.25045507918E+04  0.25045507918E+04  0.25500000920E-02 0. -1.
    10030    2    1    2    0    0  0.00000000000E+00  0.00000000000E+00 -0.97121136549E+03  0.40378902181E+04  0.39193501881E+04 0.  0.
        1    1    3    3  502    0  0.12933565090E+04  0.58281706050E+01 -0.20023840993E+04  0.23837674191E+04  0.50400001928E-02 0. -1.
       -1    1    3    3    0  502 -0.12933565090E+04 -0.58281706050E+01  0.10311727338E+04  0.16541227990E+04  0.50400001928E-02 0.  1.
</event>
<event>
 5   0  0.8528625E-08  0.3233976E+04  0.7818609E-02  0.8179901E-01
        1   -1    0    0  501    0  0.00000000000E+00  0.00000000000E+00  0.19321812953E+04  0.19321812953E+04  0.50400001928E-02 0. -1.
       -1   -1    0    0    0  501  0.00000000000E+00  0.00000000000E+00 -0.13532118435E+04  0.13532118435E+04  0.50400001928E-02 0.  1.
    10030    2    1    2    0    0  0.00000000000E+00  0.00000000000E+00  0.57896945183E+03  0.32853931389E+04  0.32339762601E+04 0.  0.
        4    1    3    3  502    0 -0.14605726843E+04  0.65800715667E+03  0.51298946046E+03  0.16820837624E+04  0.12699999809E+01 0.  1.
       -4    1    3    3    0  502  0.14605726843E+04 -0.65800715667E+03  0.65979991374E+02  0.16033093764E+04  0.12699999809E+01 0. -1.
</event>
<event>
 5   0  0.2839279E-07  0.4056767E+04  0.7818609E-02  0.7993192E-01
        2   -1    0    0  501    0  0.00000000000E+00  0.00000000000E+00  0.23962067753E+04  0.23962067753E+04  0.25500000920E-02 0.  1.
       -2   -1    0    0    0  501  0.00000000000E+00  0.00000000000E+00 -0.17170220609E+04  0.17170220609E+04  0.25500000920E-02 0. -1.
    10030    2    1    2    0    0  0.00000000000E+00  0.00000000000E+00  0.67918471435E+03  0.41132288362E+04  0.40567671344E+04 0.  0.
        3    1    3    3  502    0  0.11188751769E+04 -0.16826229849E+04  0.16038938877E+03  0.20270240594E+04  0.10100000352E+00 0. -1.
       -3    1    3    3    0  502 -0.11188751769E+04  0.16826229849E+04  0.51879532559E+03  0.20862047769E+04  0.10100000352E+00 0.  1.
</event>
<event>
 5   0  0.2661693E-07  0.3974265E+04  0.7818609E-02  0.8009758E-01
        2   -1    0    0  501    0  0.00000000000E+00  0.00000000000E+00  0.16679647666E+04  0.16679647666E+04  0.25500000920E-02 0.  1.
       -2   -1    0    0    0  501  0.00000000000E+00  0.00000000000E+00 -0.23673739063E+04  0.23673739063E+04  0.25500000920E-02 0. -1.
    10030    2    1    2    0    0  0.00000000000E+00  0.00000000000E+00 -0.69940913971E+03  0.40353386730E+04  0.39742653486E+04 0.  0.
        1    1    3    3  502    0  0.14694310706E+03  0.78915009125E+03 -0.21954248984E+04  0.23375715236E+04  0.50400001928E-02 0. -1.
       -1    1    3    3    0  502 -0.14694310706E+03 -0.78915009125E+03  0.14960157587E+04  0.16977671494E+04  0.50400001928E-02 0.  1.
</event>
<event>
 5   0  0.8528625E-08  0.3906446E+04  0.7818609E-02  0.8023690E-01
        1   -1    0    0  501    0  0.00000000000E+00  0.00000000000E+00  0.12237245235E+04  0.12237245235E+04  0.50400001928E-02 0.  1.
       -1   -1    0    0    0  501  0.00000000000E+00  0.00000000000E+00 -0.31175968915E+04  0.31175968915E+04  0.50400001928E-02 0. -1.
    10030    2    1    2    0    0  0.00000000000E+00  0.00000000000E+00 -0.18938723680E+04  0.43413214150E+04  0.39064458376E+04 0.  0.
        2    1    3    3  502    0  0.12454126352E+04  0.69881104257E+03  0.53395702040E+03  0.15246309733E+04  0.25500000920E-02 0.  1.
       -2    1    3    3    0  502 -0.12454126352E+04 -0.69881104257E+03 -0.24278293884E+04  0.28166904417E+04  0.25500000920E-02 0. -1.
</event>
<event>
 5   0  0.2704088E-07  0.3957761E+04  0.7818609E-02  0.8013122E-01
        2   -1    0    0  501    0  0.00000000000E+00  0.00000000000E+00  0.29755176344E+04  0.29755176344E+04  0.25500000920E-02 0.  1.
       -2   -1    0    0    0  501  0.00000000000E+00  0.00000000000E+00 -0.13160625163E+04  0.13160625163E+04  0.25500000920E-02 0. -1.
    10030    2    1    2    0    0  0.00000000000E+00  0.00000000000E+00  0.16594551182E+04  0.42915801507E+04  0.39577605916E+04 0.  0.
        5    1    3    3  502    0 -0.75221585338E+03 -0.16055666828E+04 -0.12318460971E+03  0.17773209055E+04  0.46999998093E+01 0. -1.
       -5    1    3    3    0  502  0.75221585338E+03  0.16055666828E+04  0.17826397279E+04  0.25142592452E+04  0.46999998093E+01 0.  1.
</event>
<event>
 5   0  0.8583262E-08  0.3875841E+04  0.7818609E-02  0.8030073E-01
       -1   -1    0    0    0  501  0.00000000000E+00  0.00000000000E+00  0.12682407572E+04  0.12682407572E+04  0.50400001928E-02 0.  1.
        1   -1    0    0  501    0  0.00000000000E+00  0.00000000000E+00 -0.29612171751E+04  0.29612171751E+04  0.50400001928E-02 0. -1.
    10030    2    1    2    0    0  0.00000000000E+00  0.00000000000E+00 -0.16929764179E+04  0.42294579324E+04  0.38758412313E+04 0.  0.
        1    1    3    3  502    0  0.85974276713E+03 -0.15603563316E+04 -0.16787421708E+04  0.24478653524E+04  0.50400001928E-02 0. -1.
       -1    1    3    3    0  502 -0.85974276713E+03  0.15603563316E+04 -0.14234247086E+02  0.17815925800E+04  0.50400001928E-02 0.  1.
</event>
<event>
 5   0  0.2661693E-07  0.4026789E+04  0.7818609E-02  0.7999164E-01
        2   -1    0    0  501    0  0.00000000000E+00  0.00000000000E+00  0.17129253383E+04  0.17129253383E+04  0.25500000920E-02 0. -1.
       -2   -1    0    0    0  501  0.00000000000E+00  0.00000000000E+00 -0.23665704080E+04  0.23665704080E+04  0.25500000920E-02 0.  1.
    10030    2    1    2    0    0  0.00000000000E+00  0.00000000000E+00 -0.65364506970E+03  0.40794957463E+04  0.40267894987E+04 0.  0.
        1    1    3    3  502    0  0.43517327532E+03 -0.10508580073E+04 -0.20099166405E+04  0.23094248706E+04  0.50400001928E-02 0.  1.
       -1    1    3    3    0  502 -0.43517327532E+03  0.10508580073E+04  0.13562715709E+04  0.17700708757E+04  0.50400001928E-02 0. -1.
</event>
<event>
 5   0  0.2730801E-07  0.4041901E+04  0.7818609E-02  0.7996147E-01
        2   -1    0    0  501    0  0.00000000000E+00  0.00000000000E+00  0.23580875188E+04  0.23580875188E+04  0.25500000920E-02 0.  1.
       -2   -1    0    0    0  501  0.00000000000E+00  0.00000000000E+00 -0.17320139741E+04  0.17320139741E+04  0.25500000920E-02 0. -1.
    10030    2    1    2    0    0  0.00000000000E+00  0.00000000000E+00  0.62607354470E+03  0.40901014929E+04  0.40419008076E+04 0.  0.
        2    1    3    3  502    0 -0.22654209723E+03 -0.14833358749E+04 -0.10568551061E+04  0.18353608241E+04  0.25500000920E-02 0. -1.
       -2    1    3    3    0  502  0.22654209723E+03  0.14833358749E+04  0.16829286508E+04  0.22547406687E+04  0.25500000920E-02 0.  1.
</event>
<event>
 5   0  0.8528625E-08  0.4043380E+04  0.7818609E-02  0.7995852E-01
       -3   -1    0    0    0  501  0.00000000000E+00  0.00000000000E+00  0.22783087981E+04  0.22783088004E+04  0.10100000352E+00 0.  1.
        3   -1    0    0  501    0  0.00000000000E+00  0.00000000000E+00 -0.17939758265E+04  0.17939758293E+04  0.10100000352E+00 0. -1.
    10030    2    1    2    0    0  0.00000000000E+00  0.00000000000E+00  0.48433297165E+03  0.40722846297E+04  0.40433802292E+04 0.  0.
        3    1    3    3  502    0  0.76030578916E+03 -0.10455507549E+04  0.18076232422E+04  0.22223282993E+04  0.10100000352E+00 0.  1.
       -3    1    3    3    0  502 -0.76030578916E+03  0.10455507549E+04 -0.13232902705E+04  0.18499563304E+04  0.10100000352E+00 0. -1.
</event>
<event>
 5   0  0.8528625E-08  0.3660200E+04  0.7818609E-02  0.8076840E-01
        1   -1    0    0  501    0  0.00000000000E+00  0.00000000000E+00  0.11109655496E+04  0.11109655496E+04  0.50400001928E-02 0. -1.
       -1   -1    0    0    0  501  0.00000000000E+00  0.00000000000E+00 -0.30147350063E+04  0.30147350063E+04  0.50400001928E-02 0.  1.
    10030    2    1    2    0    0  0.00000000000E+00  0.00000000000E+00 -0.19037694567E+04  0.41257005559E+04  0.36602003951E+04 0.  0.
        3    1    3    3  502    0 -0.33645011096E+03  0.46044254978E+03  0.10082597903E+04  0.11583582493E+04  0.10100000352E+00 0. -1.
       -3    1    3    3    0  502  0.33645011096E+03 -0.46044254978E+03 -0.29120292470E+04  0.29673423066E+04  0.10100000352E+00 0.  1.
</event>
<event>
 5   0  0.2839279E-07  0.4018618E+04  0.7818609E-02  0.8000801E-01
        2   -1    0    0  501    0  0.00000000000E+00  0.00000000000E+00  0.27745569151E+04  0.27745569151E+04  0.25500000920E-02 0.  1.
       -2   -1    0    0    0  501  0.00000000000E+00  0.00000000000E+00 -0.14551237011E+04  0.14551237011E+04  0.25500000920E-02 0. -1.
    10030    2    1    2    0    0  0.00000000000E+00  0.00000000000E+00  0.13194332140E+04  0.42296806162E+04  0.40186184329E+04 0.  0.
        3    1    3    3  502    0 -0.16553909565E+03  0.19183682770E+04  0.55287666547E+02  0.19262909372E+04  0.10100000352E+00 0.  1.
       -3    1    3    3    0  502  0.16553909565E+03 -0.19183682770E+04  0.12641455475E+04  0.23033896791E+04  0.10100000352E+00 0. -1.
</event>
<event>
 5   0  0.2704088E-07  0.4007518E+04  0.7818609E-02  0.8003032E-01
       -2   -1    0    0    0  501  0.00000000000E+00  0.00000000000E+00  0.20752428260E+04  0.20752428260E+04  0.25500000920E-02 0. -1.
        2   -1    0    0  501    0  0.00000000000E+00  0.00000000000E+00 -0.19347371786E+04  0.19347371786E+04  0.25500000920E-02 0.  1.
    10030    2    1    2    0    0  0.00000000000E+00  0.00000000000E+00  0.14050564737E+03  0.40099800045E+04  0.40075176606E+04 0.  0.
        5    1    3    3  502    0 -0.36709460733E+02 -0.18300191720E+04 -0.74554537035E+03  0.19764052579E+04  0.46999998093E+01 0.  1.
       -5    1    3    3    0  502  0.36709460733E+02  0.18300191720E+04  0.88605101771E+03  0.20335747466E+04  0.46999998093E+01 0. -1.
</event>
<event>
 5   0  0.8528625E-08  0.4007996E+04  0.7818609E-02  0.8002935E-01
       -3   -1    0    0    0  501  0.00000000000E+00  0.00000000000E+00  0.16840834554E+04  0.16840834584E+04  0.10100000352E+00 0.  1.
        3   -1    0    0  501    0  0.00000000000E+00  0.00000000000E+00 -0.23846843969E+04  0.23846843990E+04  0.10100000352E+00 0. -1.
    10030    2    1    2    0    0  0.00000000000E+00  0.00000000000E+00 -0.70060094146E+03  0.40687678575E+04  0.40079957833E+04 0.  0.
        1    1    3    3  502    0 -0.33834535103E+03 -0.17022749390E+04  0.66678415503E+03  0.18592521760E+04  0.50400001928E-02 0.  1.
       -1    1    3    3    0  502  0.33834535103E+03  0.17022749390E+04 -0.13673850965E+04  0.22095156815E+04  0.50400001928E-02 0. -1.
</event>
<event>
 5   0  0.2661693E-07  0.3564631E+04  0.7818609E-02  0.8098642E-01
        2   -1    0    0  501    0  0.00000000000E+00  0.00000000000E+00  0.22862442213E+04  0.22862442213E+04  0.25500000920E-02 0. -1.
       -2   -1    0    0    0  501  0.00000000000E+00  0.00000000000E+00 -0.13894613418E+04  0.13894613418E+04  0.25500000920E-02 0.  1.
    10030    2    1    2    0    0  0.00000000000E+00  0.00000000000E+00  0.89678287956E+03  0.36757055631E+04  0.35646306756E+04 0.  0.
        1    1    3    3  502    0 -0.80529951892E+03  0.10054558619E+04 -0.82173650705E+03  0.15279724122E+04  0.50400001928E-02 0.  1.
       -1    1    3    3    0  502  0.80529951892E+03 -0.10054558619E+04  0.17185193866E+04  0.21477331509E+04  0.50400001928E-02 0. -1.
</event>
<event>
 5   0  0.8583262E-08  0.3980704E+04  0.7818609E-02  0.8008450E-01
        1   -1    0    0  501    0  0.00000000000E+00  0.00000000000E+00  0.27428551832E+04  0.27428551832E+04  0.50400001928E-02 0. -1.
       -1   -1    0    0    0  501  0.00000000000E+00  0.00000000000E+00 -0.14442984833E+04  0.14442984834E+04  0.50400001928E-02 0.  1.
    10030    2    1    2    0    0  0.00000000000E+00  0.00000000000E+00  0.12985566999E+04  0.41871536666E+04  0.39807042498E+04 0.  0.
        1    1    3    3  502    0 -0.14562949221E+04  0.65096093196E+03 -0.60281656870E+03  0.17052662111E+04  0.50400001928E-02 0.  1.
       -1    1    3    3    0  502  0.14562949221E+04 -0.65096093196E+03  0.19013732686E+04  0.24818874555E+04  0.50400001928E-02 0. -1.
</event>
<event>
 5   0  0.2839279E-07  0.3991957E+04  0.7818609E-02  0.8006171E-01
        2   -1    0    0  501    0  0.00000000000E+00  0.00000000000E+00  0.21253013696E+04  0.21253013696E+04  0.25500000920E-02 0.  1.
       -2   -1    0    0    0  501  0.00000000000E+00  0.00000000000E+00 -0.18745246397E+04  0.18745246397E+04  0.25500000920E-02 0. -1.
    10030    2    1    2    0    0  0.00000000000E+00  0.00000000000E+00  0.25077672990E+03  0.39998260093E+04  0.39919568054E+04 0.  0.
        3    1    3    3  502    0 -0.49961688755E+03  0.18993781698E+04 -0.23122798498E+03  0.19775542616E+04  0.10100000352E+00 0.  1.
       -3    1    3    3    0  502  0.49961688755E+03 -0.18993781698E+04  0.48200471488E+03  0.20222717477E+04  0.10100000352E+00 0. -1.
</event>
<event>
 5   0  0.2666978E-07  0.3690458E+04  0.7818609E-02  0.8070080E-01
       -2   -1    0    0    0  501  0.00000000000E+00  0.00000000000E+00  0.17284974398E+04  0.17284974398E+04  0.25500000920E-02 0. -1.
        2   -1    0    0  501    0  0.00000000000E+00  0.00000000000E+00 -0.19698438051E+04  0.19698438051E+04  0.25500000920E-02 0.  1.
    10030    2    1    2    0    0  0.00000000000E+00  0.00000000000E+00 -0.24134636531E+03  0.36983412449E+04  0.36904579520E+04 0.  0.
        4    1    3    3  502    0  0.44780937105E+02 -0.47046909419E+02 -0.19686974207E+04  0.19697689943E+04  0.12699999809E+01 0.  1.
       -4    1    3    3    0  502 -0.44780937105E+02  0.47046909419E+02  0.17273510554E+04  0.17285722505E+04  0.12699999809E+01 0. -1.
</event>
<event>
 5   0  0.2730801E-07  0.3489842E+04  0.7818609E-02  0.8116201E-01
       -2   -1    0    0    0  501  0.00000000000E+00  0.00000000000E+00  0.13530436080E+04  0.13530436080E+04  0.25500000920E-02 0.  1.
        2   -1    0    0  501    0  0.00000000000E+00  0.00000000000E+00 -0.22502969602E+04  0.22502969602E+04  0.25500000920E-02 0. -1.
    10030    2    1    2    0    0  0.00000000000E+00  0.00000000000E+00 -0.89725335222E+03  0.36033405682E+04  0.34898423564E+04 0.  0.
        2    1    3    3  502    0  0.13079337953E+04  0.59744499747E+03  0.57201462311E+03  0.15475244964E+04  0.25500000920E-02 0.  1.
       -2    1    3    3    0  502 -0.13079337953E+04 -0.59744499747E+03 -0.14692679753E+04  0.20558160718E+04  0.25500000920E-02 0. -1.
</event>
<event>
 5   0  0.2730801E-07  0.3991838E+04  0.7818609E-02  0.8006195E-01
       -2   -1    0    0    0  501  0.00000000000E+00  0.00000000000E+00  0.11929274455E+04  0.11929274455E+04  0.25500000920E-02 0.  1.
        2   -1    0    0  501    0  0.00000000000E+00  0.00000000000E+00 -0.33394255885E+04  0.33394255885E+04  0.25500000920E-02 0. -1.
    10030    2    1    2    0    0  0.00000000000E+00  0.00000000000E+00 -0.21464981430E+04  0.45323530340E+04  0.39918378909E+04 0.  0.
        2    1    3    3  502    0  0.18292750187E+04  0.73058316167E+03 -0.14388664096E+04  0.24393309318E+04  0.25500000920E-02 0.  1.
       -2    1    3    3    0  502 -0.18292750187E+04 -0.73058316167E+03 -0.70763173339E+03  0.20930221022E+04  0.25500000920E-02 0. -1.
</event>
<event>
 5   0  0.2661693E-07  0.3993173E+04  0.7818609E-02  0.8005925E-01
       -2   -1    0    0    0  501  0.00000000000E+00  0.00000000000E+00  0.17478472802E+04  0.17478472802E+04  0.25500000920E-02 0.  1.
        2   -1    0    0  501    0  0.00000000000E+00  0.00000000000E+00 -0.22807237458E+04  0.22807237458E+04  0.25500000920E-02 0. -1.
    10030    2    1    2    0    0  0.00000000000E+00  0.00000000000E+00 -0.53287646564E+03  0.40285710260E+04  0.39931725712E+04 0.  0.
        1    1    3    3  502    0 -0.90425980845E+03 -0.40504085881E+03 -0.20151861456E+04  0.22455999421E+04  0.50400001928E-02 0. -1.
       -1    1    3    3    0  502  0.90425980845E+03  0.40504085881E+03  0.14823096800E+04  0.17829710839E+04  0.50400001928E-02 0.  1.
</event>
<event>
 5   0  0.8528625E-08  0.3988044E+04  0.7818609E-02  0.8006963E-01
        3   -1    0    0  501    0  0.00000000000E+00  0.00000000000E+00  0.32209826473E+04  0.32209826489E+04  0.10100000352E+00 0.  1.
       -3   -1    0    0    0  501  0.00000000000E+00  0.00000000000E+00 -0.12344440513E+04  0.12344440555E+04  0.10100000352E+00 0. -1.
    10030    2    1    2    0    0  0.00000000000E+00  0.00000000000E+00  0.19865385959E+04  0.44554267043E+04  0.39880435711E+04 0.  0.
        1    1    3    3  502    0  0.51799341494E+03  0.87725640194E+03 -0.92174523818E+03  0.13738668992E+04  0.50400001928E-02 0. -1.
       -1    1    3    3    0  502 -0.51799341494E+03 -0.87725640194E+03  0.29082838341E+04  0.30815598051E+04  0.50400001928E-02 0.  1.
</event>
<event>
 5   0  0.8583262E-08  0.3944562E+04  0.7818609E-02  0.8015825E-01
        1   -1    0    0  501    0  0.00000000000E+00  0.00000000000E+00  0.16197590135E+04  0.16197590135E+04  0.50400001928E-02 0.  1.
       -1   -1    0    0    0  501  0.00000000000E+00  0.00000000000E+00 -0.24015248155E+04  0.24015248155E+04  0.50400001928E-02 0. -1.
    10030    2    1    2    0    0  0.00000000000E+00  0.00000000000E+00 -0.78176580195E+03  0.40212838290E+04  0.39445615554E+04 0.  0.
        1    1    3    3  502    0  0.33112597421E+03 -0.15452431829E+01  0.15912188468E+04  0.16253074223E+04  0.50400001928E-02 0.  1.
       -1    1    3    3    0  502 -0.33112597421E+03  0.15452431829E+01 -0.23729846487E+04  0.23959764067E+04  0.50400001928E-02 0. -1.
</event>
<event>
 5   0  0.2661693E-07  0.4029571E+04  0.7818609E-02  0.7998608E-01
       -2   -1    0    0    0  501  0.00000000000E+00  0.00000000000E+00  0.14288599855E+04  0.14288599855E+04  0.25500000920E-02 0. -1.
        2   -1    0    0  501    0  0.00000000000E+00  0.00000000000E+00 -0.28409789890E+04  0.28409789890E+04  0.25500000920E-02 0.  1.
    10030    2    1    2    0    0  0.00000000000E+00  0.00000000000E+00 -0.14121190035E+04  0.42698389745E+04  0.40295712908E+04 0.  0.
        1    1    3    3  502    0 -0.59368906517E+03 -0.97748752853E+03 -0.24637018833E+04  0.27162060939E+04  0.50400001928E-02 0.  1.
       -1    1    3    3    0  502  0.59368906517E+03  0.97748752853E+03  0.10515828798E+04  0.15536328806E+04  0.50400001928E-02 0. -1.
</event>
<event>
 5   0  0.8528625E-08  0.2951649E+04  0.7818609E-02  0.8257674E-01
        1   -1    0    0  501    0  0.00000000000E+00  0.00000000000E+00  0.30815553401E+04  0.30815553401E+04  0.50400001928E-02 0.  1.
       -1   -1    0    0    0  501  0.00000000000E+00  0.00000000000E+00 -0.70680476121E+03  0.70680476123E+03  0.50400001928E-02 0. -1.
    10030    2    1    2    0    0  0.00000000000E+00  0.00000000000E+00  0.23747505789E+04  0.37883601013E+04  0.29516490214E+04 0.  0.
        2    1    3    3  502    0 -0.93941231112E+03  0.32198829204E+02 -0.27292403115E+03  0.97878484953E+03  0.25500000920E-02 0. -1.
       -2    1    3    3    0  502  0.93941231112E+03 -0.32198829204E+02  0.26476746100E+04  0.28095752518E+04  0.25500000920E-02 0.  1.
</event>
<event>
 5   0  0.8528625E-08  0.4055448E+04  0.7818609E-02  0.7993453E-01
        1   -1    0    0  501    0  0.00000000000E+00  0.00000000000E+00  0.26153747273E+04  0.26153747273E+04  0.50400001928E-02 0. -1.
       -1   -1    0    0    0  501  0.00000000000E+00  0.00000000000E+00 -0.15721130397E+04  0.15721130397E+04  0.50400001928E-02 0.  1.
    10030    2    1    2    0    0  0.00000000000E+00  0.00000000000E+00  0.10432616876E+04  0.41874877670E+04  0.40554480455E+04 0.  0.
        5    1    3    3  502    0  0.55509957730E+00 -0.10238429190E+04  0.23288703518E+04  0.25439956440E+04  0.46999998093E+01 0. -1.
       -5    1    3    3    0  502 -0.55509957730E+00  0.10238429190E+04 -0.12856086642E+04  0.16434921230E+04  0.46999998093E+01 0.  1.
</event>
<event>
 5   0  0.8528625E-08  0.3939818E+04  0.7818609E-02  0.8016798E-01
        1   -1    0    0  501    0  0.00000000000E+00  0.00000000000E+00  0.19359275955E+04  0.19359275955E+04  0.50400001928E-02 0.  1.
       -1   -1    0    0    0  501  0.00000000000E+00  0.00000000000E+00 -0.20044866394E+04  0.20044866394E+04  0.50400001928E-02 0. -1.
    10030    2    1    2    0    0  0.00000000000E+00  0.00000000000E+00 -0.68559043875E+02  0.39404142350E+04  0.39398177624E+04 0.  0.
        4    1    3    3  502    0  0.21538258415E+03  0.13820068307E+03  0.19192315620E+04  0.19362180889E+04  0.12699999809E+01 0.  1.
       -4    1    3    3    0  502 -0.21538258415E+03 -0.13820068307E+03 -0.19877906058E+04  0.20041961461E+04  0.12699999809E+01 0. -1.
</event>
<event>
 5   0  0.2661693E-07  0.4094237E+04  0.7818609E-02  0.7985801E-01
        2   -1    0    0  501    0  0.00000000000E+00  0.00000000000E+00  0.21470684113E+04  0.21470684113E+04  0.25500000920E-02 0.  1.
       -2   -1    0    0    0  501  0.00000000000E+00  0.00000000000E+00 -0.19518218565E+04  0.19518218565E+04  0.25500000920E-02 0. -1.
    10030    2    1    2    0    0  0.00000000000E+00  0.00000000000E+00  0.19524655480E+03  0.40988902678E+04  0.40942374394E+04 0.  0.
        1    1    3    3  502    0 -0.10989442054E+04  0.15135978072E+04 -0.73521054086E+03  0.20097739246E+04  0.50400001928E-02 0. -1.
       -1    1    3    3    0  502  0.10989442054E+04 -0.15135978072E+04  0.93045709567E+03  0.20891163432E+04  0.50400001928E-02 0.  1.
</event>
<event>
 5   0  0.8528625E-08  0.3986202E+04  0.7818609E-02  0.8007336E-01
        1   -1    0    0  501    0  0.00000000000E+00  0.00000000000E+00  0.21507578615E+04  0.21507578615E+04  0.50400001928E-02 0.  1.
       -1   -1    0    0    0  501  0.00000000000E+00  0.00000000000E+00 -0.18470004235E+04  0.18470004236E+04  0.50400001928E-02 0. -1.
    10030    2    1    2    0    0  0.00000000000E+00  0.00000000000E+00  0.30375743798E+03  0.39977582851E+04  0.39862015409E+04 0.  0.
        2    1    3    3  502    0 -0.36806925685E+03 -0.92773835794E+03 -0.15783119723E+04  0.18674158939E+04  0.25500000920E-02 0. -1.
       -2    1    3    3    0  502  0.36806925685E+03  0.92773835794E+03  0.18820694103E+04  0.21303423912E+04  0.25500000920E-02 0.  1.
</event>
<event>
 5   0  0.8528625E-08  0.3981991E+04  0.7818609E-02  0.8008189E-01
        1   -1    0    0  501    0  0.00000000000E+00  0.00000000000E+00  0.23825269665E+04  0.23825269665E+04  0.50400001928E-02 0. -1.
       -1   -1    0    0    0  501  0.00000000000E+00  0.00000000000E+00 -0.16638065080E+04  0.16638065080E+04  0.50400001928E-02 0.  1.
    10030    2    1    2    0    0  0.00000000000E+00  0.00000000000E+00  0.71872045848E+03  0.40463334745E+04  0.39819913974E+04 0.  0.
        5    1    3    3  502    0  0.10243605818E+03 -0.85227871341E+03 -0.14660994781E+04  0.16989237538E+04  0.46999998093E+01 0.  1.
       -5    1    3    3    0  502 -0.10243605818E+03  0.85227871341E+03  0.21848199366E+04  0.23474097207E+04  0.46999998093E+01 0. -1.
</event>
<event>
 5   0  0.8528625E-08  0.3992253E+04  0.7818609E-02  0.8006111E-01
        1   -1    0    0  501    0  0.00000000000E+00  0.00000000000E+00  0.13067700799E+04  0.13067700799E+04  0.50400001928E-02 0.  1.
       -1   -1    0    0    0  501  0.00000000000E+00  0.00000000000E+00 -0.30491368338E+04  0.30491368338E+04  0.50400001928E-02 0. -1.
    10030    2    1    2    0    0  0.00000000000E+00  0.00000000000E+00 -0.17423667539E+04  0.43559069136E+04  0.39922528897E+04 0.  0.
        5    1    3    3  502    0 -0.67152721192E+03 -0.14067169509E+04 -0.22316361522E+04  0.27221358126E+04  0.46999998093E+01 0. -1.
       -5    1    3    3    0  502  0.67152721192E+03  0.14067169509E+04  0.48926939836E+03  0.16337711010E+04  0.46999998093E+01 0.  1.
</event>
<event>
 5   0  0.2661693E-07  0.4094491E+04  0.7818609E-02  0.7985751E-01
       -2   -1    0    0    0  501  0.00000000000E+00  0.00000000000E+00  0.24245757697E+04  0.24245757697E+04  0.25500000920E-02 0. -1.
        2   -1    0    0  501    0  0.00000000000E+00  0.00000000000E+00 -0.17286378054E+04  0.17286378054E+04  0.25500000920E-02 0.  1.
    10030    2    1    2    0    0  0.00000000000E+00  0.00000000000E+00  0.69593796432E+03  0.41532135751E+04  0.40944906094E+04 0.  0.
        1    1    3    3  502    0  0.11718392518E+04 -0.62963566168E+03  0.19264248882E+04  0.23411025497E+04  0.50400001928E-02 0. -1.
       -1    1    3    3    0  502 -0.11718392518E+04  0.62963566168E+03 -0.12304869239E+04  0.18121110254E+04  0.50400001928E-02 0.  1.
</event>
<event>
 5   0  0.8528625E-08  0.3996101E+04  0.7818609E-02  0.8005334E-01
       -1   -1    0    0    0  501  0.00000000000E+00  0.00000000000E+00  0.14752432336E+04  0.14752432336E+04  0.50400001928E-02 0.  1.
        1   -1    0    0  501    0  0.00000000000E+00  0.00000000000E+00 -0.27061340862E+04  0.27061340862E+04  0.50400001928E-02 0. -1.
    10030    2    1    2    0    0  0.00000000000E+00  0.00000000000E+00 -0.12308908526E+04  0.41813773198E+04  0.39961010997E+04 0.  0.
        5    1    3    3  502    0  0.12449512788E+04  0.30347169038E+03  0.98866378087E+03  0.16184798161E+04  0.46999998093E+01 0.  1.
       -5    1    3    3    0  502 -0.12449512788E+04 -0.30347169038E+03 -0.22195546335E+04  0.25628975037E+04  0.46999998093E+01 0. -1.
</event>
<event>
 5   0  0.2730801E-07  0.4020759E+04  0.7818609E-02  0.8000372E-01
       -2   -1    0    0    0  501  0.00000000000E+00  0.00000000000E+00  0.19527196007E+04  0.19527196007E+04  0.25500000920E-02 0.  1.
        2   -1    0    0  501    0  0.00000000000E+00  0.00000000000E+00 -0.20697424381E+04  0.20697424381E+04  0.25500000920E-02 0. -1.
    10030    2    1    2    0    0  0.00000000000E+00  0.00000000000E+00 -0.11702283742E+03  0.40224620387E+04  0.40207594443E+04 0.  0.
        2    1    3    3  502    0 -0.50077450588E+03  0.18418231750E+04  0.57305529048E+03  0.19928572653E+04  0.25500000920E-02 0.  1.
       -2    1    3    3    0  502  0.50077450588E+03 -0.18418231750E+04 -0.69007812790E+03  0.20296047735E+04  0.25500000920E-02 0. -1.
</event>
<event>
 5   0  0.8528625E-08  0.3991060E+04  0.7818609E-02  0.8006353E-01
       -1   -1    0    0    0  501  0.00000000000E+00  0.00000000000E+00  0.20079259378E+04  0.20079259378E+04  0.50400001928E-02 0. -1.
        1   -1    0    0  501    0  0.00000000000E+00  0.00000000000E+00 -0.19832101622E+04  0.19832101622E+04  0.50400001928E-02 0.  1.
    10030    2    1    2    0    0  0.00000000000E+00  0.00000000000E+00  0.24715775604E+02  0.39911361000E+04  0.39910595710E+04 0.  0.
        2    1    3    3  502    0 -0.11503426122E+04 -0.12398886276E+04 -0.10466842273E+04  0.19890097552E+04  0.25500000920E-02 0.  1.
       -2    1    3    3    0  502  0.11503426122E+04  0.12398886276E+04  0.10714000029E+04  0.20021263448E+04  0.25500000920E-02 0. -1.
</event>
<event>
 5   0  0.2704088E-07  0.3053806E+04  0.7818609E-02  0.8228531E-01
        2   -1    0    0  501    0  0.00000000000E+00  0.00000000000E+00  0.14701827225E+04  0.14701827225E+04  0.25500000920E-02 0.  1.
       -2   -1    0    0    0  501  0.00000000000E+00  0.00000000000E+00 -0.15858117370E+04  0.15858117370E+04  0.25500000920E-02 0. -1.
    10030    2    1    2    0    0  0.00000000000E+00  0.00000000000E+00 -0.11562901453E+03  0.30559944594E+04  0.30538061607E+04 0.  0.
        5    1    3    3  502    0 -0.50004495578E+03  0.10288766167E+04  0.95423549598E+03  0.14897045083E+04  0.46999998093E+01 0.  1.
       -5    1    3    3    0  502  0.50004495578E+03 -0.10288766167E+04 -0.10698645105E+04  0.15662899512E+04  0.46999998093E+01 0. -1.
</event>
<event>
 5   0  0.2666978E-07  0.3860160E+04  0.7818609E-02  0.8033367E-01
       -2   -1    0    0    0  501  0.00000000000E+00  0.00000000000E+00  0.27786488697E+04  0.27786488697E+04  0.25500000920E-02 0.  1.
        2   -1    0    0  501    0  0.00000000000E+00  0.00000000000E+00 -0.13406548621E+04  0.13406548621E+04  0.25500000920E-02 0. -1.
    10030    2    1    2    0    0  0.00000000000E+00  0.00000000000E+00  0.14379940077E+04  0.41193037318E+04  0.38601601610E+04 0.  0.
        4    1    3    3  502    0 -0.60655292744E+03 -0.10670206000E+04  0.23085479308E+04  0.26145429001E+04  0.12699999809E+01 0.  1.
       -4    1    3    3    0  502  0.60655292744E+03  0.10670206000E+04 -0.87055392314E+03  0.15047608317E+04  0.12699999809E+01 0. -1.
</event>
<event>
 5   0  0.2666978E-07  0.4063337E+04  0.7818609E-02  0.7991890E-01
       -2   -1    0    0    0  501  0.00000000000E+00  0.00000000000E+00  0.21514857557E+04  0.21514857557E+04  0.25500000920E-02 0.  1.
        2   -1    0    0  501    0  0.00000000000E+00  0.00000000000E+00 -0.19185239455E+04  0.19185239455E+04  0.25500000920E-02 0. -1.
    10030    2    1    2    0    0  0.00000000000E+00  0.00000000000E+00  0.23296181016E+03  0.40700097012E+04  0.40633370231E+04 0.  0.
        4    1    3    3  502    0 -0.12987483091E+03 -0.11652477456E+04 -0.15454621630E+04  0.19398774937E+04  0.12699999809E+01 0. -1.
       -4    1    3    3    0  502  0.12987483091E+03  0.11652477456E+04  0.17784239732E+04  0.21301322075E+04  0.12699999809E+01 0.  1.
</event>
<event>
 5   0  0.8528625E-08  0.4035652E+04  0.7818609E-02  0.7997393E-01
       -3   -1    0    0    0  501  0.00000000000E+00  0.00000000000E+00  0.21226446638E+04  0.21226446662E+04  0.10100000352E+00 0.  1.
        3   -1    0    0  501    0  0.00000000000E+00  0.00000000000E+00 -0.19181838486E+04  0.19181838512E+04  0.10100000352E+00 0. -1.
    10030    2    1    2    0    0  0.00000000000E+00  0.00000000000E+00  0.20446081525E+03  0.40408285175E+04  0.40356524730E+04 0.  0.
        3    1    3    3  502    0  0.10310974146E+04  0.12133157669E+04 -0.11388453871E+04  0.19576173923E+04  0.10100000352E+00 0. -1.
       -3    1    3    3    0  502 -0.10310974146E+04 -0.12133157669E+04  0.13433062024E+04  0.20832111252E+04  0.10100000352E+00 0.  1.
</event>
<event>
 5   0  0.8528625E-08  0.3916016E+04  0.7818609E-02  0.8021706E-01
        3   -1    0    0  501    0  0.00000000000E+00  0.00000000000E+00  0.21384753348E+04  0.21384753372E+04  0.10100000352E+00 0. -1.
       -3   -1    0    0    0  501  0.00000000000E+00  0.00000000000E+00 -0.17927706581E+04  0.17927706609E+04  0.10100000352E+00 0.  1.
    10030    2    1    2    0    0  0.00000000000E+00  0.00000000000E+00  0.34570467674E+03  0.39312459981E+04  0.39160162633E+04 0.  0.
        2    1    3    3  502    0  0.31475349793E+03  0.19094463406E+04 -0.12620005659E+03  0.19393250234E+04  0.25500000920E-02 0.  1.
       -2    1    3    3    0  502 -0.31475349793E+03 -0.19094463406E+04  0.47190473333E+03  0.19919209747E+04  0.25500000920E-02 0. -1.
</event>
<event>
 5   0  0.2666978E-07  0.4083162E+04  0.7818609E-02  0.7987977E-01
        2   -1    0    0  501    0  0.00000000000E+00  0.00000000000E+00  0.15461683615E+04  0.15461683615E+04  0.25500000920E-02 0. -1.
       -2   -1    0    0    0  501  0.00000000000E+00  0.00000000000E+00 -0.26957308002E+04  0.26957308002E+04  0.25500000920E-02 0.  1.
    10030    2    1    2    0    0  0.00000000000E+00  0.00000000000E+00 -0.11495624387E+04  0.42418991616E+04  0.40831623403E+04 0.  0.
        4    1    3    3  502    0  0.53381767772E+03  0.10916168148E+04 -0.22791278980E+04  0.25828306510E+04  0.12699999809E+01 0.  1.
       -4    1    3    3    0  502 -0.53381767772E+03 -0.10916168148E+04  0.11295654593E+04  0.16590685106E+04  0.12699999809E+01 0. -1.
</event>
<event>
 5   0  0.2704088E-07  0.4019228E+04  0.7818609E-02  0.8000679E-01
       -2   -1    0    0    0  501  0.00000000000E+00  0.00000000000E+00  0.14073251390E+04  0.14073251390E+04  0.25500000920E-02 0.  1.
        2   -1    0    0  501    0  0.00000000000E+00  0.00000000000E+00 -0.28696629490E+04  0.28696629490E+04  0.25500000920E-02 0. -1.
    10030    2    1    2    0    0  0.00000000000E+00  0.00000000000E+00 -0.14623378100E+04  0.42769880880E+04  0.40192281889E+04 0.  0.
        5    1    3    3  502    0 -0.16924525133E+03 -0.19422785867E+04 -0.12496933794E+04  0.23157818757E+04  0.46999998093E+01 0. -1.
       -5    1    3    3    0  502  0.16924525133E+03  0.19422785867E+04 -0.21264443059E+03  0.19612062123E+04  0.46999998093E+01 0.  1.
</event>
<event>
 5   0  0.8528625E-08  0.3984361E+04  0.7818609E-02  0.8007709E-01
       -1   -1    0    0    0  501  0.00000000000E+00  0.00000000000E+00  0.14032724784E+04  0.14032724784E+04  0.50400001928E-02 0. -1.
        1   -1    0    0  501    0  0.00000000000E+00  0.00000000000E+00 -0.28282336891E+04  0.28282336891E+04  0.50400001928E-02 0.  1.
    10030    2    1    2    0    0  0.00000000000E+00  0.00000000000E+00 -0.14249612106E+04  0.42315061675E+04  0.39843606757E+04 0.  0.
        5    1    3    3  502    0  0.12162579991E+03 -0.17549100420E+04  0.28053533391E+03  0.17813546122E+04  0.46999998093E+01 0. -1.
       -5    1    3    3    0  502 -0.12162579991E+03  0.17549100420E+04 -0.17054965445E+04  0.24501515553E+04  0.46999998093E+01 0.  1.
</event>
<event>
 5   0  0.2666978E-07  0.4038081E+04  0.7818609E-02  0.7996908E-01
        2   -1    0    0  501    0  0.00000000000E+00  0.00000000000E+00  0.26619720358E+04  0.26619720358E+04  0.25500000920E-02 0. -1.
       -2   -1    0    0    0  501  0.00000000000E+00  0.00000000000E+00 -0.15313925968E+04  0.15313925968E+04  0.25500000920E-02 0.  1.
    10030    2    1    2    0    0  0.00000000000E+00  0.00000000000E+00  0.11305794390E+04  0.41933646326E+04  0.40380808652E+04 0.  0.
        4    1    3    3  502    0  0.18514126695E+03  0.57845715418E+03  0.25648567504E+04  0.26357886355E+04  0.12699999809E+01 0. -1.
       -4    1    3    3    0  502 -0.18514126695E+03 -0.57845715418E+03 -0.14342773114E+04  0.15575759971E+04  0.12699999809E+01 0.  1.
</event>
<event>
 5   0  0.2661693E-07  0.3979678E+04  0.7818609E-02  0.8008659E-01
       -2   -1    0    0    0  501  0.00000000000E+00  0.00000000000E+00  0.15228482261E+04  0.15228482261E+04  0.25500000920E-02 0.  1.
        2   -1    0    0  501    0  0.00000000000E+00  0.00000000000E+00 -0.26000352997E+04  0.26000352997E+04  0.25500000920E-02 0. -1.
    10030    2    1    2    0    0  0.00000000000E+00  0.00000000000E+00 -0.10771870737E+04  0.41228835258E+04  0.39796779487E+04 0.  0.
        1    1    3    3  502    0 -0.10909254197E+04 -0.12824353782E+04 -0.16372743919E+04  0.23484944550E+04  0.50400001928E-02 0. -1.
       -1    1    3    3    0  502  0.10909254197E+04  0.12824353782E+04  0.56008731825E+03  0.17743890708E+04  0.50400001928E-02 0.  1.
</event>
<event>
 5   0  0.8528625E-08  0.4102872E+04  0.7818609E-02  0.7984110E-01
       -1   -1    0    0    0  501  0.00000000000E+00  0.00000000000E+00  0.22871212867E+04  0.22871212867E+04  0.50400001928E-02 0.  1.
        1   -1    0    0  501    0  0.00000000000E+00  0.00000000000E+00 -0.18400380660E+04  0.18400380660E+04  0.50400001928E-02 0. -1.
    10030    2    1    2    0    0  0.00000000000E+00  0.00000000000E+00  0.44708322072E+03  0.41271593527E+04  0.41028722764E+04 0.  0.
        3    1    3    3  502    0 -0.84567080562E+03 -0.47900034282E+03 -0.15937487762E+04  0.18667178715E+04  0.10100000352E+00 0. -1.
       -3    1    3    3    0  502  0.84567080562E+03  0.47900034282E+03  0.20408319969E+04  0.22604414812E+04  0.10100000352E+00 0.  1.
</event>
<event>
 5   0  0.2839279E-07  0.3933693E+04  0.7818609E-02  0.8018058E-01
       -2   -1    0    0    0  501  0.00000000000E+00  0.00000000000E+00  0.18922798192E+04  0.18922798192E+04  0.25500000920E-02 0. -1.
        2   -1    0    0  501    0  0.00000000000E+00  0.00000000000E+00 -0.20443513619E+04  0.20443513619E+04  0.25500000920E-02 0.  1.
    10030    2    1    2    0    0  0.00000000000E+00  0.00000000000E+00 -0.15207154264E+03  0.39366311811E+04  0.39336928327E+04 0.  0.
        3    1    3    3  502    0 -0.86453764502E+03  0.18722957785E+02 -0.18439081695E+04  0.20366082678E+04  0.10100000352E+00 0.  1.
       -3    1    3    3    0  502  0.86453764502E+03 -0.18722957785E+02  0.16918366269E+04  0.19000229133E+04  0.10100000352E+00 0. -1.
</event>
<event>
 5   0  0.8528625E-08  0.3977114E+04  0.7818609E-02  0.8009179E-01
       -1   -1    0    0    0  501  0.00000000000E+00  0.00000000000E+00  0.23766505702E+04  0.23766505702E+04  0.50400001928E-02 0. -1.
        1   -1    0    0  501    0  0.00000000000E+00  0.00000000000E+00 -0.16638365595E+04  0.16638365595E+04  0.50400001928E-02 0.  1.
    10030    2    1    2    0    0  0.00000000000E+00  0.00000000000E+00  0.71281401067E+03  0.40404871297E+04  0.39771135804E+04 0.  0.
        3    1    3    3  502    0 -0.13872930023E+04 -0.76977134884E+02 -0.10888829160E+04  0.17652686392E+04  0.10100000352E+00 0.  1.
       -3    1    3    3    0  502  0.13872930023E+04  0.76977134884E+02  0.18016969267E+04  0.22752184905E+04  0.10100000352E+00 0. -1.
</event>
<event>
 5   0  0.8528625E-08  0.3981567E+04  0.7818609E-02  0.8008275E-01
        1   -1    0    0  501    0  0.00000000000E+00  0.00000000000E+00  0.17998974712E+04  0.17998974712E+04  0.50400001928E-02 0.  1.
       -1   -1    0    0    0  501  0.00000000000E+00  0.00000000000E+00 -0.22019138778E+04  0.22019138778E+04  0.50400001928E-02 0. -1.
    10030    2    1    2    0    0  0.00000000000E+00  0.00000000000E+00 -0.40201640664E+03  0.40018113490E+04  0.39815671389E+04 0.  0.
        5    1    3    3  502    0 -0.14412520534E+04 -0.45062805018E+03  0.11028633827E+04  0.18699205470E+04  0.46999998093E+01 0.  1.
       -5    1    3    3    0  502  0.14412520534E+04  0.45062805018E+03 -0.15048797894E+04  0.21318908020E+04  0.46999998093E+01 0. -1.
</event>
<event>
 5   0  0.8583262E-08  0.3937986E+04  0.7818609E-02  0.8017175E-01
       -1   -1    0    0    0  501  0.00000000000E+00  0.00000000000E+00  0.19598572799E+04  0.19598572799E+04  0.50400001928E-02 0.  1.
        1   -1    0    0  501    0  0.00000000000E+00  0.00000000000E+00 -0.19781712973E+04  0.19781712973E+04  0.50400001928E-02 0. -1.
    10030    2    1    2    0    0  0.00000000000E+00  0.00000000000E+00 -0.18314017317E+02  0.39380285772E+04  0.39379859918E+04 0.  0.
        1    1    3    3  502    0  0.11137206116E+03  0.16184441856E+04  0.11067260634E+04  0.19638248133E+04  0.50400001928E-02 0.  1.
       -1    1    3    3    0  502 -0.11137206116E+03 -0.16184441856E+04 -0.11250400808E+04  0.19742037639E+04  0.50400001928E-02 0. -1.
</event>
<event>
 5   0  0.8583262E-08  0.3219275E+04  0.7818609E-02  0.8183745E-01
       -1   -1    0    0    0  501  0.00000000000E+00  0.00000000000E+00  0.10753544478E+04  0.10753544479E+04  0.50400001928E-02 0. -1.
        1   -1    0    0  501    0  0.00000000000E+00  0.00000000000E+00 -0.24093750870E+04  0.24093750870E+04  0.50400001928E-02 0.  1.
    10030    2    1    2    0    0  0.00000000000E+00  0.00000000000E+00 -0.13340206391E+04  0.34847295348E+04  0.32192745868E+04 0.  0.
        1    1    3    3  502    0 -0.11189685428E+03  0.10972402200E+04  0.60204195152E+03  0.12565474594E+04  0.50400001928E-02 0. -1.
       -1    1    3    3    0  502  0.11189685428E+03 -0.10972402200E+04 -0.19360625907E+04  0.22281820754E+04  0.50400001928E-02 0.  1.
</event>
<event>
 5   0  0.2839279E-07  0.3920595E+04  0.7818609E-02  0.8020759E-01
        2   -1    0    0  501    0  0.00000000000E+00  0.00000000000E+00  0.12776946278E+04  0.12776946278E+04  0.25500000920E-02 0.  1.
       -2   -1    0    0    0  501  0.00000000000E+00  0.00000000000E+00 -0.30075779301E+04  0.30075779301E+04  0.25500000920E-02 0. -1.
    10030    2    1    2    0    0  0.00000000000E+00  0.00000000000E+00 -0.17298833023E+04  0.42852725579E+04  0.39205949365E+04 0.  0.
        3    1    3    3  502    0  0.13195072041E+04 -0.13421370990E+04 -0.14639451728E+04  0.23844426462E+04  0.10100000352E+00 0. -1.
       -3    1    3    3    0  502 -0.13195072041E+04  0.13421370990E+04 -0.26593812953E+03  0.19008299117E+04  0.10100000352E+00 0.  1.
</event>
<event>
 5   0  0.8583262E-08  0.4016702E+04  0.7818609E-02  0.8001186E-01
       -1   -1    0    0    0  501  0.00000000000E+00  0.00000000000E+00  0.15783862621E+04  0.15783862621E+04  0.50400001928E-02 0. -1.
        1   -1    0    0  501    0  0.00000000000E+00  0.00000000000E+00 -0.25554418300E+04  0.25554418300E+04  0.50400001928E-02 0.  1.
    10030    2    1    2    0    0  0.00000000000E+00  0.00000000000E+00 -0.97705556792E+03  0.41338280922E+04  0.40167022684E+04 0.  0.
        1    1    3    3  502    0 -0.78585551954E+02 -0.15409110846E+04  0.83460965865E+03  0.17541824141E+04  0.50400001928E-02 0. -1.
       -1    1    3    3    0  502  0.78585551954E+02  0.15409110846E+04 -0.18116652266E+04  0.23796456780E+04  0.50400001928E-02 0.  1.
</event>
<event>
 5   0  0.8528625E-08  0.3998118E+04  0.7818609E-02  0.8004926E-01
        1   -1    0    0  501    0  0.00000000000E+00  0.00000000000E+00  0.27296300948E+04  0.27296300948E+04  0.50400001928E-02 0.  1.
       -1   -1    0    0    0  501  0.00000000000E+00  0.00000000000E+00 -0.14640214739E+04  0.14640214739E+04  0.50400001928E-02 0. -1.
    10030    2    1    2    0    0  0.00000000000E+00  0.00000000000E+00  0.12656086209E+04  0.41936515686E+04  0.39981180945E+04 0.  0.
        2    1    3    3  502    0  0.16642604262E+04  0.87599525936E+03 -0.77907447892E+02  0.18823389788E+04  0.25500000920E-02 0. -1.
       -2    1    3    3    0  502 -0.16642604262E+04 -0.87599525936E+03  0.13435160688E+04  0.23113125898E+04  0.25500000920E-02 0.  1.
</event>
<event>
 5   0  0.8528625E-08  0.4029315E+04  0.7818609E-02  0.7998659E-01
        1   -1    0    0  501    0  0.00000000000E+00  0.00000000000E+00  0.19473004191E+04  0.19473004191E+04  0.50400001928E-02 0.  1.
       -1   -1    0    0    0  501  0.00000000000E+00  0.00000000000E+00 -0.20843441350E+04  0.20843441350E+04  0.50400001928E-02 0. -1.
    10030    2    1    2    0    0  0.00000000000E+00  0.00000000000E+00 -0.13704371590E+03  0.40316445542E+04  0.40293146850E+04 0.  0.
        5    1    3    3  502    0  0.97757930335E+03 -0.34930385516E+03  0.16590765366E+04  0.19570977292E+04  0.46999998093E+01 0.  1.
       -5    1    3    3    0  502 -0.97757930335E+03  0.34930385516E+03 -0.17961202525E+04  0.20745468249E+04  0.46999998093E+01 0. -1.
</event>
<event>
 5   0  0.2666978E-07  0.4001826E+04  0.7818609E-02  0.8004178E-01
        2   -1    0    0  501    0  0.00000000000E+00  0.00000000000E+00  0.19027287047E+04  0.19027287047E+04  0.25500000920E-02 0. -1.
       -2   -1    0    0    0  501  0.00000000000E+00  0.00000000000E+00 -0.21041633118E+04  0.21041633118E+04  0.25500000920E-02 0.  1.
    10030    2    1    2    0    0  0.00000000000E+00  0.00000000000E+00 -0.20143460710E+03  0.40068920164E+04  0.40018255497E+04 0.  0.
        4    1    3    3  502    0  0.46939078098E+03  0.19194460645E+04  0.21440232350E+03  0.19876043040E+04  0.12699999809E+01 0. -1.
       -4    1    3    3    0  502 -0.46939078098E+03 -0.19194460645E+04 -0.41583693060E+03  0.20192877125E+04  0.12699999809E+01 0.  1.
</event>
<event>
 5   0  0.2839279E-07  0.3453556E+04  0.7818609E-02  0.8124886E-01
       -2   -1    0    0    0  501  0.00000000000E+00  0.00000000000E+00  0.11330739639E+04  0.11330739639E+04  0.25500000920E-02 0. -1.
        2   -1    0    0  501    0  0.00000000000E+00  0.00000000000E+00 -0.26315682815E+04  0.26315682815E+04  0.25500000920E-02 0.  1.
    10030    2    1    2    0    0  0.00000000000E+00  0.00000000000E+00 -0.14984943176E+04  0.37646422454E+04  0.34535555615E+04 0.  0.
        3    1    3    3  502    0 -0.44895920823E+03  0.12867822549E+04 -0.19051344041E+04  0.23424154308E+04  0.10100000352E+00 0.  1.
       -3    1    3    3    0  502  0.44895920823E+03 -0.12867822549E+04  0.40664008654E+03  0.14222268147E+04  0.10100000352E+00 0. -1.
</event>
<event>
 5   0  0.8583262E-08  0.4002233E+04  0.7818609E-02  0.8004096E-01
        1   -1    0    0  501    0  0.00000000000E+00  0.00000000000E+00  0.22061912922E+04  0.22061912922E+04  0.50400001928E-02 0.  1.
       -1   -1    0    0    0  501  0.00000000000E+00  0.00000000000E+00 -0.18151045633E+04  0.18151045633E+04  0.50400001928E-02 0. -1.
    10030    2    1    2    0    0  0.00000000000E+00  0.00000000000E+00  0.39108672892E+03  0.40212958555E+04  0.40022333176E+04 0.  0.
        1    1    3    3  502    0 -0.19410317286E+02 -0.16607232194E+04  0.13171439911E+04  0.21197279696E+04  0.50400001928E-02 0. -1.
       -1    1    3    3    0  502  0.19410317286E+02  0.16607232194E+04 -0.92605726219E+03  0.19015678859E+04  0.50400001928E-02 0.  1.
</event>
<event>
 5   0  0.8528625E-08  0.3867620E+04  0.7818609E-02  0.8031798E-01
       -1   -1    0    0    0  501  0.00000000000E+00  0.00000000000E+00  0.16994266900E+04  0.16994266900E+04  0.50400001928E-02 0.  1.
        1   -1    0    0  501    0  0.00000000000E+00  0.00000000000E+00 -0.22005192276E+04  0.22005192276E+04  0.50400001928E-02 0. -1.
    10030    2    1    2    0    0  0.00000000000E+00  0.00000000000E+00 -0.50109253765E+03  0.38999459176E+04  0.38676199954E+04 0.  0.
        2    1    3    3  502    0 -0.55470800279E+03 -0.16280973913E+04  0.64070711713E+03  0.18354584424E+04  0.25500000920E-02 0.  1.
       -2    1    3    3    0  502  0.55470800279E+03  0.16280973913E+04 -0.11417996548E+04  0.20644874752E+04  0.25500000920E-02 0. -1.
</event>
<event>
 5   0  0.8528625E-08  0.3978953E+04  0.7818609E-02  0.8008806E-01
       -1   -1    0    0    0  501  0.00000000000E+00  0.00000000000E+00  0.21643605407E+04  0.21643605407E+04  0.50400001928E-02 0.  1.
        1   -1    0    0  501    0  0.00000000000E+00  0.00000000000E+00 -0.18287233514E+04  0.18287233514E+04  0.50400001928E-02 0. -1.
    10030    2    1    2    0    0  0.00000000000E+00  0.00000000000E+00  0.33563718926E+03  0.39930838921E+04  0.39789529586E+04 0.  0.
        4    1    3    3  502    0 -0.14788552420E+03 -0.74099153435E+03 -0.16791186131E+04  0.18412983224E+04  0.12699999809E+01 0. -1.
       -4    1    3    3    0  502  0.14788552420E+03  0.74099153435E+03  0.20147558024E+04  0.21517855698E+04  0.12699999809E+01 0.  1.
</event>
<event>
 5   0  0.8528625E-08  0.4037485E+04  0.7818609E-02  0.7997027E-01
        1   -1    0    0  501    0  0.00000000000E+00  0.00000000000E+00  0.14928826840E+04  0.14928826840E+04  0.50400001928E-02 0. -1.
       -1   -1    0    0    0  501  0.00000000000E+00  0.00000000000E+00 -0.27298333625E+04  0.27298333626E+04  0.50400001928E-02 0.  1.
    10030    2    1    2    0    0  0.00000000000E+00  0.00000000000E+00 -0.12369506785E+04  0.42227160466E+04  0.40374848394E+04 0.  0.
        3    1    3    3  502    0 -0.56620606042E+03 -0.45529159020E+03  0.13513992481E+04  0.15343271075E+04  0.10100000352E+00 0. -1.
       -3    1    3    3    0  502  0.56620606042E+03  0.45529159020E+03 -0.25883499266E+04  0.26883889391E+04  0.10100000352E+00 0.  1.
</event>
<event>
 5   0  0.8583262E-08  0.4007388E+04  0.7818609E-02  0.8003058E-01
       -1   -1    0    0    0  501  0.00000000000E+00  0.00000000000E+00  0.26666665319E+04  0.26666665319E+04  0.50400001928E-02 0.  1.
        1   -1    0    0  501    0  0.00000000000E+00  0.00000000000E+00 -0.15055462398E+04  0.15055462398E+04  0.50400001928E-02 0. -1.
    10030    2    1    2    0    0  0.00000000000E+00  0.00000000000E+00  0.11611202922E+04  0.41722127717E+04  0.40073880620E+04 0.  0.
        1    1    3    3  502    0 -0.47819536568E+03  0.13199865020E+03 -0.14405992372E+04  0.15236208891E+04  0.50400001928E-02 0. -1.
       -1    1    3    3    0  502  0.47819536568E+03 -0.13199865020E+03  0.26017195293E+04  0.26485918826E+04  0.50400001928E-02 0.  1.
</event>
<event>
 5   0  0.2666978E-07  0.3397132E+04  0.7818609E-02  0.8138611E-01
        2   -1    0    0  501    0  0.00000000000E+00  0.00000000000E+00  0.11589141647E+04  0.11589141647E+04  0.25500000920E-02 0. -1.
       -2   -1    0    0    0  501  0.00000000000E+00  0.00000000000E+00 -0.24895075914E+04  0.24895075914E+04  0.25500000920E-02 0.  1.
    10030    2    1    2    0    0  0.00000000000E+00  0.00000000000E+00 -0.13305934267E+04  0.36484217561E+04  0.33971315021E+04 0.  0.
        4    1    3    3  502    0  0.48595664655E+03  0.46545263938E+03 -0.23402526581E+04  0.24350737440E+04  0.12699999809E+01 0.  1.
       -4    1    3    3    0  502 -0.48595664655E+03 -0.46545263938E+03  0.10096592314E+04  0.12133480121E+04  0.12699999809E+01 0. -1.
</event>
<event>
 5   0  0.2666978E-07  0.3104886E+04  0.7818609E-02  0.8214398E-01
       -2   -1    0    0    0  501  0.00000000000E+00  0.00000000000E+00  0.15296888960E+04  0.15296888960E+04  0.25500000920E-02 0.  1.
        2   -1    0    0  501    0  0.00000000000E+00  0.00000000000E+00 -0.15755356759E+04  0.15755356759E+04  0.25500000920E-02 0. -1.
    10030    2    1    2    0    0  0.00000000000E+00  0.00000000000E+00 -0.45846779841E+02  0.31052245719E+04  0.31048861034E+04 0.  0.
        4    1    3    3  502    0 -0.58872364099E+03  0.18420104477E+03  0.14018554627E+04  0.15315762801E+04  0.12699999809E+01 0.  1.
       -4    1    3    3    0  502  0.58872364099E+03 -0.18420104477E+03 -0.14477022426E+04  0.15736482919E+04  0.12699999809E+01 0. -1.
</event>
<event>
 5   0  0.8528625E-08  0.3990230E+04  0.7818609E-02  0.8006520E-01
       -1   -1    0    0    0  501  0.00000000000E+00  0.00000000000E+00  0.20538394330E+04  0.20538394330E+04  0.50400001928E-02 0.  1.
        1   -1    0    0  501    0  0.00000000000E+00  0.00000000000E+00 -0.19380694701E+04  0.19380694701E+04  0.50400001928E-02 0. -1.
    10030    2    1    2    0    0  0.00000000000E+00  0.00000000000E+00  0.11576996298E+03  0.39919089031E+04  0.39902298187E+04 0.  0.
        3    1    3    3  502    0 -0.43565342567E+01 -0.75336045692E+03 -0.17902993811E+04  0.19423549731E+04  0.10100000352E+00 0. -1.
       -3    1    3    3    0  502  0.43565342567E+01  0.75336045692E+03  0.19060693441E+04  0.20495539300E+04  0.10100000352E+00 0.  1.
</event>
<event>
 5   0  0.8528625E-08  0.3976136E+04  0.7818609E-02  0.8009378E-01
        1   -1    0    0  501    0  0.00000000000E+00  0.00000000000E+00  0.18653555898E+04  0.18653555898E+04  0.50400001928E-02 0.  1.
       -1   -1    0    0    0  501  0.00000000000E+00  0.00000000000E+00 -0.21188534565E+04  0.21188534565E+04  0.50400001928E-02 0. -1.
    10030    2    1    2    0    0  0.00000000000E+00  0.00000000000E+00 -0.25349786665E+03  0.39842090463E+04  0.39761363855E+04 0.  0.
        4    1    3    3  502    0 -0.88102837815E+03 -0.43466971951E+03 -0.18586285554E+04  0.21022964795E+04  0.12699999809E+01 0. -1.
       -4    1    3    3    0  502  0.88102837815E+03  0.43466971951E+03  0.16051306887E+04  0.18819125668E+04  0.12699999809E+01 0.  1.
</event>
<event>
 5   0  0.2666978E-07  0.4029803E+04  0.7818609E-02  0.7998561E-01
       -2   -1    0    0    0  501  0.00000000000E+00  0.00000000000E+00  0.23486811266E+04  0.23486811266E+04  0.25500000920E-02 0.  1.
        2   -1    0    0  501    0  0.00000000000E+00  0.00000000000E+00 -0.17285563882E+04  0.17285563882E+04  0.25500000920E-02 0. -1.
    10030    2    1    2    0    0  0.00000000000E+00  0.00000000000E+00  0.62012473842E+03  0.40772375148E+04  0.40298028563E+04 0.  0.
        4    1    3    3  502    0 -0.83967023024E+03 -0.16711386577E+04 -0.44847956426E+03  0.19232488246E+04  0.12699999809E+01 0. -1.
       -4    1    3    3    0  502  0.83967023024E+03  0.16711386577E+04  0.10686043027E+04  0.21539886902E+04  0.12699999809E+01 0.  1.
</event>
<event>
 5   0  0.2666978E-07  0.3917340E+04  0.7818609E-02  0.8021433E-01
       -2   -1    0    0    0  501  0.00000000000E+00  0.00000000000E+00  0.17878952303E+04  0.17878952303E+04  0.25500000920E-02 0.  1.
        2   -1    0    0  501    0  0.00000000000E+00  0.00000000000E+00 -0.21457563440E+04  0.21457563440E+04  0.25500000920E-02 0. -1.
    10030    2    1    2    0    0  0.00000000000E+00  0.00000000000E+00 -0.35786111371E+03  0.39336515743E+04  0.39173396752E+04 0.  0.
        4    1    3    3  502    0 -0.70471490259E+03  0.17547402114E+04  0.33373389373E+03  0.19201865086E+04  0.12699999809E+01 0.  1.
       -4    1    3    3    0  502  0.70471490259E+03 -0.17547402114E+04 -0.69159500744E+03  0.20134650656E+04  0.12699999809E+01 0. -1.
</event>
<event>
 5   0  0.2704088E-07  0.4001750E+04  0.7818609E-02  0.8004194E-01
       -2   -1    0    0    0  501  0.00000000000E+00  0.00000000000E+00  0.24359996691E+04  0.24359996691E+04  0.25500000920E-02 0.  1.
        2   -1    0    0  501    0  0.00000000000E+00  0.00000000000E+00 -0.16434735631E+04  0.16434735631E+04  0.25500000920E-02 0. -1.
    10030    2    1    2    0    0  0.00000000000E+00  0.00000000000E+00  0.79252610608E+03  0.40794732322E+04  0.40017501451E+04 0.  0.
        5    1    3    3  502    0 -0.11654031368E+04 -0.11613732680E+04  0.15570294805E+04  0.22652406566E+04  0.46999998093E+01 0.  1.
       -5    1    3    3    0  502  0.11654031368E+04  0.11613732680E+04 -0.76450337446E+03  0.18142325756E+04  0.46999998093E+01 0. -1.
</event>
<event>
 5   0  0.2661693E-07  0.4029436E+04  0.7818609E-02  0.7998635E-01
        2   -1    0    0  501    0  0.00000000000E+00  0.00000000000E+00  0.22237449979E+04  0.22237449979E+04  0.25500000920E-02 0.  1.
       -2   -1    0    0    0  501  0.00000000000E+00  0.00000000000E+00 -0.18253388873E+04  0.18253388873E+04  0.25500000920E-02 0. -1.
    10030    2    1    2    0    0  0.00000000000E+00  0.00000000000E+00  0.39840611056E+03  0.40490838852E+04  0.40294358018E+04 0.  0.
        1    1    3    3  502    0  0.95696662080E+03  0.17854528135E+03  0.19717272832E+04  0.21989479326E+04  0.50400001928E-02 0.  1.
       -1    1    3    3    0  502 -0.95696662080E+03 -0.17854528135E+03 -0.15733211727E+04  0.18501359526E+04  0.50400001928E-02 0. -1.
</event>
<event>
 5   0  0.8528625E-08  0.3890679E+04  0.7818609E-02  0.8026971E-01
       -3   -1    0    0    0  501  0.00000000000E+00  0.00000000000E+00  0.28334658539E+04  0.28334658557E+04  0.10100000352E+00 0.  1.
        3   -1    0    0  501    0  0.00000000000E+00  0.00000000000E+00 -0.13355890896E+04  0.13355890934E+04  0.10100000352E+00 0. -1.
    10030    2    1    2    0    0  0.00000000000E+00  0.00000000000E+00  0.14978767643E+04  0.41690549491E+04  0.38906791653E+04 0.  0.
        3    1    3    3  502    0  0.17490602682E+03 -0.16297506618E+04  0.18715963246E+04  0.24878810563E+04  0.10100000352E+00 0.  1.
       -3    1    3    3    0  502 -0.17490602682E+03  0.16297506618E+04 -0.37371956027E+03  0.16811738928E+04  0.10100000352E+00 0. -1.
</event>
<event>
 5   0  0.2704088E-07  0.3964354E+04  0.7818609E-02  0.8011776E-01
       -2   -1    0    0    0  501  0.00000000000E+00  0.00000000000E+00  0.17721634574E+04  0.17721634574E+04  0.25500000920E-02 0. -1.
        2   -1    0    0  501    0  0.00000000000E+00  0.00000000000E+00 -0.22170780389E+04  0.22170780389E+04  0.25500000920E-02 0.  1.
    10030    2    1    2    0    0  0.00000000000E+00  0.00000000000E+00 -0.44491458157E+03  0.39892414963E+04  0.39643535073E+04 0.  0.
        5    1    3    3  502    0 -0.17139167232E+04  0.96660476500E+03  0.18140560637E+02  0.19677872028E+04  0.46999998093E+01 0.  1.
       -5    1    3    3    0  502  0.17139167232E+04 -0.96660476500E+03 -0.46305514220E+03  0.20214542934E+04  0.46999998093E+01 0. -1.
</event>
<event>
 5   0  0.8528625E-08  0.3967616E+04  0.7818609E-02  0.8011111E-01
       -1   -1    0    0    0  501  0.00000000000E+00  0.00000000000E+00  0.20267216875E+04  0.20267216875E+04  0.50400001928E-02 0.  1.
        1   -1    0    0  501    0  0.00000000000E+00  0.00000000000E+00 -0.19418034328E+04  0.19418034328E+04  0.50400001928E-02 0. -1.
    10030    2    1    2    0    0  0.00000000000E+00  0.00000000000E+00  0.84918254662E+02  0.39685251203E+04  0.39676164785E+04 0.  0.
        2    1    3    3  502    0  0.12766964379E+04  0.11468384954E+04  0.10378266175E+04  0.20055613720E+04  0.25500000920E-02 0.  1.
       -2    1    3    3    0  502 -0.12766964379E+04 -0.11468384954E+04 -0.95290836284E+03  0.19629637483E+04  0.25500000920E-02 0. -1.
</event>
<event>
 5   0  0.2704088E-07  0.3933775E+04  0.7818609E-02  0.8018041E-01
        2   -1    0    0  501    0  0.00000000000E+00  0.00000000000E+00  0.25886508455E+04  0.25886508455E+04  0.25500000920E-02 0.  1.
       -2   -1    0    0    0  501  0.00000000000E+00  0.00000000000E+00 -0.14944641029E+04  0.14944641029E+04  0.25500000920E-02 0. -1.
    10030    2    1    2    0    0  0.00000000000E+00  0.00000000000E+00  0.10941867426E+04  0.40831149485E+04  0.39337746574E+04 0.  0.
        5    1    3    3  502    0 -0.50215372577E+03 -0.18853181216E+04  0.80562943796E+03  0.21108395641E+04  0.46999998093E+01 0.  1.
       -5    1    3    3    0  502  0.50215372577E+03  0.18853181216E+04  0.28855730463E+03  0.19722753844E+04  0.46999998093E+01 0. -1.
</event>
<event>
 5   0  0.8528625E-08  0.4015014E+04  0.7818609E-02  0.8001525E-01
        1   -1    0    0  501    0  0.00000000000E+00  0.00000000000E+00  0.27878426439E+04  0.27878426439E+04  0.50400001928E-02 0.  1.
       -1   -1    0    0    0  501  0.00000000000E+00  0.00000000000E+00 -0.14455927406E+04  0.14455927406E+04  0.50400001928E-02 0. -1.
    10030    2    1    2    0    0  0.00000000000E+00  0.00000000000E+00  0.13422499033E+04  0.42334353846E+04  0.40150143651E+04 0.  0.
        3    1    3    3  502    0 -0.36125946707E+03 -0.17744840007E+04  0.15847397109E+04  0.24063877146E+04  0.10100000352E+00 0.  1.
       -3    1    3    3    0  502  0.36125946707E+03  0.17744840007E+04 -0.24248980764E+03  0.18270476700E+04  0.10100000352E+00 0. -1.
</event>
<event>
 5   0  0.8528625E-08  0.3436237E+04  0.7818609E-02  0.8129069E-01
        1   -1    0    0  501    0  0.00000000000E+00  0.00000000000E+00  0.14381234362E+04  0.14381234362E+04  0.50400001928E-02 0. -1.
       -1   -1    0    0    0  501  0.00000000000E+00  0.00000000000E+00 -0.20526269204E+04  0.20526269204E+04  0.50400001928E-02 0.  1.
    10030    2    1    2    0    0  0.00000000000E+00  0.00000000000E+00 -0.61450348416E+03  0.34907503566E+04  0.34362368254E+04 0.  0.
        4    1    3    3  502    0 -0.59150667612E+03 -0.76809838856E+03  0.11337273393E+04  0.14917086093E+04  0.12699999809E+01 0. -1.
       -4    1    3    3    0  502  0.59150667612E+03  0.76809838856E+03 -0.17482308234E+04  0.19990417473E+04  0.12699999809E+01 0.  1.
</event>
<event>
 5   0  0.8528625E-08  0.3967618E+04  0.7818609E-02  0.8011111E-01
        1   -1    0    0  501    0  0.00000000000E+00  0.00000000000E+00  0.34370187990E+04  0.34370187990E+04  0.50400001928E-02 0.  1.
       -1   -1    0    0    0  501  0.00000000000E+00  0.00000000000E+00 -0.11450324290E+04  0.11450324290E+04  0.50400001928E-02 0. -1.
    10030    2    1    2    0    0  0.00000000000E+00  0.00000000000E+00  0.22919863701E+04  0.45820512280E+04  0.39676179170E+04 0.  0.
        3    1    3    3  502    0  0.36889540851E+03  0.11964171768E+04 -0.63114400277E+03  0.14020843932E+04  0.10100000352E+00 0. -1.
       -3    1    3    3    0  502 -0.36889540851E+03 -0.11964171768E+04  0.29231303729E+04  0.31799668348E+04  0.10100000352E+00 0.  1.
</event>
<event>
 5   0  0.8528625E-08  0.3963548E+04  0.7818609E-02  0.8011941E-01
       -1   -1    0    0    0  501  0.00000000000E+00  0.00000000000E+00  0.26390334690E+04  0.26390334690E+04  0.50400001928E-02 0.  1.
        1   -1    0    0  501    0  0.00000000000E+00  0.00000000000E+00 -0.14882074150E+04  0.14882074150E+04  0.50400001928E-02 0. -1.
    10030    2    1    2    0    0  0.00000000000E+00  0.00000000000E+00  0.11508260540E+04  0.41272408841E+04  0.39635484996E+04 0.  0.
        3    1    3    3  502    0  0.13230356730E+04 -0.13601129178E+04  0.11709585990E+04  0.22296803789E+04  0.10100000352E+00 0. -1.
       -3    1    3    3    0  502 -0.13230356730E+04  0.13601129178E+04 -0.20132545057E+02  0.18975605052E+04  0.10100000352E+00 0.  1.
</event>
<event>
 5   0  0.2730801E-07  0.3998548E+04  0.7818609E-02  0.8004840E-01
       -2   -1    0    0    0  501  0.00000000000E+00  0.00000000000E+00  0.16133288645E+04  0.16133288645E+04  0.25500000920E-02 0.  1.
        2   -1    0    0  501    0  0.00000000000E+00  0.00000000000E+00 -0.24775458368E+04  0.24775458368E+04  0.25500000920E-02 0. -1.
    10030    2    1    2    0    0  0.00000000000E+00  0.00000000000E+00 -0.86421697232E+03  0.40908747013E+04  0.39985478423E+04 0.  0.
        2    1    3    3  502    0 -0.15535514279E+04  0.61527631503E+03 -0.15551842822E+04  0.22826925186E+04  0.25500000920E-02 0. -1.
       -2    1    3    3    0  502  0.15535514279E+04 -0.61527631503E+03  0.69096730984E+03  0.18081821828E+04  0.25500000920E-02 0.  1.
</event>
<event>
 5   0  0.8528625E-08  0.3977778E+04  0.7818609E-02  0.8009044E-01
       -1   -1    0    0    0  501  0.00000000000E+00  0.00000000000E+00  0.22016379821E+04  0.22016379821E+04  0.50400001928E-02 0. -1.
        1   -1    0    0  501    0  0.00000000000E+00  0.00000000000E+00 -0.17966984622E+04  0.17966984622E+04  0.50400001928E-02 0.  1.
    10030    2    1    2    0    0  0.00000000000E+00  0.00000000000E+00  0.40493951987E+03  0.39983364443E+04  0.39777780615E+04 0.  0.
        5    1    3    3  502    0  0.14315496708E+04 -0.36905481969E+03  0.15398051392E+04  0.21346095373E+04  0.46999998093E+01 0. -1.
       -5    1    3    3    0  502 -0.14315496708E+04  0.36905481969E+03 -0.11348656194E+04  0.18637269070E+04  0.46999998093E+01 0.  1.
</event>
<event>
 5   0  0.8528625E-08  0.4026858E+04  0.7818609E-02  0.7999150E-01
        1   -1    0    0  501    0  0.00000000000E+00  0.00000000000E+00  0.23318524350E+04  0.23318524350E+04  0.50400001928E-02 0.  1.
       -1   -1    0    0    0  501  0.00000000000E+00  0.00000000000E+00 -0.17384873888E+04  0.17384873888E+04  0.50400001928E-02 0. -1.
    10030    2    1    2    0    0  0.00000000000E+00  0.00000000000E+00  0.59336504621E+03  0.40703398239E+04  0.40268578574E+04 0.  0.
        2    1    3    3  502    0 -0.17647952229E+04 -0.65432325628E+03  0.10194242539E+04  0.21405295868E+04  0.25500000920E-02 0.  1.
       -2    1    3    3    0  502  0.17647952229E+04  0.65432325628E+03 -0.42605920765E+03  0.19298102371E+04  0.25500000920E-02 0. -1.
</event>
<event>
 5   0  0.8528625E-08  0.3043383E+04  0.7818609E-02  0.8231450E-01
       -1   -1    0    0    0  501  0.00000000000E+00  0.00000000000E+00  0.21062273408E+04  0.21062273408E+04  0.50400001928E-02 0. -1.
        1   -1    0    0  501    0  0.00000000000E+00  0.00000000000E+00 -0.10993806727E+04  0.10993806727E+04  0.50400001928E-02 0.  1.
    10030    2    1    2    0    0  0.00000000000E+00  0.00000000000E+00  0.10068466681E+04  0.32056080135E+04  0.30433834006E+04 0.  0.
        3    1    3    3  502    0 -0.49014718215E+03  0.11072323123E+04 -0.46729675340E+03  0.12979113681E+04  0.10100000352E+00 0.  1.
       -3    1    3    3    0  502  0.49014718215E+03 -0.11072323123E+04  0.14741434215E+04  0.19076966454E+04  0.10100000352E+00 0. -1.
</event>
<event>
 5   0  0.2661693E-07  0.3992130E+04  0.7818609E-02  0.8006136E-01
        2   -1    0    0  501    0  0.00000000000E+00  0.00000000000E+00  0.17176346856E+04  0.17176346856E+04  0.25500000920E-02 0. -1.
       -2   -1    0    0    0  501  0.00000000000E+00  0.00000000000E+00 -0.23196286794E+04  0.23196286794E+04  0.25500000920E-02 0.  1.
    10030    2    1    2    0    0  0.00000000000E+00  0.00000000000E+00 -0.60199399380E+03  0.40372633651E+04  0.39921295959E+04 0.  0.
        1    1    3    3  502    0  0.30488884967E+03  0.10485162851E+04  0.13888010168E+04  0.17666668829E+04  0.50400001928E-02 0. -1.
       -1    1    3    3    0  502 -0.30488884967E+03 -0.10485162851E+04 -0.19907950106E+04  0.22705964822E+04  0.50400001928E-02 0.  1.
</event>
<event>
 5   0  0.2730801E-07  0.4359587E+04  0.7818609E-02  0.7935691E-01
        2   -1    0    0  501    0  0.00000000000E+00  0.00000000000E+00  0.29488128267E+04  0.29488128267E+04  0.25500000920E-02 0. -1.
       -2   -1    0    0    0  501  0.00000000000E+00  0.00000000000E+00 -0.16113265047E+04  0.16113265047E+04  0.25500000920E-02 0.  1.
    10030    2    1    2    0    0  0.00000000000E+00  0.00000000000E+00  0.13374863220E+04  0.45601393314E+04  0.43595872580E+04 0.  0.
        2    1    3    3  502    0 -0.41574881435E+03 -0.21103515910E+04  0.29882284298E+03  0.21715722428E+04  0.25500000920E-02 0. -1.
       -2    1    3    3    0  502  0.41574881435E+03  0.21103515910E+04  0.10386634790E+04  0.23885670886E+04  0.25500000920E-02 0.  1.
</event>
<event>
 5   0  0.8528625E-08  0.4003517E+04  0.7818609E-02  0.8003837E-01
       -1   -1    0    0    0  501  0.00000000000E+00  0.00000000000E+00  0.16170611169E+04  0.16170611169E+04  0.50400001928E-02 0. -1.
        1   -1    0    0  501    0  0.00000000000E+00  0.00000000000E+00 -0.24779753800E+04  0.24779753800E+04  0.50400001928E-02 0.  1.
    10030    2    1    2    0    0  0.00000000000E+00  0.00000000000E+00 -0.86091426308E+03  0.40950364968E+04  0.40035172714E+04 0.  0.
        3    1    3    3  502    0 -0.17835955728E+04 -0.79724458375E+03  0.15661615521E+02  0.19537290984E+04  0.10100000352E+00 0.  1.
       -3    1    3    3    0  502  0.17835955728E+04  0.79724458375E+03 -0.87657587860E+03  0.21413073985E+04  0.10100000352E+00 0. -1.
</event>
<event>
 5   0  0.2661693E-07  0.4011844E+04  0.7818609E-02  0.8002162E-01
        2   -1    0    0  501    0  0.00000000000E+00  0.00000000000E+00  0.19091132376E+04  0.19091132376E+04  0.25500000920E-02 0.  1.
       -2   -1    0    0    0  501  0.00000000000E+00  0.00000000000E+00 -0.21076394320E+04  0.21076394320E+04  0.25500000920E-02 0. -1.
    10030    2    1    2    0    0  0.00000000000E+00  0.00000000000E+00 -0.19852619445E+03  0.40167526696E+04  0.40118436359E+04 0.  0.
        1    1    3    3  502    0  0.20546715363E+02 -0.18349267098E+04 -0.91040511716E+03  0.20484666644E+04  0.50400001928E-02 0. -1.
       -1    1    3    3    0  502 -0.20546715363E+02  0.18349267098E+04  0.71187892271E+03  0.19682860052E+04  0.50400001928E-02 0.  1.
</event>
<event>
 5   0  0.8583262E-08  0.3458290E+04  0.7818609E-02  0.8123746E-01
       -1   -1    0    0    0  501  0.00000000000E+00  0.00000000000E+00  0.13389365884E+04  0.13389365884E+04  0.50400001928E-02 0. -1.
        1   -1    0    0  501    0  0.00000000000E+00  0.00000000000E+00 -0.22330726966E+04  0.22330726966E+04  0.50400001928E-02 0.  1.
    10030    2    1    2    0    0  0.00000000000E+00  0.00000000000E+00 -0.89413610824E+03  0.35720092850E+04  0.34582901776E+04 0.  0.
        1    1    3    3  502    0  0.15439984271E+04  0.75013810341E+03 -0.66200806503E+03  0.18398078691E+04  0.50400001928E-02 0.  1.
       -1    1    3    3    0  502 -0.15439984271E+04 -0.75013810341E+03 -0.23212804321E+03  0.17322014160E+04  0.50400001928E-02 0. -1.
</event>
<event>
 5   0  0.8528625E-08  0.3979922E+04  0.7818609E-02  0.8008609E-01
        1   -1    0    0  501    0  0.00000000000E+00  0.00000000000E+00  0.23829841380E+04  0.23829841380E+04  0.50400001928E-02 0. -1.
       -1   -1    0    0    0  501  0.00000000000E+00  0.00000000000E+00 -0.16617591569E+04  0.16617591569E+04  0.50400001928E-02 0.  1.
    10030    2    1    2    0    0  0.00000000000E+00  0.00000000000E+00  0.72122498111E+03  0.40447432949E+04  0.39799224676E+04 0.  0.
        3    1    3    3  502    0 -0.46548444123E+03 -0.12320583946E+04  0.18766531043E+04  0.22926993996E+04  0.10100000352E+00 0. -1.
       -3    1    3    3    0  502  0.46548444123E+03  0.12320583946E+04 -0.11554281232E+04  0.17520438953E+04  0.10100000352E+00 0.  1.
</event>
<event>
 5   0  0.2666978E-07  0.3950386E+04  0.7818609E-02  0.8014631E-01
       -2   -1    0    0    0  501  0.00000000000E+00  0.00000000000E+00  0.18327093829E+04  0.18327093829E+04  0.25500000920E-02 0.  1.
        2   -1    0    0  501    0  0.00000000000E+00  0.00000000000E+00 -0.21287537426E+04  0.21287537426E+04  0.25500000920E-02 0. -1.
    10030    2    1    2    0    0  0.00000000000E+00  0.00000000000E+00 -0.29604435974E+03  0.39614631255E+04  0.39503857826E+04 0.  0.
        4    1    3    3  502    0 -0.17876829774E+04 -0.20848805899E+03 -0.96400386295E+03  0.20417107432E+04  0.12699999809E+01 0. -1.
       -4    1    3    3    0  502  0.17876829774E+04  0.20848805899E+03  0.66795950321E+03  0.19197523823E+04  0.12699999809E+01 0.  1.
</event>
<event>
 5   0  0.2704088E-07  0.4114768E+04  0.7818609E-02  0.7981786E-01
        2   -1    0    0  501    0  0.00000000000E+00  0.00000000000E+00  0.26159235175E+04  0.26159235175E+04  0.25500000920E-02 0. -1.
       -2   -1    0    0    0  501  0.00000000000E+00  0.00000000000E+00 -0.16181010699E+04  0.16181010699E+04  0.25500000920E-02 0.  1.
    10030    2    1    2    0    0  0.00000000000E+00  0.00000000000E+00  0.99782244767E+03  0.42340245874E+04  0.41147678634E+04 0.  0.
        5    1    3    3  502    0 -0.19322965059E+04 -0.39533587742E+03 -0.10350190756E+03  0.19750430319E+04  0.46999998093E+01 0.  1.
       -5    1    3    3    0  502  0.19322965059E+04  0.39533587742E+03  0.11013243552E+04  0.22589815555E+04  0.46999998093E+01 0. -1.
</event>
<event>
 5   0  0.2661693E-07  0.3803960E+04  0.7818609E-02  0.8045306E-01
        2   -1    0    0  501    0  0.00000000000E+00  0.00000000000E+00  0.24313719253E+04  0.24313719253E+04  0.25500000920E-02 0. -1.
       -2   -1    0    0    0  501  0.00000000000E+00  0.00000000000E+00 -0.14878548304E+04  0.14878548304E+04  0.25500000920E-02 0.  1.
    10030    2    1    2    0    0  0.00000000000E+00  0.00000000000E+00  0.94351709487E+03  0.39192267557E+04  0.38039602855E+04 0.  0.
        1    1    3    3  502    0 -0.84303339761E+03 -0.17046313897E+04  0.43829389062E+03  0.19515570755E+04  0.50400001928E-02 0. -1.
       -1    1    3    3    0  502  0.84303339761E+03  0.17046313897E+04  0.50522320425E+03  0.19676696802E+04  0.50400001928E-02 0.  1.
</event>
<event>
 5   0  0.2704088E-07  0.4048544E+04  0.7818609E-02  0.7994825E-01
       -2   -1    0    0    0  501  0.00000000000E+00  0.00000000000E+00  0.24484485065E+04  0.24484485065E+04  0.25500000920E-02 0.  1.
        2   -1    0    0  501    0  0.00000000000E+00  0.00000000000E+00 -0.16735809591E+04  0.16735809591E+04  0.25500000920E-02 0. -1.
    10030    2    1    2    0    0  0.00000000000E+00  0.00000000000E+00  0.77486754736E+03  0.41220294656E+04  0.40485438369E+04 0.  0.
        5    1    3    3  502    0 -0.13699190440E+02  0.28237622711E+03  0.24282441703E+04  0.24446504540E+04  0.46999998093E+01 0.  1.
       -5    1    3    3    0  502  0.13699190440E+02 -0.28237622711E+03 -0.16533766230E+04  0.16773790117E+04  0.46999998093E+01 0. -1.
</event>
<event>
 5   0  0.2666978E-07  0.3957137E+04  0.7818609E-02  0.8013250E-01
       -2   -1    0    0    0  501  0.00000000000E+00  0.00000000000E+00  0.32038967882E+04  0.32038967882E+04  0.25500000920E-02 0.  1.
        2   -1    0    0  501    0  0.00000000000E+00  0.00000000000E+00 -0.12218664865E+04  0.12218664865E+04  0.25500000920E-02 0. -1.
    10030    2    1    2    0    0  0.00000000000E+00  0.00000000000E+00  0.19820303016E+04  0.44257632747E+04  0.39571374057E+04 0.  0.
        4    1    3    3  502    0  0.34633390995E+03 -0.17902688094E+04  0.13213799714E+03  0.18282427766E+04  0.12699999809E+01 0. -1.
       -4    1    3    3    0  502 -0.34633390995E+03  0.17902688094E+04  0.18498923045E+04  0.25975204981E+04  0.12699999809E+01 0.  1.
</event>
<event>
 5   0  0.8528625E-08  0.4034068E+04  0.7818609E-02  0.7997709E-01
       -1   -1    0    0    0  501  0.00000000000E+00  0.00000000000E+00  0.22321875155E+04  0.22321875155E+04  0.50400001928E-02 0.  1.
        1   -1    0    0  501    0  0.00000000000E+00  0.00000000000E+00 -0.18226180172E+04  0.18226180172E+04  0.50400001928E-02 0. -1.
    10030    2    1    2    0    0  0.00000000000E+00  0.00000000000E+00  0.40956949827E+03  0.40548055326E+04  0.40340675172E+04 0.  0.
        3    1    3    3  502    0 -0.18831355947E+03  0.82702516996E+03  0.20442176837E+04  0.22132009798E+04  0.10100000352E+00 0.  1.
       -3    1    3    3    0  502  0.18831355947E+03 -0.82702516996E+03 -0.16346481855E+04  0.18416045528E+04  0.10100000352E+00 0. -1.
</event>
<event>
 5   0  0.8528625E-08  0.2862002E+04  0.7818609E-02  0.8284274E-01
       -1   -1    0    0    0  501  0.00000000000E+00  0.00000000000E+00  0.90733246369E+03  0.90733246370E+03  0.50400001928E-02 0.  1.
        1   -1    0    0  501    0  0.00000000000E+00  0.00000000000E+00 -0.22569061348E+04  0.22569061348E+04  0.50400001928E-02 0. -1.
    10030    2    1    2    0    0  0.00000000000E+00  0.00000000000E+00 -0.13495736711E+04  0.31642385985E+04  0.28620022387E+04 0.  0.
        3    1    3    3  502    0 -0.43815736773E+03 -0.12961289481E+04 -0.11383920289E+04  0.17798507102E+04  0.10100000352E+00 0. -1.
       -3    1    3    3    0  502  0.43815736773E+03  0.12961289481E+04 -0.21118164219E+03  0.13843878883E+04  0.10100000352E+00 0.  1.
</event>
<event>
 5   0  0.2839279E-07  0.4139535E+04  0.7818609E-02  0.7976975E-01
        2   -1    0    0  501    0  0.00000000000E+00  0.00000000000E+00  0.22594226087E+04  0.22594226087E+04  0.25500000920E-02 0.  1.
       -2   -1    0    0    0  501  0.00000000000E+00  0.00000000000E+00 -0.18960317752E+04  0.18960317752E+04  0.25500000920E-02 0. -1.
    10030    2    1    2    0    0  0.00000000000E+00  0.00000000000E+00  0.36339083349E+03  0.41554543840E+04  0.41395347854E+04 0.  0.
        3    1    3    3  502    0  0.19613065009E+04  0.65394460415E+03  0.83491214068E+02  0.20691393208E+04  0.10100000352E+00 0.  1.
       -3    1    3    3    0  502 -0.19613065009E+04 -0.65394460415E+03  0.27989961942E+03  0.20863150632E+04  0.10100000352E+00 0. -1.
</event>
<event>
 5   0  0.2666978E-07  0.3434134E+04  0.7818609E-02  0.8129579E-01
        2   -1    0    0  501    0  0.00000000000E+00  0.00000000000E+00  0.14337530491E+04  0.14337530492E+04  0.25500000920E-02 0.  1.
       -2   -1    0    0    0  501  0.00000000000E+00  0.00000000000E+00 -0.20563651818E+04  0.20563651818E+04  0.25500000920E-02 0. -1.
    10030    2    1    2    0    0  0.00000000000E+00  0.00000000000E+00 -0.62261213263E+03  0.34901182309E+04  0.34341344467E+04 0.  0.
        4    1    3    3  502    0  0.34182035323E+03  0.45206112536E+03 -0.19585678418E+04  0.20389188357E+04  0.12699999809E+01 0. -1.
       -4    1    3    3    0  502 -0.34182035323E+03 -0.45206112536E+03  0.13359557091E+04  0.14511993952E+04  0.12699999809E+01 0.  1.
</event>
<event>
 5   0  0.8528625E-08  0.3829038E+04  0.7818609E-02  0.8039952E-01
       -1   -1    0    0    0  501  0.00000000000E+00  0.00000000000E+00  0.16114690723E+04  0.16114690723E+04  0.50400001928E-02 0.  1.
        1   -1    0    0  501    0  0.00000000000E+00  0.00000000000E+00 -0.22745599980E+04  0.22745599980E+04  0.50400001928E-02 0. -1.
    10030    2    1    2    0    0  0.00000000000E+00  0.00000000000E+00 -0.66309092571E+03  0.38860290703E+04  0.38290380462E+04 0.  0.
        2    1    3    3  502    0 -0.99152751699E+03  0.15383416798E+04  0.23874447672E+03  0.18457033527E+04  0.25500000920E-02 0.  1.
       -2    1    3    3    0  502  0.99152751699E+03 -0.15383416798E+04 -0.90183540243E+03  0.20403257176E+04  0.25500000920E-02 0. -1.
</event>
<event>
 5   0  0.8583262E-08  0.4029709E+04  0.7818609E-02  0.7998580E-01
        1   -1    0    0  501    0  0.00000000000E+00  0.00000000000E+00  0.22118443170E+04  0.22118443170E+04  0.50400001928E-02 0. -1.
       -1   -1    0    0    0  501  0.00000000000E+00  0.00000000000E+00 -0.18354084227E+04  0.18354084227E+04  0.50400001928E-02 0.  1.
    10030    2    1    2    0    0  0.00000000000E+00  0.00000000000E+00  0.37643589428E+03  0.40472527398E+04  0.40297085201E+04 0.  0.
        1    1    3    3  502    0 -0.15059338452E+04  0.11246064946E+04  0.91736849314E+03  0.20914448274E+04  0.50400001928E-02 0. -1.
       -1    1    3    3    0  502  0.15059338452E+04 -0.11246064946E+04 -0.54093259886E+03  0.19558079124E+04  0.50400001928E-02 0.  1.
</event>
<event>
 5   0  0.8528625E-08  0.4348773E+04  0.7818609E-02  0.7937661E-01
        1   -1    0    0  501    0  0.00000000000E+00  0.00000000000E+00  0.27856338700E+04  0.27856338700E+04  0.50400001928E-02 0.  1.
       -1   -1    0    0    0  501  0.00000000000E+00  0.00000000000E+00 -0.16972643585E+04  0.16972643585E+04  0.50400001928E-02 0. -1.
    10030    2    1    2    0    0  0.00000000000E+00  0.00000000000E+00  0.10883695115E+04  0.44828982285E+04  0.43487731987E+04 0.  0.
        2    1    3    3  502    0 -0.15010608909E+03  0.21691327536E+04  0.52668038777E+03  0.22371993590E+04  0.25500000920E-02 0.  1.
       -2    1    3    3    0  502  0.15010608909E+03 -0.21691327536E+04  0.56168912374E+03  0.22456988695E+04  0.25500000920E-02 0. -1.
</event>
<event>
 5   0  0.2666978E-07  0.4005752E+04  0.7818609E-02  0.8003387E-01
        2   -1    0    0  501    0  0.00000000000E+00  0.00000000000E+00  0.17923227481E+04  0.17923227481E+04  0.25500000920E-02 0. -1.
       -2   -1    0    0    0  501  0.00000000000E+00  0.00000000000E+00 -0.22381645149E+04  0.22381645149E+04  0.25500000920E-02 0.  1.
    10030    2    1    2    0    0  0.00000000000E+00  0.00000000000E+00 -0.44584176683E+03  0.40304872630E+04  0.40057524507E+04 0.  0.
        4    1    3    3  502    0 -0.13121025362E+04  0.14669978179E+04  0.15060706744E+03  0.19739249644E+04  0.12699999809E+01 0. -1.
       -4    1    3    3    0  502  0.13121025362E+04 -0.14669978179E+04 -0.59644883427E+03  0.20565622986E+04  0.12699999809E+01 0.  1.
</event>
<event>
 5   0  0.2666978E-07  0.3984316E+04  0.7818609E-02  0.8007718E-01
        2   -1    0    0  501    0  0.00000000000E+00  0.00000000000E+00  0.27216697274E+04  0.27216697274E+04  0.25500000920E-02 0. -1.
       -2   -1    0    0    0  501  0.00000000000E+00  0.00000000000E+00 -0.14581831166E+04  0.14581831166E+04  0.25500000920E-02 0.  1.
    10030    2    1    2    0    0  0.00000000000E+00  0.00000000000E+00  0.12634866108E+04  0.41798528441E+04  0.39843156730E+04 0.  0.
        4    1    3    3  502    0  0.35808121106E+03  0.30572326695E+03  0.26624595173E+04  0.27037716553E+04  0.12699999809E+01 0. -1.
       -4    1    3    3    0  502 -0.35808121106E+03 -0.30572326695E+03 -0.13989729065E+04  0.14760811888E+04  0.12699999809E+01 0.  1.
</event>
<event>
 5   0  0.2704088E-07  0.3945521E+04  0.7818609E-02  0.8015628E-01
        2   -1    0    0  501    0  0.00000000000E+00  0.00000000000E+00  0.20211413075E+04  0.20211413075E+04  0.25500000920E-02 0. -1.
       -2   -1    0    0    0  501  0.00000000000E+00  0.00000000000E+00 -0.19255381910E+04  0.19255381910E+04  0.25500000920E-02 0.  1.
    10030    2    1    2    0    0  0.00000000000E+00  0.00000000000E+00  0.95603116492E+02  0.39466794984E+04  0.39455213987E+04 0.  0.
        5    1    3    3  502    0  0.16477350940E+04  0.10847401619E+04  0.56202113747E+02  0.19735432416E+04  0.46999998093E+01 0.  1.
       -5    1    3    3    0  502 -0.16477350940E+04 -0.10847401619E+04  0.39401002745E+02  0.19731362568E+04  0.46999998093E+01 0. -1.
</event>
<event>
 5   0  0.8528625E-08  0.4035596E+04  0.7818609E-02  0.7997404E-01
        1   -1    0    0  501    0  0.00000000000E+00  0.00000000000E+00  0.21419827810E+04  0.21419827810E+04  0.50400001928E-02 0.  1.
       -1   -1    0    0    0  501  0.00000000000E+00  0.00000000000E+00 -0.19008127147E+04  0.19008127148E+04  0.50400001928E-02 0. -1.
    10030    2    1    2    0    0  0.00000000000E+00  0.00000000000E+00  0.24117006626E+03  0.40427954958E+04  0.40355956710E+04 0.  0.
        3    1    3    3  502    0 -0.16428539036E+04 -0.69560937822E+03 -0.82378802469E+03  0.19650618503E+04  0.10100000352E+00 0.  1.
       -3    1    3    3    0  502  0.16428539036E+04  0.69560937822E+03  0.10649580909E+04  0.20777336455E+04  0.10100000352E+00 0. -1.
</event>
<event>
 5   0  0.8528625E-08  0.3885514E+04  0.7818609E-02  0.8028049E-01
       -1   -1    0    0    0  501  0.00000000000E+00  0.00000000000E+00  0.26821004405E+04  0.26821004405E+04  0.50400001928E-02 0. -1.
        1   -1    0    0  501    0  0.00000000000E+00  0.00000000000E+00 -0.14072195528E+04  0.14072195528E+04  0.50400001928E-02 0.  1.
    10030    2    1    2    0    0  0.00000000000E+00  0.00000000000E+00  0.12748808878E+04  0.40893199933E+04  0.38855137022E+04 0.  0.
        2    1    3    3  502    0 -0.14936415887E+04  0.23591260096E+03  0.19211241565E+04  0.24448595002E+04  0.25500000920E-02 0. -1.
       -2    1    3    3    0  502  0.14936415887E+04 -0.23591260096E+03 -0.64624326878E+03  0.16444604931E+04  0.25500000920E-02 0.  1.
</event>
<event>
 5   0  0.2661693E-07  0.3978359E+04  0.7818609E-02  0.8008926E-01
        2   -1    0    0  501    0  0.00000000000E+00  0.00000000000E+00  0.25791168925E+04  0.25791168925E+04  0.25500000920E-02 0. -1.
       -2   -1    0    0    0  501  0.00000000000E+00  0.00000000000E+00 -0.15341823484E+04  0.15341823484E+04  0.25500000920E-02 0.  1.
    10030    2    1    2    0    0  0.00000000000E+00  0.00000000000E+00  0.10449345441E+04  0.41132992408E+04  0.39783592652E+04 0.  0.
        1    1    3    3  502    0  0.73344906769E+03  0.10275932688E+04  0.21117920960E+04  0.24603986095E+04  0.50400001928E-02 0. -1.
       -1    1    3    3    0  502 -0.73344906769E+03 -0.10275932688E+04 -0.10668575519E+04  0.16529006313E+04  0.50400001928E-02 0.  1.
</event>
<event>
 5   0  0.8528625E-08  0.3981890E+04  0.7818609E-02  0.8008210E-01
        1   -1    0    0  501    0  0.00000000000E+00  0.00000000000E+00  0.12616224268E+04  0.12616224268E+04  0.50400001928E-02 0. -1.
       -1   -1    0    0    0  501  0.00000000000E+00  0.00000000000E+00 -0.31418768774E+04  0.31418768774E+04  0.50400001928E-02 0.  1.
    10030    2    1    2    0    0  0.00000000000E+00  0.00000000000E+00 -0.18802544507E+04  0.44034993043E+04  0.39818901697E+04 0.  0.
        4    1    3    3  502    0  0.19023580051E+03  0.13560631124E+04  0.65815448946E+03  0.15192977883E+04  0.12699999809E+01 0. -1.
       -4    1    3    3    0  502 -0.19023580051E+03 -0.13560631124E+04 -0.25384089401E+04  0.28842015160E+04  0.12699999809E+01 0.  1.
</event>
<event>
 5   0  0.2666978E-07  0.4015601E+04  0.7818609E-02  0.8001407E-01
        2   -1    0    0  501    0  0.00000000000E+00  0.00000000000E+00  0.14332811951E+04  0.14332811951E+04  0.25500000920E-02 0.  1.
       -2   -1    0    0    0  501  0.00000000000E+00  0.00000000000E+00 -0.28126117098E+04  0.28126117098E+04  0.25500000920E-02 0. -1.
    10030    2    1    2    0    0  0.00000000000E+00  0.00000000000E+00 -0.13793305147E+04  0.42458929049E+04  0.40156013113E+04 0.  0.
        4    1    3    3  502    0  0.18220072007E+04  0.18050048939E+03 -0.15609179290E+04  0.24059835952E+04  0.12699999809E+01 0. -1.
       -4    1    3    3    0  502 -0.18220072007E+04 -0.18050048939E+03  0.18158741432E+03  0.18399093098E+04  0.12699999809E+01 0.  1.
</event>
<event>
 5   0  0.2730801E-07  0.3999750E+04  0.7818609E-02  0.8004597E-01
        2   -1    0    0  501    0  0.00000000000E+00  0.00000000000E+00  0.24011977760E+04  0.24011977760E+04  0.25500000920E-02 0.  1.
       -2   -1    0    0    0  501  0.00000000000E+00  0.00000000000E+00 -0.16656272883E+04  0.16656272883E+04  0.25500000920E-02 0. -1.
    10030    2    1    2    0    0  0.00000000000E+00  0.00000000000E+00  0.73557048768E+03  0.40668250644E+04  0.39997502624E+04 0.  0.
        2    1    3    3  502    0 -0.14843858045E+04  0.13376118561E+04  0.45220681147E+03  0.20486819408E+04  0.25500000920E-02 0.  1.
       -2    1    3    3    0  502  0.14843858045E+04 -0.13376118561E+04  0.28336367620E+03  0.20181431236E+04  0.25500000920E-02 0. -1.
</event>
<event>
 5   0  0.8583262E-08  0.4026993E+04  0.7818609E-02  0.7999123E-01
        1   -1    0    0  501    0  0.00000000000E+00  0.00000000000E+00  0.32643765888E+04  0.32643765888E+04  0.50400001928E-02 0.  1.
       -1   -1    0    0    0  501  0.00000000000E+00  0.00000000000E+00 -0.12419427017E+04  0.12419427017E+04  0.50400001928E-02 0. -1.
    10030    2    1    2    0    0  0.00000000000E+00  0.00000000000E+00  0.20224338872E+04  0.45063192905E+04  0.40269932605E+04 0.  0.
        1    1    3    3  502    0 -0.96836517104E+03 -0.63182885937E+02  0.29854205222E+04  0.31391812430E+04  0.50400001928E-02 0.  1.
       -1    1    3    3    0  502  0.96836517104E+03  0.63182885937E+02 -0.96298663510E+03  0.13671380475E+04  0.50400001928E-02 0. -1.
</event>
<event>
 5   0  0.2666978E-07  0.3435866E+04  0.7818609E-02  0.8129159E-01
       -2   -1    0    0    0  501  0.00000000000E+00  0.00000000000E+00  0.15977735211E+04  0.15977735211E+04  0.25500000920E-02 0. -1.
        2   -1    0    0  501    0  0.00000000000E+00  0.00000000000E+00 -0.18471286762E+04  0.18471286762E+04  0.25500000920E-02 0.  1.
    10030    2    1    2    0    0  0.00000000000E+00  0.00000000000E+00 -0.24935515509E+03  0.34449021973E+04  0.34358657069E+04 0.  0.
        4    1    3    3  502    0  0.13653495591E+04 -0.80326782573E+03 -0.79116119213E+03  0.17706937237E+04  0.12699999809E+01 0.  1.
       -4    1    3    3    0  502 -0.13653495591E+04  0.80326782573E+03  0.54180603704E+03  0.16742084736E+04  0.12699999809E+01 0. -1.
</event>
<event>
 5   0  0.8528625E-08  0.3981872E+04  0.7818609E-02  0.8008214E-01
       -1   -1    0    0    0  501  0.00000000000E+00  0.00000000000E+00  0.22989558527E+04  0.22989558527E+04  0.50400001928E-02 0. -1.
        1   -1    0    0  501    0  0.00000000000E+00  0.00000000000E+00 -0.17241852994E+04  0.17241852994E+04  0.50400001928E-02 0.  1.
    10030    2    1    2    0    0  0.00000000000E+00  0.00000000000E+00  0.57477055329E+03  0.40231411521E+04  0.39818718639E+04 0.  0.
        3    1    3    3  502    0 -0.14627038639E+04  0.37104903156E+03  0.15995548010E+04  0.21990351404E+04  0.10100000352E+00 0. -1.
       -3    1    3    3    0  502  0.14627038639E+04 -0.37104903156E+03 -0.10247842477E+04  0.18241060117E+04  0.10100000352E+00 0.  1.
</event>
<event>
 5   0  0.2704088E-07  0.3981865E+04  0.7818609E-02  0.8008215E-01
       -2   -1    0    0    0  501  0.00000000000E+00  0.00000000000E+00  0.23591783049E+04  0.23591783049E+04  0.25500000920E-02 0. -1.
        2   -1    0    0  501    0  0.00000000000E+00  0.00000000000E+00 -0.16801663699E+04  0.16801663699E+04  0.25500000920E-02 0.  1.
    10030    2    1    2    0    0  0.00000000000E+00  0.00000000000E+00  0.67901193501E+03  0.40393446748E+04  0.39818649140E+04 0.  0.
        5    1    3    3  502    0 -0.70743641970E+02  0.17614400639E+04  0.12781269100E+04  0.21774540752E+04  0.46999998093E+01 0. -1.
       -5    1    3    3    0  502  0.70743641970E+02 -0.17614400639E+04 -0.59911497500E+03  0.18618905996E+04  0.46999998093E+01 0.  1.
</event>
<event>
 5   0  0.2704088E-07  0.4092549E+04  0.7818609E-02  0.7986132E-01
        2   -1    0    0  501    0  0.00000000000E+00  0.00000000000E+00  0.13095022003E+04  0.13095022003E+04  0.25500000920E-02 0. -1.
       -2   -1    0    0    0  501  0.00000000000E+00  0.00000000000E+00 -0.31975804250E+04  0.31975804250E+04  0.25500000920E-02 0.  1.
    10030    2    1    2    0    0  0.00000000000E+00  0.00000000000E+00 -0.18880782247E+04  0.45070826253E+04  0.40925486446E+04 0.  0.
        5    1    3    3  502    0 -0.10252790752E+04  0.16977310016E+04 -0.14987753442E+04  0.24859278666E+04  0.46999998093E+01 0. -1.
       -5    1    3    3    0  502  0.10252790752E+04 -0.16977310016E+04 -0.38930288054E+03  0.20211547587E+04  0.46999998093E+01 0.  1.
</event>
<event>
 5   0  0.2661693E-07  0.3273752E+04  0.7818609E-02  0.8169607E-01
       -2   -1    0    0    0  501  0.00000000000E+00  0.00000000000E+00  0.17682352679E+04  0.17682352679E+04  0.25500000920E-02 0. -1.
        2   -1    0    0  501    0  0.00000000000E+00  0.00000000000E+00 -0.15152748994E+04  0.15152748994E+04  0.25500000920E-02 0.  1.
    10030    2    1    2    0    0  0.00000000000E+00  0.00000000000E+00  0.25296036848E+03  0.32835101672E+04  0.32737516812E+04 0.  0.
        1    1    3    3  502    0  0.20317767936E+03  0.99471260569E+03  0.14142967000E+04  0.17409679759E+04  0.50400001928E-02 0. -1.
       -1    1    3    3    0  502 -0.20317767936E+03 -0.99471260569E+03 -0.11613363315E+04  0.15425421914E+04  0.50400001928E-02 0.  1.
</event>
<event>
 5   0  0.8528625E-08  0.3963937E+04  0.7818609E-02  0.8011861E-01
        1   -1    0    0  501    0  0.00000000000E+00  0.00000000000E+00  0.14208985450E+04  0.14208985450E+04  0.50400001928E-02 0. -1.
       -1   -1    0    0    0  501  0.00000000000E+00  0.00000000000E+00 -0.27645881714E+04  0.27645881714E+04  0.50400001928E-02 0.  1.
    10030    2    1    2    0    0  0.00000000000E+00  0.00000000000E+00 -0.13436896264E+04  0.41854867165E+04  0.39639370885E+04 0.  0.
        4    1    3    3  502    0 -0.10366893868E+04 -0.92218083186E+03 -0.21662407817E+04  0.25724974458E+04  0.12699999809E+01 0.  1.
       -4    1    3    3    0  502  0.10366893868E+04  0.92218083186E+03  0.82255115531E+03  0.16129892707E+04  0.12699999809E+01 0. -1.
</event>
<event>
 5   0  0.8528625E-08  0.4049434E+04  0.7818609E-02  0.7994648E-01
        1   -1    0    0  501    0  0.00000000000E+00  0.00000000000E+00  0.13279425973E+04  0.13279425973E+04  0.50400001928E-02 0.  1.
       -1   -1    0    0    0  501  0.00000000000E+00  0.00000000000E+00 -0.30870911432E+04  0.30870911432E+04  0.50400001928E-02 0. -1.
    10030    2    1    2    0    0  0.00000000000E+00  0.00000000000E+00 -0.17591485459E+04  0.44150337405E+04  0.40494344449E+04 0.  0.
        3    1    3    3  502    0  0.85530748452E+03 -0.51902489502E+03  0.10396174142E+04  0.14428243528E+04  0.10100000352E+00 0.  1.
       -3    1    3    3    0  502 -0.85530748452E+03  0.51902489502E+03 -0.27987659602E+04  0.29722093878E+04  0.10100000352E+00 0. -1.
</event>
<event>
 5   0  0.8528625E-08  0.3514960E+04  0.7818609E-02  0.8110254E-01
        1   -1    0    0  501    0  0.00000000000E+00  0.00000000000E+00  0.17451921499E+04  0.17451921499E+04  0.50400001928E-02 0. -1.
       -1   -1    0    0    0  501  0.00000000000E+00  0.00000000000E+00 -0.17698548683E+04  0.17698548683E+04  0.50400001928E-02 0.  1.
    10030    2    1    2    0    0  0.00000000000E+00  0.00000000000E+00 -0.24662718421E+02  0.35150470182E+04  0.35149604963E+04 0.  0.
        3    1    3    3  502    0  0.81365397950E+03  0.15262409339E+04 -0.32425669576E+03  0.17597120792E+04  0.10100000352E+00 0. -1.
       -3    1    3    3    0  502 -0.81365397950E+03 -0.15262409339E+04  0.29959397734E+03  0.17553349390E+04  0.10100000352E+00 0.  1.
</event>
<event>
 5   0  0.2666978E-07  0.3750627E+04  0.7818609E-02  0.8056834E-01
       -2   -1    0    0    0  501  0.00000000000E+00  0.00000000000E+00  0.20047763830E+04  0.20047763830E+04  0.25500000920E-02 0.  1.
        2   -1    0    0  501    0  0.00000000000E+00  0.00000000000E+00 -0.17542113207E+04  0.17542113207E+04  0.25500000920E-02 0. -1.
    10030    2    1    2    0    0  0.00000000000E+00  0.00000000000E+00  0.25056506230E+03  0.37589877037E+04  0.37506273750E+04 0.  0.
        4    1    3    3  502    0  0.32130515831E+03  0.75784407412E+02 -0.17248603962E+04  0.17561677826E+04  0.12699999809E+01 0. -1.
       -4    1    3    3    0  502 -0.32130515831E+03 -0.75784407412E+02  0.19754254585E+04  0.20028199211E+04  0.12699999809E+01 0.  1.
</event>
<event>
 5   0  0.8528625E-08  0.4009149E+04  0.7818609E-02  0.8002704E-01
       -3   -1    0    0    0  501  0.00000000000E+00  0.00000000000E+00  0.16555768300E+04  0.16555768331E+04  0.10100000352E+00 0. -1.
        3   -1    0    0  501    0  0.00000000000E+00  0.00000000000E+00 -0.24271407109E+04  0.24271407130E+04  0.10100000352E+00 0.  1.
    10030    2    1    2    0    0  0.00000000000E+00  0.00000000000E+00 -0.77156388089E+03  0.40827175461E+04  0.40091485055E+04 0.  0.
        2    1    3    3  502    0  0.18435198988E+04  0.49145858889E+03 -0.10120638697E+04  0.21597153604E+04  0.25500000920E-02 0.  1.
       -2    1    3    3    0  502 -0.18435198988E+04 -0.49145858889E+03  0.24049998877E+03  0.19230021857E+04  0.25500000920E-02 0. -1.
</event>
<event>
 5   0  0.8583262E-08  0.4124873E+04  0.7818609E-02  0.7979819E-01
       -1   -1    0    0    0  501  0.00000000000E+00  0.00000000000E+00  0.20850291940E+04  0.20850291940E+04  0.50400001928E-02 0.  1.
        1   -1    0    0  501    0  0.00000000000E+00  0.00000000000E+00 -0.20400885312E+04  0.20400885312E+04  0.50400001928E-02 0. -1.
    10030    2    1    2    0    0  0.00000000000E+00  0.00000000000E+00  0.44940662803E+02  0.41251177251E+04  0.41248729172E+04 0.  0.
        1    1    3    3  502    0  0.11918895678E+04 -0.16497320959E+04 -0.31135693280E+03  0.20589220164E+04  0.50400001928E-02 0.  1.
       -1    1    3    3    0  502 -0.11918895678E+04  0.16497320959E+04  0.35629759560E+03  0.20661957087E+04  0.50400001928E-02 0. -1.
</event>
<event>
 5   0  0.8528625E-08  0.3571756E+04  0.7818609E-02  0.8096992E-01
        1   -1    0    0  501    0  0.00000000000E+00  0.00000000000E+00  0.27905381941E+04  0.27905381941E+04  0.50400001928E-02 0. -1.
       -1   -1    0    0    0  501  0.00000000000E+00  0.00000000000E+00 -0.11429195870E+04  0.11429195870E+04  0.50400001928E-02 0.  1.
    10030    2    1    2    0    0  0.00000000000E+00  0.00000000000E+00  0.16476186071E+04  0.39334577810E+04  0.35717562964E+04 0.  0.
        2    1    3    3  502    0  0.39010402770E+03 -0.46721221335E+01  0.27430363317E+04  0.27706409544E+04  0.25500000920E-02 0. -1.
       -2    1    3    3    0  502 -0.39010402770E+03  0.46721221335E+01 -0.10954177246E+04  0.11628168267E+04  0.25500000920E-02 0.  1.
</event>
<event>
 5   0  0.2839279E-07  0.3964129E+04  0.7818609E-02  0.8011822E-01
        2   -1    0    0  501    0  0.00000000000E+00  0.00000000000E+00  0.16626225824E+04  0.16626225824E+04  0.25500000920E-02 0. -1.
       -2   -1    0    0    0  501  0.00000000000E+00  0.00000000000E+00 -0.23628809427E+04  0.23628809427E+04  0.25500000920E-02 0.  1.
    10030    2    1    2    0    0  0.00000000000E+00  0.00000000000E+00 -0.70025836032E+03  0.40255035250E+04  0.39641287642E+04 0.  0.
        3    1    3    3  502    0 -0.12367664387E+03 -0.11642324978E+04  0.12739591794E+04  0.17302327075E+04  0.10100000352E+00 0. -1.
       -3    1    3    3    0  502  0.12367664387E+03  0.11642324978E+04 -0.19742175397E+04  0.22952708175E+04  0.10100000352E+00 0.  1.
</event>
<event>
 5   0  0.2666978E-07  0.4005069E+04  0.7818609E-02  0.8003525E-01
        2   -1    0    0  501    0  0.00000000000E+00  0.00000000000E+00  0.19884478503E+04  0.19884478503E+04  0.25500000920E-02 0.  1.
       -2   -1    0    0    0  501  0.00000000000E+00  0.00000000000E+00 -0.20167213649E+04  0.20167213649E+04  0.25500000920E-02 0. -1.
    10030    2    1    2    0    0  0.00000000000E+00  0.00000000000E+00 -0.28273514622E+02  0.40051692151E+04  0.40050694189E+04 0.  0.
        4    1    3    3  502    0  0.12460249382E+04  0.40894293319E+03 -0.15275584832E+04  0.20132682389E+04  0.12699999809E+01 0. -1.
       -4    1    3    3    0  502 -0.12460249382E+04 -0.40894293319E+03  0.14992849686E+04  0.19919009762E+04  0.12699999809E+01 0.  1.
</event>
<event>
 5   0  0.2661693E-07  0.4072480E+04  0.7818609E-02  0.7990083E-01
        2   -1    0    0  501    0  0.00000000000E+00  0.00000000000E+00  0.24560702919E+04  0.24560702919E+04  0.25500000920E-02 0. -1.
       -2   -1    0    0    0  501  0.00000000000E+00  0.00000000000E+00 -0.16881738997E+04  0.16881738997E+04  0.25500000920E-02 0.  1.
    10030    2    1    2    0    0  0.00000000000E+00  0.00000000000E+00  0.76789639219E+03  0.41442441917E+04  0.40724802088E+04 0.  0.
        1    1    3    3  502    0  0.14115610360E+04 -0.73175657272E+03 -0.91059359881E+03  0.18322535148E+04  0.50400001928E-02 0.  1.
       -1    1    3    3    0  502 -0.14115610360E+04  0.73175657272E+03  0.16784899910E+04  0.23119906769E+04  0.50400001928E-02 0. -1.
</event>
<event>
 5   0  0.2839279E-07  0.3971515E+04  0.7818609E-02  0.8010318E-01
        2   -1    0    0  501    0  0.00000000000E+00  0.00000000000E+00  0.22739685351E+04  0.22739685351E+04  0.25500000920E-02 0.  1.
       -2   -1    0    0    0  501  0.00000000000E+00  0.00000000000E+00 -0.17340750065E+04  0.17340750065E+04  0.25500000920E-02 0. -1.
    10030    2    1    2    0    0  0.00000000000E+00  0.00000000000E+00  0.53989352859E+03  0.40080435416E+04  0.39715145737E+04 0.  0.
        3    1    3    3  502    0 -0.16562368770E+04  0.10573691671E+04 -0.19187673286E+02  0.19650746361E+04  0.10100000352E+00 0.  1.
       -3    1    3    3    0  502  0.16562368770E+04 -0.10573691671E+04  0.55908120188E+03  0.20429689055E+04  0.10100000352E+00 0. -1.
</event>
<event>
 5   0  0.8528625E-08  0.3992439E+04  0.7818609E-02  0.8006073E-01
       -1   -1    0    0    0  501  0.00000000000E+00  0.00000000000E+00  0.24311531422E+04  0.24311531422E+04  0.50400001928E-02 0. -1.
        1   -1    0    0  501    0  0.00000000000E+00  0.00000000000E+00 -0.16390959310E+04  0.16390959310E+04  0.50400001928E-02 0.  1.
    10030    2    1    2    0    0  0.00000000000E+00  0.00000000000E+00  0.79205721116E+03  0.40702490732E+04  0.39924394663E+04 0.  0.
        5    1    3    3  502    0 -0.61552708989E+03  0.78103999556E+03 -0.13685933174E+04  0.16917348585E+04  0.46999998093E+01 0.  1.
       -5    1    3    3    0  502  0.61552708989E+03 -0.78103999556E+03  0.21606505285E+04  0.23785142147E+04  0.46999998093E+01 0. -1.
</event>
<event>
 5   0  0.8528625E-08  0.3996927E+04  0.7818609E-02  0.8005167E-01
       -1   -1    0    0    0  501  0.00000000000E+00  0.00000000000E+00  0.37029804600E+04  0.37029804600E+04  0.50400001928E-02 0. -1.
        1   -1    0    0  501    0  0.00000000000E+00  0.00000000000E+00 -0.10785518542E+04  0.10785518542E+04  0.50400001928E-02 0.  1.
    10030    2    1    2    0    0  0.00000000000E+00  0.00000000000E+00  0.26244286058E+04  0.47815323142E+04  0.39969270402E+04 0.  0.
        4    1    3    3  502    0  0.58686348883E+03  0.24712184948E+03  0.35783708010E+04  0.36345862441E+04  0.12699999809E+01 0. -1.
       -4    1    3    3    0  502 -0.58686348883E+03 -0.24712184948E+03 -0.95394219523E+03  0.11469460701E+04  0.12699999809E+01 0.  1.
</event>
<event>
 5   0  0.8528625E-08  0.3422366E+04  0.7818609E-02  0.8132439E-01
       -1   -1    0    0    0  501  0.00000000000E+00  0.00000000000E+00  0.14321178596E+04  0.14321178596E+04  0.50400001928E-02 0. -1.
        1   -1    0    0  501    0  0.00000000000E+00  0.00000000000E+00 -0.20446278130E+04  0.20446278130E+04  0.50400001928E-02 0.  1.
    10030    2    1    2    0    0  0.00000000000E+00  0.00000000000E+00 -0.61250995338E+03  0.34767456727E+04  0.34223664370E+04 0.  0.
        5    1    3    3  502    0  0.11292689693E+04  0.11038418800E+04 -0.97582596766E+03  0.18563334049E+04  0.46999998093E+01 0.  1.
       -5    1    3    3    0  502 -0.11292689693E+04 -0.11038418800E+04  0.36331601428E+03  0.16204122677E+04  0.46999998093E+01 0. -1.
</event>
<event>
 5   0  0.8528625E-08  0.4072616E+04  0.7818609E-02  0.7990056E-01
        1   -1    0    0  501    0  0.00000000000E+00  0.00000000000E+00  0.23884505236E+04  0.23884505236E+04  0.50400001928E-02 0. -1.
       -1   -1    0    0    0  501  0.00000000000E+00  0.00000000000E+00 -0.17360839900E+04  0.17360839900E+04  0.50400001928E-02 0.  1.
    10030    2    1    2    0    0  0.00000000000E+00  0.00000000000E+00  0.65236653364E+03  0.41245345136E+04  0.40726162181E+04 0.  0.
        3    1    3    3  502    0  0.13232406930E+04 -0.87024995298E+03 -0.97007493258E+03  0.18572415829E+04  0.10100000352E+00 0.  1.
       -3    1    3    3    0  502 -0.13232406930E+04  0.87024995298E+03  0.16224414662E+04  0.22672929307E+04  0.10100000352E+00 0. -1.
</event>
<event>
 5   0  0.2666978E-07  0.3983637E+04  0.7818609E-02  0.8007856E-01
        2   -1    0    0  501    0  0.00000000000E+00  0.00000000000E+00  0.29529122288E+04  0.29529122288E+04  0.25500000920E-02 0. -1.
       -2   -1    0    0    0  501  0.00000000000E+00  0.00000000000E+00 -0.13435348898E+04  0.13435348898E+04  0.25500000920E-02 0.  1.
    10030    2    1    2    0    0  0.00000000000E+00  0.00000000000E+00  0.16093773390E+04  0.42964471186E+04  0.39836368338E+04 0.  0.
        4    1    3    3  502    0  0.54560373909E+02  0.16341053178E+04  0.20315833077E+04  0.26077978014E+04  0.12699999809E+01 0. -1.
       -4    1    3    3    0  502 -0.54560373909E+02 -0.16341053178E+04 -0.42220596863E+03  0.16886493173E+04  0.12699999809E+01 0.  1.
</event>
<event>
 5   0  0.2661693E-07  0.4044314E+04  0.7818609E-02  0.7995666E-01
        2   -1    0    0  501    0  0.00000000000E+00  0.00000000000E+00  0.14693748080E+04  0.14693748080E+04  0.25500000920E-02 0. -1.
       -2   -1    0    0    0  501  0.00000000000E+00  0.00000000000E+00 -0.27828967003E+04  0.27828967003E+04  0.25500000920E-02 0.  1.
    10030    2    1    2    0    0  0.00000000000E+00  0.00000000000E+00 -0.13135218923E+04  0.42522715083E+04  0.40443136894E+04 0.  0.
        1    1    3    3  502    0  0.12466191422E+04  0.10557505994E+04  0.59634872382E+03  0.17390515847E+04  0.50400001928E-02 0. -1.
       -1    1    3    3    0  502 -0.12466191422E+04 -0.10557505994E+04 -0.19098706161E+04  0.25132199235E+04  0.50400001928E-02 0.  1.
</event>
<event>
 5   0  0.2730801E-07  0.4038185E+04  0.7818609E-02  0.7996887E-01
        2   -1    0    0  501    0  0.00000000000E+00  0.00000000000E+00  0.22272839600E+04  0.22272839600E+04  0.25500000920E-02 0. -1.
       -2   -1    0    0    0  501  0.00000000000E+00  0.00000000000E+00 -0.18303611958E+04  0.18303611958E+04  0.25500000920E-02 0.  1.
    10030    2    1    2    0    0  0.00000000000E+00  0.00000000000E+00  0.39692276414E+03  0.40576451558E+04  0.40381848063E+04 0.  0.
        2    1    3    3  502    0  0.78580210572E+03  0.50107181396E+03  0.19982312739E+04  0.22048778052E+04  0.25500000920E-02 0. -1.
       -2    1    3    3    0  502 -0.78580210572E+03 -0.50107181396E+03 -0.16013085097E+04  0.18527673506E+04  0.25500000920E-02 0.  1.
</event>
<event>
 5   0  0.8528625E-08  0.3836467E+04  0.7818609E-02  0.8038374E-01
        1   -1    0    0  501    0  0.00000000000E+00  0.00000000000E+00  0.16318913049E+04  0.16318913049E+04  0.50400001928E-02 0.  1.
       -1   -1    0    0    0  501  0.00000000000E+00  0.00000000000E+00 -0.22548194686E+04  0.22548194686E+04  0.50400001928E-02 0. -1.
    10030    2    1    2    0    0  0.00000000000E+00  0.00000000000E+00 -0.62292816368E+03  0.38867107735E+04  0.38364672733E+04 0.  0.
        3    1    3    3  502    0 -0.93964978363E+03  0.17679867774E+03  0.13732699073E+04  0.16733408908E+04  0.10100000352E+00 0.  1.
       -3    1    3    3    0  502  0.93964978363E+03 -0.17679867774E+03 -0.19961980710E+04  0.22133698826E+04  0.10100000352E+00 0. -1.
</event>
<event>
 5   0  0.2839279E-07  0.2905705E+04  0.7818609E-02  0.8271182E-01
       -2   -1    0    0    0  501  0.00000000000E+00  0.00000000000E+00  0.11809828744E+04  0.11809828744E+04  0.25500000920E-02 0.  1.
        2   -1    0    0  501    0  0.00000000000E+00  0.00000000000E+00 -0.17873076712E+04  0.17873076712E+04  0.25500000920E-02 0. -1.
    10030    2    1    2    0    0  0.00000000000E+00  0.00000000000E+00 -0.60632479674E+03  0.29682905456E+04  0.29057045624E+04 0.  0.
        3    1    3    3  502    0  0.26843814226E+03 -0.12476059084E+04 -0.10125255866E+04  0.16290450002E+04  0.10100000352E+00 0. -1.
       -3    1    3    3    0  502 -0.26843814226E+03  0.12476059084E+04  0.40620078990E+03  0.13392455454E+04  0.10100000352E+00 0.  1.
</event>
<event>
 5   0  0.2704088E-07  0.3835254E+04  0.7818609E-02  0.8038632E-01
        2   -1    0    0  501    0  0.00000000000E+00  0.00000000000E+00  0.26484301416E+04  0.26484301416E+04  0.25500000920E-02 0. -1.
       -2   -1    0    0    0  501  0.00000000000E+00  0.00000000000E+00 -0.13884803881E+04  0.13884803881E+04  0.25500000920E-02 0.  1.
    10030    2    1    2    0    0  0.00000000000E+00  0.00000000000E+00  0.12599497534E+04  0.40369105297E+04  0.38352539999E+04 0.  0.
        5    1    3    3  502    0  0.35271810818E+03 -0.63489206653E+03 -0.12381015317E+04  0.14354147459E+04  0.46999998093E+01 0.  1.
       -5    1    3    3    0  502 -0.35271810818E+03  0.63489206653E+03  0.24980512851E+04  0.26014957838E+04  0.46999998093E+01 0. -1.
</event>
<event>
 5   0  0.2661693E-07  0.4017630E+04  0.7818609E-02  0.8000999E-01
       -2   -1    0    0    0  501  0.00000000000E+00  0.00000000000E+00  0.30618397662E+04  0.30618397662E+04  0.25500000920E-02 0. -1.
        2   -1    0    0  501    0  0.00000000000E+00  0.00000000000E+00 -0.13179456213E+04  0.13179456213E+04  0.25500000920E-02 0.  1.
    10030    2    1    2    0    0  0.00000000000E+00  0.00000000000E+00  0.17438941449E+04  0.43797853875E+04  0.40176303031E+04 0.  0.
        1    1    3    3  502    0  0.18109192143E+03  0.21861410047E+03  0.30398632248E+04  0.30530893918E+04  0.50400001928E-02 0. -1.
       -1    1    3    3    0  502 -0.18109192143E+03 -0.21861410047E+03 -0.12959690799E+04  0.13266959957E+04  0.50400001928E-02 0.  1.
</event>
<event>
 5   0  0.8528625E-08  0.3950062E+04  0.7818609E-02  0.8014697E-01
       -1   -1    0    0    0  501  0.00000000000E+00  0.00000000000E+00  0.23418832638E+04  0.23418832638E+04  0.50400001928E-02 0.  1.
        1   -1    0    0  501    0  0.00000000000E+00  0.00000000000E+00 -0.16656455311E+04  0.16656455311E+04  0.50400001928E-02 0. -1.
    10030    2    1    2    0    0  0.00000000000E+00  0.00000000000E+00  0.67623773267E+03  0.40075287949E+04  0.39500619705E+04 0.  0.
        3    1    3    3  502    0 -0.91292287127E+03 -0.12491503423E+04 -0.90731623789E+03  0.17936074019E+04  0.10100000352E+00 0. -1.
       -3    1    3    3    0  502  0.91292287127E+03  0.12491503423E+04  0.15835539706E+04  0.22139213930E+04  0.10100000352E+00 0.  1.
</event>
<event>
 5   0  0.8528625E-08  0.3932627E+04  0.7818609E-02  0.8018277E-01
       -1   -1    0    0    0  501  0.00000000000E+00  0.00000000000E+00  0.14837858816E+04  0.14837858816E+04  0.50400001928E-02 0.  1.
        1   -1    0    0  501    0  0.00000000000E+00  0.00000000000E+00 -0.26057592820E+04  0.26057592820E+04  0.50400001928E-02 0. -1.
    10030    2    1    2    0    0  0.00000000000E+00  0.00000000000E+00 -0.11219734005E+04  0.40895451636E+04  0.39326270270E+04 0.  0.
        4    1    3    3  502    0  0.87280400347E+03 -0.76567914200E+03  0.10892607583E+04  0.15920244940E+04  0.12699999809E+01 0.  1.
       -4    1    3    3    0  502 -0.87280400347E+03  0.76567914200E+03 -0.22112341588E+04  0.24975206696E+04  0.12699999809E+01 0. -1.
</event>
<event>
 5   0  0.8528625E-08  0.3895696E+04  0.7818609E-02  0.8025925E-01
       -1   -1    0    0    0  501  0.00000000000E+00  0.00000000000E+00  0.15308250226E+04  0.15308250227E+04  0.50400001928E-02 0.  1.
        1   -1    0    0  501    0  0.00000000000E+00  0.00000000000E+00 -0.24784749219E+04  0.24784749219E+04  0.50400001928E-02 0. -1.
    10030    2    1    2    0    0  0.00000000000E+00  0.00000000000E+00 -0.94764989929E+03  0.40092999446E+04  0.38956957933E+04 0.  0.
        5    1    3    3  502    0 -0.95148217006E+03 -0.13393841920E+04  0.60302470259E+03  0.17501226287E+04  0.46999998093E+01 0. -1.
       -5    1    3    3    0  502  0.95148217006E+03  0.13393841920E+04 -0.15506746019E+04  0.22591773159E+04  0.46999998093E+01 0.  1.
</event>
<event>
 5   0  0.2666978E-07  0.3985532E+04  0.7818609E-02  0.8007472E-01
       -2   -1    0    0    0  501  0.00000000000E+00  0.00000000000E+00  0.14161551872E+04  0.14161551872E+04  0.25500000920E-02 0. -1.
        2   -1    0    0  501    0  0.00000000000E+00  0.00000000000E+00 -0.28041537757E+04  0.28041537757E+04  0.25500000920E-02 0.  1.
    10030    2    1    2    0    0  0.00000000000E+00  0.00000000000E+00 -0.13879985885E+04  0.42203089629E+04  0.39855322933E+04 0.  0.
        4    1    3    3  502    0  0.14140120757E+04 -0.25267511090E+03  0.76861205468E+03  0.16291227595E+04  0.12699999809E+01 0.  1.
       -4    1    3    3    0  502 -0.14140120757E+04  0.25267511090E+03 -0.21566106432E+04  0.25911862035E+04  0.12699999809E+01 0. -1.
</event>
<event>
 5   0  0.2704088E-07  0.4010217E+04  0.7818609E-02  0.8002489E-01
        2   -1    0    0  501    0  0.00000000000E+00  0.00000000000E+00  0.17767692935E+04  0.17767692935E+04  0.25500000920E-02 0.  1.
       -2   -1    0    0    0  501  0.00000000000E+00  0.00000000000E+00 -0.22627922767E+04  0.22627922767E+04  0.25500000920E-02 0. -1.
    10030    2    1    2    0    0  0.00000000000E+00  0.00000000000E+00 -0.48602298321E+03  0.40395615702E+04  0.40102168694E+04 0.  0.
        5    1    3    3  502    0  0.97454516859E+03  0.16214703973E+04 -0.91235346472E+03  0.21003131837E+04  0.46999998093E+01 0.  1.
       -5    1    3    3    0  502 -0.97454516859E+03 -0.16214703973E+04  0.42633048151E+03  0.19392483865E+04  0.46999998093E+01 0. -1.
</event>
<event>
 5   0  0.2730801E-07  0.4030392E+04  0.7818609E-02  0.7998443E-01
        2   -1    0    0  501    0  0.00000000000E+00  0.00000000000E+00  0.24591880876E+04  0.24591880876E+04  0.25500000920E-02 0.  1.
       -2   -1    0    0    0  501  0.00000000000E+00  0.00000000000E+00 -0.16513639841E+04  0.16513639841E+04  0.25500000920E-02 0. -1.
    10030    2    1    2    0    0  0.00000000000E+00  0.00000000000E+00  0.80782410354E+03  0.41105520717E+04  0.40303918608E+04 0.  0.
        2    1    3    3  502    0 -0.55865239901E+03  0.18812480962E+04 -0.63268040259E+02  0.19634637117E+04  0.25500000920E-02 0. -1.
       -2    1    3    3    0  502  0.55865239901E+03 -0.18812480962E+04  0.87109214380E+03  0.21470883599E+04  0.25500000920E-02 0.  1.
</event>
<event>
 5   0  0.2839279E-07  0.3277365E+04  0.7818609E-02  0.8168679E-01
       -2   -1    0    0    0  501  0.00000000000E+00  0.00000000000E+00  0.17681899600E+04  0.17681899600E+04  0.25500000920E-02 0.  1.
        2   -1    0    0  501    0  0.00000000000E+00  0.00000000000E+00 -0.15186602207E+04  0.15186602207E+04  0.25500000920E-02 0. -1.
    10030    2    1    2    0    0  0.00000000000E+00  0.00000000000E+00  0.24952973927E+03  0.32868501807E+04  0.32773646455E+04 0.  0.
        3    1    3    3  502    0 -0.27377123346E+03  0.11985060847E+04  0.12113730152E+04  0.17259177603E+04  0.10100000352E+00 0.  1.
       -3    1    3    3    0  502  0.27377123346E+03 -0.11985060847E+04 -0.96184327590E+03  0.15609324204E+04  0.10100000352E+00 0. -1.
</event>
<event>
 5   0  0.2730801E-07  0.4025394E+04  0.7818609E-02  0.7999443E-01
        2   -1    0    0  501    0  0.00000000000E+00  0.00000000000E+00  0.24114745281E+04  0.24114745281E+04  0.25500000920E-02 0.  1.
       -2   -1    0    0    0  501  0.00000000000E+00  0.00000000000E+00 -0.16798644001E+04  0.16798644001E+04  0.25500000920E-02 0. -1.
    10030    2    1    2    0    0  0.00000000000E+00  0.00000000000E+00  0.73161012797E+03  0.40913389282E+04  0.40253944957E+04 0.  0.
        2    1    3    3  502    0  0.13018212918E+04 -0.15262231386E+04  0.53236297949E+03  0.20754532244E+04  0.25500000920E-02 0.  1.
       -2    1    3    3    0  502 -0.13018212918E+04  0.15262231386E+04  0.19924714847E+03  0.20158857038E+04  0.25500000920E-02 0. -1.
</event>
<event>
 5   0  0.2839279E-07  0.3834091E+04  0.7818609E-02  0.8038878E-01
       -2   -1    0    0    0  501  0.00000000000E+00  0.00000000000E+00  0.12849474781E+04  0.12849474781E+04  0.25500000920E-02 0. -1.
        2   -1    0    0  501    0  0.00000000000E+00  0.00000000000E+00 -0.28600888475E+04  0.28600888475E+04  0.25500000920E-02 0.  1.
    10030    2    1    2    0    0  0.00000000000E+00  0.00000000000E+00 -0.15751413694E+04  0.41450363256E+04  0.38340912623E+04 0.  0.
        3    1    3    3  502    0  0.62971018125E+03 -0.13130405635E+04  0.56032028405E+03  0.15603106309E+04  0.10100000352E+00 0. -1.
       -3    1    3    3    0  502 -0.62971018125E+03  0.13130405635E+04 -0.21354616534E+04  0.25847256948E+04  0.10100000352E+00 0.  1.
</event>
<event>
 5   0  0.2839279E-07  0.3988673E+04  0.7818609E-02  0.8006836E-01
        2   -1    0    0  501    0  0.00000000000E+00  0.00000000000E+00  0.26003091827E+04  0.26003091827E+04  0.25500000920E-02 0. -1.
       -2   -1    0    0    0  501  0.00000000000E+00  0.00000000000E+00 -0.15295787139E+04  0.15295787140E+04  0.25500000920E-02 0.  1.
    10030    2    1    2    0    0  0.00000000000E+00  0.00000000000E+00  0.10707304688E+04  0.41298878967E+04  0.39886727495E+04 0.  0.
        3    1    3    3  502    0  0.69606996217E+03  0.13635707771E+04  0.18587148597E+04  0.24080406134E+04  0.10100000352E+00 0. -1.
       -3    1    3    3    0  502 -0.69606996217E+03 -0.13635707771E+04 -0.78798439087E+03  0.17218472832E+04  0.10100000352E+00 0.  1.
</event>
<event>
 5   0  0.2666978E-07  0.2900896E+04  0.7818609E-02  0.8272611E-01
        2   -1    0    0  501    0  0.00000000000E+00  0.00000000000E+00  0.26720754046E+04  0.26720754046E+04  0.25500000920E-02 0.  1.
       -2   -1    0    0    0  501  0.00000000000E+00  0.00000000000E+00 -0.78732812342E+03  0.78732812343E+03  0.25500000920E-02 0. -1.
    10030    2    1    2    0    0  0.00000000000E+00  0.00000000000E+00  0.18847472812E+04  0.34594035280E+04  0.29008964917E+04 0.  0.
        4    1    3    3  502    0 -0.43391060284E+03  0.27661241424E+03  0.25595616938E+04  0.26107758456E+04  0.12699999809E+01 0.  1.
       -4    1    3    3    0  502  0.43391060284E+03 -0.27661241424E+03 -0.67481441260E+03  0.84862768239E+03  0.12699999809E+01 0. -1.
</event>
<event>
 5   0  0.8528625E-08  0.3981335E+04  0.7818609E-02  0.8008322E-01
       -1   -1    0    0    0  501  0.00000000000E+00  0.00000000000E+00  0.22117531226E+04  0.22117531227E+04  0.50400001928E-02 0. -1.
        1   -1    0    0  501    0  0.00000000000E+00  0.00000000000E+00 -0.17916816735E+04  0.17916816735E+04  0.50400001928E-02 0.  1.
    10030    2    1    2    0    0  0.00000000000E+00  0.00000000000E+00  0.42007144918E+03  0.40034347961E+04  0.39813352213E+04 0.  0.
        5    1    3    3  502    0 -0.12882798013E+03 -0.19629526750E+04  0.51661428271E+03  0.20338859997E+04  0.46999998093E+01 0. -1.
       -5    1    3    3    0  502  0.12882798013E+03  0.19629526750E+04 -0.96542833531E+02  0.19695487964E+04  0.46999998093E+01 0.  1.
</event>
<event>
 5   0  0.8528625E-08  0.3964106E+04  0.7818609E-02  0.8011827E-01
        1   -1    0    0  501    0  0.00000000000E+00  0.00000000000E+00  0.26547711708E+04  0.26547711708E+04  0.50400001928E-02 0. -1.
       -1   -1    0    0    0  501  0.00000000000E+00  0.00000000000E+00 -0.14798010932E+04  0.14798010932E+04  0.50400001928E-02 0.  1.
    10030    2    1    2    0    0  0.00000000000E+00  0.00000000000E+00  0.11749700776E+04  0.41345722640E+04  0.39641055893E+04 0.  0.
        2    1    3    3  502    0 -0.17201615990E+04 -0.85332856748E+03  0.75023895482E+02  0.19216540156E+04  0.25500000920E-02 0.  1.
       -2    1    3    3    0  502  0.17201615990E+04  0.85332856748E+03  0.10999461821E+04  0.22129182484E+04  0.25500000920E-02 0. -1.
</event>
<event>
 5   0  0.8528625E-08  0.4052804E+04  0.7818609E-02  0.7993978E-01
       -1   -1    0    0    0  501  0.00000000000E+00  0.00000000000E+00  0.17562799575E+04  0.17562799575E+04  0.50400001928E-02 0. -1.
        1   -1    0    0  501    0  0.00000000000E+00  0.00000000000E+00 -0.23380700341E+04  0.23380700341E+04  0.50400001928E-02 0.  1.
    10030    2    1    2    0    0  0.00000000000E+00  0.00000000000E+00 -0.58179007664E+03  0.40943499916E+04  0.40528042342E+04 0.  0.
        2    1    3    3  502    0  0.35167434225E+03 -0.18758582664E+04 -0.97889493252E+03  0.21449369145E+04  0.25500000920E-02 0.  1.
       -2    1    3    3    0  502 -0.35167434225E+03  0.18758582664E+04  0.39710485588E+03  0.19494130771E+04  0.25500000920E-02 0. -1.
</event>
<event>
 5   0  0.8528625E-08  0.3972612E+04  0.7818609E-02  0.8010094E-01
       -1   -1    0    0    0  501  0.00000000000E+00  0.00000000000E+00  0.29604675560E+04  0.29604675560E+04  0.50400001928E-02 0. -1.
        1   -1    0    0  501    0  0.00000000000E+00  0.00000000000E+00 -0.13326987666E+04  0.13326987667E+04  0.50400001928E-02 0.  1.
    10030    2    1    2    0    0  0.00000000000E+00  0.00000000000E+00  0.16277687893E+04  0.42931663226E+04  0.39726119672E+04 0.  0.
        3    1    3    3  502    0  0.18806717580E+04 -0.45476849402E+03  0.12991986904E+04  0.23305917471E+04  0.10100000352E+00 0.  1.
       -3    1    3    3    0  502 -0.18806717580E+04  0.45476849402E+03  0.32857009891E+03  0.19625745755E+04  0.10100000352E+00 0. -1.
</event>
<event>
 5   0  0.2661693E-07  0.3999612E+04  0.7818609E-02  0.8004625E-01
        2   -1    0    0  501    0  0.00000000000E+00  0.00000000000E+00  0.31382782809E+04  0.31382782809E+04  0.25500000920E-02 0.  1.
       -2   -1    0    0    0  501  0.00000000000E+00  0.00000000000E+00 -0.12743367419E+04  0.12743367419E+04  0.25500000920E-02 0. -1.
    10030    2    1    2    0    0  0.00000000000E+00  0.00000000000E+00  0.18639415390E+04  0.44126150228E+04  0.39996116409E+04 0.  0.
        1    1    3    3  502    0  0.12390566475E+04 -0.61294582510E+03  0.25262721925E+04  0.28797595648E+04  0.50400001928E-02 0.  1.
       -1    1    3    3    0  502 -0.12390566475E+04  0.61294582510E+03 -0.66233065354E+03  0.15328554580E+04  0.50400001928E-02 0. -1.
</event>
<event>
 5   0  0.8528625E-08  0.3951800E+04  0.7818609E-02  0.8014341E-01
       -1   -1    0    0    0  501  0.00000000000E+00  0.00000000000E+00  0.20360742572E+04  0.20360742572E+04  0.50400001928E-02 0. -1.
        1   -1    0    0  501    0  0.00000000000E+00  0.00000000000E+00 -0.19175040722E+04  0.19175040722E+04  0.50400001928E-02 0.  1.
    10030    2    1    2    0    0  0.00000000000E+00  0.00000000000E+00  0.11857018497E+03  0.39535783294E+04  0.39517999339E+04 0.  0.
        3    1    3    3  502    0  0.84718381681E+03  0.12538544290E+04 -0.12118414142E+04  0.19386673185E+04  0.10100000352E+00 0.  1.
       -3    1    3    3    0  502 -0.84718381681E+03 -0.12538544290E+04  0.13304115991E+04  0.20149110109E+04  0.10100000352E+00 0. -1.
</event>
<event>
 5   0  0.2839279E-07  0.4019822E+04  0.7818609E-02  0.8000560E-01
        2   -1    0    0  501    0  0.00000000000E+00  0.00000000000E+00  0.15758898274E+04  0.15758898274E+04  0.25500000920E-02 0.  1.
       -2   -1    0    0    0  501  0.00000000000E+00  0.00000000000E+00 -0.25634668080E+04  0.25634668080E+04  0.25500000920E-02 0. -1.
    10030    2    1    2    0    0  0.00000000000E+00  0.00000000000E+00 -0.98757698066E+03  0.41393566354E+04  0.40198215212E+04 0.  0.
        3    1    3    3  502    0  0.35291873064E+02  0.19700558594E+04 -0.90229110708E+03  0.21671397873E+04  0.10100000352E+00 0.  1.
       -3    1    3    3    0  502 -0.35291873064E+02 -0.19700558594E+04 -0.85285873577E+02  0.19722168481E+04  0.10100000352E+00 0. -1.
</event>
<event>
 5   0  0.8583262E-08  0.3969247E+04  0.7818609E-02  0.8010779E-01
        1   -1    0    0  501    0  0.00000000000E+00  0.00000000000E+00  0.16944849144E+04  0.16944849144E+04  0.50400001928E-02 0. -1.
       -1   -1    0    0    0  501  0.00000000000E+00  0.00000000000E+00 -0.23244405723E+04  0.23244405724E+04  0.50400001928E-02 0.  1.
    10030    2    1    2    0    0  0.00000000000E+00  0.00000000000E+00 -0.62995565795E+03  0.40189254868E+04  0.39692465201E+04 0.  0.
        1    1    3    3  502    0  0.18624273757E+04 -0.65712850932E+02  0.37604156617E+03  0.19011473294E+04  0.50400001928E-02 0. -1.
       -1    1    3    3    0  502 -0.18624273757E+04  0.65712850932E+02 -0.10059972241E+04  0.21177781573E+04  0.50400001928E-02 0.  1.
</event>
<event>
 5   0  0.2666978E-07  0.4025549E+04  0.7818609E-02  0.7999412E-01
        2   -1    0    0  501    0  0.00000000000E+00  0.00000000000E+00  0.20402564737E+04  0.20402564737E+04  0.25500000920E-02 0.  1.
       -2   -1    0    0    0  501  0.00000000000E+00  0.00000000000E+00 -0.19856626680E+04  0.19856626680E+04  0.25500000920E-02 0. -1.
    10030    2    1    2    0    0  0.00000000000E+00  0.00000000000E+00  0.54593805748E+02  0.40259191417E+04  0.40255489628E+04 0.  0.
        4    1    3    3  502    0 -0.33797408665E+03 -0.51931893490E+03  0.19425032546E+04  0.20389308832E+04  0.12699999809E+01 0.  1.
       -4    1    3    3    0  502  0.33797408665E+03  0.51931893490E+03 -0.18879094489E+04  0.19869882585E+04  0.12699999809E+01 0. -1.
</event>
<event>
 5   0  0.2666978E-07  0.4001637E+04  0.7818609E-02  0.8004216E-01
       -2   -1    0    0    0  501  0.00000000000E+00  0.00000000000E+00  0.13570876958E+04  0.13570876958E+04  0.25500000920E-02 0.  1.
        2   -1    0    0  501    0  0.00000000000E+00  0.00000000000E+00 -0.29499010733E+04  0.29499010733E+04  0.25500000920E-02 0. -1.
    10030    2    1    2    0    0  0.00000000000E+00  0.00000000000E+00 -0.15928133775E+04  0.43069887691E+04  0.40016368902E+04 0.  0.
        4    1    3    3  502    0 -0.14878679056E+04  0.60487250161E+03 -0.20806220454E+04  0.26284237399E+04  0.12699999809E+01 0. -1.
       -4    1    3    3    0  502  0.14878679056E+04 -0.60487250161E+03  0.48780866791E+03  0.16785650292E+04  0.12699999809E+01 0.  1.
</event>
<event>
 5   0  0.8528625E-08  0.4022917E+04  0.7818609E-02  0.7999939E-01
        1   -1    0    0  501    0  0.00000000000E+00  0.00000000000E+00  0.13153206938E+04  0.13153206938E+04  0.50400001928E-02 0.  1.
       -1   -1    0    0    0  501  0.00000000000E+00  0.00000000000E+00 -0.30760300107E+04  0.30760300107E+04  0.50400001928E-02 0. -1.
    10030    2    1    2    0    0  0.00000000000E+00  0.00000000000E+00 -0.17607093169E+04  0.43913507044E+04  0.40229173134E+04 0.  0.
        5    1    3    3  502    0  0.77895094355E+03  0.18311153141E+04 -0.55987497614E+03  0.20671792242E+04  0.46999998093E+01 0.  1.
       -5    1    3    3    0  502 -0.77895094355E+03 -0.18311153141E+04 -0.12008343407E+04  0.23241714803E+04  0.46999998093E+01 0. -1.
</event>
<event>
 5   0  0.8528625E-08  0.3921253E+04  0.7818609E-02  0.8020623E-01
       -1   -1    0    0    0  501  0.00000000000E+00  0.00000000000E+00  0.27699587202E+04  0.27699587202E+04  0.50400001928E-02 0. -1.
        1   -1    0    0  501    0  0.00000000000E+00  0.00000000000E+00 -0.13877668888E+04  0.13877668888E+04  0.50400001928E-02 0.  1.
    10030    2    1    2    0    0  0.00000000000E+00  0.00000000000E+00  0.13821918313E+04  0.41577256090E+04  0.39212533687E+04 0.  0.
        3    1    3    3  502    0 -0.16605825627E+04 -0.23878243392E+03  0.17669298837E+04  0.24365124097E+04  0.10100000352E+00 0.  1.
       -3    1    3    3    0  502  0.16605825627E+04  0.23878243392E+03 -0.38473805238E+03  0.17212131993E+04  0.10100000352E+00 0. -1.
</event>
<event>
 5   0  0.8528625E-08  0.4017623E+04  0.7818609E-02  0.8001001E-01
        1   -1    0    0  501    0  0.00000000000E+00  0.00000000000E+00  0.14505751220E+04  0.14505751220E+04  0.50400001928E-02 0.  1.
       -1   -1    0    0    0  501  0.00000000000E+00  0.00000000000E+00 -0.27818777665E+04  0.27818777665E+04  0.50400001928E-02 0. -1.
    10030    2    1    2    0    0  0.00000000000E+00  0.00000000000E+00 -0.13313026445E+04  0.42324528885E+04  0.40176225212E+04 0.  0.
        2    1    3    3  502    0 -0.15689223148E+04  0.30738507242E+03  0.61565818289E+03  0.17131952051E+04  0.25500000920E-02 0.  1.
       -2    1    3    3    0  502  0.15689223148E+04 -0.30738507242E+03 -0.19469608273E+04  0.25192576835E+04  0.25500000920E-02 0. -1.
</event>
<event>
 5   0  0.2666978E-07  0.3699995E+04  0.7818609E-02  0.8067963E-01
       -2   -1    0    0    0  501  0.00000000000E+00  0.00000000000E+00  0.14491330119E+04  0.14491330119E+04  0.25500000920E-02 0.  1.
        2   -1    0    0  501    0  0.00000000000E+00  0.00000000000E+00 -0.23617511893E+04  0.23617511893E+04  0.25500000920E-02 0. -1.
    10030    2    1    2    0    0  0.00000000000E+00  0.00000000000E+00 -0.91261817738E+03  0.38108842012E+04  0.36999954672E+04 0.  0.
        4    1    3    3  502    0  0.40691599708E+03  0.17929527073E+04 -0.66796719493E+03  0.19561292968E+04  0.12699999809E+01 0.  1.
       -4    1    3    3    0  502 -0.40691599708E+03 -0.17929527073E+04 -0.24465098245E+03  0.18547549044E+04  0.12699999809E+01 0. -1.
</event>
<event>
 5   0  0.8528625E-08  0.3999147E+04  0.7818609E-02  0.8004719E-01
        1   -1    0    0  501    0  0.00000000000E+00  0.00000000000E+00  0.15354107500E+04  0.15354107500E+04  0.50400001928E-02 0.  1.
       -1   -1    0    0    0  501  0.00000000000E+00  0.00000000000E+00 -0.26040544806E+04  0.26040544806E+04  0.50400001928E-02 0. -1.
    10030    2    1    2    0    0  0.00000000000E+00  0.00000000000E+00 -0.10686437306E+04  0.41394652306E+04  0.39991465305E+04 0.  0.
        3    1    3    3  502    0  0.55989167047E+03  0.14133964649E+04  0.81014638325E+03  0.17226448915E+04  0.10100000352E+00 0.  1.
       -3    1    3    3    0  502 -0.55989167047E+03 -0.14133964649E+04 -0.18787901138E+04  0.24168203391E+04  0.10100000352E+00 0. -1.
</event>
<event>
 5   0  0.2730801E-07  0.4052718E+04  0.7818609E-02  0.7993995E-01
        2   -1    0    0  501    0  0.00000000000E+00  0.00000000000E+00  0.22772531245E+04  0.22772531245E+04  0.25500000920E-02 0.  1.
       -2   -1    0    0    0  501  0.00000000000E+00  0.00000000000E+00 -0.18031073251E+04  0.18031073251E+04  0.25500000920E-02 0. -1.
    10030    2    1    2    0    0  0.00000000000E+00  0.00000000000E+00  0.47414579938E+03  0.40803604496E+04  0.40527184901E+04 0.  0.
        2    1    3    3  502    0 -0.10088540096E+04 -0.44291264889E+03  0.19493114962E+04  0.22391456711E+04  0.25500000920E-02 0.  1.
       -2    1    3    3    0  502  0.10088540096E+04  0.44291264889E+03 -0.14751656969E+04  0.18412147785E+04  0.25500000920E-02 0. -1.
</event>
<event>
 5   0  0.2666978E-07  0.3972498E+04  0.7818609E-02  0.8010118E-01
       -2   -1    0    0    0  501  0.00000000000E+00  0.00000000000E+00  0.12698410382E+04  0.12698410382E+04  0.25500000920E-02 0. -1.
        2   -1    0    0  501    0  0.00000000000E+00  0.00000000000E+00 -0.31068345490E+04  0.31068345490E+04  0.25500000920E-02 0.  1.
    10030    2    1    2    0    0  0.00000000000E+00  0.00000000000E+00 -0.18369935108E+04  0.43766755871E+04  0.39724984627E+04 0.  0.
        4    1    3    3  502    0  0.12424382680E+04 -0.93151937363E+03 -0.22829713029E+04  0.27610397998E+04  0.12699999809E+01 0.  1.
       -4    1    3    3    0  502 -0.12424382680E+04  0.93151937363E+03  0.44597779208E+03  0.16156357873E+04  0.12699999809E+01 0. -1.
</event>
<event>
 5   0  0.8528625E-08  0.3827037E+04  0.7818609E-02  0.8040378E-01
       -1   -1    0    0    0  501  0.00000000000E+00  0.00000000000E+00  0.14886870683E+04  0.14886870683E+04  0.50400001928E-02 0. -1.
        1   -1    0    0  501    0  0.00000000000E+00  0.00000000000E+00 -0.24595857028E+04  0.24595857028E+04  0.50400001928E-02 0.  1.
    10030    2    1    2    0    0  0.00000000000E+00  0.00000000000E+00 -0.97089863454E+03  0.39482727711E+04  0.38270371982E+04 0.  0.
        5    1    3    3  502    0 -0.41861117419E+03 -0.94438406571E+03 -0.21471999104E+04  0.23827685838E+04  0.46999998093E+01 0.  1.
       -5    1    3    3    0  502  0.41861117419E+03  0.94438406571E+03  0.11763012759E+04  0.15655041873E+04  0.46999998093E+01 0. -1.
</event>
<event>
 5   0  0.8528625E-08  0.4017114E+04  0.7818609E-02  0.8001103E-01
        1   -1    0    0  501    0  0.00000000000E+00  0.00000000000E+00  0.15629272379E+04  0.15629272379E+04  0.50400001928E-02 0. -1.
       -1   -1    0    0    0  501  0.00000000000E+00  0.00000000000E+00 -0.25812464862E+04  0.25812464862E+04  0.50400001928E-02 0.  1.
    10030    2    1    2    0    0  0.00000000000E+00  0.00000000000E+00 -0.10183192483E+04  0.41441737241E+04  0.40171136110E+04 0.  0.
        2    1    3    3  502    0 -0.63241893102E+03  0.77340129454E+03 -0.23067420939E+04  0.25137944137E+04  0.25500000920E-02 0.  1.
       -2    1    3    3    0  502  0.63241893102E+03 -0.77340129454E+03  0.12884228456E+04  0.16303793104E+04  0.25500000920E-02 0. -1.
</event>
<event>
 5   0  0.2730801E-07  0.3873861E+04  0.7818609E-02  0.8030488E-01
        2   -1    0    0  501    0  0.00000000000E+00  0.00000000000E+00  0.17897629015E+04  0.17897629015E+04  0.25500000920E-02 0.  1.
       -2   -1    0    0    0  501  0.00000000000E+00  0.00000000000E+00 -0.20961994293E+04  0.20961994293E+04  0.25500000920E-02 0. -1.
    10030    2    1    2    0    0  0.00000000000E+00  0.00000000000E+00 -0.30643652778E+03  0.38859623309E+04  0.38738611089E+04 0.  0.
        2    1    3    3  502    0  0.26684100455E+03  0.14106594097E+03 -0.20724634323E+04  0.20943276725E+04  0.25500000920E-02 0. -1.
       -2    1    3    3    0  502 -0.26684100455E+03 -0.14106594097E+03  0.17660269046E+04  0.17916346584E+04  0.25500000920E-02 0.  1.
</event>
<event>
 5   0  0.2839279E-07  0.3960206E+04  0.7818609E-02  0.8012623E-01
       -2   -1    0    0    0  501  0.00000000000E+00  0.00000000000E+00  0.16519000810E+04  0.16519000810E+04  0.25500000920E-02 0. -1.
        2   -1    0    0  501    0  0.00000000000E+00  0.00000000000E+00 -0.23735143273E+04  0.23735143273E+04  0.25500000920E-02 0.  1.
    10030    2    1    2    0    0  0.00000000000E+00  0.00000000000E+00 -0.72161424630E+03  0.40254144083E+04  0.39602063126E+04 0.  0.
        3    1    3    3  502    0  0.29591676865E+03 -0.19209273070E+04 -0.74556333692E+03  0.20816803674E+04  0.10100000352E+00 0.  1.
       -3    1    3    3    0  502 -0.29591676865E+03  0.19209273070E+04  0.23949090625E+02  0.19437340409E+04  0.10100000352E+00 0. -1.
</event>
<event>
 5   0  0.2704088E-07  0.4081806E+04  0.7818609E-02  0.7988244E-01
        2   -1    0    0  501    0  0.00000000000E+00  0.00000000000E+00  0.19479494120E+04  0.19479494120E+04  0.25500000920E-02 0. -1.
       -2   -1    0    0    0  501  0.00000000000E+00  0.00000000000E+00 -0.21382917844E+04  0.21382917844E+04  0.25500000920E-02 0.  1.
    10030    2    1    2    0    0  0.00000000000E+00  0.00000000000E+00 -0.19034237235E+03  0.40862411964E+04  0.40818055927E+04 0.  0.
        5    1    3    3  502    0 -0.62030726787E+03  0.81788330784E+03  0.16707036936E+04  0.19608638743E+04  0.46999998093E+01 0. -1.
       -5    1    3    3    0  502  0.62030726787E+03 -0.81788330784E+03 -0.18610460659E+04  0.21253773221E+04  0.46999998093E+01 0.  1.
</event>
<event>
 5   0  0.8528625E-08  0.3657527E+04  0.7818609E-02  0.8077440E-01
       -1   -1    0    0    0  501  0.00000000000E+00  0.00000000000E+00  0.16674548120E+04  0.16674548120E+04  0.50400001928E-02 0. -1.
        1   -1    0    0  501    0  0.00000000000E+00  0.00000000000E+00 -0.20056772605E+04  0.20056772605E+04  0.50400001928E-02 0.  1.
    10030    2    1    2    0    0  0.00000000000E+00  0.00000000000E+00 -0.33822244851E+03  0.36731320725E+04  0.36575271424E+04 0.  0.
        2    1    3    3  502    0  0.17737210761E+04  0.26354595928E+03 -0.52957614166E+03  0.18697576897E+04  0.25500000920E-02 0. -1.
       -2    1    3    3    0  502 -0.17737210761E+04 -0.26354595928E+03  0.19135369315E+03  0.18033743827E+04  0.25500000920E-02 0.  1.
</event>
<event>
 5   0  0.2730801E-07  0.3997088E+04  0.7818609E-02  0.8005134E-01
        2   -1    0    0  501    0  0.00000000000E+00  0.00000000000E+00  0.24297127805E+04  0.24297127805E+04  0.25500000920E-02 0.  1.
       -2   -1    0    0    0  501  0.00000000000E+00  0.00000000000E+00 -0.16438889109E+04  0.16438889109E+04  0.25500000920E-02 0. -1.
    10030    2    1    2    0    0  0.00000000000E+00  0.00000000000E+00  0.78582386962E+03  0.40736016913E+04  0.39970878882E+04 0.  0.
        2    1    3    3  502    0  0.18634544231E+04 -0.33059191351E+03 -0.26158420707E+03  0.19105443459E+04  0.25500000920E-02 0. -1.
       -2    1    3    3    0  502 -0.18634544231E+04  0.33059191351E+03  0.10474080767E+04  0.21630573454E+04  0.25500000920E-02 0.  1.
</event>
<event>
 5   0  0.8528625E-08  0.3968344E+04  0.7818609E-02  0.8010963E-01
       -1   -1    0    0    0  501  0.00000000000E+00  0.00000000000E+00  0.16003033504E+04  0.16003033504E+04  0.50400001928E-02 0.  1.
        1   -1    0    0  501    0  0.00000000000E+00  0.00000000000E+00 -0.24601206049E+04  0.24601206049E+04  0.50400001928E-02 0. -1.
    10030    2    1    2    0    0  0.00000000000E+00  0.00000000000E+00 -0.85981725454E+03  0.40604239553E+04  0.39683443633E+04 0.  0.
        2    1    3    3  502    0  0.12831747059E+04 -0.80280022465E+03 -0.17426088589E+04  0.23081835199E+04  0.25500000920E-02 0. -1.
       -2    1    3    3    0  502 -0.12831747059E+04  0.80280022465E+03  0.88279160439E+03  0.17522404353E+04  0.25500000920E-02 0.  1.
</event>
<event>
 5   0  0.2704088E-07  0.4017741E+04  0.7818609E-02  0.8000977E-01
        2   -1    0    0  501    0  0.00000000000E+00  0.00000000000E+00  0.25785087476E+04  0.25785087476E+04  0.25500000920E-02 0.  1.
       -2   -1    0    0    0  501  0.00000000000E+00  0.00000000000E+00 -0.15650750585E+04  0.15650750585E+04  0.25500000920E-02 0. -1.
    10030    2    1    2    0    0  0.00000000000E+00  0.00000000000E+00  0.10134336891E+04  0.41435838061E+04  0.40177405237E+04 0.  0.
        5    1    3    3  502    0  0.87009901235E+03 -0.16538130802E+04  0.12669400610E+04  0.22577265565E+04  0.46999998093E+01 0. -1.
       -5    1    3    3    0  502 -0.87009901235E+03  0.16538130802E+04 -0.25350637192E+03  0.18858572497E+04  0.46999998093E+01 0.  1.
</event>
<event>
 5   0  0.8583262E-08  0.4077763E+04  0.7818609E-02  0.7989040E-01
       -1   -1    0    0    0  501  0.00000000000E+00  0.00000000000E+00  0.21882537388E+04  0.21882537389E+04  0.50400001928E-02 0.  1.
        1   -1    0    0  501    0  0.00000000000E+00  0.00000000000E+00 -0.18997059455E+04  0.18997059455E+04  0.50400001928E-02 0. -1.
    10030    2    1    2    0    0  0.00000000000E+00  0.00000000000E+00  0.28854779333E+03  0.40879596844E+04  0.40777634252E+04 0.  0.
        1    1    3    3  502    0 -0.93278989847E+03  0.98814165205E+03  0.16681134061E+04  0.21515397405E+04  0.50400001928E-02 0.  1.
       -1    1    3    3    0  502  0.93278989847E+03 -0.98814165205E+03 -0.13795656128E+04  0.19364199439E+04  0.50400001928E-02 0. -1.
</event>
<event>
 5   0  0.8528625E-08  0.4007776E+04  0.7818609E-02  0.8002980E-01
        1   -1    0    0  501    0  0.00000000000E+00  0.00000000000E+00  0.23536150577E+04  0.23536150577E+04  0.50400001928E-02 0. -1.
       -1   -1    0    0    0  501  0.00000000000E+00  0.00000000000E+00 -0.17061270880E+04  0.17061270880E+04  0.50400001928E-02 0.  1.
    10030    2    1    2    0    0  0.00000000000E+00  0.00000000000E+00  0.64748796968E+03  0.40597421457E+04  0.40077756448E+04 0.  0.
        4    1    3    3  502    0  0.12106640740E+04 -0.13719946954E+04  0.11513368352E+04  0.21618637944E+04  0.12699999809E+01 0. -1.
       -4    1    3    3    0  502 -0.12106640740E+04  0.13719946954E+04 -0.50384886551E+03  0.18978783514E+04  0.12699999809E+01 0.  1.
</event>
<event>
 5   0  0.8583262E-08  0.3967342E+04  0.7818609E-02  0.8011167E-01
        1   -1    0    0  501    0  0.00000000000E+00  0.00000000000E+00  0.13923777983E+04  0.13923777983E+04  0.50400001928E-02 0.  1.
       -1   -1    0    0    0  501  0.00000000000E+00  0.00000000000E+00 -0.28260646929E+04  0.28260646929E+04  0.50400001928E-02 0. -1.
    10030    2    1    2    0    0  0.00000000000E+00  0.00000000000E+00 -0.14336868946E+04  0.42184424911E+04  0.39673415456E+04 0.  0.
        1    1    3    3  502    0  0.39165613123E+03  0.46870226499E+02  0.13502570021E+04  0.14066930422E+04  0.50400001928E-02 0.  1.
       -1    1    3    3    0  502 -0.39165613123E+03 -0.46870226499E+02 -0.27839438967E+04  0.28117494489E+04  0.50400001928E-02 0. -1.
</event>
<event>
 5   0  0.2704088E-07  0.4001099E+04  0.7818609E-02  0.8004325E-01
        2   -1    0    0  501    0  0.00000000000E+00  0.00000000000E+00  0.24681486807E+04  0.24681486807E+04  0.25500000920E-02 0.  1.
       -2   -1    0    0    0  501  0.00000000000E+00  0.00000000000E+00 -0.16215388610E+04  0.16215388610E+04  0.25500000920E-02 0. -1.
    10030    2    1    2    0    0  0.00000000000E+00  0.00000000000E+00  0.84660981971E+03  0.40896875417E+04  0.40010993492E+04 0.  0.
        5    1    3    3  502    0 -0.92773023612E+01  0.17800565802E+04  0.13564750578E+04  0.22380201450E+04  0.46999998093E+01 0.  1.
       -5    1    3    3    0  502  0.92773023612E+01 -0.17800565802E+04 -0.50986523811E+03  0.18516673967E+04  0.46999998093E+01 0. -1.
</event>
<event>
 5   0  0.8528625E-08  0.4007201E+04  0.7818609E-02  0.8003095E-01
        1   -1    0    0  501    0  0.00000000000E+00  0.00000000000E+00  0.23297731034E+04  0.23297731034E+04  0.50400001928E-02 0.  1.
       -1   -1    0    0    0  501  0.00000000000E+00  0.00000000000E+00 -0.17230930249E+04  0.17230930249E+04  0.50400001928E-02 0. -1.
    10030    2    1    2    0    0  0.00000000000E+00  0.00000000000E+00  0.60668007853E+03  0.40528661283E+04  0.40072014095E+04 0.  0.
        5    1    3    3  502    0  0.46733573805E+03 -0.19271083945E+04  0.13289399643E+02  0.19830149153E+04  0.46999998093E+01 0. -1.
       -5    1    3    3    0  502 -0.46733573805E+03  0.19271083945E+04  0.59339067889E+03  0.20698512130E+04  0.46999998093E+01 0.  1.
</event>
<event>
 5   0  0.8528625E-08  0.3992343E+04  0.7818609E-02  0.8006093E-01
       -1   -1    0    0    0  501  0.00000000000E+00  0.00000000000E+00  0.13534879383E+04  0.13534879383E+04  0.50400001928E-02 0.  1.
        1   -1    0    0  501    0  0.00000000000E+00  0.00000000000E+00 -0.29440231853E+04  0.29440231853E+04  0.50400001928E-02 0. -1.
    10030    2    1    2    0    0  0.00000000000E+00  0.00000000000E+00 -0.15905352470E+04  0.42975111237E+04  0.39923426063E+04 0.  0.
        3    1    3    3  502    0 -0.50791988067E+03  0.38049002860E+03 -0.28325378480E+04  0.29027617776E+04  0.10100000352E+00 0. -1.
       -3    1    3    3    0  502  0.50791988067E+03 -0.38049002860E+03  0.12420026010E+04  0.13947493460E+04  0.10100000352E+00 0.  1.
</event>
<event>
 5   0  0.2661693E-07  0.3934722E+04  0.7818609E-02  0.8017846E-01
        2   -1    0    0  501    0  0.00000000000E+00  0.00000000000E+00  0.21789819146E+04  0.21789819146E+04  0.25500000920E-02 0. -1.
       -2   -1    0    0    0  501  0.00000000000E+00  0.00000000000E+00 -0.17762923839E+04  0.17762923839E+04  0.25500000920E-02 0.  1.
    10030    2    1    2    0    0  0.00000000000E+00  0.00000000000E+00  0.40268953069E+03  0.39552742986E+04  0.39347218350E+04 0.  0.
        1    1    3    3  502    0 -0.16510291291E+04 -0.26445312225E+03 -0.84073608647E+03  0.18715420930E+04  0.50400001928E-02 0.  1.
       -1    1    3    3    0  502  0.16510291291E+04  0.26445312225E+03  0.12434256172E+04  0.20837322055E+04  0.50400001928E-02 0. -1.
</event>
<event>
 5   0  0.8528625E-08  0.3762803E+04  0.7818609E-02  0.8054185E-01
       -1   -1    0    0    0  501  0.00000000000E+00  0.00000000000E+00  0.21707249076E+04  0.21707249076E+04  0.50400001928E-02 0.  1.
        1   -1    0    0  501    0  0.00000000000E+00  0.00000000000E+00 -0.16306400928E+04  0.16306400928E+04  0.50400001928E-02 0. -1.
    10030    2    1    2    0    0  0.00000000000E+00  0.00000000000E+00  0.54008481482E+03  0.38013650003E+04  0.37628027132E+04 0.  0.
        3    1    3    3  502    0 -0.25047934884E+03 -0.18596868817E+04  0.40743562570E+03  0.19202028543E+04  0.10100000352E+00 0. -1.
       -3    1    3    3    0  502  0.25047934884E+03  0.18596868817E+04  0.13264918912E+03  0.18811621461E+04  0.10100000352E+00 0.  1.
</event>
<event>
 5   0  0.2839279E-07  0.3952967E+04  0.7818609E-02  0.8014102E-01
       -2   -1    0    0    0  501  0.00000000000E+00  0.00000000000E+00  0.27456609667E+04  0.27456609667E+04  0.25500000920E-02 0.  1.
        2   -1    0    0  501    0  0.00000000000E+00  0.00000000000E+00 -0.14227853903E+04  0.14227853904E+04  0.25500000920E-02 0. -1.
    10030    2    1    2    0    0  0.00000000000E+00  0.00000000000E+00  0.13228755764E+04  0.41684463571E+04  0.39529666380E+04 0.  0.
        3    1    3    3  502    0 -0.80930290933E+03  0.47148062418E+03 -0.11739023231E+04  0.15017695736E+04  0.10100000352E+00 0. -1.
       -3    1    3    3    0  502  0.80930290933E+03 -0.47148062418E+03  0.24967778994E+04  0.26666767834E+04  0.10100000352E+00 0.  1.
</event>
<event>
 5   0  0.8583262E-08  0.2897977E+04  0.7818609E-02  0.8273480E-01
        1   -1    0    0  501    0  0.00000000000E+00  0.00000000000E+00  0.17968700928E+04  0.17968700928E+04  0.50400001928E-02 0.  1.
       -1   -1    0    0    0  501  0.00000000000E+00  0.00000000000E+00 -0.11684583405E+04  0.11684583406E+04  0.50400001928E-02 0. -1.
    10030    2    1    2    0    0  0.00000000000E+00  0.00000000000E+00  0.62841175222E+03  0.29653284333E+04  0.28979771198E+04 0.  0.
        1    1    3    3  502    0 -0.14267696236E+04 -0.24345061216E+03  0.38381699653E+03  0.14974161901E+04  0.50400001928E-02 0.  1.
       -1    1    3    3    0  502  0.14267696236E+04  0.24345061216E+03  0.24459475569E+03  0.14679122433E+04  0.50400001928E-02 0. -1.
</event>
<event>
 5   0  0.8583262E-08  0.3998215E+04  0.7818609E-02  0.8004907E-01
       -1   -1    0    0    0  501  0.00000000000E+00  0.00000000000E+00  0.27778861364E+04  0.27778861364E+04  0.50400001928E-02 0.  1.
        1   -1    0    0  501    0  0.00000000000E+00  0.00000000000E+00 -0.14386587389E+04  0.14386587389E+04  0.50400001928E-02 0. -1.
    10030    2    1    2    0    0  0.00000000000E+00  0.00000000000E+00  0.13392273976E+04  0.42165448753E+04  0.39982146844E+04 0.  0.
        1    1    3    3  502    0 -0.13255540521E+04  0.11460285623E+04 -0.34519830065E+03  0.17859554522E+04  0.50400001928E-02 0. -1.
       -1    1    3    3    0  502  0.13255540521E+04 -0.11460285623E+04  0.16844256982E+04  0.24305894230E+04  0.50400001928E-02 0.  1.
</event>
<event>
 5   0  0.2661693E-07  0.4051809E+04  0.7818609E-02  0.7994176E-01
        2   -1    0    0  501    0  0.00000000000E+00  0.00000000000E+00  0.23661553059E+04  0.23661553059E+04  0.25500000920E-02 0.  1.
       -2   -1    0    0    0  501  0.00000000000E+00  0.00000000000E+00 -0.17345814165E+04  0.17345814165E+04  0.25500000920E-02 0. -1.
    10030    2    1    2    0    0  0.00000000000E+00  0.00000000000E+00  0.63157388940E+03  0.41007367224E+04  0.40518089896E+04 0.  0.
        1    1    3    3  502    0 -0.91799685007E+03  0.40872984670E+03 -0.14645775280E+04  0.17761659945E+04  0.50400001928E-02 0. -1.
       -1    1    3    3    0  502  0.91799685007E+03 -0.40872984670E+03  0.20961514174E+04  0.23245707279E+04  0.50400001928E-02 0.  1.
</event>
<event>
 5   0  0.8528625E-08  0.4022120E+04  0.7818609E-02  0.8000099E-01
       -1   -1    0    0    0  501  0.00000000000E+00  0.00000000000E+00  0.15846421487E+04  0.15846421487E+04  0.50400001928E-02 0.  1.
        1   -1    0    0  501    0  0.00000000000E+00  0.00000000000E+00 -0.25522240343E+04  0.25522240343E+04  0.50400001928E-02 0. -1.
    10030    2    1    2    0    0  0.00000000000E+00  0.00000000000E+00 -0.96758188561E+03  0.41368661830E+04  0.40221197285E+04 0.  0.
        3    1    3    3  502    0  0.12532377313E+04 -0.11230618903E+04 -0.16163356964E+04  0.23333267911E+04  0.10100000352E+00 0. -1.
       -3    1    3    3    0  502 -0.12532377313E+04  0.11230618903E+04  0.64875381075E+03  0.18035393918E+04  0.10100000352E+00 0.  1.
</event>
<event>
 5   0  0.8528625E-08  0.3635596E+04  0.7818609E-02  0.8082386E-01
       -1   -1    0    0    0  501  0.00000000000E+00  0.00000000000E+00  0.21136024693E+04  0.21136024693E+04  0.50400001928E-02 0. -1.
        1   -1    0    0  501    0  0.00000000000E+00  0.00000000000E+00 -0.15633917926E+04  0.15633917926E+04  0.50400001928E-02 0.  1.
    10030    2    1    2    0    0  0.00000000000E+00  0.00000000000E+00  0.55021067673E+03  0.36769942619E+04  0.36355955514E+04 0.  0.
        3    1    3    3  502    0 -0.10347478219E+03 -0.10104025893E+04 -0.12496317780E+04  0.16103415830E+04  0.10100000352E+00 0.  1.
       -3    1    3    3    0  502  0.10347478219E+03  0.10104025893E+04  0.17998424548E+04  0.20666526789E+04  0.10100000352E+00 0. -1.
</event>
<event>
 5   0  0.2839279E-07  0.3995617E+04  0.7818609E-02  0.8005431E-01
       -2   -1    0    0    0  501  0.00000000000E+00  0.00000000000E+00  0.20126069827E+04  0.20126069827E+04  0.25500000920E-02 0. -1.
        2   -1    0    0  501    0  0.00000000000E+00  0.00000000000E+00 -0.19831192311E+04  0.19831192311E+04  0.25500000920E-02 0.  1.
    10030    2    1    2    0    0  0.00000000000E+00  0.00000000000E+00  0.29487751669E+02  0.39957262138E+04  0.39956174051E+04 0.  0.
        3    1    3    3  502    0 -0.70829421295E+03  0.45276599998E+03  0.18271292520E+04  0.20112381899E+04  0.10100000352E+00 0. -1.
       -3    1    3    3    0  502  0.70829421295E+03 -0.45276599998E+03 -0.17976415004E+04  0.19844880239E+04  0.10100000352E+00 0.  1.
</event>
<event>
 5   0  0.2704088E-07  0.3911463E+04  0.7818609E-02  0.8022649E-01
       -2   -1    0    0    0  501  0.00000000000E+00  0.00000000000E+00  0.21442471332E+04  0.21442471332E+04  0.25500000920E-02 0. -1.
        2   -1    0    0  501    0  0.00000000000E+00  0.00000000000E+00 -0.17837893870E+04  0.17837893870E+04  0.25500000920E-02 0.  1.
    10030    2    1    2    0    0  0.00000000000E+00  0.00000000000E+00  0.36045774625E+03  0.39280365202E+04  0.39114627849E+04 0.  0.
        5    1    3    3  502    0 -0.94411784739E+03  0.72915170787E+03 -0.13761257997E+04  0.18211987891E+04  0.46999998093E+01 0.  1.
       -5    1    3    3    0  502  0.94411784739E+03 -0.72915170787E+03  0.17365835460E+04  0.21068377311E+04  0.46999998093E+01 0. -1.
</event>
<event>
 5   0  0.2730801E-07  0.4035276E+04  0.7818609E-02  0.7997468E-01
       -2   -1    0    0    0  501  0.00000000000E+00  0.00000000000E+00  0.14351203953E+04  0.14351203953E+04  0.25500000920E-02 0. -1.
        2   -1    0    0  501    0  0.00000000000E+00  0.00000000000E+00 -0.28366004512E+04  0.28366004512E+04  0.25500000920E-02 0.  1.
    10030    2    1    2    0    0  0.00000000000E+00  0.00000000000E+00 -0.14014800559E+04  0.42717208465E+04  0.40352760306E+04 0.  0.
        2    1    3    3  502    0  0.10738812464E+04 -0.72313070432E+03  0.93742393986E+03  0.15984062656E+04  0.25500000920E-02 0.  1.
       -2    1    3    3    0  502 -0.10738812464E+04  0.72313070432E+03 -0.23389039958E+04  0.26733145809E+04  0.25500000920E-02 0. -1.
</event>
<event>
 5   0  0.2730801E-07  0.4057529E+04  0.7818609E-02  0.7993041E-01
       -2   -1    0    0    0  501  0.00000000000E+00  0.00000000000E+00  0.16592174834E+04  0.16592174834E+04  0.25500000920E-02 0. -1.
        2   -1    0    0  501    0  0.00000000000E+00  0.00000000000E+00 -0.24806188843E+04  0.24806188843E+04  0.25500000920E-02 0.  1.
    10030    2    1    2    0    0  0.00000000000E+00  0.00000000000E+00 -0.82140140084E+03  0.41398363677E+04  0.40575294072E+04 0.  0.
        2    1    3    3  502    0  0.19523259881E+04 -0.32934126193E+03 -0.86222008913E+03  0.21595059418E+04  0.25500000920E-02 0.  1.
       -2    1    3    3    0  502 -0.19523259881E+04  0.32934126193E+03  0.40818688290E+02  0.19803304259E+04  0.25500000920E-02 0. -1.
</event>
<event>
 5   0  0.2839279E-07  0.3828881E+04  0.7818609E-02  0.8039985E-01
       -2   -1    0    0    0  501  0.00000000000E+00  0.00000000000E+00  0.15775847280E+04  0.15775847280E+04  0.25500000920E-02 0.  1.
        2   -1    0    0  501    0  0.00000000000E+00  0.00000000000E+00 -0.23232235986E+04  0.23232235986E+04  0.25500000920E-02 0. -1.
    10030    2    1    2    0    0  0.00000000000E+00  0.00000000000E+00 -0.74563887052E+03  0.39008083266E+04  0.38288808124E+04 0.  0.
        3    1    3    3  502    0  0.75709513798E+03 -0.15410584251E+04 -0.12355015677E+04  0.21153057111E+04  0.10100000352E+00 0. -1.
       -3    1    3    3    0  502 -0.75709513798E+03  0.15410584251E+04  0.48986269721E+03  0.17855026155E+04  0.10100000352E+00 0.  1.
</event>
<event>
 5   0  0.8528625E-08  0.3931099E+04  0.7818609E-02  0.8018592E-01
       -1   -1    0    0    0  501  0.00000000000E+00  0.00000000000E+00  0.23635048314E+04  0.23635048314E+04  0.50400001928E-02 0. -1.
        1   -1    0    0  501    0  0.00000000000E+00  0.00000000000E+00 -0.16346000470E+04  0.16346000470E+04  0.50400001928E-02 0.  1.
    10030    2    1    2    0    0  0.00000000000E+00  0.00000000000E+00  0.72890478443E+03  0.39981048784E+04  0.39310991381E+04 0.  0.
        2    1    3    3  502    0  0.49001520270E+03  0.19004059809E+04  0.47459098574E+03  0.20191320895E+04  0.25500000920E-02 0. -1.
       -2    1    3    3    0  502 -0.49001520270E+03 -0.19004059809E+04  0.25431379869E+03  0.19789727889E+04  0.25500000920E-02 0.  1.
</event>
<event>
 5   0  0.2661693E-07  0.4015885E+04  0.7818609E-02  0.8001350E-01
        2   -1    0    0  501    0  0.00000000000E+00  0.00000000000E+00  0.14615773374E+04  0.14615773374E+04  0.25500000920E-02 0.  1.
       -2   -1    0    0    0  501  0.00000000000E+00  0.00000000000E+00 -0.27585498742E+04  0.27585498742E+04  0.25500000920E-02 0. -1.
    10030    2    1    2    0    0  0.00000000000E+00  0.00000000000E+00 -0.12969725369E+04  0.42201272116E+04  0.40158854466E+04 0.  0.
        1    1    3    3  502    0 -0.76878983491E+03 -0.10621926335E+04  0.94955920383E+03  0.16189359724E+04  0.50400001928E-02 0.  1.
       -1    1    3    3    0  502  0.76878983491E+03  0.10621926335E+04 -0.22465317407E+04  0.26011912392E+04  0.50400001928E-02 0. -1.
</event>
<event>
 5   0  0.8528625E-08  0.2865909E+04  0.7818609E-02  0.8283094E-01
        1   -1    0    0  501    0  0.00000000000E+00  0.00000000000E+00  0.10198815406E+04  0.10198815406E+04  0.50400001928E-02 0.  1.
       -1   -1    0    0    0  501  0.00000000000E+00  0.00000000000E+00 -0.20133298347E+04  0.20133298347E+04  0.50400001928E-02 0. -1.
    10030    2    1    2    0    0  0.00000000000E+00  0.00000000000E+00 -0.99344829416E+03  0.30332113753E+04  0.28659085356E+04 0.  0.
        3    1    3    3  502    0  0.21508809186E+03  0.10205720064E+04 -0.15366987774E+04  0.18572219173E+04  0.10100000352E+00 0. -1.
       -3    1    3    3    0  502 -0.21508809186E+03 -0.10205720064E+04  0.54325048327E+03  0.11759894580E+04  0.10100000352E+00 0.  1.
</event>
<event>
 5   0  0.8528625E-08  0.4029189E+04  0.7818609E-02  0.7998684E-01
        1   -1    0    0  501    0  0.00000000000E+00  0.00000000000E+00  0.16361761825E+04  0.16361761825E+04  0.50400001928E-02 0.  1.
       -1   -1    0    0    0  501  0.00000000000E+00  0.00000000000E+00 -0.24805344849E+04  0.24805344849E+04  0.50400001928E-02 0. -1.
    10030    2    1    2    0    0  0.00000000000E+00  0.00000000000E+00 -0.84435830243E+03  0.41167106674E+04  0.40291892207E+04 0.  0.
        3    1    3    3  502    0  0.16329350016E+04 -0.11782491180E+04 -0.35883462104E+03  0.20453630483E+04  0.10100000352E+00 0. -1.
       -3    1    3    3    0  502 -0.16329350016E+04  0.11782491180E+04 -0.48552368139E+03  0.20713476191E+04  0.10100000352E+00 0.  1.
</event>
<event>
 5   0  0.8528625E-08  0.3990049E+04  0.7818609E-02  0.8006557E-01
       -1   -1    0    0    0  501  0.00000000000E+00  0.00000000000E+00  0.15453014977E+04  0.15453014977E+04  0.50400001928E-02 0.  1.
        1   -1    0    0  501    0  0.00000000000E+00  0.00000000000E+00 -0.25756282095E+04  0.25756282095E+04  0.50400001928E-02 0. -1.
    10030    2    1    2    0    0  0.00000000000E+00  0.00000000000E+00 -0.10303267118E+04  0.41209297072E+04  0.39900486862E+04 0.  0.
        4    1    3    3  502    0  0.16698242935E+04  0.70303538484E+03  0.34742629896E+03  0.18447977042E+04  0.12699999809E+01 0.  1.
       -4    1    3    3    0  502 -0.16698242935E+04 -0.70303538484E+03 -0.13777530108E+04  0.22761320030E+04  0.12699999809E+01 0. -1.
</event>
<event>
 5   0  0.2666978E-07  0.3994054E+04  0.7818609E-02  0.8005747E-01
       -2   -1    0    0    0  501  0.00000000000E+00  0.00000000000E+00  0.17929006335E+04  0.17929006335E+04  0.25500000920E-02 0. -1.
        2   -1    0    0  501    0  0.00000000000E+00  0.00000000000E+00 -0.22243935831E+04  0.22243935831E+04  0.25500000920E-02 0.  1.
    10030    2    1    2    0    0  0.00000000000E+00  0.00000000000E+00 -0.43149294962E+03  0.40172942166E+04  0.39940539127E+04 0.  0.
        4    1    3    3  502    0 -0.97337443658E+03  0.38063038212E+02  0.15377300729E+04  0.18203082098E+04  0.12699999809E+01 0. -1.
       -4    1    3    3    0  502  0.97337443658E+03 -0.38063038212E+02 -0.19692230226E+04  0.21969860068E+04  0.12699999809E+01 0.  1.
</event>
<event>
 5   0  0.8528625E-08  0.3985987E+04  0.7818609E-02  0.8007379E-01
        1   -1    0    0  501    0  0.00000000000E+00  0.00000000000E+00  0.15881610633E+04  0.15881610633E+04  0.50400001928E-02 0. -1.
       -1   -1    0    0    0  501  0.00000000000E+00  0.00000000000E+00 -0.25010204030E+04  0.25010204030E+04  0.50400001928E-02 0.  1.
    10030    2    1    2    0    0  0.00000000000E+00  0.00000000000E+00 -0.91285933972E+03  0.40891814663E+04  0.39859870660E+04 0.  0.
        3    1    3    3  502    0 -0.96920287674E+03  0.44139034406E+03  0.12717732079E+04  0.16587907507E+04  0.10100000352E+00 0. -1.
       -3    1    3    3    0  502  0.96920287674E+03 -0.44139034406E+03 -0.21846325476E+04  0.24303907156E+04  0.10100000352E+00 0.  1.
</event>
<event>
 5   0  0.2704088E-07  0.3096160E+04  0.7818609E-02  0.8216793E-01
       -2   -1    0    0    0  501  0.00000000000E+00  0.00000000000E+00  0.16109020048E+04  0.16109020048E+04  0.25500000920E-02 0. -1.
        2   -1    0    0  501    0  0.00000000000E+00  0.00000000000E+00 -0.14877075611E+04  0.14877075611E+04  0.25500000920E-02 0.  1.
    10030    2    1    2    0    0  0.00000000000E+00  0.00000000000E+00  0.12319444369E+03  0.30986095659E+04  0.30961596165E+04 0.  0.
        5    1    3    3  502    0 -0.13685667540E+04  0.71690023843E+03  0.15969565284E+03  0.15532049780E+04  0.46999998093E+01 0. -1.
       -5    1    3    3    0  502  0.13685667540E+04 -0.71690023843E+03 -0.36501209150E+02  0.15454045879E+04  0.46999998093E+01 0.  1.
</event>
<event>
 5   0  0.8528625E-08  0.3921741E+04  0.7818609E-02  0.8020523E-01
        1   -1    0    0  501    0  0.00000000000E+00  0.00000000000E+00  0.34623157887E+04  0.34623157887E+04  0.50400001928E-02 0.  1.
       -1   -1    0    0    0  501  0.00000000000E+00  0.00000000000E+00 -0.11105321824E+04  0.11105321824E+04  0.50400001928E-02 0. -1.
    10030    2    1    2    0    0  0.00000000000E+00  0.00000000000E+00  0.23517836063E+04  0.45728479711E+04  0.39217409956E+04 0.  0.
        3    1    3    3  502    0 -0.18162476451E+04  0.21027777006E+03  0.34970665593E+03  0.18615227649E+04  0.10100000352E+00 0. -1.
       -3    1    3    3    0  502  0.18162476451E+04 -0.21027777006E+03  0.20020769504E+04  0.27113252063E+04  0.10100000352E+00 0.  1.
</event>
<event>
 5   0  0.2661693E-07  0.2951963E+04  0.7818609E-02  0.8257583E-01
        2   -1    0    0  501    0  0.00000000000E+00  0.00000000000E+00  0.19590388478E+04  0.19590388478E+04  0.25500000920E-02 0.  1.
       -2   -1    0    0    0  501  0.00000000000E+00  0.00000000000E+00 -0.11120359723E+04  0.11120359723E+04  0.25500000920E-02 0. -1.
    10030    2    1    2    0    0  0.00000000000E+00  0.00000000000E+00  0.84700287556E+03  0.30710748201E+04  0.29519631908E+04 0.  0.
        1    1    3    3  502    0 -0.52471258415E+02  0.55353159309E+03  0.18459194221E+04  0.19278404940E+04  0.50400001928E-02 0.  1.
       -1    1    3    3    0  502  0.52471258415E+02 -0.55353159309E+03 -0.99891654651E+03  0.11432343261E+04  0.50400001928E-02 0. -1.
</event>
<event>
 5   0  0.8528625E-08  0.3882976E+04  0.7818609E-02  0.8028579E-01
       -1   -1    0    0    0  501  0.00000000000E+00  0.00000000000E+00  0.15001767930E+04  0.15001767930E+04  0.50400001928E-02 0.  1.
        1   -1    0    0  501    0  0.00000000000E+00  0.00000000000E+00 -0.25126209897E+04  0.25126209897E+04  0.50400001928E-02 0. -1.
    10030    2    1    2    0    0  0.00000000000E+00  0.00000000000E+00 -0.10124441967E+04  0.40127977827E+04  0.38829760228E+04 0.  0.
        3    1    3    3  502    0 -0.10231942084E+04 -0.91552896163E+03 -0.19247978168E+04  0.23643109596E+04  0.10100000352E+00 0. -1.
       -3    1    3    3    0  502  0.10231942084E+04  0.91552896163E+03  0.91235362010E+03  0.16484868231E+04  0.10100000352E+00 0.  1.
</event>
<event>
 5   0  0.2704088E-07  0.3979283E+04  0.7818609E-02  0.8008739E-01
        2   -1    0    0  501    0  0.00000000000E+00  0.00000000000E+00  0.23554212075E+04  0.23554212076E+04  0.25500000920E-02 0. -1.
       -2   -1    0    0    0  501  0.00000000000E+00  0.00000000000E+00 -0.16806644612E+04  0.16806644612E+04  0.25500000920E-02 0.  1.
    10030    2    1    2    0    0  0.00000000000E+00  0.00000000000E+00  0.67475674636E+03  0.40360856687E+04  0.39792827066E+04 0.  0.
        5    1    3    3  502    0 -0.22797842636E+03 -0.17055997564E+04 -0.67568145204E+03  0.18486785028E+04  0.46999998093E+01 0.  1.
       -5    1    3    3    0  502  0.22797842636E+03  0.17055997564E+04  0.13504381984E+04  0.21874071660E+04  0.46999998093E+01 0. -1.
</event>
<event>
 5   0  0.2839279E-07  0.4009514E+04  0.7818609E-02  0.8002630E-01
       -2   -1    0    0    0  501  0.00000000000E+00  0.00000000000E+00  0.14675975820E+04  0.14675975820E+04  0.25500000920E-02 0. -1.
        2   -1    0    0  501    0  0.00000000000E+00  0.00000000000E+00 -0.27385241234E+04  0.27385241234E+04  0.25500000920E-02 0.  1.
    10030    2    1    2    0    0  0.00000000000E+00  0.00000000000E+00 -0.12709265414E+04  0.42061217054E+04  0.40095143755E+04 0.  0.
        3    1    3    3  502    0  0.91113690535E+03  0.14622012076E+04  0.43991219157E+03  0.17781241741E+04  0.10100000352E+00 0. -1.
       -3    1    3    3    0  502 -0.91113690535E+03 -0.14622012076E+04 -0.17108387330E+04  0.24279975314E+04  0.10100000352E+00 0.  1.
</event>
<event>
 5   0  0.2839279E-07  0.3941313E+04  0.7818609E-02  0.8016491E-01
       -2   -1    0    0    0  501  0.00000000000E+00  0.00000000000E+00  0.19941174661E+04  0.19941174661E+04  0.25500000920E-02 0. -1.
        2   -1    0    0  501    0  0.00000000000E+00  0.00000000000E+00 -0.19474713352E+04  0.19474713352E+04  0.25500000920E-02 0.  1.
    10030    2    1    2    0    0  0.00000000000E+00  0.00000000000E+00  0.46646130893E+02  0.39415888013E+04  0.39413127784E+04 0.  0.
        3    1    3    3  502    0 -0.83758067395E+03 -0.81837870977E+03 -0.15617805222E+04  0.19520357342E+04  0.10100000352E+00 0.  1.
       -3    1    3    3    0  502  0.83758067395E+03  0.81837870977E+03  0.16084266531E+04  0.19895530670E+04  0.10100000352E+00 0. -1.
</event>
<event>
 5   0  0.8583262E-08  0.3656318E+04  0.7818609E-02  0.8077712E-01
        1   -1    0    0  501    0  0.00000000000E+00  0.00000000000E+00  0.17740402159E+04  0.17740402159E+04  0.50400001928E-02 0.  1.
       -1   -1    0    0    0  501  0.00000000000E+00  0.00000000000E+00 -0.18839292439E+04  0.18839292439E+04  0.50400001928E-02 0. -1.
    10030    2    1    2    0    0  0.00000000000E+00  0.00000000000E+00 -0.10988902799E+03  0.36579694599E+04  0.36563184997E+04 0.  0.
        1    1    3    3  502    0 -0.15857035107E+04 -0.52258730923E+03  0.69011527682E+03  0.18066023954E+04  0.50400001928E-02 0.  1.
       -1    1    3    3    0  502  0.15857035107E+04  0.52258730923E+03 -0.80000430481E+03  0.18513670645E+04  0.50400001928E-02 0. -1.
</event>
<event>
 5   0  0.8528625E-08  0.3899025E+04  0.7818609E-02  0.8025232E-01
       -1   -1    0    0    0  501  0.00000000000E+00  0.00000000000E+00  0.25522427129E+04  0.25522427129E+04  0.50400001928E-02 0.  1.
        1   -1    0    0  501    0  0.00000000000E+00  0.00000000000E+00 -0.14891215076E+04  0.14891215076E+04  0.50400001928E-02 0. -1.
    10030    2    1    2    0    0  0.00000000000E+00  0.00000000000E+00  0.10631212053E+04  0.40413642205E+04  0.38990252712E+04 0.  0.
        4    1    3    3  502    0 -0.11033632896E+04 -0.15689818473E+04  0.89282924248E+03  0.21157174327E+04  0.12699999809E+01 0.  1.
       -4    1    3    3    0  502  0.11033632896E+04  0.15689818473E+04  0.17029196285E+03  0.19256467878E+04  0.12699999809E+01 0. -1.
</event>
<event>
 5   0  0.8583262E-08  0.3414403E+04  0.7818609E-02  0.8134380E-01
       -1   -1    0    0    0  501  0.00000000000E+00  0.00000000000E+00  0.15874259370E+04  0.15874259370E+04  0.50400001928E-02 0.  1.
        1   -1    0    0  501    0  0.00000000000E+00  0.00000000000E+00 -0.18360144548E+04  0.18360144548E+04  0.50400001928E-02 0. -1.
    10030    2    1    2    0    0  0.00000000000E+00  0.00000000000E+00 -0.24858851785E+03  0.34234403918E+04  0.34144030027E+04 0.  0.
        1    1    3    3  502    0 -0.74216572598E+03 -0.15186515033E+04  0.11597434766E+03  0.16942734143E+04  0.50400001928E-02 0.  1.
       -1    1    3    3    0  502  0.74216572598E+03  0.15186515033E+04 -0.36456286551E+03  0.17291669775E+04  0.50400001928E-02 0. -1.
</event>
<event>
 5   0  0.8528625E-08  0.3861671E+04  0.7818609E-02  0.8033048E-01
       -1   -1    0    0    0  501  0.00000000000E+00  0.00000000000E+00  0.14904341337E+04  0.14904341337E+04  0.50400001928E-02 0.  1.
        1   -1    0    0  501    0  0.00000000000E+00  0.00000000000E+00 -0.25013693133E+04  0.25013693133E+04  0.50400001928E-02 0. -1.
    10030    2    1    2    0    0  0.00000000000E+00  0.00000000000E+00 -0.10109351796E+04  0.39918034471E+04  0.38616712474E+04 0.  0.
        5    1    3    3  502    0  0.52152604000E+03 -0.18379031671E+04 -0.79458299083E+03  0.20691209924E+04  0.46999998093E+01 0. -1.
       -5    1    3    3    0  502 -0.52152604000E+03  0.18379031671E+04 -0.21635218878E+03  0.19226824547E+04  0.46999998093E+01 0.  1.
</event>
<event>
 5   0  0.8528625E-08  0.4070300E+04  0.7818609E-02  0.7990513E-01
       -1   -1    0    0    0  501  0.00000000000E+00  0.00000000000E+00  0.22034207337E+04  0.22034207337E+04  0.50400001928E-02 0.  1.
        1   -1    0    0  501    0  0.00000000000E+00  0.00000000000E+00 -0.18797301975E+04  0.18797301975E+04  0.50400001928E-02 0. -1.
    10030    2    1    2    0    0  0.00000000000E+00  0.00000000000E+00  0.32369053623E+03  0.40831509312E+04  0.40703004758E+04 0.  0.
        4    1    3    3  502    0  0.10644423632E+04  0.53386508711E+03  0.18174452271E+04  0.21728226439E+04  0.12699999809E+01 0.  1.
       -4    1    3    3    0  502 -0.10644423632E+04 -0.53386508711E+03 -0.14937546908E+04  0.19103282872E+04  0.12699999809E+01 0. -1.
</event>
<event>
 5   0  0.8528625E-08  0.4010581E+04  0.7818609E-02  0.8002415E-01
       -1   -1    0    0    0  501  0.00000000000E+00  0.00000000000E+00  0.26583474203E+04  0.26583474203E+04  0.50400001928E-02 0. -1.
        1   -1    0    0  501    0  0.00000000000E+00  0.00000000000E+00 -0.15126652696E+04  0.15126652696E+04  0.50400001928E-02 0.  1.
    10030    2    1    2    0    0  0.00000000000E+00  0.00000000000E+00  0.11456821507E+04  0.41710126900E+04  0.40105809142E+04 0.  0.
        2    1    3    3  502    0 -0.18920680393E+04 -0.64989208822E+03  0.71585035253E+03  0.21247877350E+04  0.25500000920E-02 0.  1.
       -2    1    3    3    0  502  0.18920680393E+04  0.64989208822E+03  0.42983179814E+03  0.20462249550E+04  0.25500000920E-02 0. -1.
</event>
<event>
 5   0  0.2730801E-07  0.4019695E+04  0.7818609E-02  0.8000585E-01
       -2   -1    0    0    0  501  0.00000000000E+00  0.00000000000E+00  0.22008731295E+04  0.22008731295E+04  0.25500000920E-02 0. -1.
        2   -1    0    0  501    0  0.00000000000E+00  0.00000000000E+00 -0.18354023642E+04  0.18354023642E+04  0.25500000920E-02 0.  1.
    10030    2    1    2    0    0  0.00000000000E+00  0.00000000000E+00  0.36547076521E+03  0.40362754937E+04  0.40196953841E+04 0.  0.
        2    1    3    3  502    0  0.90562189036E+02  0.89227752462E+02  0.21968315203E+04  0.22005071757E+04  0.25500000920E-02 0. -1.
       -2    1    3    3    0  502 -0.90562189036E+02 -0.89227752462E+02 -0.18313607551E+04  0.18357683180E+04  0.25500000920E-02 0.  1.
</event>
<event>
 5   0  0.8528625E-08  0.4007833E+04  0.7818609E-02  0.8002968E-01
       -1   -1    0    0    0  501  0.00000000000E+00  0.00000000000E+00  0.16506835803E+04  0.16506835803E+04  0.50400001928E-02 0. -1.
        1   -1    0    0  501    0  0.00000000000E+00  0.00000000000E+00 -0.24327381607E+04  0.24327381607E+04  0.50400001928E-02 0.  1.
    10030    2    1    2    0    0  0.00000000000E+00  0.00000000000E+00 -0.78205458048E+03  0.40834217410E+04  0.40078327994E+04 0.  0.
        5    1    3    3  502    0 -0.31157422403E+03  0.80542314483E+03 -0.22334112525E+04  0.23945631860E+04  0.46999998093E+01 0.  1.
       -5    1    3    3    0  502  0.31157422403E+03 -0.80542314483E+03  0.14513566720E+04  0.16888585550E+04  0.46999998093E+01 0. -1.
</event>
<event>
 5   0  0.8528625E-08  0.4018501E+04  0.7818609E-02  0.8000825E-01
       -1   -1    0    0    0  501  0.00000000000E+00  0.00000000000E+00  0.15371750251E+04  0.15371750251E+04  0.50400001928E-02 0. -1.
        1   -1    0    0  501    0  0.00000000000E+00  0.00000000000E+00 -0.26263033341E+04  0.26263033341E+04  0.50400001928E-02 0.  1.
    10030    2    1    2    0    0  0.00000000000E+00  0.00000000000E+00 -0.10891283091E+04  0.41634783592E+04  0.40185011602E+04 0.  0.
        3    1    3    3  502    0  0.39062961257E+03 -0.13357518186E+04  0.95694886663E+03  0.16889569440E+04  0.10100000352E+00 0. -1.
       -3    1    3    3    0  502 -0.39062961257E+03  0.13357518186E+04 -0.20460771757E+04  0.24745214152E+04  0.10100000352E+00 0.  1.
</event>
<event>
 5   0  0.2730801E-07  0.3956979E+04  0.7818609E-02  0.8013282E-01
        2   -1    0    0  501    0  0.00000000000E+00  0.00000000000E+00  0.15828993842E+04  0.15828993842E+04  0.25500000920E-02 0.  1.
       -2   -1    0    0    0  501  0.00000000000E+00  0.00000000000E+00 -0.24729439129E+04  0.24729439129E+04  0.25500000920E-02 0. -1.
    10030    2    1    2    0    0  0.00000000000E+00  0.00000000000E+00 -0.89004452868E+03  0.40558432971E+04  0.39569793514E+04 0.  0.
        2    1    3    3  502    0  0.77451435583E+03  0.14931759988E+04  0.62262334370E+03  0.17936295267E+04  0.25500000920E-02 0. -1.
       -2    1    3    3    0  502 -0.77451435583E+03 -0.14931759988E+04 -0.15126678724E+04  0.22622137704E+04  0.25500000920E-02 0.  1.
</event>
<event>
 5   0  0.8528625E-08  0.3030626E+04  0.7818609E-02  0.8235039E-01
       -1   -1    0    0    0  501  0.00000000000E+00  0.00000000000E+00  0.98984413582E+03  0.98984413583E+03  0.50400001928E-02 0.  1.
        1   -1    0    0  501    0  0.00000000000E+00  0.00000000000E+00 -0.23197328374E+04  0.23197328374E+04  0.50400001928E-02 0. -1.
    10030    2    1    2    0    0  0.00000000000E+00  0.00000000000E+00 -0.13298887015E+04  0.33095769732E+04  0.30306263021E+04 0.  0.
        2    1    3    3  502    0  0.76870818525E+03 -0.11426709158E+04 -0.13552377748E+04  0.19321693823E+04  0.25500000920E-02 0. -1.
       -2    1    3    3    0  502 -0.76870818525E+03  0.11426709158E+04  0.25349073282E+02  0.13774075908E+04  0.25500000920E-02 0.  1.
</event>
<event>
 5   0  0.8528625E-08  0.3990087E+04  0.7818609E-02  0.8006549E-01
       -1   -1    0    0    0  501  0.00000000000E+00  0.00000000000E+00  0.32335967833E+04  0.32335967833E+04  0.50400001928E-02 0.  1.
        1   -1    0    0  501    0  0.00000000000E+00  0.00000000000E+00 -0.12308886996E+04  0.12308886996E+04  0.50400001928E-02 0. -1.
    10030    2    1    2    0    0  0.00000000000E+00  0.00000000000E+00  0.20027080837E+04  0.44644854829E+04  0.39900865853E+04 0.  0.
        5    1    3    3  502    0 -0.11622279584E+04 -0.14879914042E+04  0.17223974031E+04  0.25556930861E+04  0.46999998093E+01 0.  1.
       -5    1    3    3    0  502  0.11622279584E+04  0.14879914042E+04  0.28031068059E+03  0.19087923968E+04  0.46999998093E+01 0. -1.
</event>
<event>
 5   0  0.2661693E-07  0.3730623E+04  0.7818609E-02  0.8061209E-01
       -2   -1    0    0    0  501  0.00000000000E+00  0.00000000000E+00  0.14074423534E+04  0.14074423534E+04  0.25500000920E-02 0. -1.
        2   -1    0    0  501    0  0.00000000000E+00  0.00000000000E+00 -0.24721341400E+04  0.24721341400E+04  0.25500000920E-02 0.  1.
    10030    2    1    2    0    0  0.00000000000E+00  0.00000000000E+00 -0.10646917866E+04  0.38795764934E+04  0.37306226247E+04 0.  0.
        1    1    3    3  502    0  0.10898631941E+04  0.13189832977E+04  0.24019314876E+03  0.17277764526E+04  0.50400001928E-02 0. -1.
       -1    1    3    3    0  502 -0.10898631941E+04 -0.13189832977E+04 -0.13048849353E+04  0.21518000408E+04  0.50400001928E-02 0.  1.
</event>
<event>
 5   0  0.2730801E-07  0.3968209E+04  0.7818609E-02  0.8010991E-01
        2   -1    0    0  501    0  0.00000000000E+00  0.00000000000E+00  0.27669916185E+04  0.27669916185E+04  0.25500000920E-02 0.  1.
       -2   -1    0    0    0  501  0.00000000000E+00  0.00000000000E+00 -0.14227260416E+04  0.14227260416E+04  0.25500000920E-02 0. -1.
    10030    2    1    2    0    0  0.00000000000E+00  0.00000000000E+00  0.13442655769E+04  0.41897176601E+04  0.39682091843E+04 0.  0.
        2    1    3    3  502    0 -0.66753617287E+03  0.92245824670E+03  0.23876830790E+04  0.26452909566E+04  0.25500000920E-02 0. -1.
       -2    1    3    3    0  502  0.66753617287E+03 -0.92245824670E+03 -0.10434175021E+04  0.15444267036E+04  0.25500000920E-02 0.  1.
</event>
<event>
 5   0  0.2666978E-07  0.3991821E+04  0.7818609E-02  0.8006199E-01
       -2   -1    0    0    0  501  0.00000000000E+00  0.00000000000E+00  0.22174693903E+04  0.22174693903E+04  0.25500000920E-02 0. -1.
        2   -1    0    0  501    0  0.00000000000E+00  0.00000000000E+00 -0.17964887178E+04  0.17964887178E+04  0.25500000920E-02 0.  1.
    10030    2    1    2    0    0  0.00000000000E+00  0.00000000000E+00  0.42098067251E+03  0.40139581081E+04  0.39918210089E+04 0.  0.
        4    1    3    3  502    0  0.92304179083E+03  0.15982710630E+04 -0.55344682258E+03  0.19268579441E+04  0.12699999809E+01 0.  1.
       -4    1    3    3    0  502 -0.92304179083E+03 -0.15982710630E+04  0.97442749509E+03  0.20871001640E+04  0.12699999809E+01 0. -1.
</event>
<event>
 5   0  0.2704088E-07  0.4012095E+04  0.7818609E-02  0.8002111E-01
        2   -1    0    0  501    0  0.00000000000E+00  0.00000000000E+00  0.27245613945E+04  0.27245613945E+04  0.25500000920E-02 0.  1.
       -2   -1    0    0    0  501  0.00000000000E+00  0.00000000000E+00 -0.14770178554E+04  0.14770178554E+04  0.25500000920E-02 0. -1.
    10030    2    1    2    0    0  0.00000000000E+00  0.00000000000E+00  0.12475435391E+04  0.42015792498E+04  0.40120946288E+04 0.  0.
        5    1    3    3  502    0 -0.54948788369E+03  0.16518325954E+04 -0.42016094343E+03  0.17908224831E+04  0.46999998093E+01 0. -1.
       -5    1    3    3    0  502  0.54948788369E+03 -0.16518325954E+04  0.16677044825E+04  0.24107567668E+04  0.46999998093E+01 0.  1.
</event>
<event>
 5   0  0.2666978E-07  0.3951604E+04  0.7818609E-02  0.8014381E-01
        2   -1    0    0  501    0  0.00000000000E+00  0.00000000000E+00  0.22985342169E+04  0.22985342169E+04  0.25500000920E-02 0.  1.
       -2   -1    0    0    0  501  0.00000000000E+00  0.00000000000E+00 -0.16983835813E+04  0.16983835813E+04  0.25500000920E-02 0. -1.
    10030    2    1    2    0    0  0.00000000000E+00  0.00000000000E+00  0.60015063555E+03  0.39969177982E+04  0.39516036112E+04 0.  0.
        4    1    3    3  502    0 -0.73460835110E+02 -0.39425596731E+03 -0.16567824296E+04  0.17046301340E+04  0.12699999809E+01 0. -1.
       -4    1    3    3    0  502  0.73460835110E+02  0.39425596731E+03  0.22569330651E+04  0.22922876642E+04  0.12699999809E+01 0.  1.
</event>
<event>
 5   0  0.2661693E-07  0.4042742E+04  0.7818609E-02  0.7995979E-01
        2   -1    0    0  501    0  0.00000000000E+00  0.00000000000E+00  0.19957174775E+04  0.19957174775E+04  0.25500000920E-02 0. -1.
       -2   -1    0    0    0  501  0.00000000000E+00  0.00000000000E+00 -0.20473543173E+04  0.20473543173E+04  0.25500000920E-02 0.  1.
    10030    2    1    2    0    0  0.00000000000E+00  0.00000000000E+00 -0.51636839870E+02  0.40430717948E+04  0.40427420366E+04 0.  0.
        1    1    3    3  502    0  0.14087589828E+04  0.92033809758E+03  0.10942357486E+04  0.20072309182E+04  0.50400001928E-02 0. -1.
       -1    1    3    3    0  502 -0.14087589828E+04 -0.92033809758E+03 -0.11458725885E+04  0.20358408765E+04  0.50400001928E-02 0.  1.
</event>
<event>
 5   0  0.8528625E-08  0.3933020E+04  0.7818609E-02  0.8018197E-01
        1   -1    0    0  501    0  0.00000000000E+00  0.00000000000E+00  0.24965456112E+04  0.24965456112E+04  0.50400001928E-02 0. -1.
       -1   -1    0    0    0  501  0.00000000000E+00  0.00000000000E+00 -0.15490047222E+04  0.15490047223E+04  0.50400001928E-02 0.  1.
    10030    2    1    2    0    0  0.00000000000E+00  0.00000000000E+00  0.94754088892E+03  0.40455503334E+04  0.39330196750E+04 0.  0.
        4    1    3    3  502    0 -0.73401440369E+03  0.10092341551E+04  0.20370669872E+04  0.23889274263E+04  0.12699999809E+01 0. -1.
       -4    1    3    3    0  502  0.73401440369E+03 -0.10092341551E+04 -0.10895260983E+04  0.16566229071E+04  0.12699999809E+01 0.  1.
</event>
<event>
 5   0  0.2730801E-07  0.3992858E+04  0.7818609E-02  0.8005989E-01
       -2   -1    0    0    0  501  0.00000000000E+00  0.00000000000E+00  0.15757554278E+04  0.15757554278E+04  0.25500000920E-02 0.  1.
        2   -1    0    0  501    0  0.00000000000E+00  0.00000000000E+00 -0.25294080317E+04  0.25294080317E+04  0.25500000920E-02 0. -1.
    10030    2    1    2    0    0  0.00000000000E+00  0.00000000000E+00 -0.95365260393E+03  0.41051634595E+04  0.39928578412E+04 0.  0.
        2    1    3    3  502    0  0.13855476657E+04  0.13128329130E+03  0.99477842547E+03  0.17107196592E+04  0.25500000920E-02 0.  1.
       -2    1    3    3    0  502 -0.13855476657E+04 -0.13128329130E+03 -0.19484310294E+04  0.23944438003E+04  0.25500000920E-02 0. -1.
</event>
<event>
 5   0  0.2839279E-07  0.4011716E+04  0.7818609E-02  0.8002187E-01
       -2   -1    0    0    0  501  0.00000000000E+00  0.00000000000E+00  0.26564313855E+04  0.26564313855E+04  0.25500000920E-02 0.  1.
        2   -1    0    0  501    0  0.00000000000E+00  0.00000000000E+00 -0.15146129860E+04  0.15146129860E+04  0.25500000920E-02 0. -1.
    10030    2    1    2    0    0  0.00000000000E+00  0.00000000000E+00  0.11418183995E+04  0.41710443714E+04  0.40117155795E+04 0.  0.
        3    1    3    3  502    0 -0.72017652919E+03  0.18535771592E+04  0.29767364021E+03  0.20107242786E+04  0.10100000352E+00 0. -1.
       -3    1    3    3    0  502  0.72017652919E+03 -0.18535771592E+04  0.84414475930E+03  0.21603200928E+04  0.10100000352E+00 0.  1.
</event>
<event>
 5   0  0.2704088E-07  0.4031493E+04  0.7818609E-02  0.7998223E-01
        2   -1    0    0  501    0  0.00000000000E+00  0.00000000000E+00  0.16538186341E+04  0.16538186341E+04  0.25500000920E-02 0.  1.
       -2   -1    0    0    0  501  0.00000000000E+00  0.00000000000E+00 -0.24568797165E+04  0.24568797165E+04  0.25500000920E-02 0. -1.
    10030    2    1    2    0    0  0.00000000000E+00  0.00000000000E+00 -0.80306108235E+03  0.41106983506E+04  0.40314927543E+04 0.  0.
        5    1    3    3  502    0  0.85259258537E+03 -0.11870029136E+03  0.14569717539E+04  0.16922744037E+04  0.46999998093E+01 0.  1.
       -5    1    3    3    0  502 -0.85259258537E+03  0.11870029136E+03 -0.22600328363E+04  0.24184239469E+04  0.46999998093E+01 0. -1.
</event>
<event>
 5   0  0.2661693E-07  0.3861427E+04  0.7818609E-02  0.8033100E-01
        2   -1    0    0  501    0  0.00000000000E+00  0.00000000000E+00  0.21580083830E+04  0.21580083830E+04  0.25500000920E-02 0. -1.
       -2   -1    0    0    0  501  0.00000000000E+00  0.00000000000E+00 -0.17273591642E+04  0.17273591642E+04  0.25500000920E-02 0.  1.
    10030    2    1    2    0    0  0.00000000000E+00  0.00000000000E+00  0.43064921888E+03  0.38853675472E+04  0.38614274857E+04 0.  0.
        1    1    3    3  502    0  0.48958978663E+03  0.15822159434E+04  0.12137213085E+04  0.20533447995E+04  0.50400001928E-02 0. -1.
       -1    1    3    3    0  502 -0.48958978663E+03 -0.15822159434E+04 -0.78307208963E+03  0.18320227478E+04  0.50400001928E-02 0.  1.
</event>
<event>
 5   0  0.8583262E-08  0.3960634E+04  0.7818609E-02  0.8012535E-01
       -1   -1    0    0    0  501  0.00000000000E+00  0.00000000000E+00  0.17843067593E+04  0.17843067593E+04  0.50400001928E-02 0. -1.
        1   -1    0    0  501    0  0.00000000000E+00  0.00000000000E+00 -0.21978594302E+04  0.21978594302E+04  0.50400001928E-02 0.  1.
    10030    2    1    2    0    0  0.00000000000E+00  0.00000000000E+00 -0.41355267091E+03  0.39821661896E+04  0.39606340086E+04 0.  0.
        1    1    3    3  502    0 -0.56371009070E+03 -0.14121868536E+02  0.17018820144E+04  0.17928666666E+04  0.50400001928E-02 0. -1.
       -1    1    3    3    0  502  0.56371009070E+03  0.14121868536E+02 -0.21154346853E+04  0.21892995229E+04  0.50400001928E-02 0.  1.
</event>
<event>
 5   0  0.2730801E-07  0.3986993E+04  0.7818609E-02  0.8007176E-01
       -2   -1    0    0    0  501  0.00000000000E+00  0.00000000000E+00  0.30906790016E+04  0.30906790016E+04  0.25500000920E-02 0. -1.
        2   -1    0    0  501    0  0.00000000000E+00  0.00000000000E+00 -0.12858106630E+04  0.12858106630E+04  0.25500000920E-02 0.  1.
    10030    2    1    2    0    0  0.00000000000E+00  0.00000000000E+00  0.18048683386E+04  0.43764896646E+04  0.39869928599E+04 0.  0.
        2    1    3    3  502    0  0.25941530818E+02  0.19728825893E+04  0.12150149973E+04  0.23171534515E+04  0.25500000920E-02 0.  1.
       -2    1    3    3    0  502 -0.25941530818E+02 -0.19728825893E+04  0.58985334128E+03  0.20593362131E+04  0.25500000920E-02 0. -1.
</event>
<event>
 5   0  0.8528625E-08  0.3305345E+04  0.7818609E-02  0.8161537E-01
        1   -1    0    0  501    0  0.00000000000E+00  0.00000000000E+00  0.11622766885E+04  0.11622766886E+04  0.50400001928E-02 0.  1.
       -1   -1    0    0    0  501  0.00000000000E+00  0.00000000000E+00 -0.23499799821E+04  0.23499799821E+04  0.50400001928E-02 0. -1.
    10030    2    1    2    0    0  0.00000000000E+00  0.00000000000E+00 -0.11877032936E+04  0.35122566707E+04  0.33053453386E+04 0.  0.
        5    1    3    3  502    0 -0.72166309721E+03 -0.62291237834E+03 -0.20283553478E+04  0.22412195260E+04  0.46999998093E+01 0. -1.
       -5    1    3    3    0  502  0.72166309721E+03  0.62291237834E+03  0.84065205417E+03  0.12710371447E+04  0.46999998093E+01 0.  1.
</event>
<event>
 5   0  0.2704088E-07  0.3984243E+04  0.7818609E-02  0.8007733E-01
       -2   -1    0    0    0  501  0.00000000000E+00  0.00000000000E+00  0.29103875306E+04  0.29103875306E+04  0.25500000920E-02 0. -1.
        2   -1    0    0  501    0  0.00000000000E+00  0.00000000000E+00 -0.13635803078E+04  0.13635803078E+04  0.25500000920E-02 0.  1.
    10030    2    1    2    0    0  0.00000000000E+00  0.00000000000E+00  0.15468072228E+04  0.42739678384E+04  0.39842425251E+04 0.  0.
        5    1    3    3  502    0 -0.15170356197E+04  0.31322485642E+03  0.21170947940E+04  0.26232840752E+04  0.46999998093E+01 0. -1.
       -5    1    3    3    0  502  0.15170356197E+04 -0.31322485642E+03 -0.57028757120E+03  0.16506837632E+04  0.46999998093E+01 0.  1.
</event>
<event>
 5   0  0.8528625E-08  0.4033426E+04  0.7818609E-02  0.7997837E-01
       -1   -1    0    0    0  501  0.00000000000E+00  0.00000000000E+00  0.23934139322E+04  0.23934139322E+04  0.50400001928E-02 0. -1.
        1   -1    0    0  501    0  0.00000000000E+00  0.00000000000E+00 -0.16993009446E+04  0.16993009446E+04  0.50400001928E-02 0.  1.
    10030    2    1    2    0    0  0.00000000000E+00  0.00000000000E+00  0.69411298764E+03  0.40927148768E+04  0.40334256189E+04 0.  0.
        4    1    3    3  502    0  0.38689137670E+03 -0.13815833580E+04  0.17851657745E+04  0.22902567471E+04  0.12699999809E+01 0. -1.
       -4    1    3    3    0  502 -0.38689137670E+03  0.13815833580E+04 -0.10910527868E+04  0.18024581296E+04  0.12699999809E+01 0.  1.
</event>
<event>
 5   0  0.2666978E-07  0.3057101E+04  0.7818609E-02  0.8227611E-01
       -2   -1    0    0    0  501  0.00000000000E+00  0.00000000000E+00  0.15190110912E+04  0.15190110912E+04  0.25500000920E-02 0. -1.
        2   -1    0    0  501    0  0.00000000000E+00  0.00000000000E+00 -0.15381496195E+04  0.15381496195E+04  0.25500000920E-02 0.  1.
    10030    2    1    2    0    0  0.00000000000E+00  0.00000000000E+00 -0.19138528305E+02  0.30571607108E+04  0.30571008044E+04 0.  0.
        4    1    3    3  502    0 -0.11688806138E+02 -0.96006374452E+03 -0.11989645469E+04  0.15360262431E+04  0.12699999809E+01 0.  1.
       -4    1    3    3    0  502  0.11688806138E+02  0.96006374452E+03  0.11798260186E+04  0.15211344677E+04  0.12699999809E+01 0. -1.
</event>
<event>
 5   0  0.8583262E-08  0.3718105E+04  0.7818609E-02  0.8063961E-01
       -1   -1    0    0    0  501  0.00000000000E+00  0.00000000000E+00  0.15706724567E+04  0.15706724567E+04  0.50400001928E-02 0.  1.
        1   -1    0    0  501    0  0.00000000000E+00  0.00000000000E+00 -0.22003802166E+04  0.22003802166E+04  0.50400001928E-02 0. -1.
    10030    2    1    2    0    0  0.00000000000E+00  0.00000000000E+00 -0.62970775993E+03  0.37710526733E+04  0.37181052167E+04 0.  0.
        1    1    3    3  502    0 -0.23840336369E+03  0.84417845857E+03  0.13475735047E+04  0.16079265482E+04  0.50400001928E-02 0.  1.
       -1    1    3    3    0  502  0.23840336369E+03 -0.84417845857E+03 -0.19772812647E+04  0.21631261252E+04  0.50400001928E-02 0. -1.
</event>
<event>
 5   0  0.2661693E-07  0.3618104E+04  0.7818609E-02  0.8086357E-01
        2   -1    0    0  501    0  0.00000000000E+00  0.00000000000E+00  0.20250227637E+04  0.20250227637E+04  0.25500000920E-02 0.  1.
       -2   -1    0    0    0  501  0.00000000000E+00  0.00000000000E+00 -0.16161149304E+04  0.16161149304E+04  0.25500000920E-02 0. -1.
    10030    2    1    2    0    0  0.00000000000E+00  0.00000000000E+00  0.40890783331E+03  0.36411376941E+04  0.36181042123E+04 0.  0.
        1    1    3    3  502    0  0.12433095323E+04 -0.12861852626E+04 -0.66664940732E+02  0.17901215985E+04  0.50400001928E-02 0.  1.
       -1    1    3    3    0  502 -0.12433095323E+04  0.12861852626E+04  0.47557277404E+03  0.18510160957E+04  0.50400001928E-02 0. -1.
</event>
<event>
 5   0  0.8528625E-08  0.3196763E+04  0.7818609E-02  0.8189672E-01
       -1   -1    0    0    0  501  0.00000000000E+00  0.00000000000E+00  0.14718452032E+04  0.14718452033E+04  0.50400001928E-02 0.  1.
        1   -1    0    0  501    0  0.00000000000E+00  0.00000000000E+00 -0.17357967467E+04  0.17357967467E+04  0.50400001928E-02 0. -1.
    10030    2    1    2    0    0  0.00000000000E+00  0.00000000000E+00 -0.26395154349E+03  0.32076419500E+04  0.31967634354E+04 0.  0.
        4    1    3    3  502    0  0.15367130493E+03  0.11722065883E+04 -0.12113404857E+04  0.16926401096E+04  0.12699999809E+01 0. -1.
       -4    1    3    3    0  502 -0.15367130493E+03 -0.11722065883E+04  0.94738894218E+03  0.15150018404E+04  0.12699999809E+01 0.  1.
</event>
<event>
 5   0  0.2839279E-07  0.4005559E+04  0.7818609E-02  0.8003426E-01
        2   -1    0    0  501    0  0.00000000000E+00  0.00000000000E+00  0.21204154142E+04  0.21204154142E+04  0.25500000920E-02 0.  1.
       -2   -1    0    0    0  501  0.00000000000E+00  0.00000000000E+00 -0.18916696397E+04  0.18916696397E+04  0.25500000920E-02 0. -1.
    10030    2    1    2    0    0  0.00000000000E+00  0.00000000000E+00  0.22874577455E+03  0.40120850539E+04  0.40055588686E+04 0.  0.
        3    1    3    3  502    0  0.60224799845E+03 -0.41464105682E+03  0.19819470376E+04  0.21125207520E+04  0.10100000352E+00 0.  1.
       -3    1    3    3    0  502 -0.60224799845E+03  0.41464105682E+03 -0.17532012631E+04  0.18995643018E+04  0.10100000352E+00 0. -1.
</event>
<event>
 5   0  0.8528625E-08  0.3737299E+04  0.7818609E-02  0.8059746E-01
       -1   -1    0    0    0  501  0.00000000000E+00  0.00000000000E+00  0.17339986525E+04  0.17339986525E+04  0.50400001928E-02 0. -1.
        1   -1    0    0  501    0  0.00000000000E+00  0.00000000000E+00 -0.20137563731E+04  0.20137563731E+04  0.50400001928E-02 0.  1.
    10030    2    1    2    0    0  0.00000000000E+00  0.00000000000E+00 -0.27975772059E+03  0.37477550257E+04  0.37372989378E+04 0.  0.
        3    1    3    3  502    0 -0.72496430678E+03  0.99103341947E+03  0.12726536662E+04  0.17684365549E+04  0.10100000352E+00 0. -1.
       -3    1    3    3    0  502  0.72496430678E+03 -0.99103341947E+03 -0.15524113868E+04  0.19793184707E+04  0.10100000352E+00 0.  1.
</event>
<event>
 5   0  0.2661693E-07  0.3861380E+04  0.7818609E-02  0.8033110E-01
        2   -1    0    0  501    0  0.00000000000E+00  0.00000000000E+00  0.18818806029E+04  0.18818806029E+04  0.25500000920E-02 0. -1.
       -2   -1    0    0    0  501  0.00000000000E+00  0.00000000000E+00 -0.19807657726E+04  0.19807657726E+04  0.25500000920E-02 0.  1.
    10030    2    1    2    0    0  0.00000000000E+00  0.00000000000E+00 -0.98885169719E+02  0.38626463754E+04  0.38613804196E+04 0.  0.
        1    1    3    3  502    0  0.10346666628E+03  0.69555535439E+02  0.18778497485E+04  0.18819837942E+04  0.50400001928E-02 0. -1.
       -1    1    3    3    0  502 -0.10346666628E+03 -0.69555535439E+02 -0.19767349183E+04  0.19806625812E+04  0.50400001928E-02 0.  1.
</event>
<event>
 5   0  0.8528625E-08  0.3788332E+04  0.7818609E-02  0.8048663E-01
        1   -1    0    0  501    0  0.00000000000E+00  0.00000000000E+00  0.16857071108E+04  0.16857071108E+04  0.50400001928E-02 0. -1.
       -1   -1    0    0    0  501  0.00000000000E+00  0.00000000000E+00 -0.21284034647E+04  0.21284034647E+04  0.50400001928E-02 0.  1.
    10030    2    1    2    0    0  0.00000000000E+00  0.00000000000E+00 -0.44269635389E+03  0.38141105755E+04  0.37883320103E+04 0.  0.
        4    1    3    3  502    0  0.44373775742E+03  0.16315789331E+04 -0.10809201937E+04  0.20068241304E+04  0.12699999809E+01 0.  1.
       -4    1    3    3    0  502 -0.44373775742E+03 -0.16315789331E+04  0.63822383980E+03  0.18072864451E+04  0.12699999809E+01 0. -1.
</event>
<event>
 5   0  0.2839279E-07  0.4162169E+04  0.7818609E-02  0.7972608E-01
       -2   -1    0    0    0  501  0.00000000000E+00  0.00000000000E+00  0.19506272796E+04  0.19506272796E+04  0.25500000920E-02 0.  1.
        2   -1    0    0  501    0  0.00000000000E+00  0.00000000000E+00 -0.22202661565E+04  0.22202661565E+04  0.25500000920E-02 0. -1.
    10030    2    1    2    0    0  0.00000000000E+00  0.00000000000E+00 -0.26963887693E+03  0.41708934361E+04  0.41621685371E+04 0.  0.
        3    1    3    3  502    0  0.92354728998E+03 -0.14481194490E+04 -0.13124092398E+04  0.21615752493E+04  0.10100000352E+00 0. -1.
       -3    1    3    3    0  502 -0.92354728998E+03  0.14481194490E+04  0.10427703629E+04  0.20093181867E+04  0.10100000352E+00 0.  1.
</event>
<event>
 5   0  0.8528625E-08  0.4009297E+04  0.7818609E-02  0.8002674E-01
       -1   -1    0    0    0  501  0.00000000000E+00  0.00000000000E+00  0.16752610473E+04  0.16752610474E+04  0.50400001928E-02 0.  1.
        1   -1    0    0  501    0  0.00000000000E+00  0.00000000000E+00 -0.23987994865E+04  0.23987994865E+04  0.50400001928E-02 0. -1.
    10030    2    1    2    0    0  0.00000000000E+00  0.00000000000E+00 -0.72353843914E+03  0.40740605338E+04  0.40092968661E+04 0.  0.
        4    1    3    3  502    0  0.22168975837E+03  0.16759288802E+04  0.73300566113E+03  0.18426022014E+04  0.12699999809E+01 0.  1.
       -4    1    3    3    0  502 -0.22168975837E+03 -0.16759288802E+04 -0.14565441003E+04  0.22314583324E+04  0.12699999809E+01 0. -1.
</event>
<event>
 5   0  0.8528625E-08  0.3546274E+04  0.7818609E-02  0.8102910E-01
       -1   -1    0    0    0  501  0.00000000000E+00  0.00000000000E+00  0.17508064786E+04  0.17508064786E+04  0.50400001928E-02 0. -1.
        1   -1    0    0  501    0  0.00000000000E+00  0.00000000000E+00 -0.17957521632E+04  0.17957521632E+04  0.50400001928E-02 0.  1.
    10030    2    1    2    0    0  0.00000000000E+00  0.00000000000E+00 -0.44945684585E+02  0.35465586418E+04  0.35462738311E+04 0.  0.
        4    1    3    3  502    0 -0.73955861999E+02  0.17170127199E+04  0.41392301525E+03  0.17677488581E+04  0.12699999809E+01 0. -1.
       -4    1    3    3    0  502  0.73955861999E+02 -0.17170127199E+04 -0.45886869984E+03  0.17788097837E+04  0.12699999809E+01 0.  1.
</event>
<event>
 5   0  0.8528625E-08  0.3569235E+04  0.7818609E-02  0.8097575E-01
       -1   -1    0    0    0  501  0.00000000000E+00  0.00000000000E+00  0.13778036005E+04  0.13778036005E+04  0.50400001928E-02 0.  1.
        1   -1    0    0  501    0  0.00000000000E+00  0.00000000000E+00 -0.23115489609E+04  0.23115489609E+04  0.50400001928E-02 0. -1.
    10030    2    1    2    0    0  0.00000000000E+00  0.00000000000E+00 -0.93374536046E+03  0.36893525614E+04  0.35692354818E+04 0.  0.
        5    1    3    3  502    0 -0.43077369355E+00 -0.15017493563E+04 -0.14634706456E+04  0.20969071833E+04  0.46999998093E+01 0. -1.
       -5    1    3    3    0  502  0.43077369355E+00  0.15017493563E+04  0.52972528513E+03  0.15924453782E+04  0.46999998093E+01 0.  1.
</event>
<event>
 5   0  0.2730801E-07  0.3996259E+04  0.7818609E-02  0.8005302E-01
       -2   -1    0    0    0  501  0.00000000000E+00  0.00000000000E+00  0.20198549195E+04  0.20198549195E+04  0.25500000920E-02 0.  1.
        2   -1    0    0  501    0  0.00000000000E+00  0.00000000000E+00 -0.19766379346E+04  0.19766379346E+04  0.25500000920E-02 0. -1.
    10030    2    1    2    0    0  0.00000000000E+00  0.00000000000E+00  0.43216984938E+02  0.39964928541E+04  0.39962591789E+04 0.  0.
        2    1    3    3  502    0  0.54614642564E+03 -0.44860218545E+03  0.18906752449E+04  0.20184580057E+04  0.25500000920E-02 0.  1.
       -2    1    3    3    0  502 -0.54614642564E+03  0.44860218545E+03 -0.18474582600E+04  0.19780348484E+04  0.25500000920E-02 0. -1.
</event>
<event>
 5   0  0.2666978E-07  0.3988850E+04  0.7818609E-02  0.8006800E-01
        2   -1    0    0  501    0  0.00000000000E+00  0.00000000000E+00  0.16029174849E+04  0.16029174849E+04  0.25500000920E-02 0. -1.
       -2   -1    0    0    0  501  0.00000000000E+00  0.00000000000E+00 -0.24815563858E+04  0.24815563858E+04  0.25500000920E-02 0.  1.
    10030    2    1    2    0    0  0.00000000000E+00  0.00000000000E+00 -0.87863890093E+03  0.40844738707E+04  0.39888495186E+04 0.  0.
        4    1    3    3  502    0  0.74647909638E+03 -0.17686410853E+04 -0.99302865293E+03  0.21613490806E+04  0.12699999809E+01 0. -1.
       -4    1    3    3    0  502 -0.74647909638E+03  0.17686410853E+04  0.11438975200E+03  0.19231247901E+04  0.12699999809E+01 0.  1.
</event>
<event>
 5   0  0.2704088E-07  0.3311834E+04  0.7818609E-02  0.8159891E-01
        2   -1    0    0  501    0  0.00000000000E+00  0.00000000000E+00  0.31426120291E+04  0.31426120291E+04  0.25500000920E-02 0. -1.
       -2   -1    0    0    0  501  0.00000000000E+00  0.00000000000E+00 -0.87254211026E+03  0.87254211026E+03  0.25500000920E-02 0.  1.
    10030    2    1    2    0    0  0.00000000000E+00  0.00000000000E+00  0.22700699188E+04  0.40151541393E+04  0.33118341333E+04 0.  0.
        5    1    3    3  502    0  0.36643884159E+03 -0.51625944686E+03 -0.72001848667E+03  0.95877523552E+03  0.46999998093E+01 0.  1.
       -5    1    3    3    0  502 -0.36643884159E+03  0.51625944686E+03  0.29900884055E+04  0.30563789038E+04  0.46999998093E+01 0. -1.
</event>
<event>
 5   0  0.2704088E-07  0.4001923E+04  0.7818609E-02  0.8004159E-01
       -2   -1    0    0    0  501  0.00000000000E+00  0.00000000000E+00  0.24074765593E+04  0.24074765593E+04  0.25500000920E-02 0.  1.
        2   -1    0    0  501    0  0.00000000000E+00  0.00000000000E+00 -0.16630887338E+04  0.16630887338E+04  0.25500000920E-02 0. -1.
    10030    2    1    2    0    0  0.00000000000E+00  0.00000000000E+00  0.74438782549E+03  0.40705652931E+04  0.40019231091E+04 0.  0.
        5    1    3    3  502    0 -0.20830103640E+03  0.98508281765E+03  0.21310286500E+04  0.23569222890E+04  0.46999998093E+01 0.  1.
       -5    1    3    3    0  502  0.20830103640E+03 -0.98508281765E+03 -0.13866408245E+04  0.17136430041E+04  0.46999998093E+01 0. -1.
</event>
<event>
 5   0  0.8528625E-08  0.4151500E+04  0.7818609E-02  0.7974663E-01
       -1   -1    0    0    0  501  0.00000000000E+00  0.00000000000E+00  0.17846528341E+04  0.17846528341E+04  0.50400001928E-02 0.  1.
        1   -1    0    0  501    0  0.00000000000E+00  0.00000000000E+00 -0.24143285041E+04  0.24143285041E+04  0.50400001928E-02 0. -1.
    10030    2    1    2    0    0  0.00000000000E+00  0.00000000000E+00 -0.62967566998E+03  0.41989813381E+04  0.41515000697E+04 0.  0.
        4    1    3    3  502    0  0.13835177559E+04 -0.27183541115E+02 -0.18797492001E+04  0.23341634463E+04  0.12699999809E+01 0. -1.
       -4    1    3    3    0  502 -0.13835177559E+04  0.27183541115E+02  0.12500735302E+04  0.18648178918E+04  0.12699999809E+01 0.  1.
</event>
<event>
 5   0  0.8583262E-08  0.4103001E+04  0.7818609E-02  0.7984084E-01
       -1   -1    0    0    0  501  0.00000000000E+00  0.00000000000E+00  0.24135029250E+04  0.24135029250E+04  0.50400001928E-02 0. -1.
        1   -1    0    0  501    0  0.00000000000E+00  0.00000000000E+00 -0.17437951585E+04  0.17437951585E+04  0.50400001928E-02 0.  1.
    10030    2    1    2    0    0  0.00000000000E+00  0.00000000000E+00  0.66970776645E+03  0.41572980835E+04  0.41030012019E+04 0.  0.
        1    1    3    3  502    0  0.11600839100E+04 -0.10411778201E+04  0.16862235102E+04  0.22963439764E+04  0.50400001928E-02 0. -1.
       -1    1    3    3    0  502 -0.11600839100E+04  0.10411778201E+04 -0.10165157437E+04  0.18609541071E+04  0.50400001928E-02 0.  1.
</event>
<event>
 5   0  0.2839279E-07  0.4027414E+04  0.7818609E-02  0.7999039E-01
       -2   -1    0    0    0  501  0.00000000000E+00  0.00000000000E+00  0.21057427650E+04  0.21057427650E+04  0.25500000920E-02 0.  1.
        2   -1    0    0  501    0  0.00000000000E+00  0.00000000000E+00 -0.19256935326E+04  0.19256935326E+04  0.25500000920E-02 0. -1.
    10030    2    1    2    0    0  0.00000000000E+00  0.00000000000E+00  0.18004923245E+03  0.40314362976E+04  0.40274136732E+04 0.  0.
        3    1    3    3  502    0 -0.25839908096E+03  0.19150990571E+04  0.65684166684E+03  0.20410329417E+04  0.10100000352E+00 0.  1.
       -3    1    3    3    0  502  0.25839908096E+03 -0.19150990571E+04 -0.47679243439E+03  0.19904033559E+04  0.10100000352E+00 0. -1.
</event>
<event>
 5   0  0.2661693E-07  0.4011201E+04  0.7818609E-02  0.8002291E-01
       -2   -1    0    0    0  501  0.00000000000E+00  0.00000000000E+00  0.24742238623E+04  0.24742238623E+04  0.25500000920E-02 0. -1.
        2   -1    0    0  501    0  0.00000000000E+00  0.00000000000E+00 -0.16257357658E+04  0.16257357658E+04  0.25500000920E-02 0.  1.
    10030    2    1    2    0    0  0.00000000000E+00  0.00000000000E+00  0.84848809647E+03  0.40999596281E+04  0.40112014288E+04 0.  0.
        1    1    3    3  502    0 -0.79786734366E+03 -0.18070560483E+04  0.69593221973E+02  0.19765847000E+04  0.50400001928E-02 0.  1.
       -1    1    3    3    0  502  0.79786734366E+03  0.18070560483E+04  0.77889487450E+03  0.21233749281E+04  0.50400001928E-02 0. -1.
</event>
<event>
 5   0  0.2704088E-07  0.3981699E+04  0.7818609E-02  0.8008249E-01
       -2   -1    0    0    0  501  0.00000000000E+00  0.00000000000E+00  0.13758411923E+04  0.13758411923E+04  0.25500000920E-02 0. -1.
        2   -1    0    0  501    0  0.00000000000E+00  0.00000000000E+00 -0.28807696683E+04  0.28807696683E+04  0.25500000920E-02 0.  1.
    10030    2    1    2    0    0  0.00000000000E+00  0.00000000000E+00 -0.15049284761E+04  0.42566108606E+04  0.39816989214E+04 0.  0.
        5    1    3    3  502    0 -0.46091383172E+02  0.80099142226E+03  0.11953524300E+04  0.14396531513E+04  0.46999998093E+01 0. -1.
       -5    1    3    3    0  502  0.46091383172E+02 -0.80099142226E+03 -0.27002809061E+04  0.28169577093E+04  0.46999998093E+01 0.  1.
</event>
<event>
 5   0  0.8528625E-08  0.4016249E+04  0.7818609E-02  0.8001277E-01
       -1   -1    0    0    0  501  0.00000000000E+00  0.00000000000E+00  0.32949072991E+04  0.32949072991E+04  0.50400001928E-02 0.  1.
        1   -1    0    0  501    0  0.00000000000E+00  0.00000000000E+00 -0.12238776353E+04  0.12238776353E+04  0.50400001928E-02 0. -1.
    10030    2    1    2    0    0  0.00000000000E+00  0.00000000000E+00  0.20710296638E+04  0.45187849344E+04  0.40162486744E+04 0.  0.
        5    1    3    3  502    0  0.95132211357E+02  0.13114078513E+04  0.27432247162E+04  0.30420625608E+04  0.46999998093E+01 0.  1.
       -5    1    3    3    0  502 -0.95132211357E+02 -0.13114078513E+04 -0.67219505240E+03  0.14767223736E+04  0.46999998093E+01 0. -1.
</event>
<event>
 5   0  0.2730801E-07  0.4103779E+04  0.7818609E-02  0.7983932E-01
        2   -1    0    0  501    0  0.00000000000E+00  0.00000000000E+00  0.23886761799E+04  0.23886761799E+04  0.25500000920E-02 0. -1.
       -2   -1    0    0    0  501  0.00000000000E+00  0.00000000000E+00 -0.17625874111E+04  0.17625874111E+04  0.25500000920E-02 0.  1.
    10030    2    1    2    0    0  0.00000000000E+00  0.00000000000E+00  0.62608876882E+03  0.41512635910E+04  0.41037790212E+04 0.  0.
        2    1    3    3  502    0 -0.31346462346E+03  0.70463389724E+01 -0.17382111813E+04  0.17662638058E+04  0.25500000920E-02 0.  1.
       -2    1    3    3    0  502  0.31346462346E+03 -0.70463389724E+01  0.23642999501E+04  0.23849997851E+04  0.25500000920E-02 0. -1.
</event>
<event>
 5   0  0.8583262E-08  0.3993074E+04  0.7818609E-02  0.8005945E-01
       -1   -1    0    0    0  501  0.00000000000E+00  0.00000000000E+00  0.18743837513E+04  0.18743837513E+04  0.50400001928E-02 0.  1.
        1   -1    0    0  501    0  0.00000000000E+00  0.00000000000E+00 -0.21266510131E+04  0.21266510131E+04  0.50400001928E-02 0. -1.
    10030    2    1    2    0    0  0.00000000000E+00  0.00000000000E+00 -0.25226726177E+03  0.40010347644E+04  0.39930740557E+04 0.  0.
        1    1    3    3  502    0  0.28917916136E+03 -0.99737900100E+03 -0.18347518545E+04  0.21082466238E+04  0.50400001928E-02 0. -1.
       -1    1    3    3    0  502 -0.28917916136E+03  0.99737900100E+03  0.15824845927E+04  0.18927881406E+04  0.50400001928E-02 0.  1.
</event>
<event>
 5   0  0.2839279E-07  0.4005147E+04  0.7818609E-02  0.8003509E-01
        2   -1    0    0  501    0  0.00000000000E+00  0.00000000000E+00  0.15612344283E+04  0.15612344283E+04  0.25500000920E-02 0. -1.
       -2   -1    0    0    0  501  0.00000000000E+00  0.00000000000E+00 -0.25686731944E+04  0.25686731944E+04  0.25500000920E-02 0.  1.
    10030    2    1    2    0    0  0.00000000000E+00  0.00000000000E+00 -0.10074387661E+04  0.41299076228E+04  0.40051472014E+04 0.  0.
        3    1    3    3  502    0  0.85025278540E+03 -0.26303845155E+03 -0.23535295206E+04  0.25161916144E+04  0.10100000352E+00 0.  1.
       -3    1    3    3    0  502 -0.85025278540E+03  0.26303845155E+03  0.13460907545E+04  0.16137160083E+04  0.10100000352E+00 0. -1.
</event>
<event>
 5   0  0.2730801E-07  0.3955997E+04  0.7818609E-02  0.8013483E-01
        2   -1    0    0  501    0  0.00000000000E+00  0.00000000000E+00  0.19440412100E+04  0.19440412100E+04  0.25500000920E-02 0. -1.
       -2   -1    0    0    0  501  0.00000000000E+00  0.00000000000E+00 -0.20125490860E+04  0.20125490860E+04  0.25500000920E-02 0.  1.
    10030    2    1    2    0    0  0.00000000000E+00  0.00000000000E+00 -0.68507876000E+02  0.39565902960E+04  0.39559971488E+04 0.  0.
        2    1    3    3  502    0 -0.41179522483E+03  0.18158722695E+04  0.63331220880E+03  0.19667363220E+04  0.25500000920E-02 0. -1.
       -2    1    3    3    0  502  0.41179522483E+03 -0.18158722695E+04 -0.70182008480E+03  0.19898539740E+04  0.25500000920E-02 0.  1.
</event>
<event>
 5   0  0.8528625E-08  0.3962867E+04  0.7818609E-02  0.8012080E-01
        1   -1    0    0  501    0  0.00000000000E+00  0.00000000000E+00  0.16620829505E+04  0.16620829505E+04  0.50400001928E-02 0. -1.
       -1   -1    0    0    0  501  0.00000000000E+00  0.00000000000E+00 -0.23621431327E+04  0.23621431327E+04  0.50400001928E-02 0.  1.
    10030    2    1    2    0    0  0.00000000000E+00  0.00000000000E+00 -0.70006018216E+03  0.40242260833E+04  0.39628665522E+04 0.  0.
        3    1    3    3  502    0 -0.20733884966E+03 -0.13633915126E+04 -0.17948217061E+04  0.22634510779E+04  0.10100000352E+00 0.  1.
       -3    1    3    3    0  502  0.20733884966E+03  0.13633915126E+04  0.10947615239E+04  0.17607750054E+04  0.10100000352E+00 0. -1.
</event>
<event>
 5   0  0.2704088E-07  0.3634683E+04  0.7818609E-02  0.8082593E-01
        2   -1    0    0  501    0  0.00000000000E+00  0.00000000000E+00  0.18458780402E+04  0.18458780402E+04  0.25500000920E-02 0.  1.
       -2   -1    0    0    0  501  0.00000000000E+00  0.00000000000E+00 -0.17892458480E+04  0.17892458480E+04  0.25500000920E-02 0. -1.
    10030    2    1    2    0    0  0.00000000000E+00  0.00000000000E+00  0.56632192195E+02  0.36351238882E+04  0.36346827203E+04 0.  0.
        5    1    3    3  502    0  0.55821846564E+03  0.83723217668E+03  0.15418212769E+04  0.18411410899E+04  0.46999998093E+01 0.  1.
       -5    1    3    3    0  502 -0.55821846564E+03 -0.83723217668E+03 -0.14851890847E+04  0.17939827983E+04  0.46999998093E+01 0. -1.
</event>
<event>
 5   0  0.2730801E-07  0.3950201E+04  0.7818609E-02  0.8014669E-01
        2   -1    0    0  501    0  0.00000000000E+00  0.00000000000E+00  0.20320457243E+04  0.20320457243E+04  0.25500000920E-02 0.  1.
       -2   -1    0    0    0  501  0.00000000000E+00  0.00000000000E+00 -0.19197510210E+04  0.19197510210E+04  0.25500000920E-02 0. -1.
    10030    2    1    2    0    0  0.00000000000E+00  0.00000000000E+00  0.11229470327E+03  0.39517967453E+04  0.39502009336E+04 0.  0.
        2    1    3    3  502    0  0.19748477853E+04 -0.31592363866E+02  0.56107367866E+02  0.19758972365E+04  0.25500000920E-02 0. -1.
       -2    1    3    3    0  502 -0.19748477853E+04  0.31592363866E+02  0.56187335403E+02  0.19758995089E+04  0.25500000920E-02 0.  1.
</event>
<event>
 5   0  0.2704088E-07  0.4007387E+04  0.7818609E-02  0.8003058E-01
        2   -1    0    0  501    0  0.00000000000E+00  0.00000000000E+00  0.15128442126E+04  0.15128442126E+04  0.25500000920E-02 0. -1.
       -2   -1    0    0    0  501  0.00000000000E+00  0.00000000000E+00 -0.26538010765E+04  0.26538010765E+04  0.25500000920E-02 0.  1.
    10030    2    1    2    0    0  0.00000000000E+00  0.00000000000E+00 -0.11409568639E+04  0.41666452891E+04  0.40073869791E+04 0.  0.
        5    1    3    3  502    0 -0.15554383406E+04 -0.12499459665E+04 -0.38156527107E+03  0.20315923549E+04  0.46999998093E+01 0. -1.
       -5    1    3    3    0  502  0.15554383406E+04  0.12499459665E+04 -0.75939159280E+03  0.21350529342E+04  0.46999998093E+01 0.  1.
</event>
<event>
 5   0  0.8583262E-08  0.3959203E+04  0.7818609E-02  0.8012828E-01
        1   -1    0    0  501    0  0.00000000000E+00  0.00000000000E+00  0.14709845533E+04  0.14709845533E+04  0.50400001928E-02 0. -1.
       -1   -1    0    0    0  501  0.00000000000E+00  0.00000000000E+00 -0.26640811570E+04  0.26640811570E+04  0.50400001928E-02 0.  1.
    10030    2    1    2    0    0  0.00000000000E+00  0.00000000000E+00 -0.11930966036E+04  0.41350657103E+04  0.39592030666E+04 0.  0.
        1    1    3    3  502    0  0.13689975002E+04  0.12255482970E+04 -0.13659521030E+04  0.22895300678E+04  0.50400001928E-02 0. -1.
       -1    1    3    3    0  502 -0.13689975002E+04 -0.12255482970E+04  0.17285549932E+03  0.18455356425E+04  0.50400001928E-02 0.  1.
</event>
<event>
 5   0  0.2666978E-07  0.3926860E+04  0.7818609E-02  0.8019466E-01
        2   -1    0    0  501    0  0.00000000000E+00  0.00000000000E+00  0.18513201707E+04  0.18513201707E+04  0.25500000920E-02 0.  1.
       -2   -1    0    0    0  501  0.00000000000E+00  0.00000000000E+00 -0.20823287813E+04  0.20823287813E+04  0.25500000920E-02 0. -1.
    10030    2    1    2    0    0  0.00000000000E+00  0.00000000000E+00 -0.23100861061E+03  0.39336489519E+04  0.39268599541E+04 0.  0.
        4    1    3    3  502    0 -0.41220105970E+03 -0.15501156764E+04 -0.12498433048E+04  0.20334399974E+04  0.12699999809E+01 0. -1.
       -4    1    3    3    0  502  0.41220105970E+03  0.15501156764E+04  0.10188346942E+04  0.19002089545E+04  0.12699999809E+01 0.  1.
</event>
<event>
 5   0  0.2839279E-07  0.4040498E+04  0.7818609E-02  0.7996426E-01
       -2   -1    0    0    0  501  0.00000000000E+00  0.00000000000E+00  0.15311641126E+04  0.15311641126E+04  0.25500000920E-02 0. -1.
        2   -1    0    0  501    0  0.00000000000E+00  0.00000000000E+00 -0.26655570478E+04  0.26655570478E+04  0.25500000920E-02 0.  1.
    10030    2    1    2    0    0  0.00000000000E+00  0.00000000000E+00 -0.11343929352E+04  0.41967211604E+04  0.40404976385E+04 0.  0.
        3    1    3    3  502    0  0.16985806574E+04  0.10413905081E+04 -0.22000458266E+03  0.20045130248E+04  0.10100000352E+00 0. -1.
       -3    1    3    3    0  502 -0.16985806574E+04 -0.10413905081E+04 -0.91438835255E+03  0.21922081356E+04  0.10100000352E+00 0.  1.
</event>
<event>
 5   0  0.2704088E-07  0.4009159E+04  0.7818609E-02  0.8002701E-01
       -2   -1    0    0    0  501  0.00000000000E+00  0.00000000000E+00  0.24598524102E+04  0.24598524102E+04  0.25500000920E-02 0.  1.
        2   -1    0    0  501    0  0.00000000000E+00  0.00000000000E+00 -0.16335692328E+04  0.16335692328E+04  0.25500000920E-02 0. -1.
    10030    2    1    2    0    0  0.00000000000E+00  0.00000000000E+00  0.82628317739E+03  0.40934216431E+04  0.40091591211E+04 0.  0.
        5    1    3    3  502    0  0.73870446583E+03 -0.11864534669E+04  0.18803409040E+04  0.23428743292E+04  0.46999998093E+01 0.  1.
       -5    1    3    3    0  502 -0.73870446583E+03  0.11864534669E+04 -0.10540577266E+04  0.17505473139E+04  0.46999998093E+01 0. -1.
</event>
<event>
 5   0  0.2839279E-07  0.3268949E+04  0.7818609E-02  0.8170841E-01
       -2   -1    0    0    0  501  0.00000000000E+00  0.00000000000E+00  0.30238284176E+04  0.30238284176E+04  0.25500000920E-02 0. -1.
        2   -1    0    0  501    0  0.00000000000E+00  0.00000000000E+00 -0.88348507455E+03  0.88348507455E+03  0.25500000920E-02 0.  1.
    10030    2    1    2    0    0  0.00000000000E+00  0.00000000000E+00  0.21403433430E+04  0.39073134921E+04  0.32689492348E+04 0.  0.
        3    1    3    3  502    0  0.37400207469E+03  0.73504610270E+03 -0.61654623610E+03  0.10297085007E+04  0.10100000352E+00 0.  1.
       -3    1    3    3    0  502 -0.37400207469E+03 -0.73504610270E+03  0.27568895791E+04  0.28776049914E+04  0.10100000352E+00 0. -1.
</event>
<event>
 5   0  0.8528625E-08  0.4008269E+04  0.7818609E-02  0.8002881E-01
        1   -1    0    0  501    0  0.00000000000E+00  0.00000000000E+00  0.19690359512E+04  0.19690359512E+04  0.50400001928E-02 0.  1.
       -1   -1    0    0    0  501  0.00000000000E+00  0.00000000000E+00 -0.20398584953E+04  0.20398584953E+04  0.50400001928E-02 0. -1.
    10030    2    1    2    0    0  0.00000000000E+00  0.00000000000E+00 -0.70822544151E+02  0.40088944465E+04  0.40082688096E+04 0.  0.
        3    1    3    3  502    0  0.32058359267E+02 -0.17063633650E+04 -0.10862184142E+04  0.20230111531E+04  0.10100000352E+00 0. -1.
       -3    1    3    3    0  502 -0.32058359267E+02  0.17063633650E+04  0.10153958701E+04  0.19858832934E+04  0.10100000352E+00 0.  1.
</event>
<event>
 5   0  0.8528625E-08  0.4198840E+04  0.7818609E-02  0.7965593E-01
        1   -1    0    0  501    0  0.00000000000E+00  0.00000000000E+00  0.19505360015E+04  0.19505360015E+04  0.50400001928E-02 0. -1.
       -1   -1    0    0    0  501  0.00000000000E+00  0.00000000000E+00 -0.22596685083E+04  0.22596685083E+04  0.50400001928E-02 0.  1.
    10030    2    1    2    0    0  0.00000000000E+00  0.00000000000E+00 -0.30913250680E+03  0.42102045099E+04  0.41988402099E+04 0.  0.
        3    1    3    3  502    0 -0.10739900385E+04 -0.17688157856E+04  0.20051205127E+03  0.20790307788E+04  0.10100000352E+00 0. -1.
       -3    1    3    3    0  502  0.10739900385E+04  0.17688157856E+04 -0.50964455808E+03  0.21311737311E+04  0.10100000352E+00 0.  1.
</event>
<event>
 5   0  0.2666978E-07  0.3163595E+04  0.7818609E-02  0.8198498E-01
       -2   -1    0    0    0  501  0.00000000000E+00  0.00000000000E+00  0.19522303976E+04  0.19522303976E+04  0.25500000920E-02 0.  1.
        2   -1    0    0  501    0  0.00000000000E+00  0.00000000000E+00 -0.12816533663E+04  0.12816533663E+04  0.25500000920E-02 0. -1.
    10030    2    1    2    0    0  0.00000000000E+00  0.00000000000E+00  0.67057703130E+03  0.32338837638E+04  0.31635945763E+04 0.  0.
        4    1    3    3  502    0 -0.10816464654E+04  0.11077948222E+04  0.66638717036E+03  0.16855983857E+04  0.12699999809E+01 0.  1.
       -4    1    3    3    0  502  0.10816464654E+04 -0.11077948222E+04  0.41898609413E+01  0.15482853781E+04  0.12699999809E+01 0. -1.
</event>
<event>
 5   0  0.8528625E-08  0.4010025E+04  0.7818609E-02  0.8002527E-01
        1   -1    0    0  501    0  0.00000000000E+00  0.00000000000E+00  0.15474920437E+04  0.15474920437E+04  0.50400001928E-02 0. -1.
       -1   -1    0    0    0  501  0.00000000000E+00  0.00000000000E+00 -0.25978005805E+04  0.25978005805E+04  0.50400001928E-02 0.  1.
    10030    2    1    2    0    0  0.00000000000E+00  0.00000000000E+00 -0.10503085368E+04  0.41452926242E+04  0.40100253014E+04 0.  0.
        5    1    3    3  502    0 -0.64174142725E+03  0.17666556720E+04  0.19635037378E+03  0.18898359405E+04  0.46999998093E+01 0. -1.
       -5    1    3    3    0  502  0.64174142725E+03 -0.17666556720E+04 -0.12466589105E+04  0.22554566837E+04  0.46999998093E+01 0.  1.
</event>
<event>
 5   0  0.8528625E-08  0.4002204E+04  0.7818609E-02  0.8004102E-01
        1   -1    0    0  501    0  0.00000000000E+00  0.00000000000E+00  0.24514472081E+04  0.24514472081E+04  0.50400001928E-02 0.  1.
       -1   -1    0    0    0  501  0.00000000000E+00  0.00000000000E+00 -0.16334882246E+04  0.16334882246E+04  0.50400001928E-02 0. -1.
    10030    2    1    2    0    0  0.00000000000E+00  0.00000000000E+00  0.81795898350E+03  0.40849354327E+04  0.40022044663E+04 0.  0.
        5    1    3    3  502    0  0.10992084062E+04  0.14595916446E+04 -0.42380399964E+03  0.18757128803E+04  0.46999998093E+01 0. -1.
       -5    1    3    3    0  502 -0.10992084062E+04 -0.14595916446E+04  0.12417629831E+04  0.22092225523E+04  0.46999998093E+01 0.  1.
</event>
<event>
 5   0  0.8528625E-08  0.3614777E+04  0.7818609E-02  0.8087115E-01
        1   -1    0    0  501    0  0.00000000000E+00  0.00000000000E+00  0.17475117220E+04  0.17475117220E+04  0.50400001928E-02 0.  1.
       -1   -1    0    0    0  501  0.00000000000E+00  0.00000000000E+00 -0.18693171857E+04  0.18693171857E+04  0.50400001928E-02 0. -1.
    10030    2    1    2    0    0  0.00000000000E+00  0.00000000000E+00 -0.12180546368E+03  0.36168289077E+04  0.36147772790E+04 0.  0.
        3    1    3    3  502    0  0.40437525099E+03 -0.14303698418E+04 -0.10896771647E+04  0.18430609218E+04  0.10100000352E+00 0. -1.
       -3    1    3    3    0  502 -0.40437525099E+03  0.14303698418E+04  0.96787170101E+03  0.17737679859E+04  0.10100000352E+00 0.  1.
</event>
<event>
 5   0  0.2661693E-07  0.4003963E+04  0.7818609E-02  0.8003748E-01
        2   -1    0    0  501    0  0.00000000000E+00  0.00000000000E+00  0.18876780663E+04  0.18876780663E+04  0.25500000920E-02 0.  1.
       -2   -1    0    0    0  501  0.00000000000E+00  0.00000000000E+00 -0.21232058049E+04  0.21232058049E+04  0.25500000920E-02 0. -1.
    10030    2    1    2    0    0  0.00000000000E+00  0.00000000000E+00 -0.23552773856E+03  0.40108838713E+04  0.40039625514E+04 0.  0.
        1    1    3    3  502    0  0.15452476707E+04 -0.62865813181E+03 -0.12264415234E+04  0.20705458751E+04  0.50400001928E-02 0. -1.
       -1    1    3    3    0  502 -0.15452476707E+04  0.62865813181E+03  0.99091378481E+03  0.19403379962E+04  0.50400001928E-02 0.  1.
</event>
<event>
 5   0  0.8528625E-08  0.4356942E+04  0.7818609E-02  0.7936172E-01
       -1   -1    0    0    0  501  0.00000000000E+00  0.00000000000E+00  0.26677320907E+04  0.26677320907E+04  0.50400001928E-02 0. -1.
        1   -1    0    0  501    0  0.00000000000E+00  0.00000000000E+00 -0.17789398664E+04  0.17789398664E+04  0.50400001928E-02 0.  1.
    10030    2    1    2    0    0  0.00000000000E+00  0.00000000000E+00  0.88879222429E+03  0.44466719572E+04  0.43569415737E+04 0.  0.
        2    1    3    3  502    0  0.16384068268E+04 -0.83658009834E+03  0.16352565483E+04  0.24613628684E+04  0.25500000920E-02 0. -1.
       -2    1    3    3    0  502 -0.16384068268E+04  0.83658009834E+03 -0.74646432405E+03  0.19853090888E+04  0.25500000920E-02 0.  1.
</event>
<event>
 5   0  0.8528625E-08  0.3976928E+04  0.7818609E-02  0.8009217E-01
        1   -1    0    0  501    0  0.00000000000E+00  0.00000000000E+00  0.25159055927E+04  0.25159055927E+04  0.50400001928E-02 0. -1.
       -1   -1    0    0    0  501  0.00000000000E+00  0.00000000000E+00 -0.15715969910E+04  0.15715969910E+04  0.50400001928E-02 0.  1.
    10030    2    1    2    0    0  0.00000000000E+00  0.00000000000E+00  0.94430860172E+03  0.40875025837E+04  0.39769282916E+04 0.  0.
        3    1    3    3  502    0 -0.16639358051E+03 -0.44868018246E+03  0.24558395895E+04  0.25020289425E+04  0.10100000352E+00 0. -1.
       -3    1    3    3    0  502  0.16639358051E+03  0.44868018246E+03 -0.15115309878E+04  0.15854736412E+04  0.10100000352E+00 0.  1.
</event>
<event>
 5   0  0.8528625E-08  0.3951012E+04  0.7818609E-02  0.8014503E-01
       -1   -1    0    0    0  501  0.00000000000E+00  0.00000000000E+00  0.14566293398E+04  0.14566293398E+04  0.50400001928E-02 0.  1.
        1   -1    0    0  501    0  0.00000000000E+00  0.00000000000E+00 -0.26792156647E+04  0.26792156647E+04  0.50400001928E-02 0. -1.
    10030    2    1    2    0    0  0.00000000000E+00  0.00000000000E+00 -0.12225863249E+04  0.41358450046E+04  0.39510120957E+04 0.  0.
        2    1    3    3  502    0 -0.14885482765E+04  0.28631470738E+03  0.71480631487E+03  0.16759177041E+04  0.25500000920E-02 0.  1.
       -2    1    3    3    0  502  0.14885482765E+04 -0.28631470738E+03 -0.19373926398E+04  0.24599273005E+04  0.25500000920E-02 0. -1.
</event>
<event>
 5   0  0.8528625E-08  0.3086438E+04  0.7818609E-02  0.8219470E-01
       -1   -1    0    0    0  501  0.00000000000E+00  0.00000000000E+00  0.12201068205E+04  0.12201068206E+04  0.50400001928E-02 0.  1.
        1   -1    0    0  501    0  0.00000000000E+00  0.00000000000E+00 -0.19518988107E+04  0.19518988107E+04  0.50400001928E-02 0. -1.
    10030    2    1    2    0    0  0.00000000000E+00  0.00000000000E+00 -0.73179199015E+03  0.31720056313E+04  0.30864381102E+04 0.  0.
        3    1    3    3  502    0 -0.77322441550E+03 -0.13355041654E+04 -0.37495333651E+03  0.15880923737E+04  0.10100000352E+00 0.  1.
       -3    1    3    3    0  502  0.77322441550E+03  0.13355041654E+04 -0.35683865365E+03  0.15839132576E+04  0.10100000352E+00 0. -1.
</event>
<event>
 5   0  0.2704088E-07  0.4002235E+04  0.7818609E-02  0.8004096E-01
        2   -1    0    0  501    0  0.00000000000E+00  0.00000000000E+00  0.15487487649E+04  0.15487487649E+04  0.25500000920E-02 0.  1.
       -2   -1    0    0    0  501  0.00000000000E+00  0.00000000000E+00 -0.25856174973E+04  0.25856174973E+04  0.25500000920E-02 0. -1.
    10030    2    1    2    0    0  0.00000000000E+00  0.00000000000E+00 -0.10368687324E+04  0.41343662623E+04  0.40022353282E+04 0.  0.
        5    1    3    3  502    0  0.18490484146E+04  0.65451196604E+01 -0.13088266245E+04  0.22654077119E+04  0.46999998093E+01 0. -1.
       -5    1    3    3    0  502 -0.18490484146E+04 -0.65451196604E+01  0.27195789211E+03  0.18689585504E+04  0.46999998093E+01 0.  1.
</event>
<event>
 5   0  0.2661693E-07  0.3995625E+04  0.7818609E-02  0.8005430E-01
        2   -1    0    0  501    0  0.00000000000E+00  0.00000000000E+00  0.26964442334E+04  0.26964442334E+04  0.25500000920E-02 0.  1.
       -2   -1    0    0    0  501  0.00000000000E+00  0.00000000000E+00 -0.14801915144E+04  0.14801915144E+04  0.25500000920E-02 0. -1.
    10030    2    1    2    0    0  0.00000000000E+00  0.00000000000E+00  0.12162527190E+04  0.41766357478E+04  0.39956245436E+04 0.  0.
        1    1    3    3  502    0  0.77323259636E+03 -0.13263550890E+04  0.19443758209E+04  0.24774389605E+04  0.50400001928E-02 0.  1.
       -1    1    3    3    0  502 -0.77323259636E+03  0.13263550890E+04 -0.72812310190E+03  0.16991967873E+04  0.50400001928E-02 0. -1.
</event>
<event>
 5   0  0.8583262E-08  0.3843651E+04  0.7818609E-02  0.8036852E-01
        1   -1    0    0  501    0  0.00000000000E+00  0.00000000000E+00  0.25170430073E+04  0.25170430074E+04  0.50400001928E-02 0. -1.
       -1   -1    0    0    0  501  0.00000000000E+00  0.00000000000E+00 -0.14673620544E+04  0.14673620544E+04  0.50400001928E-02 0.  1.
    10030    2    1    2    0    0  0.00000000000E+00  0.00000000000E+00  0.10496809529E+04  0.39844050618E+04  0.38436510759E+04 0.  0.
        1    1    3    3  502    0  0.58907744013E+03 -0.99562427799E+02 -0.13686553093E+04  0.14933660848E+04  0.50400001928E-02 0.  1.
       -1    1    3    3    0  502 -0.58907744013E+03  0.99562427799E+02  0.24183362622E+04  0.24910389770E+04  0.50400001928E-02 0. -1.
</event>
<event>
 5   0  0.2730801E-07  0.4010578E+04  0.7818609E-02  0.8002416E-01
       -2   -1    0    0    0  501  0.00000000000E+00  0.00000000000E+00  0.16170030722E+04  0.16170030722E+04  0.25500000920E-02 0. -1.
        2   -1    0    0  501    0  0.00000000000E+00  0.00000000000E+00 -0.24868129910E+04  0.24868129910E+04  0.25500000920E-02 0.  1.
    10030    2    1    2    0    0  0.00000000000E+00  0.00000000000E+00 -0.86980991875E+03  0.41038160632E+04  0.40105781361E+04 0.  0.
        2    1    3    3  502    0  0.45448436179E+03  0.54144466914E+03 -0.23550880798E+04  0.24588937001E+04  0.25500000920E-02 0.  1.
       -2    1    3    3    0  502 -0.45448436179E+03 -0.54144466914E+03  0.14852781611E+04  0.16449223631E+04  0.25500000920E-02 0. -1.
</event>
<event>
 5   0  0.2704088E-07  0.3946142E+04  0.7818609E-02  0.8015500E-01
        2   -1    0    0  501    0  0.00000000000E+00  0.00000000000E+00  0.19814793025E+04  0.19814793025E+04  0.25500000920E-02 0.  1.
       -2   -1    0    0    0  501  0.00000000000E+00  0.00000000000E+00 -0.19646985339E+04  0.19646985339E+04  0.25500000920E-02 0. -1.
    10030    2    1    2    0    0  0.00000000000E+00  0.00000000000E+00  0.16780768606E+02  0.39461778364E+04  0.39461421569E+04 0.  0.
        5    1    3    3  502    0 -0.15146633382E+04  0.11991819222E+04  0.40932427756E+03  0.19747938538E+04  0.46999998093E+01 0. -1.
       -5    1    3    3    0  502  0.15146633382E+04 -0.11991819222E+04 -0.39254350895E+03  0.19713839827E+04  0.46999998093E+01 0.  1.
</event>
<event>
 5   0  0.8528625E-08  0.3856376E+04  0.7818609E-02  0.8034164E-01
        1   -1    0    0  501    0  0.00000000000E+00  0.00000000000E+00  0.16937271683E+04  0.16937271683E+04  0.50400001928E-02 0. -1.
       -1   -1    0    0    0  501  0.00000000000E+00  0.00000000000E+00 -0.21951055380E+04  0.21951055380E+04  0.50400001928E-02 0.  1.
    10030    2    1    2    0    0  0.00000000000E+00  0.00000000000E+00 -0.50137836975E+03  0.38888327063E+04  0.38563764790E+04 0.  0.
        2    1    3    3  502    0  0.17773522084E+04 -0.73115140031E+03 -0.40803651940E+03  0.19647027877E+04  0.25500000920E-02 0.  1.
       -2    1    3    3    0  502 -0.17773522084E+04  0.73115140031E+03 -0.93341850352E+02  0.19241299186E+04  0.25500000920E-02 0. -1.
</event>
<event>
 5   0  0.2730801E-07  0.4009941E+04  0.7818609E-02  0.8002544E-01
        2   -1    0    0  501    0  0.00000000000E+00  0.00000000000E+00  0.18458509996E+04  0.18458509996E+04  0.25500000920E-02 0.  1.
       -2   -1    0    0    0  501  0.00000000000E+00  0.00000000000E+00 -0.21778072079E+04  0.21778072079E+04  0.25500000920E-02 0. -1.
    10030    2    1    2    0    0  0.00000000000E+00  0.00000000000E+00 -0.33195620837E+03  0.40236582075E+04  0.40099414518E+04 0.  0.
        2    1    3    3  502    0 -0.70119243773E+03 -0.60448836771E+03  0.16185402363E+04  0.18646043865E+04  0.25500000920E-02 0.  1.
       -2    1    3    3    0  502  0.70119243773E+03  0.60448836771E+03 -0.19504964447E+04  0.21590538210E+04  0.25500000920E-02 0. -1.
</event>
<event>
 5   0  0.2839279E-07  0.3989140E+04  0.7818609E-02  0.8006741E-01
       -2   -1    0    0    0  501  0.00000000000E+00  0.00000000000E+00  0.17595962344E+04  0.17595962344E+04  0.25500000920E-02 0.  1.
        2   -1    0    0  501    0  0.00000000000E+00  0.00000000000E+00 -0.22609216051E+04  0.22609216051E+04  0.25500000920E-02 0. -1.
    10030    2    1    2    0    0  0.00000000000E+00  0.00000000000E+00 -0.50132537075E+03  0.40205178395E+04  0.39891398283E+04 0.  0.
        3    1    3    3  502    0  0.43436871055E+03 -0.35786634802E+03 -0.21792357023E+04  0.22507360476E+04  0.10100000352E+00 0. -1.
       -3    1    3    3    0  502 -0.43436871055E+03  0.35786634802E+03  0.16779103316E+04  0.17697817918E+04  0.10100000352E+00 0.  1.
</event>
<event>
 5   0  0.8528625E-08  0.3989272E+04  0.7818609E-02  0.8006714E-01
       -1   -1    0    0    0  501  0.00000000000E+00  0.00000000000E+00  0.18614608952E+04  0.18614608952E+04  0.50400001928E-02 0. -1.
        1   -1    0    0  501    0  0.00000000000E+00  0.00000000000E+00 -0.21373387604E+04  0.21373387604E+04  0.50400001928E-02 0.  1.
    10030    2    1    2    0    0  0.00000000000E+00  0.00000000000E+00 -0.27587786517E+03  0.39987996556E+04  0.39892718745E+04 0.  0.
        5    1    3    3  502    0  0.14097185922E+04 -0.11834320440E+03 -0.15474405352E+04  0.20966415820E+04  0.46999998093E+01 0.  1.
       -5    1    3    3    0  502 -0.14097185922E+04  0.11834320440E+03  0.12715626700E+04  0.19021580736E+04  0.46999998093E+01 0. -1.
</event>
<event>
 5   0  0.2661693E-07  0.4072334E+04  0.7818609E-02  0.7990111E-01
        2   -1    0    0  501    0  0.00000000000E+00  0.00000000000E+00  0.24228257070E+04  0.24228257070E+04  0.25500000920E-02 0.  1.
       -2   -1    0    0    0  501  0.00000000000E+00  0.00000000000E+00 -0.17112150802E+04  0.17112150802E+04  0.25500000920E-02 0. -1.
    10030    2    1    2    0    0  0.00000000000E+00  0.00000000000E+00  0.71161062679E+03  0.41340407872E+04  0.40723339187E+04 0.  0.
        1    1    3    3  502    0  0.73585014877E+03 -0.68347937318E+03 -0.14422924605E+04  0.17575059137E+04  0.50400001928E-02 0. -1.
       -1    1    3    3    0  502 -0.73585014877E+03  0.68347937318E+03  0.21539030873E+04  0.23765348734E+04  0.50400001928E-02 0.  1.
</event>
<event>
 5   0  0.8528625E-08  0.4748462E+04  0.7818609E-02  0.7868526E-01
        1   -1    0    0  501    0  0.00000000000E+00  0.00000000000E+00  0.24410675285E+04  0.24410675285E+04  0.50400001928E-02 0.  1.
       -1   -1    0    0    0  501  0.00000000000E+00  0.00000000000E+00 -0.23092240364E+04  0.23092240364E+04  0.50400001928E-02 0. -1.
    10030    2    1    2    0    0  0.00000000000E+00  0.00000000000E+00  0.13184349206E+03  0.47502915649E+04  0.47484615661E+04 0.  0.
        4    1    3    3  502    0  0.88520546750E+03  0.39880222227E+03  0.22333989071E+04  0.24353037230E+04  0.12699999809E+01 0.  1.
       -4    1    3    3    0  502 -0.88520546750E+03 -0.39880222227E+03 -0.21015554151E+04  0.23149878418E+04  0.12699999809E+01 0. -1.
</event>
<event>
 5   0  0.8528625E-08  0.3966757E+04  0.7818609E-02  0.8011286E-01
       -1   -1    0    0    0  501  0.00000000000E+00  0.00000000000E+00  0.27268937494E+04  0.27268937494E+04  0.50400001928E-02 0.  1.
        1   -1    0    0  501    0  0.00000000000E+00  0.00000000000E+00 -0.14425903277E+04  0.14425903277E+04  0.50400001928E-02 0. -1.
    10030    2    1    2    0    0  0.00000000000E+00  0.00000000000E+00  0.12843034217E+04  0.41694840771E+04  0.39667571378E+04 0.  0.
        2    1    3    3  502    0  0.10353519349E+03  0.83721214322E+03  0.25289234900E+04  0.26659140510E+04  0.25500000920E-02 0.  1.
       -2    1    3    3    0  502 -0.10353519349E+03 -0.83721214322E+03 -0.12446200683E+04  0.15035700261E+04  0.25500000920E-02 0. -1.
</event>
<event>
 5   0  0.2666978E-07  0.4148728E+04  0.7818609E-02  0.7975198E-01
        2   -1    0    0  501    0  0.00000000000E+00  0.00000000000E+00  0.24268081805E+04  0.24268081805E+04  0.25500000920E-02 0.  1.
       -2   -1    0    0    0  501  0.00000000000E+00  0.00000000000E+00 -0.17731050586E+04  0.17731050586E+04  0.25500000920E-02 0. -1.
    10030    2    1    2    0    0  0.00000000000E+00  0.00000000000E+00  0.65370312195E+03  0.41999132391E+04  0.41487279309E+04 0.  0.
        4    1    3    3  502    0 -0.64159956882E+03 -0.41015580383E+03  0.22801926741E+04  0.24039879438E+04  0.12699999809E+01 0.  1.
       -4    1    3    3    0  502  0.64159956882E+03  0.41015580383E+03 -0.16264895521E+04  0.17959252953E+04  0.12699999809E+01 0. -1.
</event>
<event>
 5   0  0.2730801E-07  0.3901843E+04  0.7818609E-02  0.8024646E-01
       -2   -1    0    0    0  501  0.00000000000E+00  0.00000000000E+00  0.20324250271E+04  0.20324250271E+04  0.25500000920E-02 0. -1.
        2   -1    0    0  501    0  0.00000000000E+00  0.00000000000E+00 -0.18726866699E+04  0.18726866699E+04  0.25500000920E-02 0.  1.
    10030    2    1    2    0    0  0.00000000000E+00  0.00000000000E+00  0.15973835726E+03  0.39051116970E+04  0.39018432854E+04 0.  0.
        2    1    3    3  502    0  0.51264185006E+03 -0.30964924014E+02 -0.18038165120E+04  0.18755037995E+04  0.25500000920E-02 0.  1.
       -2    1    3    3    0  502 -0.51264185006E+03  0.30964924014E+02  0.19635548693E+04  0.20296078975E+04  0.25500000920E-02 0. -1.
</event>
<event>
 5   0  0.2839279E-07  0.3975503E+04  0.7818609E-02  0.8009507E-01
        2   -1    0    0  501    0  0.00000000000E+00  0.00000000000E+00  0.10553227227E+04  0.10553227227E+04  0.25500000920E-02 0.  1.
       -2   -1    0    0    0  501  0.00000000000E+00  0.00000000000E+00 -0.37440265633E+04  0.37440265633E+04  0.25500000920E-02 0. -1.
    10030    2    1    2    0    0  0.00000000000E+00  0.00000000000E+00 -0.26887038406E+04  0.47993492860E+04  0.39755031413E+04 0.  0.
        3    1    3    3  502    0  0.32140696845E+03  0.37421239945E+03  0.98025494574E+03  0.10973773864E+04  0.10100000352E+00 0.  1.
       -3    1    3    3    0  502 -0.32140696845E+03 -0.37421239945E+03 -0.36689587863E+04  0.37019718996E+04  0.10100000352E+00 0. -1.
</event>
<event>
 5   0  0.8528625E-08  0.3842615E+04  0.7818609E-02  0.8037071E-01
       -1   -1    0    0    0  501  0.00000000000E+00  0.00000000000E+00  0.30287926375E+04  0.30287926375E+04  0.50400001928E-02 0.  1.
        1   -1    0    0  501    0  0.00000000000E+00  0.00000000000E+00 -0.12187765970E+04  0.12187765971E+04  0.50400001928E-02 0. -1.
    10030    2    1    2    0    0  0.00000000000E+00  0.00000000000E+00  0.18100160404E+04  0.42475692345E+04  0.38426145182E+04 0.  0.
        2    1    3    3  502    0 -0.76525454717E+03 -0.71869264381E+03 -0.87369655423E+03  0.13658255039E+04  0.25500000920E-02 0. -1.
       -2    1    3    3    0  502  0.76525454717E+03  0.71869264381E+03  0.26837125947E+04  0.28817437306E+04  0.25500000920E-02 0.  1.
</event>
<event>
 5   0  0.2666978E-07  0.4026858E+04  0.7818609E-02  0.7999150E-01
       -2   -1    0    0    0  501  0.00000000000E+00  0.00000000000E+00  0.19164503543E+04  0.19164503543E+04  0.25500000920E-02 0.  1.
        2   -1    0    0  501    0  0.00000000000E+00  0.00000000000E+00 -0.21153154272E+04  0.21153154272E+04  0.25500000920E-02 0. -1.
    10030    2    1    2    0    0  0.00000000000E+00  0.00000000000E+00 -0.19886507290E+03  0.40317657814E+04  0.40268583287E+04 0.  0.
        4    1    3    3  502    0  0.60000033545E+03  0.18639906206E+04 -0.56844118887E+03  0.20390165361E+04  0.12699999809E+01 0. -1.
       -4    1    3    3    0  502 -0.60000033545E+03 -0.18639906206E+04  0.36957611597E+03  0.19927492453E+04  0.12699999809E+01 0.  1.
</event>
<event>
 5   0  0.2839279E-07  0.3836224E+04  0.7818609E-02  0.8038426E-01
        2   -1    0    0  501    0  0.00000000000E+00  0.00000000000E+00  0.24936771018E+04  0.24936771018E+04  0.25500000920E-02 0.  1.
       -2   -1    0    0    0  501  0.00000000000E+00  0.00000000000E+00 -0.14753933149E+04  0.14753933149E+04  0.25500000920E-02 0. -1.
    10030    2    1    2    0    0  0.00000000000E+00  0.00000000000E+00  0.10182837868E+04  0.39690704167E+04  0.38362244593E+04 0.  0.
        3    1    3    3  502    0 -0.13574009720E+04 -0.63481104494E+03 -0.72966509088E+03  0.16667134177E+04  0.10100000352E+00 0. -1.
       -3    1    3    3    0  502  0.13574009720E+04  0.63481104494E+03  0.17479488777E+04  0.23023569990E+04  0.10100000352E+00 0.  1.
</event>
<event>
 5   0  0.8528625E-08  0.3996183E+04  0.7818609E-02  0.8005317E-01
       -1   -1    0    0    0  501  0.00000000000E+00  0.00000000000E+00  0.19925152157E+04  0.19925152157E+04  0.50400001928E-02 0. -1.
        1   -1    0    0  501    0  0.00000000000E+00  0.00000000000E+00 -0.20036830878E+04  0.20036830878E+04  0.50400001928E-02 0.  1.
    10030    2    1    2    0    0  0.00000000000E+00  0.00000000000E+00 -0.11167872161E+02  0.39961983035E+04  0.39961826985E+04 0.  0.
        5    1    3    3  502    0  0.12986524101E+04  0.12371599854E+04  0.87492165346E+03  0.19956384696E+04  0.46999998093E+01 0. -1.
       -5    1    3    3    0  502 -0.12986524101E+04 -0.12371599854E+04 -0.88608952563E+03  0.20005598339E+04  0.46999998093E+01 0.  1.
</event>
<event>
 5   0  0.2661693E-07  0.4005303E+04  0.7818609E-02  0.8003478E-01
       -2   -1    0    0    0  501  0.00000000000E+00  0.00000000000E+00  0.17884803472E+04  0.17884803472E+04  0.25500000920E-02 0. -1.
        2   -1    0    0  501    0  0.00000000000E+00  0.00000000000E+00 -0.22424701261E+04  0.22424701261E+04  0.25500000920E-02 0.  1.
    10030    2    1    2    0    0  0.00000000000E+00  0.00000000000E+00 -0.45398977895E+03  0.40309504734E+04  0.40053033592E+04 0.  0.
        1    1    3    3  502    0  0.20860585494E+03 -0.19913311486E+04 -0.18552907638E+03  0.20108051085E+04  0.50400001928E-02 0. -1.
       -1    1    3    3    0  502 -0.20860585494E+03  0.19913311486E+04 -0.26846070257E+03  0.20201453648E+04  0.50400001928E-02 0.  1.
</event>
<event>
 5   0  0.8528625E-08  0.4048350E+04  0.7818609E-02  0.7994863E-01
       -1   -1    0    0    0  501  0.00000000000E+00  0.00000000000E+00  0.15651854685E+04  0.15651854685E+04  0.50400001928E-02 0. -1.
        1   -1    0    0  501    0  0.00000000000E+00  0.00000000000E+00 -0.26177633391E+04  0.26177633391E+04  0.50400001928E-02 0.  1.
    10030    2    1    2    0    0  0.00000000000E+00  0.00000000000E+00 -0.10525778707E+04  0.41829488076E+04  0.40483503496E+04 0.  0.
        2    1    3    3  502    0 -0.16579457275E+04 -0.11303797208E+04 -0.80110717292E+03  0.21606283927E+04  0.25500000920E-02 0. -1.
       -2    1    3    3    0  502  0.16579457275E+04  0.11303797208E+04 -0.25147069774E+03  0.20223204149E+04  0.25500000920E-02 0.  1.
</event>
<event>
 5   0  0.8583262E-08  0.3963672E+04  0.7818609E-02  0.8011915E-01
       -1   -1    0    0    0  501  0.00000000000E+00  0.00000000000E+00  0.16185625890E+04  0.16185625890E+04  0.50400001928E-02 0.  1.
        1   -1    0    0  501    0  0.00000000000E+00  0.00000000000E+00 -0.24266427323E+04  0.24266427323E+04  0.50400001928E-02 0. -1.
    10030    2    1    2    0    0  0.00000000000E+00  0.00000000000E+00 -0.80808014335E+03  0.40452053213E+04  0.39636716027E+04 0.  0.
        1    1    3    3  502    0 -0.46365683954E+03 -0.19189841468E+04 -0.58138253800E+03  0.20580290270E+04  0.50400001928E-02 0. -1.
       -1    1    3    3    0  502  0.46365683954E+03  0.19189841468E+04 -0.22669760535E+03  0.19871762943E+04  0.50400001928E-02 0.  1.
</event>
<event>
 5   0  0.2666978E-07  0.3989138E+04  0.7818609E-02  0.8006741E-01
       -2   -1    0    0    0  501  0.00000000000E+00  0.00000000000E+00  0.23228311175E+04  0.23228311175E+04  0.25500000920E-02 0. -1.
        2   -1    0    0  501    0  0.00000000000E+00  0.00000000000E+00 -0.17126967220E+04  0.17126967220E+04  0.25500000920E-02 0.  1.
    10030    2    1    2    0    0  0.00000000000E+00  0.00000000000E+00  0.61013439551E+03  0.40355278395E+04  0.39891378721E+04 0.  0.
        4    1    3    3  502    0 -0.89399113542E+03 -0.12816672248E+04  0.15590027949E+04  0.22073473567E+04  0.12699999809E+01 0. -1.
       -4    1    3    3    0  502  0.89399113542E+03  0.12816672248E+04 -0.94886839943E+03  0.18281804828E+04  0.12699999809E+01 0.  1.
</event>
<event>
 5   0  0.2666978E-07  0.3073612E+04  0.7818609E-02  0.8223017E-01
       -2   -1    0    0    0  501  0.00000000000E+00  0.00000000000E+00  0.11210091281E+04  0.11210091281E+04  0.25500000920E-02 0. -1.
        2   -1    0    0  501    0  0.00000000000E+00  0.00000000000E+00 -0.21068280206E+04  0.21068280206E+04  0.25500000920E-02 0.  1.
    10030    2    1    2    0    0  0.00000000000E+00  0.00000000000E+00 -0.98581889251E+03  0.32278371487E+04  0.30736124951E+04 0.  0.
        4    1    3    3  502    0  0.18207594133E+03  0.14433018375E+04 -0.10132506762E+04  0.17728368194E+04  0.12699999809E+01 0. -1.
       -4    1    3    3    0  502 -0.18207594133E+03 -0.14433018375E+04  0.27431783725E+02  0.14550003293E+04  0.12699999809E+01 0.  1.
</event>
<event>
 5   0  0.2666978E-07  0.3954969E+04  0.7818609E-02  0.8013693E-01
       -2   -1    0    0    0  501  0.00000000000E+00  0.00000000000E+00  0.22238772674E+04  0.22238772674E+04  0.25500000920E-02 0.  1.
        2   -1    0    0  501    0  0.00000000000E+00  0.00000000000E+00 -0.17583902175E+04  0.17583902175E+04  0.25500000920E-02 0. -1.
    10030    2    1    2    0    0  0.00000000000E+00  0.00000000000E+00  0.46548704998E+03  0.39822674849E+04  0.39549685369E+04 0.  0.
        4    1    3    3  502    0  0.12518246512E+04  0.17501700726E+03  0.17640122481E+04  0.21701236680E+04  0.12699999809E+01 0.  1.
       -4    1    3    3    0  502 -0.12518246512E+04 -0.17501700726E+03 -0.12985251981E+04  0.18121438169E+04  0.12699999809E+01 0. -1.
</event>
<event>
 5   0  0.8528625E-08  0.4000916E+04  0.7818609E-02  0.8004362E-01
        1   -1    0    0  501    0  0.00000000000E+00  0.00000000000E+00  0.20092690432E+04  0.20092690432E+04  0.50400001928E-02 0. -1.
       -1   -1    0    0    0  501  0.00000000000E+00  0.00000000000E+00 -0.19916852682E+04  0.19916852682E+04  0.50400001928E-02 0.  1.
    10030    2    1    2    0    0  0.00000000000E+00  0.00000000000E+00  0.17583774969E+02  0.40009543115E+04  0.40009156719E+04 0.  0.
        3    1    3    3  502    0  0.17094940288E+04 -0.84622371283E+03  0.61159712554E+03  0.20031264216E+04  0.10100000352E+00 0. -1.
       -3    1    3    3    0  502 -0.17094940288E+04  0.84622371283E+03 -0.59401335057E+03  0.19978278899E+04  0.10100000352E+00 0.  1.
</event>
<event>
 5   0  0.2839279E-07  0.3999000E+04  0.7818609E-02  0.8004748E-01
        2   -1    0    0  501    0  0.00000000000E+00  0.00000000000E+00  0.26474307451E+04  0.26474307451E+04  0.25500000920E-02 0.  1.
       -2   -1    0    0    0  501  0.00000000000E+00  0.00000000000E+00 -0.15101430936E+04  0.15101430936E+04  0.25500000920E-02 0. -1.
    10030    2    1    2    0    0  0.00000000000E+00  0.00000000000E+00  0.11372876515E+04  0.41575738386E+04  0.39989995026E+04 0.  0.
        3    1    3    3  502    0 -0.16431740371E+04  0.57409815290E+03  0.15917334687E+04  0.23586489885E+04  0.10100000352E+00 0.  1.
       -3    1    3    3    0  502  0.16431740371E+04 -0.57409815290E+03 -0.45444581718E+03  0.17989248501E+04  0.10100000352E+00 0. -1.
</event>
<event>
 5   0  0.2661693E-07  0.3976648E+04  0.7818609E-02  0.8009274E-01
        2   -1    0    0  501    0  0.00000000000E+00  0.00000000000E+00  0.17754718533E+04  0.17754718533E+04  0.25500000920E-02 0. -1.
       -2   -1    0    0    0  501  0.00000000000E+00  0.00000000000E+00 -0.22266938658E+04  0.22266938658E+04  0.25500000920E-02 0.  1.
    10030    2    1    2    0    0  0.00000000000E+00  0.00000000000E+00 -0.45122201250E+03  0.40021657191E+04  0.39766479777E+04 0.  0.
        1    1    3    3  502    0  0.17181321359E+04  0.10007176959E+04 -0.22992114912E+03  0.20015688043E+04  0.50400001928E-02 0. -1.
       -1    1    3    3    0  502 -0.17181321359E+04 -0.10007176959E+04 -0.22130086337E+03  0.20005969148E+04  0.50400001928E-02 0.  1.
</event>
<event>
 5   0  0.8528625E-08  0.4004224E+04  0.7818609E-02  0.8003695E-01
        1   -1    0    0  501    0  0.00000000000E+00  0.00000000000E+00  0.22295024460E+04  0.22295024460E+04  0.50400001928E-02 0. -1.
       -1   -1    0    0    0  501  0.00000000000E+00  0.00000000000E+00 -0.17979133295E+04  0.17979133295E+04  0.50400001928E-02 0.  1.
    10030    2    1    2    0    0  0.00000000000E+00  0.00000000000E+00  0.43158911648E+03  0.40274157755E+04  0.40042238528E+04 0.  0.
        2    1    3    3  502    0  0.19935717455E+04 -0.17439861532E+03  0.27704872099E+03  0.20202720548E+04  0.25500000920E-02 0.  1.
       -2    1    3    3    0  502 -0.19935717455E+04  0.17439861532E+03  0.15454039549E+03  0.20071437207E+04  0.25500000920E-02 0. -1.
</event>
<event>
 5   0  0.8583262E-08  0.4047260E+04  0.7818609E-02  0.7995080E-01
       -1   -1    0    0    0  501  0.00000000000E+00  0.00000000000E+00  0.17178988617E+04  0.17178988617E+04  0.50400001928E-02 0. -1.
        1   -1    0    0  501    0  0.00000000000E+00  0.00000000000E+00 -0.23837720604E+04  0.23837720604E+04  0.50400001928E-02 0.  1.
    10030    2    1    2    0    0  0.00000000000E+00  0.00000000000E+00 -0.66587319866E+03  0.41016709221E+04  0.40472604607E+04 0.  0.
        1    1    3    3  502    0  0.16399145196E+04 -0.32252848068E+03 -0.14892111316E+04  0.22385473073E+04  0.50400001928E-02 0.  1.
       -1    1    3    3    0  502 -0.16399145196E+04  0.32252848068E+03  0.82333793296E+03  0.18631236148E+04  0.50400001928E-02 0. -1.
</event>
<event>
 5   0  0.8528625E-08  0.3826919E+04  0.7818609E-02  0.8040403E-01
        1   -1    0    0  501    0  0.00000000000E+00  0.00000000000E+00  0.27607737529E+04  0.27607737529E+04  0.50400001928E-02 0.  1.
       -1   -1    0    0    0  501  0.00000000000E+00  0.00000000000E+00 -0.13261959246E+04  0.13261959247E+04  0.50400001928E-02 0. -1.
    10030    2    1    2    0    0  0.00000000000E+00  0.00000000000E+00  0.14345778283E+04  0.40869696776E+04  0.38269188128E+04 0.  0.
        2    1    3    3  502    0  0.52926743484E+03 -0.97992686002E+03  0.23789587594E+04  0.26267518816E+04  0.25500000920E-02 0.  1.
       -2    1    3    3    0  502 -0.52926743484E+03  0.97992686002E+03 -0.94438093113E+03  0.14602177960E+04  0.25500000920E-02 0. -1.
</event>
<event>
 5   0  0.2839279E-07  0.3954654E+04  0.7818609E-02  0.8013757E-01
       -2   -1    0    0    0  501  0.00000000000E+00  0.00000000000E+00  0.20787486216E+04  0.20787486216E+04  0.25500000920E-02 0.  1.
        2   -1    0    0  501    0  0.00000000000E+00  0.00000000000E+00 -0.18808533888E+04  0.18808533888E+04  0.25500000920E-02 0. -1.
    10030    2    1    2    0    0  0.00000000000E+00  0.00000000000E+00  0.19789523280E+03  0.39596020104E+04  0.39546536584E+04 0.  0.
        3    1    3    3  502    0  0.45659457485E+03 -0.17154482587E+04 -0.77310720682E+03  0.19362169551E+04  0.10100000352E+00 0. -1.
       -3    1    3    3    0  502 -0.45659457485E+03  0.17154482587E+04  0.97100243963E+03  0.20233850553E+04  0.10100000352E+00 0.  1.
</event>
<event>
 5   0  0.8528625E-08  0.3960857E+04  0.7818609E-02  0.8012490E-01
       -1   -1    0    0    0  501  0.00000000000E+00  0.00000000000E+00  0.27437343285E+04  0.27437343285E+04  0.50400001928E-02 0. -1.
        1   -1    0    0  501    0  0.00000000000E+00  0.00000000000E+00 -0.14294738189E+04  0.14294738189E+04  0.50400001928E-02 0.  1.
    10030    2    1    2    0    0  0.00000000000E+00  0.00000000000E+00  0.13142605096E+04  0.41732081474E+04  0.39608566693E+04 0.  0.
        2    1    3    3  502    0 -0.13763723107E+04  0.23678338476E+03 -0.82229677480E+03  0.16206909313E+04  0.25500000920E-02 0.  1.
       -2    1    3    3    0  502  0.13763723107E+04 -0.23678338476E+03  0.21365572844E+04  0.25525172161E+04  0.25500000920E-02 0. -1.
</event>
<event>
 5   0  0.2730801E-07  0.4011937E+04  0.7818609E-02  0.8002143E-01
        2   -1    0    0  501    0  0.00000000000E+00  0.00000000000E+00  0.23397800779E+04  0.23397800779E+04  0.25500000920E-02 0.  1.
       -2   -1    0    0    0  501  0.00000000000E+00  0.00000000000E+00 -0.17197811041E+04  0.17197811041E+04  0.25500000920E-02 0. -1.
    10030    2    1    2    0    0  0.00000000000E+00  0.00000000000E+00  0.61999897375E+03  0.40595611820E+04  0.40119369714E+04 0.  0.
        2    1    3    3  502    0 -0.23350771604E+03 -0.15592357805E+04 -0.94495161437E+03  0.18381174136E+04  0.25500000920E-02 0. -1.
       -2    1    3    3    0  502  0.23350771604E+03  0.15592357805E+04  0.15649505881E+04  0.22214437684E+04  0.25500000920E-02 0.  1.
</event>
<event>
 5   0  0.8528625E-08  0.3981651E+04  0.7818609E-02  0.8008258E-01
       -1   -1    0    0    0  501  0.00000000000E+00  0.00000000000E+00  0.18146406202E+04  0.18146406202E+04  0.50400001928E-02 0.  1.
        1   -1    0    0  501    0  0.00000000000E+00  0.00000000000E+00 -0.21841164412E+04  0.21841164413E+04  0.50400001928E-02 0. -1.
    10030    2    1    2    0    0  0.00000000000E+00  0.00000000000E+00 -0.36947582104E+03  0.39987570615E+04  0.39816511216E+04 0.  0.
        3    1    3    3  502    0 -0.37710940635E+03 -0.74063836316E+03 -0.20015510029E+04  0.21672478208E+04  0.10100000352E+00 0. -1.
       -3    1    3    3    0  502  0.37710940635E+03  0.74063836316E+03  0.16320751818E+04  0.18315092407E+04  0.10100000352E+00 0.  1.
</event>
<event>
 5   0  0.8583262E-08  0.3924478E+04  0.7818609E-02  0.8019957E-01
       -1   -1    0    0    0  501  0.00000000000E+00  0.00000000000E+00  0.23117563779E+04  0.23117563779E+04  0.50400001928E-02 0.  1.
        1   -1    0    0  501    0  0.00000000000E+00  0.00000000000E+00 -0.16655656145E+04  0.16655656145E+04  0.50400001928E-02 0. -1.
    10030    2    1    2    0    0  0.00000000000E+00  0.00000000000E+00  0.64619076346E+03  0.39773219924E+04  0.39244780199E+04 0.  0.
        1    1    3    3  502    0 -0.12477853963E+04  0.57459650676E+02  0.18567840357E+04  0.22378375638E+04  0.50400001928E-02 0.  1.
       -1    1    3    3    0  502  0.12477853963E+04 -0.57459650676E+02 -0.12105932722E+04  0.17394844286E+04  0.50400001928E-02 0. -1.
</event>
<event>
 5   0  0.2666978E-07  0.3530137E+04  0.7818609E-02  0.8106685E-01
       -2   -1    0    0    0  501  0.00000000000E+00  0.00000000000E+00  0.13323631791E+04  0.13323631791E+04  0.25500000920E-02 0.  1.
        2   -1    0    0  501    0  0.00000000000E+00  0.00000000000E+00 -0.23383012524E+04  0.23383012524E+04  0.25500000920E-02 0. -1.
    10030    2    1    2    0    0  0.00000000000E+00  0.00000000000E+00 -0.10059380733E+04  0.36706644316E+04  0.35301368192E+04 0.  0.
        4    1    3    3  502    0  0.14458847612E+04 -0.10109494890E+04 -0.44732944101E+03  0.18200842985E+04  0.12699999809E+01 0. -1.
       -4    1    3    3    0  502 -0.14458847612E+04  0.10109494890E+04 -0.55860863228E+03  0.18505801331E+04  0.12699999809E+01 0.  1.
</event>
<event>
 5   0  0.2704088E-07  0.3923043E+04  0.7818609E-02  0.8020254E-01
        2   -1    0    0  501    0  0.00000000000E+00  0.00000000000E+00  0.24184718538E+04  0.24184718539E+04  0.25500000920E-02 0. -1.
       -2   -1    0    0    0  501  0.00000000000E+00  0.00000000000E+00 -0.15909085207E+04  0.15909085207E+04  0.25500000920E-02 0.  1.
    10030    2    1    2    0    0  0.00000000000E+00  0.00000000000E+00  0.82756333313E+03  0.40093803746E+04  0.39230434509E+04 0.  0.
        5    1    3    3  502    0 -0.11020965928E+04  0.21656477239E+02  0.20719743325E+04  0.23469524127E+04  0.46999998093E+01 0.  1.
       -5    1    3    3    0  502  0.11020965928E+04 -0.21656477239E+02 -0.12444109994E+04  0.16624279619E+04  0.46999998093E+01 0. -1.
</event>
<event>
 5   0  0.8528625E-08  0.4079324E+04  0.7818609E-02  0.7988733E-01
       -1   -1    0    0    0  501  0.00000000000E+00  0.00000000000E+00  0.24751734577E+04  0.24751734577E+04  0.50400001928E-02 0. -1.
        1   -1    0    0  501    0  0.00000000000E+00  0.00000000000E+00 -0.16807797141E+04  0.16807797141E+04  0.50400001928E-02 0.  1.
    10030    2    1    2    0    0  0.00000000000E+00  0.00000000000E+00  0.79439374356E+03  0.41559531718E+04  0.40793241286E+04 0.  0.
        2    1    3    3  502    0  0.29920873578E+03  0.20166995944E+04  0.45847840513E+03  0.20896903047E+04  0.25500000920E-02 0. -1.
       -2    1    3    3    0  502 -0.29920873578E+03 -0.20166995944E+04  0.33591533842E+03  0.20662628671E+04  0.25500000920E-02 0.  1.
</event>
<event>
 5   0  0.8528625E-08  0.4017032E+04  0.7818609E-02  0.8001120E-01
       -1   -1    0    0    0  501  0.00000000000E+00  0.00000000000E+00  0.22479827156E+04  0.22479827156E+04  0.50400001928E-02 0. -1.
        1   -1    0    0  501    0  0.00000000000E+00  0.00000000000E+00 -0.17945581001E+04  0.17945581001E+04  0.50400001928E-02 0.  1.
    10030    2    1    2    0    0  0.00000000000E+00  0.00000000000E+00  0.45342461552E+03  0.40425408157E+04  0.40170315365E+04 0.  0.
        4    1    3    3  502    0 -0.13611096180E+04  0.44613120084E+02 -0.12589839366E+04  0.18546298521E+04  0.12699999809E+01 0.  1.
       -4    1    3    3    0  502  0.13611096180E+04 -0.44613120084E+02  0.17124085521E+04  0.21879109637E+04  0.12699999809E+01 0. -1.
</event>
<event>
 5   0  0.8583262E-08  0.3610745E+04  0.7818609E-02  0.8088035E-01
        1   -1    0    0  501    0  0.00000000000E+00  0.00000000000E+00  0.20917715354E+04  0.20917715354E+04  0.50400001928E-02 0.  1.
       -1   -1    0    0    0  501  0.00000000000E+00  0.00000000000E+00 -0.15581866976E+04  0.15581866976E+04  0.50400001928E-02 0. -1.
    10030    2    1    2    0    0  0.00000000000E+00  0.00000000000E+00  0.53358483786E+03  0.36499582330E+04  0.36107453972E+04 0.  0.
        1    1    3    3  502    0  0.57241664051E+03  0.11411746422E+04 -0.10235616927E+04  0.16363431526E+04  0.50400001928E-02 0. -1.
       -1    1    3    3    0  502 -0.57241664051E+03 -0.11411746422E+04  0.15571465305E+04  0.20136150804E+04  0.50400001928E-02 0.  1.
</event>
<event>
 5   0  0.8528625E-08  0.4003344E+04  0.7818609E-02  0.8003872E-01
        1   -1    0    0  501    0  0.00000000000E+00  0.00000000000E+00  0.17396789059E+04  0.17396789059E+04  0.50400001928E-02 0.  1.
       -1   -1    0    0    0  501  0.00000000000E+00  0.00000000000E+00 -0.23031203017E+04  0.23031203017E+04  0.50400001928E-02 0. -1.
    10030    2    1    2    0    0  0.00000000000E+00  0.00000000000E+00 -0.56344139582E+03  0.40427992076E+04  0.40033435059E+04 0.  0.
        5    1    3    3  502    0  0.85847740047E+03  0.11380160423E+04 -0.17007759165E+04  0.22191720906E+04  0.46999998093E+01 0. -1.
       -5    1    3    3    0  502 -0.85847740047E+03 -0.11380160423E+04  0.11373345207E+04  0.18236271169E+04  0.46999998093E+01 0.  1.
</event>
<event>
 5   0  0.8528625E-08  0.3990520E+04  0.7818609E-02  0.8006462E-01
        1   -1    0    0  501    0  0.00000000000E+00  0.00000000000E+00  0.25230503502E+04  0.25230503502E+04  0.50400001928E-02 0. -1.
       -1   -1    0    0    0  501  0.00000000000E+00  0.00000000000E+00 -0.15778766255E+04  0.15778766255E+04  0.50400001928E-02 0.  1.
    10030    2    1    2    0    0  0.00000000000E+00  0.00000000000E+00  0.94517372465E+03  0.41009269757E+04  0.39905198521E+04 0.  0.
        3    1    3    3  502    0  0.49788944233E+03  0.20104700732E+03  0.24474064110E+04  0.25056160813E+04  0.10100000352E+00 0. -1.
       -3    1    3    3    0  502 -0.49788944233E+03 -0.20104700732E+03 -0.15022326863E+04  0.15953108945E+04  0.10100000352E+00 0.  1.
</event>
<event>
 5   0  0.2661693E-07  0.3942087E+04  0.7818609E-02  0.8016332E-01
        2   -1    0    0  501    0  0.00000000000E+00  0.00000000000E+00  0.15379105167E+04  0.15379105167E+04  0.25500000920E-02 0. -1.
       -2   -1    0    0    0  501  0.00000000000E+00  0.00000000000E+00 -0.25261627069E+04  0.25261627069E+04  0.25500000920E-02 0.  1.
    10030    2    1    2    0    0  0.00000000000E+00  0.00000000000E+00 -0.98825219018E+03  0.40640732236E+04  0.39420868553E+04 0.  0.
        1    1    3    3  502    0 -0.54888063209E+03 -0.12964408699E+04 -0.19163003934E+04  0.23778637630E+04  0.50400001928E-02 0.  1.
       -1    1    3    3    0  502  0.54888063209E+03  0.12964408699E+04  0.92804820326E+03  0.16862094606E+04  0.50400001928E-02 0. -1.
</event>
<event>
 5   0  0.8528625E-08  0.4273876E+04  0.7818609E-02  0.7951466E-01
        1   -1    0    0  501    0  0.00000000000E+00  0.00000000000E+00  0.15487986963E+04  0.15487986963E+04  0.50400001928E-02 0.  1.
       -1   -1    0    0    0  501  0.00000000000E+00  0.00000000000E+00 -0.29484174151E+04  0.29484174151E+04  0.50400001928E-02 0. -1.
    10030    2    1    2    0    0  0.00000000000E+00  0.00000000000E+00 -0.13996187188E+04  0.44972161115E+04  0.42738764834E+04 0.  0.
        5    1    3    3  502    0 -0.21180353405E+04 -0.25758173753E+03 -0.82458459838E+03  0.22874404702E+04  0.46999998093E+01 0. -1.
       -5    1    3    3    0  502  0.21180353405E+04  0.25758173753E+03 -0.57503412044E+03  0.22097756412E+04  0.46999998093E+01 0.  1.
</event>
<event>
 5   0  0.8583262E-08  0.3997831E+04  0.7818609E-02  0.8004984E-01
        1   -1    0    0  501    0  0.00000000000E+00  0.00000000000E+00  0.13704742593E+04  0.13704742593E+04  0.50400001928E-02 0.  1.
       -1   -1    0    0    0  501  0.00000000000E+00  0.00000000000E+00 -0.29155335106E+04  0.29155335106E+04  0.50400001928E-02 0. -1.
    10030    2    1    2    0    0  0.00000000000E+00  0.00000000000E+00 -0.15450592513E+04  0.42860077699E+04  0.39978312262E+04 0.  0.
        1    1    3    3  502    0  0.93623414879E+03 -0.44254881984E+03  0.10604755454E+04  0.14822254288E+04  0.50400001928E-02 0.  1.
       -1    1    3    3    0  502 -0.93623414879E+03  0.44254881984E+03 -0.26055347967E+04  0.28037823411E+04  0.50400001928E-02 0. -1.
</event>
<event>
 5   0  0.8528625E-08  0.3769844E+04  0.7818609E-02  0.8052657E-01
        1   -1    0    0  501    0  0.00000000000E+00  0.00000000000E+00  0.19424804924E+04  0.19424804924E+04  0.50400001928E-02 0.  1.
       -1   -1    0    0    0  501  0.00000000000E+00  0.00000000000E+00 -0.18290688502E+04  0.18290688502E+04  0.50400001928E-02 0. -1.
    10030    2    1    2    0    0  0.00000000000E+00  0.00000000000E+00  0.11341164224E+03  0.37715493427E+04  0.37698437956E+04 0.  0.
        3    1    3    3  502    0 -0.13845843613E+03 -0.12701809334E+04  0.14431178272E+04  0.19274645044E+04  0.10100000352E+00 0.  1.
       -3    1    3    3    0  502  0.13845843613E+03  0.12701809334E+04 -0.13297061850E+04  0.18440848383E+04  0.10100000352E+00 0. -1.
</event>
<event>
 5   0  0.8528625E-08  0.4056007E+04  0.7818609E-02  0.7993343E-01
       -1   -1    0    0    0  501  0.00000000000E+00  0.00000000000E+00  0.17198887626E+04  0.17198887626E+04  0.50400001928E-02 0.  1.
        1   -1    0    0  501    0  0.00000000000E+00  0.00000000000E+00 -0.23913159246E+04  0.23913159246E+04  0.50400001928E-02 0. -1.
    10030    2    1    2    0    0  0.00000000000E+00  0.00000000000E+00 -0.67142716203E+03  0.41112046873E+04  0.40560066009E+04 0.  0.
        4    1    3    3  502    0 -0.23870501322E+02  0.54276468420E+03  0.16447529373E+04  0.17321596754E+04  0.12699999809E+01 0.  1.
       -4    1    3    3    0  502  0.23870501322E+02 -0.54276468420E+03 -0.23161800993E+04  0.23790450119E+04  0.12699999809E+01 0. -1.
</event>
<event>
 5   0  0.8528625E-08  0.3934733E+04  0.7818609E-02  0.8017844E-01
       -1   -1    0    0    0  501  0.00000000000E+00  0.00000000000E+00  0.24505174861E+04  0.24505174861E+04  0.50400001928E-02 0. -1.
        1   -1    0    0  501    0  0.00000000000E+00  0.00000000000E+00 -0.15794749226E+04  0.15794749226E+04  0.50400001928E-02 0.  1.
    10030    2    1    2    0    0  0.00000000000E+00  0.00000000000E+00  0.87104256357E+03  0.40299924087E+04  0.39347329854E+04 0.  0.
        3    1    3    3  502    0 -0.68660430974E+03 -0.14672393017E+04 -0.70789071360E+03  0.17678591344E+04  0.10100000352E+00 0.  1.
       -3    1    3    3    0  502  0.68660430974E+03  0.14672393017E+04  0.15789332772E+04  0.22621332743E+04  0.10100000352E+00 0. -1.
</event>
<event>
 5   0  0.2661693E-07  0.4066249E+04  0.7818609E-02  0.7991314E-01
        2   -1    0    0  501    0  0.00000000000E+00  0.00000000000E+00  0.30386546821E+04  0.30386546821E+04  0.25500000920E-02 0. -1.
       -2   -1    0    0    0  501  0.00000000000E+00  0.00000000000E+00 -0.13603369795E+04  0.13603369795E+04  0.25500000920E-02 0.  1.
    10030    2    1    2    0    0  0.00000000000E+00  0.00000000000E+00  0.16783177026E+04  0.43989916615E+04  0.40662485570E+04 0.  0.
        1    1    3    3  502    0 -0.14998100837E+04  0.11384993278E+04  0.16687072352E+04  0.25159878464E+04  0.50400001928E-02 0. -1.
       -1    1    3    3    0  502  0.14998100837E+04 -0.11384993278E+04  0.96104674130E+01  0.18830038151E+04  0.50400001928E-02 0.  1.
</event>
<event>
 5   0  0.2839279E-07  0.4055640E+04  0.7818609E-02  0.7993415E-01
       -2   -1    0    0    0  501  0.00000000000E+00  0.00000000000E+00  0.26013153196E+04  0.26013153196E+04  0.25500000920E-02 0. -1.
        2   -1    0    0  501    0  0.00000000000E+00  0.00000000000E+00 -0.15807595329E+04  0.15807595329E+04  0.25500000920E-02 0.  1.
    10030    2    1    2    0    0  0.00000000000E+00  0.00000000000E+00  0.10205557867E+04  0.41820748525E+04  0.40556400184E+04 0.  0.
        3    1    3    3  502    0  0.14819928483E+04  0.23491692598E+03 -0.89627105573E+03  0.17477959206E+04  0.10100000352E+00 0.  1.
       -3    1    3    3    0  502 -0.14819928483E+04 -0.23491692598E+03  0.19168268424E+04  0.24342789319E+04  0.10100000352E+00 0. -1.
</event>
<event>
 5   0  0.8528625E-08  0.4013937E+04  0.7818609E-02  0.8001741E-01
        1   -1    0    0  501    0  0.00000000000E+00  0.00000000000E+00  0.19538799165E+04  0.19538799165E+04  0.50400001928E-02 0. -1.
       -1   -1    0    0    0  501  0.00000000000E+00  0.00000000000E+00 -0.20614995537E+04  0.20614995537E+04  0.50400001928E-02 0.  1.
    10030    2    1    2    0    0  0.00000000000E+00  0.00000000000E+00 -0.10761963727E+03  0.40153794702E+04  0.40139370079E+04 0.  0.
        3    1    3    3  502    0  0.43697788076E+03  0.10139851648E+04  0.16227420329E+04  0.19627550276E+04  0.10100000352E+00 0. -1.
       -3    1    3    3    0  502 -0.43697788076E+03 -0.10139851648E+04 -0.17303616702E+04  0.20526244426E+04  0.10100000352E+00 0.  1.
</event>
<event>
 5   0  0.8528625E-08  0.3945975E+04  0.7818609E-02  0.8015535E-01
       -4   -1    0    0    0  501  0.00000000000E+00  0.00000000000E+00  0.18741671331E+04  0.18741675634E+04  0.12699999809E+01 0.  1.
        4   -1    0    0  501    0  0.00000000000E+00  0.00000000000E+00 -0.20770176361E+04  0.20770180244E+04  0.12699999809E+01 0. -1.
    10030    2    1    2    0    0  0.00000000000E+00  0.00000000000E+00 -0.20285050294E+03  0.39511855878E+04  0.39459750662E+04 0.  0.
        2    1    3    3  502    0 -0.80583956509E+03 -0.33646426435E+03 -0.18729686511E+04  0.20665423232E+04  0.25500000920E-02 0. -1.
       -2    1    3    3    0  502  0.80583956509E+03  0.33646426435E+03  0.16701181481E+04  0.18846432645E+04  0.25500000920E-02 0.  1.
</event>
<event>
 5   0  0.8528625E-08  0.3970291E+04  0.7818609E-02  0.8010567E-01
       -1   -1    0    0    0  501  0.00000000000E+00  0.00000000000E+00  0.18681355528E+04  0.18681355529E+04  0.50400001928E-02 0.  1.
        1   -1    0    0  501    0  0.00000000000E+00  0.00000000000E+00 -0.21094841342E+04  0.21094841342E+04  0.50400001928E-02 0. -1.
    10030    2    1    2    0    0  0.00000000000E+00  0.00000000000E+00 -0.24134858134E+03  0.39776196870E+04  0.39702908253E+04 0.  0.
        4    1    3    3  502    0 -0.10517106265E+04 -0.11986621106E+03  0.15618117934E+04  0.18867222481E+04  0.12699999809E+01 0.  1.
       -4    1    3    3    0  502  0.10517106265E+04  0.11986621106E+03 -0.18031603748E+04  0.20908974390E+04  0.12699999809E+01 0. -1.
</event>
<event>
 5   0  0.8528625E-08  0.4035468E+04  0.7818609E-02  0.7997429E-01
       -1   -1    0    0    0  501  0.00000000000E+00  0.00000000000E+00  0.24738675462E+04  0.24738675462E+04  0.50400001928E-02 0. -1.
        1   -1    0    0  501    0  0.00000000000E+00  0.00000000000E+00 -0.16457029887E+04  0.16457029887E+04  0.50400001928E-02 0.  1.
    10030    2    1    2    0    0  0.00000000000E+00  0.00000000000E+00  0.82816455748E+03  0.41195705349E+04  0.40354683566E+04 0.  0.
        2    1    3    3  502    0  0.19133138642E+04  0.40554090166E+03  0.92042119204E+03  0.21615754755E+04  0.25500000920E-02 0.  1.
       -2    1    3    3    0  502 -0.19133138642E+04 -0.40554090166E+03 -0.92256634558E+02  0.19579950593E+04  0.25500000920E-02 0. -1.
</event>
<event>
 5   0  0.8583262E-08  0.2954851E+04  0.7818609E-02  0.8256742E-01
       -1   -1    0    0    0  501  0.00000000000E+00  0.00000000000E+00  0.11317434290E+04  0.11317434291E+04  0.50400001928E-02 0.  1.
        1   -1    0    0  501    0  0.00000000000E+00  0.00000000000E+00 -0.19286932282E+04  0.19286932282E+04  0.50400001928E-02 0. -1.
    10030    2    1    2    0    0  0.00000000000E+00  0.00000000000E+00 -0.79694979914E+03  0.30604366573E+04  0.29548508508E+04 0.  0.
        1    1    3    3  502    0  0.40486209180E+03 -0.12191750213E+04 -0.11542654463E+04  0.17270291736E+04  0.50400001928E-02 0. -1.
       -1    1    3    3    0  502 -0.40486209180E+03  0.12191750213E+04  0.35731564714E+03  0.13334074837E+04  0.50400001928E-02 0.  1.
</event>
<event>
 5   0  0.8528625E-08  0.3966234E+04  0.7818609E-02  0.8011393E-01
       -1   -1    0    0    0  501  0.00000000000E+00  0.00000000000E+00  0.22580248974E+04  0.22580248974E+04  0.50400001928E-02 0.  1.
        1   -1    0    0  501    0  0.00000000000E+00  0.00000000000E+00 -0.17416786240E+04  0.17416786240E+04  0.50400001928E-02 0. -1.
    10030    2    1    2    0    0  0.00000000000E+00  0.00000000000E+00  0.51634627335E+03  0.39997035214E+04  0.39662343331E+04 0.  0.
        5    1    3    3  502    0 -0.14338305841E+04  0.92415281683E+03 -0.76169831347E+03  0.18681902964E+04  0.46999998093E+01 0. -1.
       -5    1    3    3    0  502  0.14338305841E+04 -0.92415281683E+03  0.12780445868E+04  0.21315132251E+04  0.46999998093E+01 0.  1.
</event>
<event>
 5   0  0.2704088E-07  0.3251208E+04  0.7818609E-02  0.8175423E-01
        2   -1    0    0  501    0  0.00000000000E+00  0.00000000000E+00  0.18638408393E+04  0.18638408393E+04  0.25500000920E-02 0. -1.
       -2   -1    0    0    0  501  0.00000000000E+00  0.00000000000E+00 -0.14178182821E+04  0.14178182822E+04  0.25500000920E-02 0.  1.
    10030    2    1    2    0    0  0.00000000000E+00  0.00000000000E+00  0.44602255716E+03  0.32816591215E+04  0.32512075400E+04 0.  0.
        5    1    3    3  502    0 -0.12546914836E+04 -0.83280258398E+03 -0.39489455753E+03  0.15568476690E+04  0.46999998093E+01 0.  1.
       -5    1    3    3    0  502  0.12546914836E+04  0.83280258398E+03  0.84091711470E+03  0.17248114525E+04  0.46999998093E+01 0. -1.
</event>
<event>
 5   0  0.2666978E-07  0.3758541E+04  0.7818609E-02  0.8055111E-01
       -2   -1    0    0    0  501  0.00000000000E+00  0.00000000000E+00  0.19422864924E+04  0.19422864924E+04  0.25500000920E-02 0.  1.
        2   -1    0    0  501    0  0.00000000000E+00  0.00000000000E+00 -0.18182988220E+04  0.18182988220E+04  0.25500000920E-02 0. -1.
    10030    2    1    2    0    0  0.00000000000E+00  0.00000000000E+00  0.12398767045E+03  0.37605853144E+04  0.37585408026E+04 0.  0.
        4    1    3    3  502    0 -0.16573823604E+03 -0.17727636588E+04  0.66356582877E+03  0.19001266734E+04  0.12699999809E+01 0. -1.
       -4    1    3    3    0  502  0.16573823604E+03  0.17727636588E+04 -0.53957815832E+03  0.18604586410E+04  0.12699999809E+01 0.  1.
</event>
<event>
 5   0  0.8528625E-08  0.4248078E+04  0.7818609E-02  0.7956289E-01
       -1   -1    0    0    0  501  0.00000000000E+00  0.00000000000E+00  0.30276936321E+04  0.30276936321E+04  0.50400001928E-02 0. -1.
        1   -1    0    0  501    0  0.00000000000E+00  0.00000000000E+00 -0.14900917276E+04  0.14900917276E+04  0.50400001928E-02 0.  1.
    10030    2    1    2    0    0  0.00000000000E+00  0.00000000000E+00  0.15376019046E+04  0.45177853597E+04  0.42480777935E+04 0.  0.
        5    1    3    3  502    0  0.66975682442E+03  0.11649628547E+04  0.25181702469E+04  0.28542803189E+04  0.46999998093E+01 0. -1.
       -5    1    3    3    0  502 -0.66975682442E+03 -0.11649628547E+04 -0.98056834231E+03  0.16635050408E+04  0.46999998093E+01 0.  1.
</event>
<event>
 5   0  0.2661693E-07  0.3989768E+04  0.7818609E-02  0.8006614E-01
        2   -1    0    0  501    0  0.00000000000E+00  0.00000000000E+00  0.15870493514E+04  0.15870493514E+04  0.25500000920E-02 0. -1.
       -2   -1    0    0    0  501  0.00000000000E+00  0.00000000000E+00 -0.25075229321E+04  0.25075229321E+04  0.25500000920E-02 0.  1.
    10030    2    1    2    0    0  0.00000000000E+00  0.00000000000E+00 -0.92047358078E+03  0.40945722835E+04  0.39897682354E+04 0.  0.
        1    1    3    3  502    0 -0.12910974490E+04 -0.12690312074E+04  0.39974278495E+03  0.18539598492E+04  0.50400001928E-02 0. -1.
       -1    1    3    3    0  502  0.12910974490E+04  0.12690312074E+04 -0.13202163657E+04  0.22406124343E+04  0.50400001928E-02 0.  1.
</event>
<event>
 5   0  0.2666978E-07  0.4072140E+04  0.7818609E-02  0.7990150E-01
        2   -1    0    0  501    0  0.00000000000E+00  0.00000000000E+00  0.21518651861E+04  0.21518651861E+04  0.25500000920E-02 0.  1.
       -2   -1    0    0    0  501  0.00000000000E+00  0.00000000000E+00 -0.19265060115E+04  0.19265060115E+04  0.25500000920E-02 0. -1.
    10030    2    1    2    0    0  0.00000000000E+00  0.00000000000E+00  0.22535917460E+03  0.40783711977E+04  0.40721400846E+04 0.  0.
        4    1    3    3  502    0  0.59090183475E+03 -0.29604523256E+03  0.20414436262E+04  0.21457636053E+04  0.12699999809E+01 0.  1.
       -4    1    3    3    0  502 -0.59090183475E+03  0.29604523256E+03 -0.18160844516E+04  0.19326075924E+04  0.12699999809E+01 0. -1.
</event>
<event>
 5   0  0.2666978E-07  0.3784647E+04  0.7818609E-02  0.8049458E-01
        2   -1    0    0  501    0  0.00000000000E+00  0.00000000000E+00  0.21335420648E+04  0.21335420648E+04  0.25500000920E-02 0.  1.
       -2   -1    0    0    0  501  0.00000000000E+00  0.00000000000E+00 -0.16783772843E+04  0.16783772843E+04  0.25500000920E-02 0. -1.
    10030    2    1    2    0    0  0.00000000000E+00  0.00000000000E+00  0.45516478047E+03  0.38119193492E+04  0.37846471628E+04 0.  0.
        4    1    3    3  502    0 -0.10257772748E+04  0.22639418664E+03 -0.13577398897E+04  0.17166632070E+04  0.12699999809E+01 0. -1.
       -4    1    3    3    0  502  0.10257772748E+04 -0.22639418664E+03  0.18129046702E+04  0.20952561422E+04  0.12699999809E+01 0.  1.
</event>
<event>
 5   0  0.8583262E-08  0.3989978E+04  0.7818609E-02  0.8006571E-01
        1   -1    0    0  501    0  0.00000000000E+00  0.00000000000E+00  0.26270250253E+04  0.26270250253E+04  0.50400001928E-02 0. -1.
       -1   -1    0    0    0  501  0.00000000000E+00  0.00000000000E+00 -0.15150146566E+04  0.15150146566E+04  0.50400001928E-02 0.  1.
    10030    2    1    2    0    0  0.00000000000E+00  0.00000000000E+00  0.11120103687E+04  0.41420396819E+04  0.39899781536E+04 0.  0.
        1    1    3    3  502    0  0.36371244855E+02  0.95986083191E+03  0.23711638497E+04  0.25583341623E+04  0.50400001928E-02 0. -1.
       -1    1    3    3    0  502 -0.36371244855E+02 -0.95986083191E+03 -0.12591534809E+04  0.15837055195E+04  0.50400001928E-02 0.  1.
</event>
<event>
 5   0  0.8528625E-08  0.4012038E+04  0.7818609E-02  0.8002122E-01
       -1   -1    0    0    0  501  0.00000000000E+00  0.00000000000E+00  0.15448557047E+04  0.15448557047E+04  0.50400001928E-02 0.  1.
        1   -1    0    0  501    0  0.00000000000E+00  0.00000000000E+00 -0.26048468845E+04  0.26048468845E+04  0.50400001928E-02 0. -1.
    10030    2    1    2    0    0  0.00000000000E+00  0.00000000000E+00 -0.10599911798E+04  0.41497025891E+04  0.40120381699E+04 0.  0.
        5    1    3    3  502    0  0.19629678537E+04 -0.34687750796E+03 -0.76248297836E+03  0.21342373773E+04  0.46999998093E+01 0.  1.
       -5    1    3    3    0  502 -0.19629678537E+04  0.34687750796E+03 -0.29750820147E+03  0.20154652119E+04  0.46999998093E+01 0. -1.
</event>
<event>
 5   0  0.8528625E-08  0.4021501E+04  0.7818609E-02  0.8000223E-01
       -1   -1    0    0    0  501  0.00000000000E+00  0.00000000000E+00  0.16694165491E+04  0.16694165491E+04  0.50400001928E-02 0. -1.
        1   -1    0    0  501    0  0.00000000000E+00  0.00000000000E+00 -0.24218747219E+04  0.24218747219E+04  0.50400001928E-02 0.  1.
    10030    2    1    2    0    0  0.00000000000E+00  0.00000000000E+00 -0.75245817279E+03  0.40912912710E+04  0.40215010832E+04 0.  0.
        3    1    3    3  502    0  0.17861678335E+04 -0.78422164935E+03  0.11979617689E+03  0.19544181382E+04  0.10100000352E+00 0. -1.
       -3    1    3    3    0  502 -0.17861678335E+04  0.78422164935E+03 -0.87225434969E+03  0.21368731328E+04  0.10100000352E+00 0.  1.
</event>
<event>
 5   0  0.2666978E-07  0.3988997E+04  0.7818609E-02  0.8006770E-01
        2   -1    0    0  501    0  0.00000000000E+00  0.00000000000E+00  0.22330540529E+04  0.22330540529E+04  0.25500000920E-02 0.  1.
       -2   -1    0    0    0  501  0.00000000000E+00  0.00000000000E+00 -0.17814279863E+04  0.17814279863E+04  0.25500000920E-02 0. -1.
    10030    2    1    2    0    0  0.00000000000E+00  0.00000000000E+00  0.45162606663E+03  0.40144820392E+04  0.39889973601E+04 0.  0.
        4    1    3    3  502    0  0.73885187137E+03 -0.42281607918E+03 -0.15894142920E+04  0.18030293756E+04  0.12699999809E+01 0. -1.
       -4    1    3    3    0  502 -0.73885187137E+03  0.42281607918E+03  0.20410403587E+04  0.22114526636E+04  0.12699999809E+01 0.  1.
</event>
<event>
 5   0  0.8528625E-08  0.4006067E+04  0.7818609E-02  0.8003324E-01
        1   -1    0    0  501    0  0.00000000000E+00  0.00000000000E+00  0.21291426154E+04  0.21291426154E+04  0.50400001928E-02 0. -1.
       -1   -1    0    0    0  501  0.00000000000E+00  0.00000000000E+00 -0.18843935762E+04  0.18843935762E+04  0.50400001928E-02 0.  1.
    10030    2    1    2    0    0  0.00000000000E+00  0.00000000000E+00  0.24474903914E+03  0.40135361916E+04  0.40060667330E+04 0.  0.
        4    1    3    3  502    0  0.99540881376E+03 -0.15039372794E+04 -0.75072901731E+03  0.19535254585E+04  0.12699999809E+01 0.  1.
       -4    1    3    3    0  502 -0.99540881376E+03  0.15039372794E+04  0.99547805645E+03  0.20600107331E+04  0.12699999809E+01 0. -1.
</event>
<event>
 5   0  0.2661693E-07  0.4005739E+04  0.7818609E-02  0.8003390E-01
       -2   -1    0    0    0  501  0.00000000000E+00  0.00000000000E+00  0.16227263845E+04  0.16227263845E+04  0.25500000920E-02 0. -1.
        2   -1    0    0  501    0  0.00000000000E+00  0.00000000000E+00 -0.24720658820E+04  0.24720658820E+04  0.25500000920E-02 0.  1.
    10030    2    1    2    0    0  0.00000000000E+00  0.00000000000E+00 -0.84933949751E+03  0.40947922665E+04  0.40057391482E+04 0.  0.
        1    1    3    3  502    0  0.11569156595E+04  0.57109845450E+03 -0.19906799309E+04  0.23722170801E+04  0.50400001928E-02 0.  1.
       -1    1    3    3    0  502 -0.11569156595E+04 -0.57109845450E+03  0.11413404333E+04  0.17225751864E+04  0.50400001928E-02 0. -1.
</event>
<event>
 5   0  0.8528625E-08  0.4044131E+04  0.7818609E-02  0.7995703E-01
       -1   -1    0    0    0  501  0.00000000000E+00  0.00000000000E+00  0.21490784771E+04  0.21490784772E+04  0.50400001928E-02 0.  1.
        1   -1    0    0  501    0  0.00000000000E+00  0.00000000000E+00 -0.19025595410E+04  0.19025595410E+04  0.50400001928E-02 0. -1.
    10030    2    1    2    0    0  0.00000000000E+00  0.00000000000E+00  0.24651893619E+03  0.40516380181E+04  0.40441314326E+04 0.  0.
        5    1    3    3  502    0 -0.34413989169E+03  0.16867747804E+04  0.11859291343E+04  0.20904763636E+04  0.46999998093E+01 0.  1.
       -5    1    3    3    0  502  0.34413989169E+03 -0.16867747804E+04 -0.93941019815E+03  0.19611616546E+04  0.46999998093E+01 0. -1.
</event>
<event>
 5   0  0.2839279E-07  0.4020818E+04  0.7818609E-02  0.8000360E-01
        2   -1    0    0  501    0  0.00000000000E+00  0.00000000000E+00  0.19369270386E+04  0.19369270386E+04  0.25500000920E-02 0.  1.
       -2   -1    0    0    0  501  0.00000000000E+00  0.00000000000E+00 -0.20866788777E+04  0.20866788777E+04  0.25500000920E-02 0. -1.
    10030    2    1    2    0    0  0.00000000000E+00  0.00000000000E+00 -0.14975183901E+03  0.40236059163E+04  0.40208181949E+04 0.  0.
        3    1    3    3  502    0 -0.62370981146E+03 -0.12477705420E+03  0.18335807037E+04  0.19407734153E+04  0.10100000352E+00 0.  1.
       -3    1    3    3    0  502  0.62370981146E+03  0.12477705420E+03 -0.19833325427E+04  0.20828325010E+04  0.10100000352E+00 0. -1.
</event>
<event>
 5   0  0.2661693E-07  0.4106141E+04  0.7818609E-02  0.7983470E-01
        2   -1    0    0  501    0  0.00000000000E+00  0.00000000000E+00  0.13601438710E+04  0.13601438710E+04  0.25500000920E-02 0.  1.
       -2   -1    0    0    0  501  0.00000000000E+00  0.00000000000E+00 -0.30990089662E+04  0.30990089662E+04  0.25500000920E-02 0. -1.
    10030    2    1    2    0    0  0.00000000000E+00  0.00000000000E+00 -0.17388650952E+04  0.44591528372E+04  0.41061407923E+04 0.  0.
        1    1    3    3  502    0 -0.11610471830E+04 -0.11440154631E+04  0.48620476824E+03  0.17009400394E+04  0.50400001928E-02 0. -1.
       -1    1    3    3    0  502  0.11610471830E+04  0.11440154631E+04 -0.22250698634E+04  0.27582127978E+04  0.50400001928E-02 0.  1.
</event>
<event>
 5   0  0.8528625E-08  0.4017053E+04  0.7818609E-02  0.8001115E-01
       -1   -1    0    0    0  501  0.00000000000E+00  0.00000000000E+00  0.13999553394E+04  0.13999553394E+04  0.50400001928E-02 0.  1.
        1   -1    0    0  501    0  0.00000000000E+00  0.00000000000E+00 -0.28816476584E+04  0.28816476584E+04  0.50400001928E-02 0. -1.
    10030    2    1    2    0    0  0.00000000000E+00  0.00000000000E+00 -0.14816923190E+04  0.42816029979E+04  0.40170526637E+04 0.  0.
        5    1    3    3  502    0  0.15674094634E+03  0.95721133039E+03 -0.26154621868E+04  0.27895314653E+04  0.46999998093E+01 0. -1.
       -5    1    3    3    0  502 -0.15674094634E+03 -0.95721133039E+03  0.11337698678E+04  0.14920715326E+04  0.46999998093E+01 0.  1.
</event>
<event>
 5   0  0.8528625E-08  0.3957658E+04  0.7818609E-02  0.8013143E-01
        1   -1    0    0  501    0  0.00000000000E+00  0.00000000000E+00  0.28654381557E+04  0.28654381557E+04  0.50400001928E-02 0. -1.
       -1   -1    0    0    0  501  0.00000000000E+00  0.00000000000E+00 -0.13665499963E+04  0.13665499963E+04  0.50400001928E-02 0.  1.
    10030    2    1    2    0    0  0.00000000000E+00  0.00000000000E+00  0.14988881594E+04  0.42319881520E+04  0.39576581465E+04 0.  0.
        2    1    3    3  502    0  0.13874284159E+04  0.33418085961E+03  0.22152773788E+04  0.26351638130E+04  0.25500000920E-02 0. -1.
       -2    1    3    3    0  502 -0.13874284159E+04 -0.33418085961E+03 -0.71638921946E+03  0.15968243391E+04  0.25500000920E-02 0.  1.
</event>
<event>
 5   0  0.2730801E-07  0.3524897E+04  0.7818609E-02  0.8107915E-01
       -2   -1    0    0    0  501  0.00000000000E+00  0.00000000000E+00  0.11087673229E+04  0.11087673229E+04  0.25500000920E-02 0. -1.
        2   -1    0    0  501    0  0.00000000000E+00  0.00000000000E+00 -0.28015110538E+04  0.28015110538E+04  0.25500000920E-02 0.  1.
    10030    2    1    2    0    0  0.00000000000E+00  0.00000000000E+00 -0.16927437309E+04  0.39102783767E+04  0.35248965439E+04 0.  0.
        2    1    3    3  502    0 -0.11823308342E+04  0.81141114823E+03  0.29031647004E+03  0.14630713946E+04  0.25500000920E-02 0. -1.
       -2    1    3    3    0  502  0.11823308342E+04 -0.81141114823E+03 -0.19830602009E+04  0.24472069821E+04  0.25500000920E-02 0.  1.
</event>
<event>
 5   0  0.2730801E-07  0.4017874E+04  0.7818609E-02  0.8000950E-01
       -2   -1    0    0    0  501  0.00000000000E+00  0.00000000000E+00  0.19867832019E+04  0.19867832019E+04  0.25500000920E-02 0. -1.
        2   -1    0    0  501    0  0.00000000000E+00  0.00000000000E+00 -0.20313379749E+04  0.20313379749E+04  0.25500000920E-02 0.  1.
    10030    2    1    2    0    0  0.00000000000E+00  0.00000000000E+00 -0.44554772936E+02  0.40181211768E+04  0.40178741473E+04 0.  0.
        2    1    3    3  502    0 -0.38265162573E+03  0.18506866330E+03 -0.19858530927E+04  0.20308336176E+04  0.25500000920E-02 0.  1.
       -2    1    3    3    0  502  0.38265162573E+03 -0.18506866330E+03  0.19412983197E+04  0.19872875592E+04  0.25500000920E-02 0. -1.
</event>
<event>
 5   0  0.8528625E-08  0.3997460E+04  0.7818609E-02  0.8005059E-01
       -1   -1    0    0    0  501  0.00000000000E+00  0.00000000000E+00  0.20391551251E+04  0.20391551251E+04  0.50400001928E-02 0.  1.
        1   -1    0    0  501    0  0.00000000000E+00  0.00000000000E+00 -0.19591065039E+04  0.19591065039E+04  0.50400001928E-02 0. -1.
    10030    2    1    2    0    0  0.00000000000E+00  0.00000000000E+00  0.80048621195E+02  0.39982616290E+04  0.39974602277E+04 0.  0.
        3    1    3    3  502    0  0.86155535170E+03 -0.15725612348E+04  0.92320506835E+03  0.20168128495E+04  0.10100000352E+00 0.  1.
       -3    1    3    3    0  502 -0.86155535170E+03  0.15725612348E+04 -0.84315644715E+03  0.19814487795E+04  0.10100000352E+00 0. -1.
</event>
<event>
 5   0  0.8528625E-08  0.3319329E+04  0.7818609E-02  0.8157994E-01
       -1   -1    0    0    0  501  0.00000000000E+00  0.00000000000E+00  0.18335908063E+04  0.18335908063E+04  0.50400001928E-02 0. -1.
        1   -1    0    0  501    0  0.00000000000E+00  0.00000000000E+00 -0.15022363693E+04  0.15022363693E+04  0.50400001928E-02 0.  1.
    10030    2    1    2    0    0  0.00000000000E+00  0.00000000000E+00  0.33135443707E+03  0.33358271756E+04  0.33193293272E+04 0.  0.
        2    1    3    3  502    0 -0.93073526376E+03  0.52169025806E+03  0.14432382691E+04  0.17948163020E+04  0.25500000920E-02 0. -1.
       -2    1    3    3    0  502  0.93073526376E+03 -0.52169025806E+03 -0.11118838321E+04  0.15410108736E+04  0.25500000920E-02 0.  1.
</event>
<event>
 5   0  0.2661693E-07  0.3998440E+04  0.7818609E-02  0.8004861E-01
       -2   -1    0    0    0  501  0.00000000000E+00  0.00000000000E+00  0.20152005136E+04  0.20152005136E+04  0.25500000920E-02 0.  1.
        2   -1    0    0  501    0  0.00000000000E+00  0.00000000000E+00 -0.19833660205E+04  0.19833660205E+04  0.25500000920E-02 0. -1.
    10030    2    1    2    0    0  0.00000000000E+00  0.00000000000E+00  0.31834493111E+02  0.39985665341E+04  0.39984398073E+04 0.  0.
        1    1    3    3  502    0  0.13303607322E+04  0.14587693807E+04  0.33058964047E+03  0.20017885239E+04  0.50400001928E-02 0.  1.
       -1    1    3    3    0  502 -0.13303607322E+04 -0.14587693807E+04 -0.29875514736E+03  0.19967780102E+04  0.50400001928E-02 0. -1.
</event>
<event>
 5   0  0.8528625E-08  0.3839816E+04  0.7818609E-02  0.8037664E-01
        1   -1    0    0  501    0  0.00000000000E+00  0.00000000000E+00  0.28266732180E+04  0.28266732181E+04  0.50400001928E-02 0. -1.
       -1   -1    0    0    0  501  0.00000000000E+00  0.00000000000E+00 -0.13040226392E+04  0.13040226392E+04  0.50400001928E-02 0.  1.
    10030    2    1    2    0    0  0.00000000000E+00  0.00000000000E+00  0.15226505789E+04  0.41306958572E+04  0.38398155528E+04 0.  0.
        4    1    3    3  502    0  0.16718655532E+04  0.93543478150E+03  0.89685146753E+03  0.21153053742E+04  0.12699999809E+01 0. -1.
       -4    1    3    3    0  502 -0.16718655532E+04 -0.93543478150E+03  0.62579911134E+03  0.20153904830E+04  0.12699999809E+01 0.  1.
</event>
<event>
 5   0  0.2661693E-07  0.3996354E+04  0.7818609E-02  0.8005282E-01
       -2   -1    0    0    0  501  0.00000000000E+00  0.00000000000E+00  0.23579115139E+04  0.23579115139E+04  0.25500000920E-02 0. -1.
        2   -1    0    0  501    0  0.00000000000E+00  0.00000000000E+00 -0.16933257032E+04  0.16933257032E+04  0.25500000920E-02 0.  1.
    10030    2    1    2    0    0  0.00000000000E+00  0.00000000000E+00  0.66458581072E+03  0.40512372171E+04  0.39963544249E+04 0.  0.
        1    1    3    3  502    0  0.14694848736E+04  0.80350625310E+03  0.14370779848E+04  0.22068532409E+04  0.50400001928E-02 0. -1.
       -1    1    3    3    0  502 -0.14694848736E+04 -0.80350625310E+03 -0.77249217403E+03  0.18443839762E+04  0.50400001928E-02 0.  1.
</event>
<event>
 5   0  0.8583262E-08  0.3993185E+04  0.7818609E-02  0.8005923E-01
        1   -1    0    0  501    0  0.00000000000E+00  0.00000000000E+00  0.12925960312E+04  0.12925960312E+04  0.50400001928E-02 0. -1.
       -1   -1    0    0    0  501  0.00000000000E+00  0.00000000000E+00 -0.30840126310E+04  0.30840126310E+04  0.50400001928E-02 0.  1.
    10030    2    1    2    0    0  0.00000000000E+00  0.00000000000E+00 -0.17914165998E+04  0.43766086622E+04  0.39931854388E+04 0.  0.
        1    1    3    3  502    0  0.22237978235E+03  0.19274726378E+04 -0.14118612314E+04  0.23995740609E+04  0.50400001928E-02 0.  1.
       -1    1    3    3    0  502 -0.22237978235E+03 -0.19274726378E+04 -0.37955536842E+03  0.19770346013E+04  0.50400001928E-02 0. -1.
</event>
<event>
 5   0  0.2666978E-07  0.3964700E+04  0.7818609E-02  0.8011706E-01
       -2   -1    0    0    0  501  0.00000000000E+00  0.00000000000E+00  0.22504609318E+04  0.22504609318E+04  0.25500000920E-02 0.  1.
        2   -1    0    0  501    0  0.00000000000E+00  0.00000000000E+00 -0.17461804522E+04  0.17461804522E+04  0.25500000920E-02 0. -1.
    10030    2    1    2    0    0  0.00000000000E+00  0.00000000000E+00  0.50428047954E+03  0.39966413840E+04  0.39646996797E+04 0.  0.
        4    1    3    3  502    0 -0.17620600762E+04 -0.50129193930E+03  0.10155791589E+04  0.20946484100E+04  0.12699999809E+01 0.  1.
       -4    1    3    3    0  502  0.17620600762E+04  0.50129193930E+03 -0.51129867935E+03  0.19019929740E+04  0.12699999809E+01 0. -1.
</event>
<event>
 5   0  0.2839279E-07  0.4029453E+04  0.7818609E-02  0.7998631E-01
       -2   -1    0    0    0  501  0.00000000000E+00  0.00000000000E+00  0.19692476655E+04  0.19692476655E+04  0.25500000920E-02 0. -1.
        2   -1    0    0  501    0  0.00000000000E+00  0.00000000000E+00 -0.20612554085E+04  0.20612554085E+04  0.25500000920E-02 0.  1.
    10030    2    1    2    0    0  0.00000000000E+00  0.00000000000E+00 -0.92007742997E+02  0.40305030740E+04  0.40294527674E+04 0.  0.
        3    1    3    3  502    0 -0.60257246477E+03 -0.13746242285E+04 -0.13903917959E+04  0.20459410307E+04  0.10100000352E+00 0. -1.
       -3    1    3    3    0  502  0.60257246477E+03  0.13746242285E+04  0.12983840529E+04  0.19845620433E+04  0.10100000352E+00 0.  1.
</event>
<event>
 5   0  0.2730801E-07  0.4017338E+04  0.7818609E-02  0.8001058E-01
        2   -1    0    0  501    0  0.00000000000E+00  0.00000000000E+00  0.18723375017E+04  0.18723375017E+04  0.25500000920E-02 0. -1.
       -2   -1    0    0    0  501  0.00000000000E+00  0.00000000000E+00 -0.21549276210E+04  0.21549276210E+04  0.25500000920E-02 0.  1.
    10030    2    1    2    0    0  0.00000000000E+00  0.00000000000E+00 -0.28259011929E+03  0.40272651227E+04  0.40173383220E+04 0.  0.
        2    1    3    3  502    0 -0.12613309388E+04 -0.14574798823E+04 -0.70797804552E+03  0.20533962739E+04  0.25500000920E-02 0.  1.
       -2    1    3    3    0  502  0.12613309388E+04  0.14574798823E+04  0.42538792623E+03  0.19738688489E+04  0.25500000920E-02 0. -1.
</event>
<event>
 5   0  0.2661693E-07  0.3982868E+04  0.7818609E-02  0.8008011E-01
        2   -1    0    0  501    0  0.00000000000E+00  0.00000000000E+00  0.20950910221E+04  0.20950910221E+04  0.25500000920E-02 0.  1.
       -2   -1    0    0    0  501  0.00000000000E+00  0.00000000000E+00 -0.18929059185E+04  0.18929059185E+04  0.25500000920E-02 0. -1.
    10030    2    1    2    0    0  0.00000000000E+00  0.00000000000E+00  0.20218510358E+03  0.39879969406E+04  0.39828684114E+04 0.  0.
        1    1    3    3  502    0  0.17969311842E+02  0.18456429767E+04  0.84977809903E+03  0.20319556371E+04  0.50400001928E-02 0.  1.
       -1    1    3    3    0  502 -0.17969311842E+02 -0.18456429767E+04 -0.64759299545E+03  0.19560413036E+04  0.50400001928E-02 0. -1.
</event>
<event>
 5   0  0.8528625E-08  0.3958759E+04  0.7818609E-02  0.8012918E-01
        1   -1    0    0  501    0  0.00000000000E+00  0.00000000000E+00  0.13158624461E+04  0.13158624461E+04  0.50400001928E-02 0. -1.
       -1   -1    0    0    0  501  0.00000000000E+00  0.00000000000E+00 -0.29774724593E+04  0.29774724593E+04  0.50400001928E-02 0.  1.
    10030    2    1    2    0    0  0.00000000000E+00  0.00000000000E+00 -0.16616100132E+04  0.42933349053E+04  0.39587594993E+04 0.  0.
        4    1    3    3  502    0  0.15809474620E+04  0.32652583869E+03  0.41139276353E+03  0.16659110480E+04  0.12699999809E+01 0. -1.
       -4    1    3    3    0  502 -0.15809474620E+04 -0.32652583869E+03 -0.20730027767E+04  0.26274238574E+04  0.12699999809E+01 0.  1.
</event>
<event>
 5   0  0.2730801E-07  0.2973216E+04  0.7818609E-02  0.8251421E-01
       -2   -1    0    0    0  501  0.00000000000E+00  0.00000000000E+00  0.93414921177E+03  0.93414921178E+03  0.25500000920E-02 0.  1.
        2   -1    0    0  501    0  0.00000000000E+00  0.00000000000E+00 -0.23657919329E+04  0.23657919329E+04  0.25500000920E-02 0. -1.
    10030    2    1    2    0    0  0.00000000000E+00  0.00000000000E+00 -0.14316427211E+04  0.32999411447E+04  0.29732155451E+04 0.  0.
        2    1    3    3  502    0 -0.39501810333E+02 -0.12695911795E+04 -0.15730848568E+04  0.20218847946E+04  0.25500000920E-02 0. -1.
       -2    1    3    3    0  502  0.39501810333E+02  0.12695911795E+04  0.14144213565E+03  0.12780563500E+04  0.25500000920E-02 0.  1.
</event>
<event>
 5   0  0.8528625E-08  0.4018679E+04  0.7818609E-02  0.8000789E-01
        1   -1    0    0  501    0  0.00000000000E+00  0.00000000000E+00  0.32814202498E+04  0.32814202498E+04  0.50400001928E-02 0. -1.
       -1   -1    0    0    0  501  0.00000000000E+00  0.00000000000E+00 -0.12303958635E+04  0.12303958635E+04  0.50400001928E-02 0.  1.
    10030    2    1    2    0    0  0.00000000000E+00  0.00000000000E+00  0.20510243863E+04  0.45118161133E+04  0.40186793362E+04 0.  0.
        5    1    3    3  502    0 -0.12101460484E+04  0.13179758857E+03 -0.76928117261E+03  0.14400137761E+04  0.46999998093E+01 0.  1.
       -5    1    3    3    0  502  0.12101460484E+04 -0.13179758857E+03  0.28203055589E+04  0.30718023372E+04  0.46999998093E+01 0. -1.
</event>
<event>
 5   0  0.8528625E-08  0.3932735E+04  0.7818609E-02  0.8018255E-01
       -1   -1    0    0    0  501  0.00000000000E+00  0.00000000000E+00  0.13168154558E+04  0.13168154558E+04  0.50400001928E-02 0. -1.
        1   -1    0    0  501    0  0.00000000000E+00  0.00000000000E+00 -0.29363271651E+04  0.29363271651E+04  0.50400001928E-02 0.  1.
    10030    2    1    2    0    0  0.00000000000E+00  0.00000000000E+00 -0.16195117093E+04  0.42531426209E+04  0.39327349234E+04 0.  0.
        4    1    3    3  502    0 -0.24766001505E+03  0.11600197826E+04 -0.25058466721E+04  0.27724087967E+04  0.12699999809E+01 0.  1.
       -4    1    3    3    0  502  0.24766001505E+03 -0.11600197826E+04  0.88633496282E+03  0.14807338243E+04  0.12699999809E+01 0. -1.
</event>
<event>
 5   0  0.8528625E-08  0.3943825E+04  0.7818609E-02  0.8015976E-01
       -1   -1    0    0    0  501  0.00000000000E+00  0.00000000000E+00  0.23759083835E+04  0.23759083835E+04  0.50400001928E-02 0. -1.
        1   -1    0    0  501    0  0.00000000000E+00  0.00000000000E+00 -0.16366110927E+04  0.16366110927E+04  0.50400001928E-02 0.  1.
    10030    2    1    2    0    0  0.00000000000E+00  0.00000000000E+00  0.73929729079E+03  0.40125194761E+04  0.39438245476E+04 0.  0.
        2    1    3    3  502    0 -0.44420662813E+03 -0.42116475564E+03 -0.15374989327E+04  0.16548722754E+04  0.25500000920E-02 0.  1.
       -2    1    3    3    0  502  0.44420662813E+03  0.42116475564E+03  0.22767962235E+04  0.23576472007E+04  0.25500000920E-02 0. -1.
</event>
<event>
 5   0  0.8528625E-08  0.4002910E+04  0.7818609E-02  0.8003960E-01
        1   -1    0    0  501    0  0.00000000000E+00  0.00000000000E+00  0.22665440135E+04  0.22665440135E+04  0.50400001928E-02 0. -1.
       -1   -1    0    0    0  501  0.00000000000E+00  0.00000000000E+00 -0.17673700870E+04  0.17673700870E+04  0.50400001928E-02 0.  1.
    10030    2    1    2    0    0  0.00000000000E+00  0.00000000000E+00  0.49917392645E+03  0.40339141005E+04  0.40029099867E+04 0.  0.
        5    1    3    3  502    0 -0.14140543348E+04 -0.14164008034E+04  0.24183958681E+03  0.20159983565E+04  0.46999998093E+01 0.  1.
       -5    1    3    3    0  502  0.14140543348E+04  0.14164008034E+04  0.25733433964E+03  0.20179157440E+04  0.46999998093E+01 0. -1.
</event>
<event>
 5   0  0.2661693E-07  0.4069346E+04  0.7818609E-02  0.7990702E-01
       -2   -1    0    0    0  501  0.00000000000E+00  0.00000000000E+00  0.24627870125E+04  0.24627870125E+04  0.25500000920E-02 0. -1.
        2   -1    0    0  501    0  0.00000000000E+00  0.00000000000E+00 -0.16809795693E+04  0.16809795693E+04  0.25500000920E-02 0.  1.
    10030    2    1    2    0    0  0.00000000000E+00  0.00000000000E+00  0.78180744315E+03  0.41437665818E+04  0.40693462136E+04 0.  0.
        1    1    3    3  502    0 -0.14242416927E+04 -0.13278074473E+04  0.99191595210E+03  0.21852767039E+04  0.50400001928E-02 0. -1.
       -1    1    3    3    0  502  0.14242416927E+04  0.13278074473E+04 -0.21010850895E+03  0.19584898779E+04  0.50400001928E-02 0.  1.
</event>
<event>
 5   0  0.2666978E-07  0.4547966E+04  0.7818609E-02  0.7902293E-01
        2   -1    0    0  501    0  0.00000000000E+00  0.00000000000E+00  0.18399238027E+04  0.18399238027E+04  0.25500000920E-02 0.  1.
       -2   -1    0    0    0  501  0.00000000000E+00  0.00000000000E+00 -0.28104417213E+04  0.28104417213E+04  0.25500000920E-02 0. -1.
    10030    2    1    2    0    0  0.00000000000E+00  0.00000000000E+00 -0.97051791863E+03  0.46503655241E+04  0.45479659714E+04 0.  0.
        4    1    3    3  502    0 -0.16532099601E+04  0.14134050853E+04 -0.11636576281E+04  0.24667626143E+04  0.12699999809E+01 0.  1.
       -4    1    3    3    0  502  0.16532099601E+04 -0.14134050853E+04  0.19313970949E+03  0.21836029097E+04  0.12699999809E+01 0. -1.
</event>
<event>
 5   0  0.2839279E-07  0.4058398E+04  0.7818609E-02  0.7992868E-01
        2   -1    0    0  501    0  0.00000000000E+00  0.00000000000E+00  0.31005904018E+04  0.31005904018E+04  0.25500000920E-02 0.  1.
       -2   -1    0    0    0  501  0.00000000000E+00  0.00000000000E+00 -0.13280210294E+04  0.13280210294E+04  0.25500000920E-02 0. -1.
    10030    2    1    2    0    0  0.00000000000E+00  0.00000000000E+00  0.17725693724E+04  0.44286114312E+04  0.40583983329E+04 0.  0.
        3    1    3    3  502    0  0.53086267958E+03 -0.49659578187E+03 -0.11810621806E+04  0.13868418943E+04  0.10100000352E+00 0. -1.
       -3    1    3    3    0  502 -0.53086267958E+03  0.49659578187E+03  0.29536315529E+04  0.30417695369E+04  0.10100000352E+00 0.  1.
</event>
<event>
 5   0  0.8528625E-08  0.3578071E+04  0.7818609E-02  0.8095533E-01
       -1   -1    0    0    0  501  0.00000000000E+00  0.00000000000E+00  0.14094921580E+04  0.14094921580E+04  0.50400001928E-02 0. -1.
        1   -1    0    0  501    0  0.00000000000E+00  0.00000000000E+00 -0.22707810048E+04  0.22707810048E+04  0.50400001928E-02 0.  1.
    10030    2    1    2    0    0  0.00000000000E+00  0.00000000000E+00 -0.86128884683E+03  0.36802731628E+04  0.35780709992E+04 0.  0.
        2    1    3    3  502    0  0.73279654513E+03 -0.25380340505E+03 -0.20889111299E+04  0.22282182689E+04  0.25500000920E-02 0.  1.
       -2    1    3    3    0  502 -0.73279654513E+03  0.25380340505E+03  0.12276222831E+04  0.14520548939E+04  0.25500000920E-02 0. -1.
</event>
<event>
 5   0  0.8528625E-08  0.4178700E+04  0.7818609E-02  0.7969436E-01
       -1   -1    0    0    0  501  0.00000000000E+00  0.00000000000E+00  0.18803331288E+04  0.18803331288E+04  0.50400001928E-02 0. -1.
        1   -1    0    0  501    0  0.00000000000E+00  0.00000000000E+00 -0.23216011997E+04  0.23216011997E+04  0.50400001928E-02 0.  1.
    10030    2    1    2    0    0  0.00000000000E+00  0.00000000000E+00 -0.44126807090E+03  0.42019343284E+04  0.41787001077E+04 0.  0.
        2    1    3    3  502    0  0.28098365948E+03  0.27034404059E+03  0.18434226258E+04  0.18842093022E+04  0.25500000920E-02 0. -1.
       -2    1    3    3    0  502 -0.28098365948E+03 -0.27034404059E+03 -0.22846906967E+04  0.23177250262E+04  0.25500000920E-02 0.  1.
</event>
<event>
 5   0  0.8528625E-08  0.3242097E+04  0.7818609E-02  0.8177787E-01
       -1   -1    0    0    0  501  0.00000000000E+00  0.00000000000E+00  0.13745882929E+04  0.13745882929E+04  0.50400001928E-02 0. -1.
        1   -1    0    0  501    0  0.00000000000E+00  0.00000000000E+00 -0.19116981978E+04  0.19116981978E+04  0.50400001928E-02 0.  1.
    10030    2    1    2    0    0  0.00000000000E+00  0.00000000000E+00 -0.53710990489E+03  0.32862864907E+04  0.32420968290E+04 0.  0.
        4    1    3    3  502    0 -0.10489555038E+04  0.12026689963E+04 -0.55717437864E+03  0.16903151377E+04  0.12699999809E+01 0.  1.
       -4    1    3    3    0  502  0.10489555038E+04 -0.12026689963E+04  0.20064473755E+02  0.15959713530E+04  0.12699999809E+01 0. -1.
</event>
<event>
 5   0  0.8528625E-08  0.4006456E+04  0.7818609E-02  0.8003246E-01
        1   -1    0    0  501    0  0.00000000000E+00  0.00000000000E+00  0.16748435157E+04  0.16748435157E+04  0.50400001928E-02 0.  1.
       -1   -1    0    0    0  501  0.00000000000E+00  0.00000000000E+00 -0.23959979701E+04  0.23959979701E+04  0.50400001928E-02 0. -1.
    10030    2    1    2    0    0  0.00000000000E+00  0.00000000000E+00 -0.72115445443E+03  0.40708414858E+04  0.40064556226E+04 0.  0.
        3    1    3    3  502    0 -0.12066112205E+04  0.10047038793E+04  0.90343294238E+03  0.18114998245E+04  0.10100000352E+00 0.  1.
       -3    1    3    3    0  502  0.12066112205E+04 -0.10047038793E+04 -0.16245873968E+04  0.22593416613E+04  0.10100000352E+00 0. -1.
</event>
<event>
 5   0  0.2666978E-07  0.3717918E+04  0.7818609E-02  0.8064003E-01
        2   -1    0    0  501    0  0.00000000000E+00  0.00000000000E+00  0.18413585904E+04  0.18413585904E+04  0.25500000920E-02 0.  1.
       -2   -1    0    0    0  501  0.00000000000E+00  0.00000000000E+00 -0.18767274493E+04  0.18767274493E+04  0.25500000920E-02 0. -1.
    10030    2    1    2    0    0  0.00000000000E+00  0.00000000000E+00 -0.35368858866E+02  0.37180860397E+04  0.37179178100E+04 0.  0.
        4    1    3    3  502    0  0.15404815462E+04 -0.74574763519E+03  0.70795412799E+03  0.18521402727E+04  0.12699999809E+01 0.  1.
       -4    1    3    3    0  502 -0.15404815462E+04  0.74574763519E+03 -0.74332298686E+03  0.18659457670E+04  0.12699999809E+01 0. -1.
</event>
<event>
 5   0  0.2704088E-07  0.2942296E+04  0.7818609E-02  0.8260403E-01
       -2   -1    0    0    0  501  0.00000000000E+00  0.00000000000E+00  0.11034352832E+04  0.11034352832E+04  0.25500000920E-02 0. -1.
        2   -1    0    0  501    0  0.00000000000E+00  0.00000000000E+00 -0.19613985003E+04  0.19613985003E+04  0.25500000920E-02 0.  1.
    10030    2    1    2    0    0  0.00000000000E+00  0.00000000000E+00 -0.85796321708E+03  0.30648337835E+04  0.29422959128E+04 0.  0.
        5    1    3    3  502    0  0.88446425033E+03 -0.11592861073E+04 -0.63212395975E+03  0.15892841405E+04  0.46999998093E+01 0.  1.
       -5    1    3    3    0  502 -0.88446425033E+03  0.11592861073E+04 -0.22583925732E+03  0.14755496430E+04  0.46999998093E+01 0. -1.
</event>
<event>
 5   0  0.8528625E-08  0.3940876E+04  0.7818609E-02  0.8016581E-01
       -1   -1    0    0    0  501  0.00000000000E+00  0.00000000000E+00  0.14277594050E+04  0.14277594050E+04  0.50400001928E-02 0. -1.
        1   -1    0    0  501    0  0.00000000000E+00  0.00000000000E+00 -0.27193841678E+04  0.27193841678E+04  0.50400001928E-02 0.  1.
    10030    2    1    2    0    0  0.00000000000E+00  0.00000000000E+00 -0.12916247628E+04  0.41471435729E+04  0.39408762079E+04 0.  0.
        5    1    3    3  502    0 -0.66866639932E+03 -0.16498301554E+04  0.24311946178E+03  0.17967146290E+04  0.46999998093E+01 0. -1.
       -5    1    3    3    0  502  0.66866639932E+03  0.16498301554E+04 -0.15347442246E+04  0.23504289439E+04  0.46999998093E+01 0.  1.
</event>
<event>
 5   0  0.2661693E-07  0.4025902E+04  0.7818609E-02  0.7999342E-01
       -2   -1    0    0    0  501  0.00000000000E+00  0.00000000000E+00  0.17200634904E+04  0.17200634904E+04  0.25500000920E-02 0. -1.
        2   -1    0    0  501    0  0.00000000000E+00  0.00000000000E+00 -0.23557100478E+04  0.23557100478E+04  0.25500000920E-02 0.  1.
    10030    2    1    2    0    0  0.00000000000E+00  0.00000000000E+00 -0.63564655732E+03  0.40757735382E+04  0.40259015623E+04 0.  0.
        1    1    3    3  502    0 -0.13617727255E+04 -0.29896839973E+03  0.11521148939E+04  0.18086392091E+04  0.50400001928E-02 0. -1.
       -1    1    3    3    0  502  0.13617727255E+04  0.29896839973E+03 -0.17877614512E+04  0.22671343291E+04  0.50400001928E-02 0.  1.
</event>
<event>
 5   0  0.2730801E-07  0.3235605E+04  0.7818609E-02  0.8179477E-01
        2   -1    0    0  501    0  0.00000000000E+00  0.00000000000E+00  0.18217846750E+04  0.18217846750E+04  0.25500000920E-02 0.  1.
       -2   -1    0    0    0  501  0.00000000000E+00  0.00000000000E+00 -0.14366598668E+04  0.14366598668E+04  0.25500000920E-02 0. -1.
    10030    2    1    2    0    0  0.00000000000E+00  0.00000000000E+00  0.38512480825E+03  0.32584445418E+04  0.32356049997E+04 0.  0.
        2    1    3    3  502    0  0.22248831393E+03 -0.14202487626E+04 -0.55475214150E+03  0.15408950438E+04  0.25500000920E-02 0. -1.
       -2    1    3    3    0  502 -0.22248831393E+03  0.14202487626E+04  0.93987694974E+03  0.17175494980E+04  0.25500000920E-02 0.  1.
</event>
<event>
 5   0  0.2730801E-07  0.3956784E+04  0.7818609E-02  0.8013322E-01
        2   -1    0    0  501    0  0.00000000000E+00  0.00000000000E+00  0.16888371891E+04  0.16888371891E+04  0.25500000920E-02 0.  1.
       -2   -1    0    0    0  501  0.00000000000E+00  0.00000000000E+00 -0.23175921347E+04  0.23175921347E+04  0.25500000920E-02 0. -1.
    10030    2    1    2    0    0  0.00000000000E+00  0.00000000000E+00 -0.62875494562E+03  0.40064293238E+04  0.39567844451E+04 0.  0.
        2    1    3    3  502    0  0.10283828902E+04 -0.12752061508E+04  0.80873441066E+03  0.18269574278E+04  0.25500000920E-02 0.  1.
       -2    1    3    3    0  502 -0.10283828902E+04  0.12752061508E+04 -0.14374893563E+04  0.21794718960E+04  0.25500000920E-02 0. -1.
</event>
<event>
 5   0  0.8528625E-08  0.3978706E+04  0.7818609E-02  0.8008856E-01
       -1   -1    0    0    0  501  0.00000000000E+00  0.00000000000E+00  0.22746937016E+04  0.22746937016E+04  0.50400001928E-02 0.  1.
        1   -1    0    0  501    0  0.00000000000E+00  0.00000000000E+00 -0.17398054902E+04  0.17398054902E+04  0.50400001928E-02 0. -1.
    10030    2    1    2    0    0  0.00000000000E+00  0.00000000000E+00  0.53488821140E+03  0.40144991919E+04  0.39787056140E+04 0.  0.
        4    1    3    3  502    0  0.16196223118E+04 -0.10109845596E+04  0.83127062175E+03  0.20823733268E+04  0.12699999809E+01 0. -1.
       -4    1    3    3    0  502 -0.16196223118E+04  0.10109845596E+04 -0.29638241035E+03  0.19321258651E+04  0.12699999809E+01 0.  1.
</event>
<event>
 5   0  0.8583262E-08  0.4063370E+04  0.7818609E-02  0.7991883E-01
        1   -1    0    0  501    0  0.00000000000E+00  0.00000000000E+00  0.20115100615E+04  0.20115100615E+04  0.50400001928E-02 0.  1.
       -1   -1    0    0    0  501  0.00000000000E+00  0.00000000000E+00 -0.20520623227E+04  0.20520623227E+04  0.50400001928E-02 0. -1.
    10030    2    1    2    0    0  0.00000000000E+00  0.00000000000E+00 -0.40552261228E+02  0.40635723843E+04  0.40633700344E+04 0.  0.
        1    1    3    3  502    0  0.12539581682E+04 -0.15671970034E+04 -0.33529415685E+03  0.20349299022E+04  0.50400001928E-02 0. -1.
       -1    1    3    3    0  502 -0.12539581682E+04  0.15671970034E+04  0.29474189563E+03  0.20286424821E+04  0.50400001928E-02 0.  1.
</event>
<event>
 5   0  0.2704088E-07  0.3364473E+04  0.7818609E-02  0.8146681E-01
       -2   -1    0    0    0  501  0.00000000000E+00  0.00000000000E+00  0.13370844516E+04  0.13370844516E+04  0.25500000920E-02 0.  1.
        2   -1    0    0  501    0  0.00000000000E+00  0.00000000000E+00 -0.21164850461E+04  0.21164850461E+04  0.25500000920E-02 0. -1.
    10030    2    1    2    0    0  0.00000000000E+00  0.00000000000E+00 -0.77940059451E+03  0.34535694976E+04  0.33644727653E+04 0.  0.
        5    1    3    3  502    0  0.28696741896E+03 -0.65123450048E+03  0.11749488179E+04  0.13736751759E+04  0.46999998093E+01 0.  1.
       -5    1    3    3    0  502 -0.28696741896E+03  0.65123450048E+03 -0.19543494124E+04  0.20798943218E+04  0.46999998093E+01 0. -1.
</event>
<event>
 5   0  0.8528625E-08  0.4002386E+04  0.7818609E-02  0.8004065E-01
       -1   -1    0    0    0  501  0.00000000000E+00  0.00000000000E+00  0.28732617023E+04  0.28732617023E+04  0.50400001928E-02 0.  1.
        1   -1    0    0  501    0  0.00000000000E+00  0.00000000000E+00 -0.13938073784E+04  0.13938073784E+04  0.50400001928E-02 0. -1.
    10030    2    1    2    0    0  0.00000000000E+00  0.00000000000E+00  0.14794543239E+04  0.42670690807E+04  0.40023859688E+04 0.  0.
        5    1    3    3  502    0  0.95552435578E+03 -0.11979136074E+04  0.21119866508E+04  0.26093166746E+04  0.46999998093E+01 0.  1.
       -5    1    3    3    0  502 -0.95552435578E+03  0.11979136074E+04 -0.63253232696E+03  0.16577524061E+04  0.46999998093E+01 0. -1.
</event>
<event>
 5   0  0.2730801E-07  0.4256917E+04  0.7818609E-02  0.7954633E-01
       -2   -1    0    0    0  501  0.00000000000E+00  0.00000000000E+00  0.21179688252E+04  0.21179688252E+04  0.25500000920E-02 0.  1.
        2   -1    0    0  501    0  0.00000000000E+00  0.00000000000E+00 -0.21390002863E+04  0.21390002863E+04  0.25500000920E-02 0. -1.
    10030    2    1    2    0    0  0.00000000000E+00  0.00000000000E+00 -0.21031461115E+02  0.42569691116E+04  0.42569171585E+04 0.  0.
        2    1    3    3  502    0 -0.11165483462E+04  0.13119127297E+03 -0.18178685723E+04  0.21374137423E+04  0.25500000920E-02 0. -1.
       -2    1    3    3    0  502  0.11165483462E+04 -0.13119127297E+03  0.17968371112E+04  0.21195553693E+04  0.25500000920E-02 0.  1.
</event>
<event>
 5   0  0.2666978E-07  0.3934767E+04  0.7818609E-02  0.8017837E-01
        2   -1    0    0  501    0  0.00000000000E+00  0.00000000000E+00  0.21741028951E+04  0.21741028951E+04  0.25500000920E-02 0.  1.
       -2   -1    0    0    0  501  0.00000000000E+00  0.00000000000E+00 -0.17803198127E+04  0.17803198127E+04  0.25500000920E-02 0. -1.
    10030    2    1    2    0    0  0.00000000000E+00  0.00000000000E+00  0.39378308233E+03  0.39544227078E+04  0.39347673166E+04 0.  0.
        4    1    3    3  502    0  0.12596118983E+04 -0.14332579405E+04 -0.28482147582E+03  0.19292421683E+04  0.12699999809E+01 0.  1.
       -4    1    3    3    0  502 -0.12596118983E+04  0.14332579405E+04  0.67860455815E+03  0.20251805395E+04  0.12699999809E+01 0. -1.
</event>
<event>
 5   0  0.8528625E-08  0.3991956E+04  0.7818609E-02  0.8006171E-01
        1   -1    0    0  501    0  0.00000000000E+00  0.00000000000E+00  0.31397048423E+04  0.31397048423E+04  0.50400001928E-02 0. -1.
       -1   -1    0    0    0  501  0.00000000000E+00  0.00000000000E+00 -0.12688862751E+04  0.12688862751E+04  0.50400001928E-02 0.  1.
    10030    2    1    2    0    0  0.00000000000E+00  0.00000000000E+00  0.18708185672E+04  0.44085911174E+04  0.39919561031E+04 0.  0.
        4    1    3    3  502    0 -0.54523805053E+03  0.16698945951E+04 -0.11117697711E+03  0.17601688623E+04  0.12699999809E+01 0.  1.
       -4    1    3    3    0  502  0.54523805053E+03 -0.16698945951E+04  0.19819955443E+04  0.26484222551E+04  0.12699999809E+01 0. -1.
</event>
<event>
 5   0  0.2704088E-07  0.3985198E+04  0.7818609E-02  0.8007539E-01
       -2   -1    0    0    0  501  0.00000000000E+00  0.00000000000E+00  0.20073077962E+04  0.20073077962E+04  0.25500000920E-02 0.  1.
        2   -1    0    0  501    0  0.00000000000E+00  0.00000000000E+00 -0.19779977860E+04  0.19779977860E+04  0.25500000920E-02 0. -1.
    10030    2    1    2    0    0  0.00000000000E+00  0.00000000000E+00  0.29310010275E+02  0.39853055822E+04  0.39851978002E+04 0.  0.
        5    1    3    3  502    0  0.87816679559E+03  0.15694541459E+04 -0.84331053314E+03  0.19863428662E+04  0.46999998093E+01 0.  1.
       -5    1    3    3    0  502 -0.87816679559E+03 -0.15694541459E+04  0.87262054341E+03  0.19989627159E+04  0.46999998093E+01 0. -1.
</event>
<event>
 5   0  0.2839279E-07  0.4029732E+04  0.7818609E-02  0.7998575E-01
       -2   -1    0    0    0  501  0.00000000000E+00  0.00000000000E+00  0.26564203406E+04  0.26564203406E+04  0.25500000920E-02 0.  1.
        2   -1    0    0  501    0  0.00000000000E+00  0.00000000000E+00 -0.15282540640E+04  0.15282540640E+04  0.25500000920E-02 0. -1.
    10030    2    1    2    0    0  0.00000000000E+00  0.00000000000E+00  0.11281662766E+04  0.41846744046E+04  0.40297320909E+04 0.  0.
        3    1    3    3  502    0 -0.43752075284E+03  0.17791806111E+04  0.14346343096E+04  0.23270332332E+04  0.10100000352E+00 0.  1.
       -3    1    3    3    0  502  0.43752075284E+03 -0.17791806111E+04 -0.30646803303E+03  0.18576411713E+04  0.10100000352E+00 0. -1.
</event>
<event>
 5   0  0.2666978E-07  0.4032864E+04  0.7818609E-02  0.7997949E-01
       -2   -1    0    0    0  501  0.00000000000E+00  0.00000000000E+00  0.16871495149E+04  0.16871495149E+04  0.25500000920E-02 0.  1.
        2   -1    0    0  501    0  0.00000000000E+00  0.00000000000E+00 -0.24099808380E+04  0.24099808380E+04  0.25500000920E-02 0. -1.
    10030    2    1    2    0    0  0.00000000000E+00  0.00000000000E+00 -0.72283132301E+03  0.40971303529E+04  0.40328639956E+04 0.  0.
        4    1    3    3  502    0  0.98644055645E+03 -0.84247691387E+03 -0.19297663411E+04  0.23252595696E+04  0.12699999809E+01 0. -1.
       -4    1    3    3    0  502 -0.98644055645E+03  0.84247691387E+03  0.12069350181E+04  0.17718707833E+04  0.12699999809E+01 0.  1.
</event>
<event>
 5   0  0.8528625E-08  0.3524589E+04  0.7818609E-02  0.8107987E-01
       -1   -1    0    0    0  501  0.00000000000E+00  0.00000000000E+00  0.16987347424E+04  0.16987347424E+04  0.50400001928E-02 0.  1.
        1   -1    0    0  501    0  0.00000000000E+00  0.00000000000E+00 -0.18282327572E+04  0.18282327572E+04  0.50400001928E-02 0. -1.
    10030    2    1    2    0    0  0.00000000000E+00  0.00000000000E+00 -0.12949801474E+03  0.35269674996E+04  0.35245893388E+04 0.  0.
        2    1    3    3  502    0 -0.74818487474E+03 -0.14681302306E+04 -0.69006705458E+03  0.17864432598E+04  0.25500000920E-02 0.  1.
       -2    1    3    3    0  502  0.74818487474E+03  0.14681302306E+04  0.56056903984E+03  0.17405242398E+04  0.25500000920E-02 0. -1.
</event>
<event>
 5   0  0.2704088E-07  0.3912836E+04  0.7818609E-02  0.8022365E-01
        2   -1    0    0  501    0  0.00000000000E+00  0.00000000000E+00  0.16414174235E+04  0.16414174235E+04  0.25500000920E-02 0. -1.
       -2   -1    0    0    0  501  0.00000000000E+00  0.00000000000E+00 -0.23318695508E+04  0.23318695508E+04  0.25500000920E-02 0.  1.
    10030    2    1    2    0    0  0.00000000000E+00  0.00000000000E+00 -0.69045212735E+03  0.39732869743E+04  0.39128359587E+04 0.  0.
        5    1    3    3  502    0 -0.29679412445E+03  0.28759126813E+03 -0.22870334515E+04  0.23240782233E+04  0.46999998093E+01 0.  1.
       -5    1    3    3    0  502  0.29679412445E+03 -0.28759126813E+03  0.15965813241E+04  0.16492087510E+04  0.46999998093E+01 0. -1.
</event>
<event>
 5   0  0.8528625E-08  0.3996961E+04  0.7818609E-02  0.8005160E-01
       -1   -1    0    0    0  501  0.00000000000E+00  0.00000000000E+00  0.24220283931E+04  0.24220283931E+04  0.50400001928E-02 0.  1.
        1   -1    0    0  501    0  0.00000000000E+00  0.00000000000E+00 -0.16490001712E+04  0.16490001712E+04  0.50400001928E-02 0. -1.
    10030    2    1    2    0    0  0.00000000000E+00  0.00000000000E+00  0.77302822193E+03  0.40710285644E+04  0.39969614634E+04 0.  0.
        5    1    3    3  502    0  0.10631851200E+04 -0.13215883254E+04  0.14629546682E+04  0.22399144520E+04  0.46999998093E+01 0.  1.
       -5    1    3    3    0  502 -0.10631851200E+04  0.13215883254E+04 -0.68992644626E+03  0.18311141123E+04  0.46999998093E+01 0. -1.
</event>
<event>
 5   0  0.2666978E-07  0.3846558E+04  0.7818609E-02  0.8036237E-01
       -2   -1    0    0    0  501  0.00000000000E+00  0.00000000000E+00  0.18987553300E+04  0.18987553300E+04  0.25500000920E-02 0.  1.
        2   -1    0    0  501    0  0.00000000000E+00  0.00000000000E+00 -0.19481193555E+04  0.19481193555E+04  0.25500000920E-02 0. -1.
    10030    2    1    2    0    0  0.00000000000E+00  0.00000000000E+00 -0.49364025503E+02  0.38468746856E+04  0.38465579470E+04 0.  0.
        4    1    3    3  502    0  0.14409703986E+04  0.39404490540E+03 -0.12361171040E+04  0.19389827706E+04  0.12699999809E+01 0. -1.
       -4    1    3    3    0  502 -0.14409703986E+04 -0.39404490540E+03  0.11867530784E+04  0.19078919150E+04  0.12699999809E+01 0.  1.
</event>
<event>
 5   0  0.8583262E-08  0.4049844E+04  0.7818609E-02  0.7994566E-01
       -1   -1    0    0    0  501  0.00000000000E+00  0.00000000000E+00  0.24804676903E+04  0.24804676903E+04  0.50400001928E-02 0. -1.
        1   -1    0    0  501    0  0.00000000000E+00  0.00000000000E+00 -0.16530385582E+04  0.16530385582E+04  0.50400001928E-02 0.  1.
    10030    2    1    2    0    0  0.00000000000E+00  0.00000000000E+00  0.82742913214E+03  0.41335062485E+04  0.40498438164E+04 0.  0.
        1    1    3    3  502    0  0.11732654525E+04 -0.92740263278E+03  0.18070835655E+04  0.23456722870E+04  0.50400001928E-02 0. -1.
       -1    1    3    3    0  502 -0.11732654525E+04  0.92740263278E+03 -0.97965443333E+03  0.17878339615E+04  0.50400001928E-02 0.  1.
</event>
<event>
 5   0  0.2704088E-07  0.4172725E+04  0.7818609E-02  0.7970581E-01
       -2   -1    0    0    0  501  0.00000000000E+00  0.00000000000E+00  0.13552795930E+04  0.13552795930E+04  0.25500000920E-02 0. -1.
        2   -1    0    0  501    0  0.00000000000E+00  0.00000000000E+00 -0.32118156208E+04  0.32118156208E+04  0.25500000920E-02 0.  1.
    10030    2    1    2    0    0  0.00000000000E+00  0.00000000000E+00 -0.18565360277E+04  0.45670952138E+04  0.41727248495E+04 0.  0.
        5    1    3    3  502    0 -0.62561194516E+03  0.18015397404E+04 -0.18543762917E+04  0.26600130194E+04  0.46999998093E+01 0. -1.
       -5    1    3    3    0  502  0.62561194516E+03 -0.18015397404E+04 -0.21597360359E+01  0.19070821945E+04  0.46999998093E+01 0.  1.
</event>
<event>
 5   0  0.8528625E-08  0.4011414E+04  0.7818609E-02  0.8002248E-01
        1   -1    0    0  501    0  0.00000000000E+00  0.00000000000E+00  0.31801383216E+04  0.31801383216E+04  0.50400001928E-02 0. -1.
       -1   -1    0    0    0  501  0.00000000000E+00  0.00000000000E+00 -0.12649956089E+04  0.12649956089E+04  0.50400001928E-02 0.  1.
    10030    2    1    2    0    0  0.00000000000E+00  0.00000000000E+00  0.19151427127E+04  0.44451339305E+04  0.40114142207E+04 0.  0.
        5    1    3    3  502    0 -0.17734283177E+04  0.90273296096E+03  0.67973518807E+03  0.21028639549E+04  0.46999998093E+01 0.  1.
       -5    1    3    3    0  502  0.17734283177E+04 -0.90273296096E+03  0.12354075247E+04  0.23422699756E+04  0.46999998093E+01 0. -1.
</event>
<event>
 5   0  0.8528625E-08  0.3457665E+04  0.7818609E-02  0.8123897E-01
        1   -1    0    0  501    0  0.00000000000E+00  0.00000000000E+00  0.12721728345E+04  0.12721728345E+04  0.50400001928E-02 0.  1.
       -1   -1    0    0    0  501  0.00000000000E+00  0.00000000000E+00 -0.23494148696E+04  0.23494148696E+04  0.50400001928E-02 0. -1.
    10030    2    1    2    0    0  0.00000000000E+00  0.00000000000E+00 -0.10772420351E+04  0.36215877041E+04  0.34576649775E+04 0.  0.
        5    1    3    3  502    0 -0.47288633272E+03  0.12336171942E+04  0.62932486056E+03  0.14633881015E+04  0.46999998093E+01 0.  1.
       -5    1    3    3    0  502  0.47288633272E+03 -0.12336171942E+04 -0.17065668956E+04  0.21581996026E+04  0.46999998093E+01 0. -1.
</event>
<event>
 5   0  0.2704088E-07  0.3107970E+04  0.7818609E-02  0.8213554E-01
        2   -1    0    0  501    0  0.00000000000E+00  0.00000000000E+00  0.86990995747E+03  0.86990995748E+03  0.25500000920E-02 0. -1.
       -2   -1    0    0    0  501  0.00000000000E+00  0.00000000000E+00 -0.27759993204E+04  0.27759993204E+04  0.25500000920E-02 0.  1.
    10030    2    1    2    0    0  0.00000000000E+00  0.00000000000E+00 -0.19060893629E+04  0.36459092779E+04  0.31079700454E+04 0.  0.
        5    1    3    3  502    0 -0.18838111587E+03 -0.35638253067E+03  0.80750022850E+03  0.90253790060E+03  0.46999998093E+01 0. -1.
       -5    1    3    3    0  502  0.18838111587E+03  0.35638253067E+03 -0.27135895914E+04  0.27433713773E+04  0.46999998093E+01 0.  1.
</event>
<event>
 5   0  0.8583262E-08  0.3930343E+04  0.7818609E-02  0.8018748E-01
        1   -1    0    0  501    0  0.00000000000E+00  0.00000000000E+00  0.15354307131E+04  0.15354307131E+04  0.50400001928E-02 0.  1.
       -1   -1    0    0    0  501  0.00000000000E+00  0.00000000000E+00 -0.25151891480E+04  0.25151891480E+04  0.50400001928E-02 0. -1.
    10030    2    1    2    0    0  0.00000000000E+00  0.00000000000E+00 -0.97975843488E+03  0.40506198610E+04  0.39303428181E+04 0.  0.
        1    1    3    3  502    0  0.33517826053E+03 -0.10926533225E+04  0.11576868575E+04  0.16267988842E+04  0.50400001928E-02 0.  1.
       -1    1    3    3    0  502 -0.33517826053E+03  0.10926533225E+04 -0.21374452924E+04  0.24238209768E+04  0.50400001928E-02 0. -1.
</event>
<event>
 5   0  0.8528625E-08  0.3988359E+04  0.7818609E-02  0.8006899E-01
        1   -1    0    0  501    0  0.00000000000E+00  0.00000000000E+00  0.14613604512E+04  0.14613604512E+04  0.50400001928E-02 0. -1.
       -1   -1    0    0    0  501  0.00000000000E+00  0.00000000000E+00 -0.27212668510E+04  0.27212668510E+04  0.50400001928E-02 0.  1.
    10030    2    1    2    0    0  0.00000000000E+00  0.00000000000E+00 -0.12599063998E+04  0.41826273023E+04  0.39883589374E+04 0.  0.
        4    1    3    3  502    0  0.24677724141E+03 -0.67391089688E+03 -0.25811422359E+04  0.26790579984E+04  0.12699999809E+01 0.  1.
       -4    1    3    3    0  502 -0.24677724141E+03  0.67391089688E+03  0.13212358362E+04  0.15035693038E+04  0.12699999809E+01 0. -1.
</event>
<event>
 5   0  0.8528625E-08  0.4029187E+04  0.7818609E-02  0.7998684E-01
       -1   -1    0    0    0  501  0.00000000000E+00  0.00000000000E+00  0.27160025000E+04  0.27160025001E+04  0.50400001928E-02 0.  1.
        1   -1    0    0  501    0  0.00000000000E+00  0.00000000000E+00 -0.14943240842E+04  0.14943240842E+04  0.50400001928E-02 0. -1.
    10030    2    1    2    0    0  0.00000000000E+00  0.00000000000E+00  0.12216784158E+04  0.42103265843E+04  0.40291874857E+04 0.  0.
        5    1    3    3  502    0 -0.99652112677E+03  0.17495019741E+04  0.53878760264E+03  0.20842566263E+04  0.46999998093E+01 0.  1.
       -5    1    3    3    0  502  0.99652112677E+03 -0.17495019741E+04  0.68289081318E+03  0.21260699580E+04  0.46999998093E+01 0. -1.
</event>
<event>
 5   0  0.8528625E-08  0.3971786E+04  0.7818609E-02  0.8010262E-01
        1   -1    0    0  501    0  0.00000000000E+00  0.00000000000E+00  0.18686283623E+04  0.18686283623E+04  0.50400001928E-02 0.  1.
       -1   -1    0    0    0  501  0.00000000000E+00  0.00000000000E+00 -0.21105170369E+04  0.21105170369E+04  0.50400001928E-02 0. -1.
    10030    2    1    2    0    0  0.00000000000E+00  0.00000000000E+00 -0.24188867461E+03  0.39791453992E+04  0.39717864969E+04 0.  0.
        4    1    3    3  502    0  0.95014145027E+03 -0.13303548470E+04 -0.12504895276E+04  0.20582367371E+04  0.12699999809E+01 0. -1.
       -4    1    3    3    0  502 -0.95014145027E+03  0.13303548470E+04  0.10086008530E+04  0.19209086621E+04  0.12699999809E+01 0.  1.
</event>
<event>
 5   0  0.8528625E-08  0.3179247E+04  0.7818609E-02  0.8194320E-01
        1   -1    0    0  501    0  0.00000000000E+00  0.00000000000E+00  0.16900725876E+04  0.16900725876E+04  0.50400001928E-02 0.  1.
       -1   -1    0    0    0  501  0.00000000000E+00  0.00000000000E+00 -0.14951444588E+04  0.14951444588E+04  0.50400001928E-02 0. -1.
    10030    2    1    2    0    0  0.00000000000E+00  0.00000000000E+00  0.19492812876E+03  0.31852170464E+04  0.31792468695E+04 0.  0.
        4    1    3    3  502    0 -0.88520690064E+03 -0.27469109815E+02  0.14200017512E+04  0.16735448590E+04  0.12699999809E+01 0.  1.
       -4    1    3    3    0  502  0.88520690064E+03  0.27469109815E+02 -0.12250736224E+04  0.15116721874E+04  0.12699999809E+01 0. -1.
</event>
<event>
 5   0  0.8528625E-08  0.3801548E+04  0.7818609E-02  0.8045823E-01
       -1   -1    0    0    0  501  0.00000000000E+00  0.00000000000E+00  0.18959975076E+04  0.18959975076E+04  0.50400001928E-02 0.  1.
        1   -1    0    0  501    0  0.00000000000E+00  0.00000000000E+00 -0.19055624509E+04  0.19055624509E+04  0.50400001928E-02 0. -1.
    10030    2    1    2    0    0  0.00000000000E+00  0.00000000000E+00 -0.95649433402E+01  0.38015599585E+04  0.38015479255E+04 0.  0.
        4    1    3    3  502    0  0.33448752435E+03 -0.18709750738E+04  0.17809944031E+02  0.19007231354E+04  0.12699999809E+01 0.  1.
       -4    1    3    3    0  502 -0.33448752435E+03  0.18709750738E+04 -0.27374887371E+02  0.19008368231E+04  0.12699999809E+01 0. -1.
</event>
<event>
 5   0  0.8528625E-08  0.3965040E+04  0.7818609E-02  0.8011637E-01
        1   -1    0    0  501    0  0.00000000000E+00  0.00000000000E+00  0.19400345738E+04  0.19400345738E+04  0.50400001928E-02 0. -1.
       -1   -1    0    0    0  501  0.00000000000E+00  0.00000000000E+00 -0.20259354738E+04  0.20259354738E+04  0.50400001928E-02 0.  1.
    10030    2    1    2    0    0  0.00000000000E+00  0.00000000000E+00 -0.85900899993E+02  0.39659700476E+04  0.39650396535E+04 0.  0.
        3    1    3    3  502    0 -0.53667390906E+03  0.17244027232E+04  0.77504412288E+03  0.19652676762E+04  0.10100000352E+00 0. -1.
       -3    1    3    3    0  502  0.53667390906E+03 -0.17244027232E+04 -0.86094502287E+03  0.20007023714E+04  0.10100000352E+00 0.  1.
</event>
<event>
 5   0  0.2730801E-07  0.3949314E+04  0.7818609E-02  0.8014850E-01
        2   -1    0    0  501    0  0.00000000000E+00  0.00000000000E+00  0.12544227283E+04  0.12544227283E+04  0.25500000920E-02 0. -1.
       -2   -1    0    0    0  501  0.00000000000E+00  0.00000000000E+00 -0.31084174350E+04  0.31084174350E+04  0.25500000920E-02 0.  1.
    10030    2    1    2    0    0  0.00000000000E+00  0.00000000000E+00 -0.18539947067E+04  0.43628401633E+04  0.39493136009E+04 0.  0.
        2    1    3    3  502    0  0.12421118322E+04 -0.14294258765E+02  0.76872954566E+03  0.14608186896E+04  0.25500000920E-02 0. -1.
       -2    1    3    3    0  502 -0.12421118322E+04  0.14294258765E+02 -0.26227242524E+04  0.29020214737E+04  0.25500000920E-02 0.  1.
</event>
<event>
 5   0  0.8528625E-08  0.3482385E+04  0.7818609E-02  0.8117977E-01
       -1   -1    0    0    0  501  0.00000000000E+00  0.00000000000E+00  0.13175186148E+04  0.13175186148E+04  0.50400001928E-02 0. -1.
        1   -1    0    0  501    0  0.00000000000E+00  0.00000000000E+00 -0.23011069107E+04  0.23011069107E+04  0.50400001928E-02 0.  1.
    10030    2    1    2    0    0  0.00000000000E+00  0.00000000000E+00 -0.98358829588E+03  0.36186255256E+04  0.34823849239E+04 0.  0.
        3    1    3    3  502    0  0.81005875664E+03 -0.11914531439E+04 -0.15077966296E+04  0.20854751185E+04  0.10100000352E+00 0.  1.
       -3    1    3    3    0  502 -0.81005875664E+03  0.11914531439E+04  0.52420833373E+03  0.15331504071E+04  0.10100000352E+00 0. -1.
</event>
<event>
 5   0  0.8583262E-08  0.3966756E+04  0.7818609E-02  0.8011287E-01
       -1   -1    0    0    0  501  0.00000000000E+00  0.00000000000E+00  0.14122319094E+04  0.14122319095E+04  0.50400001928E-02 0. -1.
        1   -1    0    0  501    0  0.00000000000E+00  0.00000000000E+00 -0.27855119574E+04  0.27855119574E+04  0.50400001928E-02 0.  1.
    10030    2    1    2    0    0  0.00000000000E+00  0.00000000000E+00 -0.13732800479E+04  0.41977438668E+04  0.39667562922E+04 0.  0.
        1    1    3    3  502    0  0.92266006903E+03  0.93184284150E+03 -0.22612918560E+04  0.26140148321E+04  0.50400001928E-02 0.  1.
       -1    1    3    3    0  502 -0.92266006903E+03 -0.93184284150E+03  0.88801180808E+03  0.15837290348E+04  0.50400001928E-02 0. -1.
</event>
<event>
 5   0  0.2704088E-07  0.4007849E+04  0.7818609E-02  0.8002965E-01
        2   -1    0    0  501    0  0.00000000000E+00  0.00000000000E+00  0.15661177445E+04  0.15661177445E+04  0.25500000920E-02 0.  1.
       -2   -1    0    0    0  501  0.00000000000E+00  0.00000000000E+00 -0.25641198414E+04  0.25641198414E+04  0.25500000920E-02 0. -1.
    10030    2    1    2    0    0  0.00000000000E+00  0.00000000000E+00 -0.99800209687E+03  0.41302375858E+04  0.40078490902E+04 0.  0.
        5    1    3    3  502    0  0.34029272459E+03  0.19625757137E+04 -0.27277777581E+03  0.20104557631E+04  0.46999998093E+01 0.  1.
       -5    1    3    3    0  502 -0.34029272459E+03 -0.19625757137E+04 -0.72522432105E+03  0.21197818228E+04  0.46999998093E+01 0. -1.
</event>
<event>
 5   0  0.8528625E-08  0.4046126E+04  0.7818609E-02  0.7995306E-01
        1   -1    0    0  501    0  0.00000000000E+00  0.00000000000E+00  0.13255004947E+04  0.13255004947E+04  0.50400001928E-02 0. -1.
       -1   -1    0    0    0  501  0.00000000000E+00  0.00000000000E+00 -0.30877264832E+04  0.30877264832E+04  0.50400001928E-02 0.  1.
    10030    2    1    2    0    0  0.00000000000E+00  0.00000000000E+00 -0.17622259885E+04  0.44132269779E+04  0.40461255447E+04 0.  0.
        2    1    3    3  502    0  0.11527609687E+04  0.81086093717E+03  0.70192155018E+03  0.15744990228E+04  0.25500000920E-02 0. -1.
       -2    1    3    3    0  502 -0.11527609687E+04 -0.81086093717E+03 -0.24641475387E+04  0.28387279551E+04  0.25500000920E-02 0.  1.
</event>
<event>
 5   0  0.8528625E-08  0.4107134E+04  0.7818609E-02  0.7983276E-01
       -1   -1    0    0    0  501  0.00000000000E+00  0.00000000000E+00  0.18962727479E+04  0.18962727479E+04  0.50400001928E-02 0.  1.
        1   -1    0    0  501    0  0.00000000000E+00  0.00000000000E+00 -0.22239083436E+04  0.22239083436E+04  0.50400001928E-02 0. -1.
    10030    2    1    2    0    0  0.00000000000E+00  0.00000000000E+00 -0.32763559568E+03  0.41201810915E+04  0.41071336895E+04 0.  0.
        5    1    3    3  502    0  0.73441984870E+03 -0.74563502716E+03  0.16086483826E+04  0.19191445533E+04  0.46999998093E+01 0.  1.
       -5    1    3    3    0  502 -0.73441984870E+03  0.74563502716E+03 -0.19362839782E+04  0.22010365382E+04  0.46999998093E+01 0. -1.
</event>
<event>
 5   0  0.8528625E-08  0.3981229E+04  0.7818609E-02  0.8008344E-01
       -1   -1    0    0    0  501  0.00000000000E+00  0.00000000000E+00  0.17849905928E+04  0.17849905928E+04  0.50400001928E-02 0.  1.
        1   -1    0    0  501    0  0.00000000000E+00  0.00000000000E+00 -0.22199259321E+04  0.22199259321E+04  0.50400001928E-02 0. -1.
    10030    2    1    2    0    0  0.00000000000E+00  0.00000000000E+00 -0.43493533934E+03  0.40049165249E+04  0.39812294109E+04 0.  0.
        4    1    3    3  502    0  0.19557014398E+04 -0.41251100448E+02  0.15361123163E+03  0.19621589636E+04  0.12699999809E+01 0.  1.
       -4    1    3    3    0  502 -0.19557014398E+04  0.41251100448E+02 -0.58854657097E+03  0.20427575613E+04  0.12699999809E+01 0. -1.
</event>
<event>
 5   0  0.8528625E-08  0.3865918E+04  0.7818609E-02  0.8032155E-01
        1   -1    0    0  501    0  0.00000000000E+00  0.00000000000E+00  0.26238089435E+04  0.26238089435E+04  0.50400001928E-02 0.  1.
       -1   -1    0    0    0  501  0.00000000000E+00  0.00000000000E+00 -0.14240097665E+04  0.14240097665E+04  0.50400001928E-02 0. -1.
    10030    2    1    2    0    0  0.00000000000E+00  0.00000000000E+00  0.11997991770E+04  0.40478187100E+04  0.38659175164E+04 0.  0.
        4    1    3    3  502    0 -0.60091284216E+03  0.15949716673E+04  0.15545549118E+04  0.23068752567E+04  0.12699999809E+01 0.  1.
       -4    1    3    3    0  502  0.60091284216E+03 -0.15949716673E+04 -0.35475573482E+03  0.17409434533E+04  0.12699999809E+01 0. -1.
</event>
<event>
 5   0  0.2666978E-07  0.3124250E+04  0.7818609E-02  0.8209114E-01
        2   -1    0    0  501    0  0.00000000000E+00  0.00000000000E+00  0.24417784505E+04  0.24417784505E+04  0.25500000920E-02 0. -1.
       -2   -1    0    0    0  501  0.00000000000E+00  0.00000000000E+00 -0.99936775505E+03  0.99936775505E+03  0.25500000920E-02 0.  1.
    10030    2    1    2    0    0  0.00000000000E+00  0.00000000000E+00  0.14424106954E+04  0.34411462055E+04  0.31242500850E+04 0.  0.
        4    1    3    3  502    0 -0.51782378762E+02  0.12806528571E+04 -0.26239166779E+03  0.13082829034E+04  0.12699999809E+01 0.  1.
       -4    1    3    3    0  502  0.51782378762E+02 -0.12806528571E+04  0.17048023632E+04  0.21328633021E+04  0.12699999809E+01 0. -1.
</event>
<event>
 5   0  0.8528625E-08  0.3932244E+04  0.7818609E-02  0.8018356E-01
        1   -1    0    0  501    0  0.00000000000E+00  0.00000000000E+00  0.26679314713E+04  0.26679314713E+04  0.50400001928E-02 0. -1.
       -1   -1    0    0    0  501  0.00000000000E+00  0.00000000000E+00 -0.14489258449E+04  0.14489258449E+04  0.50400001928E-02 0.  1.
    10030    2    1    2    0    0  0.00000000000E+00  0.00000000000E+00  0.12190056264E+04  0.41168573162E+04  0.39322435638E+04 0.  0.
        3    1    3    3  502    0 -0.49828084388E+02  0.81975118260E+03  0.24797529519E+04  0.26122116209E+04  0.10100000352E+00 0. -1.
       -3    1    3    3    0  502  0.49828084388E+02 -0.81975118260E+03 -0.12607473256E+04  0.15046456953E+04  0.10100000352E+00 0.  1.
</event>
<event>
 5   0  0.2730801E-07  0.3977807E+04  0.7818609E-02  0.8009039E-01
        2   -1    0    0  501    0  0.00000000000E+00  0.00000000000E+00  0.32016941322E+04  0.32016941322E+04  0.25500000920E-02 0.  1.
       -2   -1    0    0    0  501  0.00000000000E+00  0.00000000000E+00 -0.12355139956E+04  0.12355139956E+04  0.25500000920E-02 0. -1.
    10030    2    1    2    0    0  0.00000000000E+00  0.00000000000E+00  0.19661801366E+04  0.44372081278E+04  0.39778073910E+04 0.  0.
        2    1    3    3  502    0  0.10579869269E+03  0.17502653963E+04  0.20301764035E+04  0.26825805766E+04  0.25500000920E-02 0.  1.
       -2    1    3    3    0  502 -0.10579869269E+03 -0.17502653963E+04 -0.63996266864E+02  0.17546275511E+04  0.25500000920E-02 0. -1.
</event>
<event>
 5   0  0.2704088E-07  0.3988921E+04  0.7818609E-02  0.8006785E-01
       -2   -1    0    0    0  501  0.00000000000E+00  0.00000000000E+00  0.29104138351E+04  0.29104138351E+04  0.25500000920E-02 0.  1.
        2   -1    0    0  501    0  0.00000000000E+00  0.00000000000E+00 -0.13667719697E+04  0.13667719697E+04  0.25500000920E-02 0. -1.
    10030    2    1    2    0    0  0.00000000000E+00  0.00000000000E+00  0.15436418654E+04  0.42771858048E+04  0.39889206811E+04 0.  0.
        5    1    3    3  502    0  0.60270989806E+03  0.18451038378E+04  0.28023317161E+03  0.19611782463E+04  0.46999998093E+01 0.  1.
       -5    1    3    3    0  502 -0.60270989806E+03 -0.18451038378E+04  0.12634086938E+04  0.23160075585E+04  0.46999998093E+01 0. -1.
</event>
<event>
 5   0  0.2839279E-07  0.3009189E+04  0.7818609E-02  0.8241112E-01
       -2   -1    0    0    0  501  0.00000000000E+00  0.00000000000E+00  0.10432766517E+04  0.10432766517E+04  0.25500000920E-02 0.  1.
        2   -1    0    0  501    0  0.00000000000E+00  0.00000000000E+00 -0.21698981811E+04  0.21698981811E+04  0.25500000920E-02 0. -1.
    10030    2    1    2    0    0  0.00000000000E+00  0.00000000000E+00 -0.11266215293E+04  0.32131748328E+04  0.30091886673E+04 0.  0.
        3    1    3    3  502    0  0.13615391252E+04  0.60220352061E+03 -0.79570178572E+03  0.16880696703E+04  0.10100000352E+00 0. -1.
       -3    1    3    3    0  502 -0.13615391252E+04 -0.60220352061E+03 -0.33091974362E+03  0.15251051625E+04  0.10100000352E+00 0.  1.
</event>
<event>
 5   0  0.8528625E-08  0.3822777E+04  0.7818609E-02  0.8041285E-01
       -1   -1    0    0    0  501  0.00000000000E+00  0.00000000000E+00  0.13301658352E+04  0.13301658352E+04  0.50400001928E-02 0.  1.
        1   -1    0    0  501    0  0.00000000000E+00  0.00000000000E+00 -0.27465787631E+04  0.27465787631E+04  0.50400001928E-02 0. -1.
    10030    2    1    2    0    0  0.00000000000E+00  0.00000000000E+00 -0.14164129279E+04  0.40767445983E+04  0.38227766005E+04 0.  0.
        2    1    3    3  502    0  0.12423983748E+04  0.84096622748E+03  0.55480046118E+03  0.15995566477E+04  0.25500000920E-02 0.  1.
       -2    1    3    3    0  502 -0.12423983748E+04 -0.84096622748E+03 -0.19712133891E+04  0.24771879506E+04  0.25500000920E-02 0. -1.
</event>
<event>
 5   0  0.2839279E-07  0.3971941E+04  0.7818609E-02  0.8010231E-01
       -2   -1    0    0    0  501  0.00000000000E+00  0.00000000000E+00  0.13841114874E+04  0.13841114874E+04  0.25500000920E-02 0.  1.
        2   -1    0    0  501    0  0.00000000000E+00  0.00000000000E+00 -0.28495385931E+04  0.28495385931E+04  0.25500000920E-02 0. -1.
    10030    2    1    2    0    0  0.00000000000E+00  0.00000000000E+00 -0.14654271057E+04  0.42336500805E+04  0.39719411378E+04 0.  0.
        3    1    3    3  502    0  0.67003371932E+02  0.32152014735E+03  0.13549648264E+04  0.13942002539E+04  0.10100000352E+00 0.  1.
       -3    1    3    3    0  502 -0.67003371932E+02 -0.32152014735E+03 -0.28203919321E+04  0.28394498266E+04  0.10100000352E+00 0. -1.
</event>
<event>
 5   0  0.8528625E-08  0.4059747E+04  0.7818609E-02  0.7992601E-01
       -1   -1    0    0    0  501  0.00000000000E+00  0.00000000000E+00  0.16881844387E+04  0.16881844387E+04  0.50400001928E-02 0. -1.
        1   -1    0    0  501    0  0.00000000000E+00  0.00000000000E+00 -0.24407202578E+04  0.24407202578E+04  0.50400001928E-02 0.  1.
    10030    2    1    2    0    0  0.00000000000E+00  0.00000000000E+00 -0.75253581915E+03  0.41289046965E+04  0.40597467697E+04 0.  0.
        5    1    3    3  502    0 -0.35974595545E+03 -0.91892922966E+03 -0.21803274687E+04  0.23932609641E+04  0.46999998093E+01 0.  1.
       -5    1    3    3    0  502  0.35974595545E+03  0.91892922966E+03  0.14277916495E+04  0.17356437324E+04  0.46999998093E+01 0. -1.
</event>
<event>
 5   0  0.8528625E-08  0.4004212E+04  0.7818609E-02  0.8003697E-01
        1   -1    0    0  501    0  0.00000000000E+00  0.00000000000E+00  0.14506811946E+04  0.14506811946E+04  0.50400001928E-02 0.  1.
       -1   -1    0    0    0  501  0.00000000000E+00  0.00000000000E+00 -0.27631354301E+04  0.27631354301E+04  0.50400001928E-02 0. -1.
    10030    2    1    2    0    0  0.00000000000E+00  0.00000000000E+00 -0.13124542355E+04  0.42138166247E+04  0.40042120855E+04 0.  0.
        3    1    3    3  502    0 -0.12778748520E+04  0.42636269407E+03 -0.22148646499E+04  0.25923685525E+04  0.10100000352E+00 0. -1.
       -3    1    3    3    0  502  0.12778748520E+04 -0.42636269407E+03  0.90241041443E+03  0.16214480721E+04  0.10100000352E+00 0.  1.
</event>
<event>
 5   0  0.8583262E-08  0.3934247E+04  0.7818609E-02  0.8017944E-01
        1   -1    0    0  501    0  0.00000000000E+00  0.00000000000E+00  0.23240062610E+04  0.23240062610E+04  0.50400001928E-02 0.  1.
       -1   -1    0    0    0  501  0.00000000000E+00  0.00000000000E+00 -0.16650445201E+04  0.16650445201E+04  0.50400001928E-02 0. -1.
    10030    2    1    2    0    0  0.00000000000E+00  0.00000000000E+00  0.65896174092E+03  0.39890507812E+04  0.39342465046E+04 0.  0.
        1    1    3    3  502    0 -0.15235078889E+04  0.12167266520E+04  0.64936712933E+02  0.19508246487E+04  0.50400001928E-02 0. -1.
       -1    1    3    3    0  502  0.15235078889E+04 -0.12167266520E+04  0.59402502799E+03  0.20382261325E+04  0.50400001928E-02 0.  1.
</event>
<event>
 5   0  0.2666978E-07  0.3917420E+04  0.7818609E-02  0.8021416E-01
       -2   -1    0    0    0  501  0.00000000000E+00  0.00000000000E+00  0.16767436922E+04  0.16767436922E+04  0.25500000920E-02 0.  1.
        2   -1    0    0  501    0  0.00000000000E+00  0.00000000000E+00 -0.22880923958E+04  0.22880923958E+04  0.25500000920E-02 0. -1.
    10030    2    1    2    0    0  0.00000000000E+00  0.00000000000E+00 -0.61134870364E+03  0.39648360880E+04  0.39174198099E+04 0.  0.
        4    1    3    3  502    0  0.12561841655E+04  0.43602840628E+03 -0.17612837431E+04  0.22068623576E+04  0.12699999809E+01 0. -1.
       -4    1    3    3    0  502 -0.12561841655E+04 -0.43602840628E+03  0.11499350395E+04  0.17579737304E+04  0.12699999809E+01 0.  1.
</event>
<event>
 5   0  0.8528625E-08  0.4008861E+04  0.7818609E-02  0.8002761E-01
       -1   -1    0    0    0  501  0.00000000000E+00  0.00000000000E+00  0.28417606930E+04  0.28417606930E+04  0.50400001928E-02 0.  1.
        1   -1    0    0  501    0  0.00000000000E+00  0.00000000000E+00 -0.14138209862E+04  0.14138209863E+04  0.50400001928E-02 0. -1.
    10030    2    1    2    0    0  0.00000000000E+00  0.00000000000E+00  0.14279397067E+04  0.42555816792E+04  0.40088606390E+04 0.  0.
        4    1    3    3  502    0 -0.44762926524E+03 -0.19469054940E+04  0.88816119467E+03  0.21862398958E+04  0.12699999809E+01 0.  1.
       -4    1    3    3    0  502  0.44762926524E+03  0.19469054940E+04  0.53977851206E+03  0.20693417834E+04  0.12699999809E+01 0. -1.
</event>
<event>
 5   0  0.2704088E-07  0.4042859E+04  0.7818609E-02  0.7995956E-01
        2   -1    0    0  501    0  0.00000000000E+00  0.00000000000E+00  0.15547807324E+04  0.15547807324E+04  0.25500000920E-02 0. -1.
       -2   -1    0    0    0  501  0.00000000000E+00  0.00000000000E+00 -0.26281377040E+04  0.26281377040E+04  0.25500000920E-02 0.  1.
    10030    2    1    2    0    0  0.00000000000E+00  0.00000000000E+00 -0.10733569716E+04  0.41829184364E+04  0.40428593170E+04 0.  0.
        5    1    3    3  502    0  0.37961292368E+03  0.12980458721E+04  0.10177428111E+04  0.16925872437E+04  0.46999998093E+01 0. -1.
       -5    1    3    3    0  502 -0.37961292368E+03 -0.12980458721E+04 -0.20910997827E+04  0.24903311927E+04  0.46999998093E+01 0.  1.
</event>
<event>
 5   0  0.8528625E-08  0.3935034E+04  0.7818609E-02  0.8017782E-01
       -1   -1    0    0    0  501  0.00000000000E+00  0.00000000000E+00  0.13433805950E+04  0.13433805950E+04  0.50400001928E-02 0.  1.
        1   -1    0    0  501    0  0.00000000000E+00  0.00000000000E+00 -0.28816278803E+04  0.28816278803E+04  0.50400001928E-02 0. -1.
    10030    2    1    2    0    0  0.00000000000E+00  0.00000000000E+00 -0.15382472853E+04  0.42250084752E+04  0.39350339141E+04 0.  0.
        5    1    3    3  502    0 -0.18768056187E+04  0.51359991041E+03 -0.10820020760E+04  0.22264174767E+04  0.46999998093E+01 0. -1.
       -5    1    3    3    0  502  0.18768056187E+04 -0.51359991041E+03 -0.45624520928E+03  0.19985909985E+04  0.46999998093E+01 0.  1.
</event>
<event>
 5   0  0.2730801E-07  0.3923770E+04  0.7818609E-02  0.8020104E-01
       -2   -1    0    0    0  501  0.00000000000E+00  0.00000000000E+00  0.17308371558E+04  0.17308371558E+04  0.25500000920E-02 0. -1.
        2   -1    0    0  501    0  0.00000000000E+00  0.00000000000E+00 -0.22237746673E+04  0.22237746673E+04  0.25500000920E-02 0.  1.
    10030    2    1    2    0    0  0.00000000000E+00  0.00000000000E+00 -0.49293751143E+03  0.39546118231E+04  0.39237695245E+04 0.  0.
        2    1    3    3  502    0 -0.15208223778E+04  0.14126075063E+03 -0.14874623065E+04  0.21319942349E+04  0.25500000920E-02 0.  1.
       -2    1    3    3    0  502  0.15208223778E+04 -0.14126075063E+03  0.99452479505E+03  0.18226175881E+04  0.25500000920E-02 0. -1.
</event>
<event>
 5   0  0.2666978E-07  0.3966196E+04  0.7818609E-02  0.8011401E-01
       -2   -1    0    0    0  501  0.00000000000E+00  0.00000000000E+00  0.18912355990E+04  0.18912355990E+04  0.25500000920E-02 0.  1.
        2   -1    0    0  501    0  0.00000000000E+00  0.00000000000E+00 -0.20794223381E+04  0.20794223381E+04  0.25500000920E-02 0. -1.
    10030    2    1    2    0    0  0.00000000000E+00  0.00000000000E+00 -0.18818673912E+03  0.39706579371E+04  0.39661959363E+04 0.  0.
        4    1    3    3  502    0 -0.53110822830E+03 -0.99142236180E+03 -0.17292347670E+04  0.20628254269E+04  0.12699999809E+01 0. -1.
       -4    1    3    3    0  502  0.53110822830E+03  0.99142236180E+03  0.15410480279E+04  0.19078325102E+04  0.12699999809E+01 0.  1.
</event>
<event>
 5   0  0.2730801E-07  0.3988954E+04  0.7818609E-02  0.8006779E-01
        2   -1    0    0  501    0  0.00000000000E+00  0.00000000000E+00  0.24152502019E+04  0.24152502019E+04  0.25500000920E-02 0. -1.
       -2   -1    0    0    0  501  0.00000000000E+00  0.00000000000E+00 -0.16470088751E+04  0.16470088751E+04  0.25500000920E-02 0.  1.
    10030    2    1    2    0    0  0.00000000000E+00  0.00000000000E+00  0.76824132678E+03  0.40622590769E+04  0.39889540072E+04 0.  0.
        2    1    3    3  502    0 -0.16967541140E+03 -0.13223749761E+04  0.18947803165E+04  0.23168206168E+04  0.25500000920E-02 0. -1.
       -2    1    3    3    0  502  0.16967541140E+03  0.13223749761E+04 -0.11265389898E+04  0.17454384601E+04  0.25500000920E-02 0.  1.
</event>
<event>
 5   0  0.8528625E-08  0.3979894E+04  0.7818609E-02  0.8008615E-01
        1   -1    0    0  501    0  0.00000000000E+00  0.00000000000E+00  0.13400386367E+04  0.13400386367E+04  0.50400001928E-02 0. -1.
       -1   -1    0    0    0  501  0.00000000000E+00  0.00000000000E+00 -0.29550554028E+04  0.29550554028E+04  0.50400001928E-02 0.  1.
    10030    2    1    2    0    0  0.00000000000E+00  0.00000000000E+00 -0.16150167660E+04  0.42950940395E+04  0.39798936736E+04 0.  0.
        4    1    3    3  502    0 -0.81702073388E+03  0.11992015693E+04 -0.22770734094E+04  0.27001244801E+04  0.12699999809E+01 0.  1.
       -4    1    3    3    0  502  0.81702073388E+03 -0.11992015693E+04  0.66205664342E+03  0.15949695594E+04  0.12699999809E+01 0. -1.
</event>
<event>
 5   0  0.2704088E-07  0.4064696E+04  0.7818609E-02  0.7991621E-01
        2   -1    0    0  501    0  0.00000000000E+00  0.00000000000E+00  0.23083036980E+04  0.23083036980E+04  0.25500000920E-02 0. -1.
       -2   -1    0    0    0  501  0.00000000000E+00  0.00000000000E+00 -0.17893824133E+04  0.17893824133E+04  0.25500000920E-02 0.  1.
    10030    2    1    2    0    0  0.00000000000E+00  0.00000000000E+00  0.51892128471E+03  0.40976861112E+04  0.40646958270E+04 0.  0.
        5    1    3    3  502    0 -0.72581195755E+03  0.63123792377E+03  0.20642849298E+04  0.22774017379E+04  0.46999998093E+01 0. -1.
       -5    1    3    3    0  502  0.72581195755E+03 -0.63123792377E+03 -0.15453636451E+04  0.18202843733E+04  0.46999998093E+01 0.  1.
</event>
<event>
 5   0  0.8528625E-08  0.4089348E+04  0.7818609E-02  0.7986761E-01
       -1   -1    0    0    0  501  0.00000000000E+00  0.00000000000E+00  0.15529714997E+04  0.15529714997E+04  0.50400001928E-02 0.  1.
        1   -1    0    0  501    0  0.00000000000E+00  0.00000000000E+00 -0.26920597947E+04  0.26920597947E+04  0.50400001928E-02 0. -1.
    10030    2    1    2    0    0  0.00000000000E+00  0.00000000000E+00 -0.11390882949E+04  0.42450312944E+04  0.40893481812E+04 0.  0.
        2    1    3    3  502    0  0.14690721732E+02  0.43742331165E+03 -0.26428639305E+04  0.26788588477E+04  0.25500000920E-02 0. -1.
       -2    1    3    3    0  502 -0.14690721732E+02 -0.43742331165E+03  0.15037756355E+04  0.15661724467E+04  0.25500000920E-02 0.  1.
</event>
<event>
 5   0  0.8583262E-08  0.3778574E+04  0.7818609E-02  0.8050768E-01
        1   -1    0    0  501    0  0.00000000000E+00  0.00000000000E+00  0.28185401912E+04  0.28185401912E+04  0.50400001928E-02 0. -1.
       -1   -1    0    0    0  501  0.00000000000E+00  0.00000000000E+00 -0.12664022935E+04  0.12664022936E+04  0.50400001928E-02 0.  1.
    10030    2    1    2    0    0  0.00000000000E+00  0.00000000000E+00  0.15521378976E+04  0.40849424847E+04  0.37785742087E+04 0.  0.
        1    1    3    3  502    0  0.79389238518E+03 -0.13981891169E+04 -0.29644117315E+03  0.16349542181E+04  0.50400001928E-02 0.  1.
       -1    1    3    3    0  502 -0.79389238518E+03  0.13981891169E+04  0.18485790708E+04  0.24499882667E+04  0.50400001928E-02 0. -1.
</event>
<event>
 5   0  0.8528625E-08  0.4022317E+04  0.7818609E-02  0.8000060E-01
       -1   -1    0    0    0  501  0.00000000000E+00  0.00000000000E+00  0.18791007069E+04  0.18791007069E+04  0.50400001928E-02 0. -1.
        1   -1    0    0  501    0  0.00000000000E+00  0.00000000000E+00 -0.21524972124E+04  0.21524972124E+04  0.50400001928E-02 0.  1.
    10030    2    1    2    0    0  0.00000000000E+00  0.00000000000E+00 -0.27339650558E+03  0.40315979193E+04  0.40223172592E+04 0.  0.
        5    1    3    3  502    0 -0.12990634973E+04  0.29208262848E+03 -0.16474445877E+04  0.21182478588E+04  0.46999998093E+01 0.  1.
       -5    1    3    3    0  502  0.12990634973E+04 -0.29208262848E+03  0.13740480822E+04  0.19133500605E+04  0.46999998093E+01 0. -1.
</event>
<event>
 5   0  0.8528625E-08  0.3726609E+04  0.7818609E-02  0.8062090E-01
        1   -1    0    0  501    0  0.00000000000E+00  0.00000000000E+00  0.19536796369E+04  0.19536796369E+04  0.50400001928E-02 0. -1.
       -1   -1    0    0    0  501  0.00000000000E+00  0.00000000000E+00 -0.17771099742E+04  0.17771099742E+04  0.50400001928E-02 0.  1.
    10030    2    1    2    0    0  0.00000000000E+00  0.00000000000E+00  0.17656966273E+03  0.37307896112E+04  0.37266089514E+04 0.  0.
        4    1    3    3  502    0 -0.11849850427E+03 -0.49432193651E+03 -0.17063516244E+04  0.17804588036E+04  0.12699999809E+01 0.  1.
       -4    1    3    3    0  502  0.11849850427E+03  0.49432193651E+03  0.18829212871E+04  0.19503308075E+04  0.12699999809E+01 0. -1.
</event>
<event>
 5   0  0.2661693E-07  0.3960487E+04  0.7818609E-02  0.8012565E-01
       -2   -1    0    0    0  501  0.00000000000E+00  0.00000000000E+00  0.12861690869E+04  0.12861690869E+04  0.25500000920E-02 0.  1.
        2   -1    0    0  501    0  0.00000000000E+00  0.00000000000E+00 -0.30488708417E+04  0.30488708417E+04  0.25500000920E-02 0. -1.
    10030    2    1    2    0    0  0.00000000000E+00  0.00000000000E+00 -0.17627017548E+04  0.43350399286E+04  0.39604865492E+04 0.  0.
        1    1    3    3  502    0  0.16759303950E+04 -0.87941201563E+03 -0.15188914739E+04  0.24267549302E+04  0.50400001928E-02 0.  1.
       -1    1    3    3    0  502 -0.16759303950E+04  0.87941201563E+03 -0.24381028091E+03  0.19082849984E+04  0.50400001928E-02 0. -1.
</event>
<event>
 5   0  0.8583262E-08  0.3991766E+04  0.7818609E-02  0.8006210E-01
        1   -1    0    0  501    0  0.00000000000E+00  0.00000000000E+00  0.22824985361E+04  0.22824985361E+04  0.50400001928E-02 0. -1.
       -1   -1    0    0    0  501  0.00000000000E+00  0.00000000000E+00 -0.17452576841E+04  0.17452576841E+04  0.50400001928E-02 0.  1.
    10030    2    1    2    0    0  0.00000000000E+00  0.00000000000E+00  0.53724085203E+03  0.40277562202E+04  0.39917655788E+04 0.  0.
        1    1    3    3  502    0 -0.18794170691E+03  0.12041456038E+04  0.18634596643E+04  0.22266051830E+04  0.50400001928E-02 0. -1.
       -1    1    3    3    0  502  0.18794170691E+03 -0.12041456038E+04 -0.13262188123E+04  0.18011510371E+04  0.50400001928E-02 0.  1.
</event>
<event>
 5   0  0.2839279E-07  0.3949488E+04  0.7818609E-02  0.8014815E-01
        2   -1    0    0  501    0  0.00000000000E+00  0.00000000000E+00  0.18007923637E+04  0.18007923637E+04  0.25500000920E-02 0. -1.
       -2   -1    0    0    0  501  0.00000000000E+00  0.00000000000E+00 -0.21654984838E+04  0.21654984838E+04  0.25500000920E-02 0.  1.
    10030    2    1    2    0    0  0.00000000000E+00  0.00000000000E+00 -0.36470612009E+03  0.39662908475E+04  0.39494876291E+04 0.  0.
        3    1    3    3  502    0  0.42908026794E+03 -0.17339206110E+04 -0.10279702976E+04  0.20609011390E+04  0.10100000352E+00 0.  1.
       -3    1    3    3    0  502 -0.42908026794E+03  0.17339206110E+04  0.66326417754E+03  0.19053897085E+04  0.10100000352E+00 0. -1.
</event>
<event>
 5   0  0.2661693E-07  0.3681037E+04  0.7818609E-02  0.8072177E-01
       -2   -1    0    0    0  501  0.00000000000E+00  0.00000000000E+00  0.11941313639E+04  0.11941313639E+04  0.25500000920E-02 0.  1.
        2   -1    0    0  501    0  0.00000000000E+00  0.00000000000E+00 -0.28367972214E+04  0.28367972214E+04  0.25500000920E-02 0. -1.
    10030    2    1    2    0    0  0.00000000000E+00  0.00000000000E+00 -0.16426658575E+04  0.40309285853E+04  0.36810371012E+04 0.  0.
        1    1    3    3  502    0 -0.16419879767E+04 -0.80625957329E+03 -0.59871246136E+03  0.19247430027E+04  0.50400001928E-02 0.  1.
       -1    1    3    3    0  502  0.16419879767E+04  0.80625957329E+03 -0.10439533961E+04  0.21061855826E+04  0.50400001928E-02 0. -1.
</event>
<event>
 5   0  0.2661693E-07  0.3849505E+04  0.7818609E-02  0.8035614E-01
        2   -1    0    0  501    0  0.00000000000E+00  0.00000000000E+00  0.27861580097E+04  0.27861580097E+04  0.25500000920E-02 0. -1.
       -2   -1    0    0    0  501  0.00000000000E+00  0.00000000000E+00 -0.13296703951E+04  0.13296703951E+04  0.25500000920E-02 0.  1.
    10030    2    1    2    0    0  0.00000000000E+00  0.00000000000E+00  0.14564876146E+04  0.41158284048E+04  0.38495048105E+04 0.  0.
        1    1    3    3  502    0 -0.41642544222E+03 -0.65563086365E+03  0.26111642642E+04  0.27242321474E+04  0.50400001928E-02 0. -1.
       -1    1    3    3    0  502  0.41642544222E+03  0.65563086365E+03 -0.11546766496E+04  0.13915962574E+04  0.50400001928E-02 0.  1.
</event>
<event>
 5   0  0.2704088E-07  0.3944824E+04  0.7818609E-02  0.8015771E-01
        2   -1    0    0  501    0  0.00000000000E+00  0.00000000000E+00  0.28563601448E+04  0.28563601448E+04  0.25500000920E-02 0. -1.
       -2   -1    0    0    0  501  0.00000000000E+00  0.00000000000E+00 -0.13620160295E+04  0.13620160295E+04  0.25500000920E-02 0.  1.
    10030    2    1    2    0    0  0.00000000000E+00  0.00000000000E+00  0.14943441153E+04  0.42183761744E+04  0.39448235973E+04 0.  0.
        5    1    3    3  502    0 -0.60322645776E+02  0.11373823472E+04  0.24691519922E+04  0.27191930928E+04  0.46999998093E+01 0. -1.
       -5    1    3    3    0  502  0.60322645776E+02 -0.11373823472E+04 -0.97480787689E+03  0.14991830816E+04  0.46999998093E+01 0.  1.
</event>
<event>
 5   0  0.8528625E-08  0.3963375E+04  0.7818609E-02  0.8011976E-01
       -1   -1    0    0    0  501  0.00000000000E+00  0.00000000000E+00  0.17239238853E+04  0.17239238853E+04  0.50400001928E-02 0.  1.
        1   -1    0    0  501    0  0.00000000000E+00  0.00000000000E+00 -0.22779926774E+04  0.22779926775E+04  0.50400001928E-02 0. -1.
    10030    2    1    2    0    0  0.00000000000E+00  0.00000000000E+00 -0.55406879220E+03  0.40019165627E+04  0.39633753227E+04 0.  0.
        5    1    3    3  502    0  0.81802079584E+03 -0.86876621604E+02  0.15433724047E+04  0.17489213931E+04  0.46999998093E+01 0.  1.
       -5    1    3    3    0  502 -0.81802079584E+03  0.86876621604E+02 -0.20974411969E+04  0.22529951696E+04  0.46999998093E+01 0. -1.
</event>
<event>
 5   0  0.2839279E-07  0.3448018E+04  0.7818609E-02  0.8126221E-01
        2   -1    0    0  501    0  0.00000000000E+00  0.00000000000E+00  0.20185968842E+04  0.20185968842E+04  0.25500000920E-02 0. -1.
       -2   -1    0    0    0  501  0.00000000000E+00  0.00000000000E+00 -0.14724120225E+04  0.14724120225E+04  0.25500000920E-02 0.  1.
    10030    2    1    2    0    0  0.00000000000E+00  0.00000000000E+00  0.54618486175E+03  0.34910089067E+04  0.34480175875E+04 0.  0.
        3    1    3    3  502    0  0.11564159252E+02 -0.60360236183E+03 -0.13618910150E+04  0.14897035571E+04  0.10100000352E+00 0.  1.
       -3    1    3    3    0  502 -0.11564159252E+02  0.60360236183E+03  0.19080758767E+04  0.20013053497E+04  0.10100000352E+00 0. -1.
</event>
<event>
 5   0  0.8528625E-08  0.4016958E+04  0.7818609E-02  0.8001134E-01
       -1   -1    0    0    0  501  0.00000000000E+00  0.00000000000E+00  0.15864590356E+04  0.15864590356E+04  0.50400001928E-02 0. -1.
        1   -1    0    0  501    0  0.00000000000E+00  0.00000000000E+00 -0.25427620498E+04  0.25427620498E+04  0.50400001928E-02 0.  1.
    10030    2    1    2    0    0  0.00000000000E+00  0.00000000000E+00 -0.95630301414E+03  0.41292210854E+04  0.40169579681E+04 0.  0.
        2    1    3    3  502    0  0.47370673038E+03 -0.10564350732E+04 -0.21652177525E+04  0.24553250388E+04  0.25500000920E-02 0.  1.
       -2    1    3    3    0  502 -0.47370673038E+03  0.10564350732E+04  0.12089147384E+04  0.16738960466E+04  0.25500000920E-02 0. -1.
</event>
<event>
 5   0  0.8583262E-08  0.3778306E+04  0.7818609E-02  0.8050826E-01
        1   -1    0    0  501    0  0.00000000000E+00  0.00000000000E+00  0.19319514584E+04  0.19319514584E+04  0.50400001928E-02 0. -1.
       -1   -1    0    0    0  501  0.00000000000E+00  0.00000000000E+00 -0.18473025305E+04  0.18473025305E+04  0.50400001928E-02 0.  1.
    10030    2    1    2    0    0  0.00000000000E+00  0.00000000000E+00  0.84648927895E+02  0.37792539889E+04  0.37783058732E+04 0.  0.
        1    1    3    3  502    0 -0.17762869909E+04 -0.64138374370E+03 -0.59601800178E+01  0.18885454997E+04  0.50400001928E-02 0. -1.
       -1    1    3    3    0  502  0.17762869909E+04  0.64138374370E+03  0.90609107913E+02  0.18907084892E+04  0.50400001928E-02 0.  1.
</event>
<event>
 5   0  0.8528625E-08  0.2908621E+04  0.7818609E-02  0.8270317E-01
        1   -1    0    0  501    0  0.00000000000E+00  0.00000000000E+00  0.23269072248E+04  0.23269072249E+04  0.50400001928E-02 0. -1.
       -1   -1    0    0    0  501  0.00000000000E+00  0.00000000000E+00 -0.90894005768E+03  0.90894005769E+03  0.50400001928E-02 0.  1.
    10030    2    1    2    0    0  0.00000000000E+00  0.00000000000E+00  0.14179671672E+04  0.32358472825E+04  0.29086211078E+04 0.  0.
        3    1    3    3  502    0 -0.11712257944E+04 -0.85383064780E+03  0.57630847442E+03  0.15597846340E+04  0.10100000352E+00 0.  1.
       -3    1    3    3    0  502  0.11712257944E+04  0.85383064780E+03  0.84165869274E+03  0.16760626485E+04  0.10100000352E+00 0. -1.
</event>
<event>
 5   0  0.8528625E-08  0.4076781E+04  0.7818609E-02  0.7989234E-01
        1   -1    0    0  501    0  0.00000000000E+00  0.00000000000E+00  0.12509838992E+04  0.12509838992E+04  0.50400001928E-02 0.  1.
       -1   -1    0    0    0  501  0.00000000000E+00  0.00000000000E+00 -0.33214146654E+04  0.33214146654E+04  0.50400001928E-02 0. -1.
    10030    2    1    2    0    0  0.00000000000E+00  0.00000000000E+00 -0.20704307663E+04  0.45723985646E+04  0.40767812151E+04 0.  0.
        3    1    3    3  502    0 -0.59499428049E+03  0.13054895038E+04  0.58882340814E+03  0.15508172215E+04  0.10100000352E+00 0.  1.
       -3    1    3    3    0  502  0.59499428049E+03 -0.13054895038E+04 -0.26592541744E+04  0.30215813431E+04  0.10100000352E+00 0. -1.
</event>
<event>
 5   0  0.2730801E-07  0.3929496E+04  0.7818609E-02  0.8018922E-01
       -2   -1    0    0    0  501  0.00000000000E+00  0.00000000000E+00  0.14949862874E+04  0.14949862874E+04  0.25500000920E-02 0. -1.
        2   -1    0    0  501    0  0.00000000000E+00  0.00000000000E+00 -0.25821205409E+04  0.25821205409E+04  0.25500000920E-02 0.  1.
    10030    2    1    2    0    0  0.00000000000E+00  0.00000000000E+00 -0.10871342535E+04  0.40771068283E+04  0.39294960497E+04 0.  0.
        2    1    3    3  502    0  0.14617847177E+04  0.57395662539E+03  0.68145996052E+03  0.17119078382E+04  0.25500000920E-02 0. -1.
       -2    1    3    3    0  502 -0.14617847177E+04 -0.57395662539E+03 -0.17685942140E+04  0.23651989901E+04  0.25500000920E-02 0.  1.
</event>
<event>
 5   0  0.8528625E-08  0.3989639E+04  0.7818609E-02  0.8006640E-01
        1   -1    0    0  501    0  0.00000000000E+00  0.00000000000E+00  0.19819052787E+04  0.19819052787E+04  0.50400001928E-02 0.  1.
       -1   -1    0    0    0  501  0.00000000000E+00  0.00000000000E+00 -0.20078179040E+04  0.20078179040E+04  0.50400001928E-02 0. -1.
    10030    2    1    2    0    0  0.00000000000E+00  0.00000000000E+00 -0.25912625271E+02  0.39897231827E+04  0.39896390326E+04 0.  0.
        5    1    3    3  502    0  0.84055424808E+03 -0.13251078138E+04 -0.12445831384E+04  0.20028608141E+04  0.46999998093E+01 0. -1.
       -5    1    3    3    0  502 -0.84055424808E+03  0.13251078138E+04  0.12186705131E+04  0.19868623686E+04  0.46999998093E+01 0.  1.
</event>
<event>
 5   0  0.2704088E-07  0.3976530E+04  0.7818609E-02  0.8009298E-01
        2   -1    0    0  501    0  0.00000000000E+00  0.00000000000E+00  0.29838421953E+04  0.29838421953E+04  0.25500000920E-02 0. -1.
       -2   -1    0    0    0  501  0.00000000000E+00  0.00000000000E+00 -0.13248682060E+04  0.13248682060E+04  0.25500000920E-02 0.  1.
    10030    2    1    2    0    0  0.00000000000E+00  0.00000000000E+00  0.16589739893E+04  0.43087104014E+04  0.39765299729E+04 0.  0.
        5    1    3    3  502    0 -0.33699351936E+02 -0.14082610176E+04 -0.69087970253E+03  0.15689715082E+04  0.46999998093E+01 0.  1.
       -5    1    3    3    0  502  0.33699351936E+02  0.14082610176E+04  0.23498536918E+04  0.27397388932E+04  0.46999998093E+01 0. -1.
</event>
<event>
 5   0  0.8528625E-08  0.3730156E+04  0.7818609E-02  0.8061312E-01
        1   -1    0    0  501    0  0.00000000000E+00  0.00000000000E+00  0.13501325011E+04  0.13501325011E+04  0.50400001928E-02 0.  1.
       -1   -1    0    0    0  501  0.00000000000E+00  0.00000000000E+00 -0.25764252043E+04  0.25764252043E+04  0.50400001928E-02 0. -1.
    10030    2    1    2    0    0  0.00000000000E+00  0.00000000000E+00 -0.12262927032E+04  0.39265577055E+04  0.37301557099E+04 0.  0.
        2    1    3    3  502    0 -0.81170668232E+02  0.49558697505E+03  0.12776239056E+04  0.13727774661E+04  0.25500000920E-02 0.  1.
       -2    1    3    3    0  502  0.81170668232E+02 -0.49558697505E+03 -0.25039166088E+04  0.25537802394E+04  0.25500000920E-02 0. -1.
</event>
<event>
 5   0  0.8528625E-08  0.3849286E+04  0.7818609E-02  0.8035660E-01
       -1   -1    0    0    0  501  0.00000000000E+00  0.00000000000E+00  0.15095247560E+04  0.15095247560E+04  0.50400001928E-02 0.  1.
        1   -1    0    0  501    0  0.00000000000E+00  0.00000000000E+00 -0.24539181927E+04  0.24539181927E+04  0.50400001928E-02 0. -1.
    10030    2    1    2    0    0  0.00000000000E+00  0.00000000000E+00 -0.94439343672E+03  0.39634429486E+04  0.38492857836E+04 0.  0.
        2    1    3    3  502    0  0.11095038643E+04 -0.13590176474E+04  0.34267914062E+03  0.17875560926E+04  0.25500000920E-02 0.  1.
       -2    1    3    3    0  502 -0.11095038643E+04  0.13590176474E+04 -0.12870725773E+04  0.21758868560E+04  0.25500000920E-02 0. -1.
</event>
<event>
 5   0  0.8583262E-08  0.3938265E+04  0.7818609E-02  0.8017117E-01
       -1   -1    0    0    0  501  0.00000000000E+00  0.00000000000E+00  0.19257937239E+04  0.19257937239E+04  0.50400001928E-02 0.  1.
        1   -1    0    0  501    0  0.00000000000E+00  0.00000000000E+00 -0.20134469163E+04  0.20134469163E+04  0.50400001928E-02 0. -1.
    10030    2    1    2    0    0  0.00000000000E+00  0.00000000000E+00 -0.87653192379E+02  0.39392406402E+04  0.39382653211E+04 0.  0.
        1    1    3    3  502    0  0.63063574510E+03 -0.72836625555E+02 -0.19082830727E+04  0.20111068849E+04  0.50400001928E-02 0. -1.
       -1    1    3    3    0  502 -0.63063574510E+03  0.72836625555E+02  0.18206298803E+04  0.19281337553E+04  0.50400001928E-02 0.  1.
</event>
<event>
 5   0  0.8528625E-08  0.4019313E+04  0.7818609E-02  0.8000662E-01
       -1   -1    0    0    0  501  0.00000000000E+00  0.00000000000E+00  0.17385358680E+04  0.17385358680E+04  0.50400001928E-02 0.  1.
        1   -1    0    0  501    0  0.00000000000E+00  0.00000000000E+00 -0.23230575405E+04  0.23230575405E+04  0.50400001928E-02 0. -1.
    10030    2    1    2    0    0  0.00000000000E+00  0.00000000000E+00 -0.58452167249E+03  0.40615934085E+04  0.40193128058E+04 0.  0.
        2    1    3    3  502    0  0.39241825006E+03 -0.17904420166E+04 -0.11249705829E+04  0.21506356061E+04  0.25500000920E-02 0. -1.
       -2    1    3    3    0  502 -0.39241825006E+03  0.17904420166E+04  0.54044891038E+03  0.19109578024E+04  0.25500000920E-02 0.  1.
</event>
<event>
 5   0  0.2661693E-07  0.3699259E+04  0.7818609E-02  0.8068126E-01
        2   -1    0    0  501    0  0.00000000000E+00  0.00000000000E+00  0.23253414912E+04  0.23253414912E+04  0.25500000920E-02 0. -1.
       -2   -1    0    0    0  501  0.00000000000E+00  0.00000000000E+00 -0.14712377503E+04  0.14712377503E+04  0.25500000920E-02 0.  1.
    10030    2    1    2    0    0  0.00000000000E+00  0.00000000000E+00  0.85410374086E+03  0.37965792415E+04  0.36992594849E+04 0.  0.
        1    1    3    3  502    0 -0.78920948221E+02  0.79177488831E+03 -0.12866039696E+04  0.15127741948E+04  0.50400001928E-02 0.  1.
       -1    1    3    3    0  502  0.78920948221E+02 -0.79177488831E+03  0.21407077104E+04  0.22838050467E+04  0.50400001928E-02 0. -1.
</event>
<event>
 5   0  0.2661693E-07  0.4021497E+04  0.7818609E-02  0.8000224E-01
       -2   -1    0    0    0  501  0.00000000000E+00  0.00000000000E+00  0.17690838939E+04  0.17690838939E+04  0.25500000920E-02 0.  1.
        2   -1    0    0  501    0  0.00000000000E+00  0.00000000000E+00 -0.22854258841E+04  0.22854258841E+04  0.25500000920E-02 0. -1.
    10030    2    1    2    0    0  0.00000000000E+00  0.00000000000E+00 -0.51634199021E+03  0.40545097781E+04  0.40214972945E+04 0.  0.
        1    1    3    3  502    0  0.92760181046E+03 -0.10290674931E+04  0.12110787738E+04  0.18401458694E+04  0.50400001928E-02 0.  1.
       -1    1    3    3    0  502 -0.92760181046E+03  0.10290674931E+04 -0.17274207640E+04  0.22143639087E+04  0.50400001928E-02 0. -1.
</event>
<event>
 5   0  0.8528625E-08  0.3705065E+04  0.7818609E-02  0.8066840E-01
        1   -1    0    0  501    0  0.00000000000E+00  0.00000000000E+00  0.14023446408E+04  0.14023446408E+04  0.50400001928E-02 0. -1.
       -1   -1    0    0    0  501  0.00000000000E+00  0.00000000000E+00 -0.24472413699E+04  0.24472413699E+04  0.50400001928E-02 0.  1.
    10030    2    1    2    0    0  0.00000000000E+00  0.00000000000E+00 -0.10448967291E+04  0.38495860107E+04  0.37050645445E+04 0.  0.
        4    1    3    3  502    0  0.16048686351E+04 -0.66898909108E+03 -0.11867014302E+04  0.21050918358E+04  0.12699999809E+01 0.  1.
       -4    1    3    3    0  502 -0.16048686351E+04  0.66898909108E+03  0.14180470106E+03  0.17444941748E+04  0.12699999809E+01 0. -1.
</event>
<event>
 5   0  0.2704088E-07  0.4020231E+04  0.7818609E-02  0.8000478E-01
       -2   -1    0    0    0  501  0.00000000000E+00  0.00000000000E+00  0.16911631196E+04  0.16911631196E+04  0.25500000920E-02 0.  1.
        2   -1    0    0  501    0  0.00000000000E+00  0.00000000000E+00 -0.23892218536E+04  0.23892218536E+04  0.25500000920E-02 0. -1.
    10030    2    1    2    0    0  0.00000000000E+00  0.00000000000E+00 -0.69805873402E+03  0.40803849732E+04  0.40202307811E+04 0.  0.
        5    1    3    3  502    0 -0.12431489866E+03  0.48170823069E+03  0.16276860070E+04  0.17020225736E+04  0.46999998093E+01 0.  1.
       -5    1    3    3    0  502  0.12431489866E+03 -0.48170823069E+03 -0.23257447410E+04  0.23783623996E+04  0.46999998093E+01 0. -1.
</event>
<event>
 5   0  0.8528625E-08  0.3792939E+04  0.7818609E-02  0.8047672E-01
        1   -1    0    0  501    0  0.00000000000E+00  0.00000000000E+00  0.11943488506E+04  0.11943488506E+04  0.50400001928E-02 0.  1.
       -1   -1    0    0    0  501  0.00000000000E+00  0.00000000000E+00 -0.30113445014E+04  0.30113445015E+04  0.50400001928E-02 0. -1.
    10030    2    1    2    0    0  0.00000000000E+00  0.00000000000E+00 -0.18169956508E+04  0.42056933521E+04  0.37929386202E+04 0.  0.
        5    1    3    3  502    0  0.10284504166E+04 -0.12686754899E+04 -0.19774193740E+04  0.25646553821E+04  0.46999998093E+01 0. -1.
       -5    1    3    3    0  502 -0.10284504166E+04  0.12686754899E+04  0.16042372318E+03  0.16410379700E+04  0.46999998093E+01 0.  1.
</event>
<event>
 5   0  0.8528625E-08  0.3985626E+04  0.7818609E-02  0.8007452E-01
       -1   -1    0    0    0  501  0.00000000000E+00  0.00000000000E+00  0.30663715635E+04  0.30663715635E+04  0.50400001928E-02 0. -1.
        1   -1    0    0  501    0  0.00000000000E+00  0.00000000000E+00 -0.12951152379E+04  0.12951152379E+04  0.50400001928E-02 0.  1.
    10030    2    1    2    0    0  0.00000000000E+00  0.00000000000E+00  0.17712563256E+04  0.43614868015E+04  0.39856264437E+04 0.  0.
        2    1    3    3  502    0  0.97593810027E+03 -0.17366125421E+04  0.82542911011E+03  0.21562957851E+04  0.25500000920E-02 0.  1.
       -2    1    3    3    0  502 -0.97593810027E+03  0.17366125421E+04  0.94582721548E+03  0.22051910164E+04  0.25500000920E-02 0. -1.
</event>
<event>
 5   0  0.2704088E-07  0.4012577E+04  0.7818609E-02  0.8002014E-01
        2   -1    0    0  501    0  0.00000000000E+00  0.00000000000E+00  0.18005747676E+04  0.18005747676E+04  0.25500000920E-02 0. -1.
       -2   -1    0    0    0  501  0.00000000000E+00  0.00000000000E+00 -0.22355046993E+04  0.22355046993E+04  0.25500000920E-02 0.  1.
    10030    2    1    2    0    0  0.00000000000E+00  0.00000000000E+00 -0.43492993172E+03  0.40360794669E+04  0.40125769049E+04 0.  0.
        5    1    3    3  502    0 -0.13310690877E+04 -0.64103457041E+03 -0.15828030636E+04  0.21651692462E+04  0.46999998093E+01 0.  1.
       -5    1    3    3    0  502  0.13310690877E+04  0.64103457041E+03  0.11478731319E+04  0.18709102206E+04  0.46999998093E+01 0. -1.
</event>
<event>
 5   0  0.2661693E-07  0.3998018E+04  0.7818609E-02  0.8004947E-01
        2   -1    0    0  501    0  0.00000000000E+00  0.00000000000E+00  0.16745879570E+04  0.16745879570E+04  0.25500000920E-02 0.  1.
       -2   -1    0    0    0  501  0.00000000000E+00  0.00000000000E+00 -0.23862807137E+04  0.23862807137E+04  0.25500000920E-02 0. -1.
    10030    2    1    2    0    0  0.00000000000E+00  0.00000000000E+00 -0.71169275670E+03  0.40608686706E+04  0.39980179815E+04 0.  0.
        1    1    3    3  502    0 -0.19042982738E+04 -0.14011573074E+03 -0.95679986944E+03  0.21357552116E+04  0.50400001928E-02 0. -1.
       -1    1    3    3    0  502  0.19042982738E+04  0.14011573074E+03  0.24510711274E+03  0.19251134591E+04  0.50400001928E-02 0.  1.
</event>
<event>
 5   0  0.8528625E-08  0.4077738E+04  0.7818609E-02  0.7989045E-01
        1   -1    0    0  501    0  0.00000000000E+00  0.00000000000E+00  0.22689965370E+04  0.22689965370E+04  0.50400001928E-02 0.  1.
       -1   -1    0    0    0  501  0.00000000000E+00  0.00000000000E+00 -0.18320813351E+04  0.18320813351E+04  0.50400001928E-02 0. -1.
    10030    2    1    2    0    0  0.00000000000E+00  0.00000000000E+00  0.43691520189E+03  0.41010778721E+04  0.40777377085E+04 0.  0.
        4    1    3    3  502    0  0.17131045324E+04 -0.82861595576E+03 -0.51761477593E+03  0.19721202322E+04  0.12699999809E+01 0. -1.
       -4    1    3    3    0  502 -0.17131045324E+04  0.82861595576E+03  0.95452997782E+03  0.21289576399E+04  0.12699999809E+01 0.  1.
</event>
<event>
 5   0  0.8528625E-08  0.3994645E+04  0.7818609E-02  0.8005628E-01
        3   -1    0    0  501    0  0.00000000000E+00  0.00000000000E+00  0.19830391808E+04  0.19830391833E+04  0.10100000352E+00 0. -1.
       -3   -1    0    0    0  501  0.00000000000E+00  0.00000000000E+00 -0.20117087627E+04  0.20117087652E+04  0.10100000352E+00 0.  1.
    10030    2    1    2    0    0  0.00000000000E+00  0.00000000000E+00 -0.28669581912E+02  0.39947479485E+04  0.39946450690E+04 0.  0.
        3    1    3    3  502    0 -0.91016771546E+03 -0.15688384646E+04  0.82213035248E+03  0.19913708156E+04  0.10100000352E+00 0. -1.
       -3    1    3    3    0  502  0.91016771546E+03  0.15688384646E+04 -0.85079993439E+03  0.20033771330E+04  0.10100000352E+00 0.  1.
</event>
<event>
 5   0  0.8528625E-08  0.2919926E+04  0.7818609E-02  0.8266973E-01
        1   -1    0    0  501    0  0.00000000000E+00  0.00000000000E+00  0.11909943574E+04  0.11909943574E+04  0.50400001928E-02 0.  1.
       -1   -1    0    0    0  501  0.00000000000E+00  0.00000000000E+00 -0.17896744797E+04  0.17896744797E+04  0.50400001928E-02 0. -1.
    10030    2    1    2    0    0  0.00000000000E+00  0.00000000000E+00 -0.59868012229E+03  0.29806688370E+04  0.29199261681E+04 0.  0.
        5    1    3    3  502    0 -0.12725101430E+04 -0.65412638504E+03 -0.59573648998E+03  0.15498669127E+04  0.46999998093E+01 0. -1.
       -5    1    3    3    0  502  0.12725101430E+04  0.65412638504E+03 -0.29436323149E+01  0.14308019243E+04  0.46999998093E+01 0.  1.
</event>
<event>
 5   0  0.8528625E-08  0.4042183E+04  0.7818609E-02  0.7996091E-01
       -1   -1    0    0    0  501  0.00000000000E+00  0.00000000000E+00  0.21488515440E+04  0.21488515440E+04  0.50400001928E-02 0. -1.
        1   -1    0    0  501    0  0.00000000000E+00  0.00000000000E+00 -0.19009274404E+04  0.19009274404E+04  0.50400001928E-02 0.  1.
    10030    2    1    2    0    0  0.00000000000E+00  0.00000000000E+00  0.24792410362E+03  0.40497789844E+04  0.40421830069E+04 0.  0.
        3    1    3    3  502    0 -0.68885653116E+03  0.14585116069E+04 -0.10961241834E+04  0.19501968269E+04  0.10100000352E+00 0.  1.
       -3    1    3    3    0  502  0.68885653116E+03 -0.14585116069E+04  0.13440482870E+04  0.20995821575E+04  0.10100000352E+00 0. -1.
</event>
<event>
 5   0  0.8528625E-08  0.3983278E+04  0.7818609E-02  0.8007928E-01
        3   -1    0    0  501    0  0.00000000000E+00  0.00000000000E+00  0.16874607480E+04  0.16874607510E+04  0.10100000352E+00 0.  1.
       -3   -1    0    0    0  501  0.00000000000E+00  0.00000000000E+00 -0.23506478913E+04  0.23506478934E+04  0.10100000352E+00 0. -1.
    10030    2    1    2    0    0  0.00000000000E+00  0.00000000000E+00 -0.66318714330E+03  0.40381086444E+04  0.39832780768E+04 0.  0.
        2    1    3    3  502    0 -0.96206061387E+03 -0.17290147012E+04 -0.56181783198E+03  0.20568645406E+04  0.25500000920E-02 0. -1.
       -2    1    3    3    0  502  0.96206061387E+03  0.17290147012E+04 -0.10136931131E+03  0.19812441039E+04  0.25500000920E-02 0.  1.
</event>
<event>
 5   0  0.8528625E-08  0.4010257E+04  0.7818609E-02  0.8002481E-01
        1   -1    0    0  501    0  0.00000000000E+00  0.00000000000E+00  0.20728017026E+04  0.20728017026E+04  0.50400001928E-02 0. -1.
       -1   -1    0    0    0  501  0.00000000000E+00  0.00000000000E+00 -0.19396643190E+04  0.19396643190E+04  0.50400001928E-02 0.  1.
    10030    2    1    2    0    0  0.00000000000E+00  0.00000000000E+00  0.13313738361E+03  0.40124660216E+04  0.40102566018E+04 0.  0.
        4    1    3    3  502    0  0.64466270463E+02  0.20007701336E+04  0.18196159675E+03  0.20100618556E+04  0.12699999809E+01 0.  1.
       -4    1    3    3    0  502 -0.64466270463E+02 -0.20007701336E+04 -0.48824213136E+02  0.20024041661E+04  0.12699999809E+01 0. -1.
</event>
<event>
 5   0  0.8528625E-08  0.4002896E+04  0.7818609E-02  0.8003963E-01
       -1   -1    0    0    0  501  0.00000000000E+00  0.00000000000E+00  0.21252235800E+04  0.21252235800E+04  0.50400001928E-02 0.  1.
        1   -1    0    0  501    0  0.00000000000E+00  0.00000000000E+00 -0.18848810355E+04  0.18848810355E+04  0.50400001928E-02 0. -1.
    10030    2    1    2    0    0  0.00000000000E+00  0.00000000000E+00  0.24034254450E+03  0.40101046154E+04  0.40028957628E+04 0.  0.
        5    1    3    3  502    0  0.15471632963E+03 -0.19175053918E+04 -0.43309813086E+03  0.19718925304E+04  0.46999998093E+01 0.  1.
       -5    1    3    3    0  502 -0.15471632963E+03  0.19175053918E+04  0.67344067536E+03  0.20382120851E+04  0.46999998093E+01 0. -1.
</event>
<event>
 5   0  0.2666978E-07  0.3968860E+04  0.7818609E-02  0.8010858E-01
        2   -1    0    0  501    0  0.00000000000E+00  0.00000000000E+00  0.12563323489E+04  0.12563323489E+04  0.25500000920E-02 0.  1.
       -2   -1    0    0    0  501  0.00000000000E+00  0.00000000000E+00 -0.31344917143E+04  0.31344917143E+04  0.25500000920E-02 0. -1.
    10030    2    1    2    0    0  0.00000000000E+00  0.00000000000E+00 -0.18781593654E+04  0.43908240632E+04  0.39688604602E+04 0.  0.
        4    1    3    3  502    0  0.77779834154E+02 -0.10809990034E+04  0.89999092266E+03  0.14087561257E+04  0.12699999809E+01 0.  1.
       -4    1    3    3    0  502 -0.77779834154E+02  0.10809990034E+04 -0.27781502880E+04  0.29820679375E+04  0.12699999809E+01 0. -1.
</event>
<event>
 5   0  0.8528625E-08  0.3914448E+04  0.7818609E-02  0.8022031E-01
        1   -1    0    0  501    0  0.00000000000E+00  0.00000000000E+00  0.26602308182E+04  0.26602308182E+04  0.50400001928E-02 0.  1.
       -1   -1    0    0    0  501  0.00000000000E+00  0.00000000000E+00 -0.14399977355E+04  0.14399977355E+04  0.50400001928E-02 0. -1.
    10030    2    1    2    0    0  0.00000000000E+00  0.00000000000E+00  0.12202330827E+04  0.41002285537E+04  0.39144482901E+04 0.  0.
        5    1    3    3  502    0  0.87883102412E+03  0.92311744988E+03 -0.94571069330E+03  0.15870981698E+04  0.46999998093E+01 0. -1.
       -5    1    3    3    0  502 -0.87883102412E+03 -0.92311744988E+03  0.21659437760E+04  0.25131303838E+04  0.46999998093E+01 0.  1.
</event>
<event>
 5   0  0.2839279E-07  0.3851125E+04  0.7818609E-02  0.8035272E-01
       -2   -1    0    0    0  501  0.00000000000E+00  0.00000000000E+00  0.16698690468E+04  0.16698690468E+04  0.25500000920E-02 0. -1.
        2   -1    0    0  501    0  0.00000000000E+00  0.00000000000E+00 -0.22204081089E+04  0.22204081089E+04  0.25500000920E-02 0.  1.
    10030    2    1    2    0    0  0.00000000000E+00  0.00000000000E+00 -0.55053906212E+03  0.38902771556E+04  0.38511249121E+04 0.  0.
        3    1    3    3  502    0 -0.27565666975E+03 -0.12509407761E+04  0.11770362418E+04  0.17396131034E+04  0.10100000352E+00 0. -1.
       -3    1    3    3    0  502  0.27565666975E+03  0.12509407761E+04 -0.17275753039E+04  0.21506640522E+04  0.10100000352E+00 0.  1.
</event>
<event>
 5   0  0.2839279E-07  0.4007389E+04  0.7818609E-02  0.8003058E-01
       -2   -1    0    0    0  501  0.00000000000E+00  0.00000000000E+00  0.16610062916E+04  0.16610062916E+04  0.25500000920E-02 0. -1.
        2   -1    0    0  501    0  0.00000000000E+00  0.00000000000E+00 -0.24170840169E+04  0.24170840169E+04  0.25500000920E-02 0.  1.
    10030    2    1    2    0    0  0.00000000000E+00  0.00000000000E+00 -0.75607772523E+03  0.40780903085E+04  0.40073890550E+04 0.  0.
        3    1    3    3  502    0 -0.11632922627E+04  0.15386659390E+04 -0.92986963495E+03  0.21413545499E+04  0.10100000352E+00 0.  1.
       -3    1    3    3    0  502  0.11632922627E+04 -0.15386659390E+04  0.17379190971E+03  0.19367357586E+04  0.10100000352E+00 0. -1.
</event>
<event>
 5   0  0.8528625E-08  0.4077142E+04  0.7818609E-02  0.7989163E-01
       -1   -1    0    0    0  501  0.00000000000E+00  0.00000000000E+00  0.21120281800E+04  0.21120281800E+04  0.50400001928E-02 0. -1.
        1   -1    0    0  501    0  0.00000000000E+00  0.00000000000E+00 -0.19676688755E+04  0.19676688755E+04  0.50400001928E-02 0.  1.
    10030    2    1    2    0    0  0.00000000000E+00  0.00000000000E+00  0.14435930444E+03  0.40796970555E+04  0.40771421922E+04 0.  0.
        2    1    3    3  502    0 -0.69835587963E+03  0.37559341847E+03 -0.18070282670E+04  0.19733531129E+04  0.25500000920E-02 0.  1.
       -2    1    3    3    0  502  0.69835587963E+03 -0.37559341847E+03  0.19513875714E+04  0.21063439426E+04  0.25500000920E-02 0. -1.
</event>
<event>
 5   0  0.2704088E-07  0.3853628E+04  0.7818609E-02  0.8034743E-01
       -2   -1    0    0    0  501  0.00000000000E+00  0.00000000000E+00  0.24113523198E+04  0.24113523198E+04  0.25500000920E-02 0. -1.
        2   -1    0    0  501    0  0.00000000000E+00  0.00000000000E+00 -0.15396389249E+04  0.15396389249E+04  0.25500000920E-02 0.  1.
    10030    2    1    2    0    0  0.00000000000E+00  0.00000000000E+00  0.87171339487E+03  0.39509912447E+04  0.38536278456E+04 0.  0.
        5    1    3    3  502    0 -0.10242572649E+04  0.72557039110E+03 -0.10629376934E+04  0.16448142653E+04  0.46999998093E+01 0.  1.
       -5    1    3    3    0  502  0.10242572649E+04 -0.72557039110E+03  0.19346510882E+04  0.23061769794E+04  0.46999998093E+01 0. -1.
</event>
<event>
 5   0  0.8528625E-08  0.4019470E+04  0.7818609E-02  0.8000630E-01
       -1   -1    0    0    0  501  0.00000000000E+00  0.00000000000E+00  0.18522384161E+04  0.18522384161E+04  0.50400001928E-02 0. -1.
        1   -1    0    0  501    0  0.00000000000E+00  0.00000000000E+00 -0.21806232754E+04  0.21806232754E+04  0.50400001928E-02 0.  1.
    10030    2    1    2    0    0  0.00000000000E+00  0.00000000000E+00 -0.32838485933E+03  0.40328616915E+04  0.40194697171E+04 0.  0.
        5    1    3    3  502    0  0.17149730552E+04  0.10055681782E+04 -0.45964283900E+03  0.20404885617E+04  0.46999998093E+01 0. -1.
       -5    1    3    3    0  502 -0.17149730552E+04 -0.10055681782E+04  0.13125797966E+03  0.19923731298E+04  0.46999998093E+01 0.  1.
</event>
<event>
 5   0  0.8528625E-08  0.3943836E+04  0.7818609E-02  0.8015973E-01
        1   -1    0    0  501    0  0.00000000000E+00  0.00000000000E+00  0.21801164968E+04  0.21801164968E+04  0.50400001928E-02 0.  1.
       -1   -1    0    0    0  501  0.00000000000E+00  0.00000000000E+00 -0.17836022190E+04  0.17836022190E+04  0.50400001928E-02 0. -1.
    10030    2    1    2    0    0  0.00000000000E+00  0.00000000000E+00  0.39651427781E+03  0.39637187159E+04  0.39438360115E+04 0.  0.
        2    1    3    3  502    0  0.18216009104E+04 -0.55284537771E+03 -0.31872190035E+03  0.19301428803E+04  0.25500000920E-02 0. -1.
       -2    1    3    3    0  502 -0.18216009104E+04  0.55284537771E+03  0.71523617816E+03  0.20335758356E+04  0.25500000920E-02 0.  1.
</event>
<event>
 5   0  0.2704088E-07  0.4029112E+04  0.7818609E-02  0.7998699E-01
        2   -1    0    0  501    0  0.00000000000E+00  0.00000000000E+00  0.23394804015E+04  0.23394804015E+04  0.25500000920E-02 0. -1.
       -2   -1    0    0    0  501  0.00000000000E+00  0.00000000000E+00 -0.17347591428E+04  0.17347591428E+04  0.25500000920E-02 0.  1.
    10030    2    1    2    0    0  0.00000000000E+00  0.00000000000E+00  0.60472125873E+03  0.40742395443E+04  0.40291115725E+04 0.  0.
        5    1    3    3  502    0  0.16587561704E+03 -0.10170013878E+04 -0.14480990678E+04  0.17773068231E+04  0.46999998093E+01 0.  1.
       -5    1    3    3    0  502 -0.16587561704E+03  0.10170013878E+04  0.20528203265E+04  0.22969327213E+04  0.46999998093E+01 0. -1.
</event>
<event>
 5   0  0.2661693E-07  0.4078678E+04  0.7818609E-02  0.7988860E-01
       -2   -1    0    0    0  501  0.00000000000E+00  0.00000000000E+00  0.19547310113E+04  0.19547310113E+04  0.25500000920E-02 0. -1.
        2   -1    0    0  501    0  0.00000000000E+00  0.00000000000E+00 -0.21276091270E+04  0.21276091270E+04  0.25500000920E-02 0.  1.
    10030    2    1    2    0    0  0.00000000000E+00  0.00000000000E+00 -0.17287811570E+03  0.40823401382E+04  0.40786779918E+04 0.  0.
        1    1    3    3  502    0  0.19041404106E+04 -0.62400406951E+03 -0.46595197276E+03  0.20572416054E+04  0.50400001928E-02 0.  1.
       -1    1    3    3    0  502 -0.19041404106E+04  0.62400406951E+03  0.29307385706E+03  0.20250985328E+04  0.50400001928E-02 0. -1.
</event>
<event>
 5   0  0.8528625E-08  0.3998534E+04  0.7818609E-02  0.8004842E-01
        1   -1    0    0  501    0  0.00000000000E+00  0.00000000000E+00  0.15592376928E+04  0.15592376928E+04  0.50400001928E-02 0.  1.
       -1   -1    0    0    0  501  0.00000000000E+00  0.00000000000E+00 -0.25634766652E+04  0.25634766652E+04  0.50400001928E-02 0. -1.
    10030    2    1    2    0    0  0.00000000000E+00  0.00000000000E+00 -0.10042389725E+04  0.41227143580E+04  0.39985344520E+04 0.  0.
        2    1    3    3  502    0 -0.54018798013E+03  0.85977965114E+03 -0.22778264428E+04  0.24938960295E+04  0.25500000920E-02 0. -1.
       -2    1    3    3    0  502  0.54018798013E+03 -0.85977965114E+03  0.12735874704E+04  0.16288183285E+04  0.25500000920E-02 0.  1.
</event>
<event>
 5   0  0.2661693E-07  0.3977743E+04  0.7818609E-02  0.8009052E-01
       -2   -1    0    0    0  501  0.00000000000E+00  0.00000000000E+00  0.15736161286E+04  0.15736161286E+04  0.25500000920E-02 0. -1.
        2   -1    0    0  501    0  0.00000000000E+00  0.00000000000E+00 -0.25137067406E+04  0.25137067406E+04  0.25500000920E-02 0.  1.
    10030    2    1    2    0    0  0.00000000000E+00  0.00000000000E+00 -0.94009061196E+03  0.40873228692E+04  0.39777428120E+04 0.  0.
        1    1    3    3  502    0 -0.49532475191E+03  0.88547880117E+03  0.12876901689E+04  0.16393795437E+04  0.50400001928E-02 0. -1.
       -1    1    3    3    0  502  0.49532475191E+03 -0.88547880117E+03 -0.22277807809E+04  0.24479433255E+04  0.50400001928E-02 0.  1.
</event>
<event>
 5   0  0.8528625E-08  0.4034392E+04  0.7818609E-02  0.7997644E-01
       -1   -1    0    0    0  501  0.00000000000E+00  0.00000000000E+00  0.18977860085E+04  0.18977860085E+04  0.50400001928E-02 0. -1.
        1   -1    0    0  501    0  0.00000000000E+00  0.00000000000E+00 -0.21441191794E+04  0.21441191794E+04  0.50400001928E-02 0.  1.
    10030    2    1    2    0    0  0.00000000000E+00  0.00000000000E+00 -0.24633317091E+03  0.40419051879E+04  0.40343918398E+04 0.  0.
        4    1    3    3  502    0 -0.70677824212E+03  0.13501481802E+04 -0.14472337523E+04  0.21016476248E+04  0.12699999809E+01 0.  1.
       -4    1    3    3    0  502  0.70677824212E+03 -0.13501481802E+04  0.12009005814E+04  0.19402575631E+04  0.12699999809E+01 0. -1.
</event>
<event>
 5   0  0.2839279E-07  0.3943114E+04  0.7818609E-02  0.8016122E-01
        2   -1    0    0  501    0  0.00000000000E+00  0.00000000000E+00  0.23111447849E+04  0.23111447849E+04  0.25500000920E-02 0. -1.
       -2   -1    0    0    0  501  0.00000000000E+00  0.00000000000E+00 -0.16818666755E+04  0.16818666755E+04  0.25500000920E-02 0.  1.
    10030    2    1    2    0    0  0.00000000000E+00  0.00000000000E+00  0.62927810947E+03  0.39930114604E+04  0.39431141987E+04 0.  0.
        3    1    3    3  502    0 -0.98623826280E+03 -0.12469718145E+04 -0.86606231946E+03  0.18104332543E+04  0.10100000352E+00 0.  1.
       -3    1    3    3    0  502  0.98623826280E+03  0.12469718145E+04  0.14953404289E+04  0.21825782061E+04  0.10100000352E+00 0. -1.
</event>
<event>
 5   0  0.8528625E-08  0.4002018E+04  0.7818609E-02  0.8004140E-01
        1   -1    0    0  501    0  0.00000000000E+00  0.00000000000E+00  0.16609699461E+04  0.16609699461E+04  0.50400001928E-02 0.  1.
       -1   -1    0    0    0  501  0.00000000000E+00  0.00000000000E+00 -0.24106623858E+04  0.24106623858E+04  0.50400001928E-02 0. -1.
    10030    2    1    2    0    0  0.00000000000E+00  0.00000000000E+00 -0.74969243968E+03  0.40716323319E+04  0.40020183773E+04 0.  0.
        4    1    3    3  502    0 -0.81829462802E+03  0.12765465060E+03  0.14784142364E+04  0.16945831568E+04  0.12699999809E+01 0.  1.
       -4    1    3    3    0  502  0.81829462802E+03 -0.12765465060E+03 -0.22281066761E+04  0.23770491751E+04  0.12699999809E+01 0. -1.
</event>
<event>
 5   0  0.2839279E-07  0.3993252E+04  0.7818609E-02  0.8005909E-01
        2   -1    0    0  501    0  0.00000000000E+00  0.00000000000E+00  0.22994434620E+04  0.22994434620E+04  0.25500000920E-02 0. -1.
       -2   -1    0    0    0  501  0.00000000000E+00  0.00000000000E+00 -0.17336867460E+04  0.17336867460E+04  0.25500000920E-02 0.  1.
    10030    2    1    2    0    0  0.00000000000E+00  0.00000000000E+00  0.56575671604E+03  0.40331302080E+04  0.39932516341E+04 0.  0.
        3    1    3    3  502    0  0.14388564608E+04  0.10486545430E+04 -0.62976634701E+03  0.18885417463E+04  0.10100000352E+00 0. -1.
       -3    1    3    3    0  502 -0.14388564608E+04 -0.10486545430E+04  0.11955230631E+04  0.21445884617E+04  0.10100000352E+00 0.  1.
</event>
<event>
 5   0  0.2666978E-07  0.4086980E+04  0.7818609E-02  0.7987226E-01
       -2   -1    0    0    0  501  0.00000000000E+00  0.00000000000E+00  0.18189698261E+04  0.18189698261E+04  0.25500000920E-02 0.  1.
        2   -1    0    0  501    0  0.00000000000E+00  0.00000000000E+00 -0.22957232587E+04  0.22957232587E+04  0.25500000920E-02 0. -1.
    10030    2    1    2    0    0  0.00000000000E+00  0.00000000000E+00 -0.47675343263E+03  0.41146930848E+04  0.40869799787E+04 0.  0.
        4    1    3    3  502    0 -0.17817222555E+04  0.99148382463E+03 -0.10227367478E+03  0.20415768140E+04  0.12699999809E+01 0. -1.
       -4    1    3    3    0  502  0.17817222555E+04 -0.99148382463E+03 -0.37447975785E+03  0.20731162708E+04  0.12699999809E+01 0.  1.
</event>
<event>
 5   0  0.2730801E-07  0.3949948E+04  0.7818609E-02  0.8014720E-01
        2   -1    0    0  501    0  0.00000000000E+00  0.00000000000E+00  0.11952287385E+04  0.11952287385E+04  0.25500000920E-02 0.  1.
       -2   -1    0    0    0  501  0.00000000000E+00  0.00000000000E+00 -0.32634105112E+04  0.32634105112E+04  0.25500000920E-02 0. -1.
    10030    2    1    2    0    0  0.00000000000E+00  0.00000000000E+00 -0.20681817727E+04  0.44586392497E+04  0.39499478622E+04 0.  0.
        2    1    3    3  502    0  0.13404584710E+04  0.14200318982E+04 -0.70076004364E+03  0.20747009767E+04  0.25500000920E-02 0.  1.
       -2    1    3    3    0  502 -0.13404584710E+04 -0.14200318982E+04 -0.13674217290E+04  0.23839382729E+04  0.25500000920E-02 0. -1.
</event>
<event>
 5   0  0.2730801E-07  0.4006067E+04  0.7818609E-02  0.8003324E-01
        2   -1    0    0  501    0  0.00000000000E+00  0.00000000000E+00  0.23115197626E+04  0.23115197626E+04  0.25500000920E-02 0.  1.
       -2   -1    0    0    0  501  0.00000000000E+00  0.00000000000E+00 -0.17357164168E+04  0.17357164168E+04  0.25500000920E-02 0. -1.
    10030    2    1    2    0    0  0.00000000000E+00  0.00000000000E+00  0.57580334582E+03  0.40472361795E+04  0.40060667992E+04 0.  0.
        2    1    3    3  502    0 -0.18380459724E+04  0.78448499848E+03  0.15118509472E+03  0.20041673190E+04  0.25500000920E-02 0. -1.
       -2    1    3    3    0  502  0.18380459724E+04 -0.78448499848E+03  0.42461825110E+03  0.20430688605E+04  0.25500000920E-02 0.  1.
</event>
<event>
 5   0  0.8528625E-08  0.3751165E+04  0.7818609E-02  0.8056717E-01
        1   -1    0    0  501    0  0.00000000000E+00  0.00000000000E+00  0.21002624176E+04  0.21002624176E+04  0.50400001928E-02 0. -1.
       -1   -1    0    0    0  501  0.00000000000E+00  0.00000000000E+00 -0.16749384199E+04  0.16749384199E+04  0.50400001928E-02 0.  1.
    10030    2    1    2    0    0  0.00000000000E+00  0.00000000000E+00  0.42532399771E+03  0.37752008375E+04  0.37511652670E+04 0.  0.
        4    1    3    3  502    0 -0.19359601040E+03  0.13851769930E+04 -0.10449906015E+04  0.17459099883E+04  0.12699999809E+01 0.  1.
       -4    1    3    3    0  502  0.19359601040E+03 -0.13851769930E+04  0.14703145992E+04  0.20292908492E+04  0.12699999809E+01 0. -1.
</event>
<event>
 5   0  0.2730801E-07  0.4003435E+04  0.7818609E-02  0.8003854E-01
       -2   -1    0    0    0  501  0.00000000000E+00  0.00000000000E+00  0.26367834389E+04  0.26367834389E+04  0.25500000920E-02 0.  1.
        2   -1    0    0  501    0  0.00000000000E+00  0.00000000000E+00 -0.15196064122E+04  0.15196064122E+04  0.25500000920E-02 0. -1.
    10030    2    1    2    0    0  0.00000000000E+00  0.00000000000E+00  0.11171770267E+04  0.41563898511E+04  0.40034350358E+04 0.  0.
        2    1    3    3  502    0  0.16853989308E+04 -0.10757885399E+04  0.65698547620E+03  0.21046425954E+04  0.25500000920E-02 0. -1.
       -2    1    3    3    0  502 -0.16853989308E+04  0.10757885399E+04  0.46019155047E+03  0.20517472557E+04  0.25500000920E-02 0.  1.
</event>
<event>
 5   0  0.2704088E-07  0.3969799E+04  0.7818609E-02  0.8010667E-01
        2   -1    0    0  501    0  0.00000000000E+00  0.00000000000E+00  0.31180555101E+04  0.31180555101E+04  0.25500000920E-02 0. -1.
       -2   -1    0    0    0  501  0.00000000000E+00  0.00000000000E+00 -0.12635522439E+04  0.12635522439E+04  0.25500000920E-02 0.  1.
    10030    2    1    2    0    0  0.00000000000E+00  0.00000000000E+00  0.18545032661E+04  0.43816077540E+04  0.39697990057E+04 0.  0.
        5    1    3    3  502    0  0.52811884275E+03  0.10215291820E+04 -0.85840417525E+03  0.14350300345E+04  0.46999998093E+01 0.  1.
       -5    1    3    3    0  502 -0.52811884275E+03 -0.10215291820E+04  0.27129074414E+04  0.29465777195E+04  0.46999998093E+01 0. -1.
</event>
<event>
 5   0  0.2704088E-07  0.3702601E+04  0.7818609E-02  0.8067386E-01
       -2   -1    0    0    0  501  0.00000000000E+00  0.00000000000E+00  0.17950347012E+04  0.17950347012E+04  0.25500000920E-02 0. -1.
        2   -1    0    0  501    0  0.00000000000E+00  0.00000000000E+00 -0.19093295391E+04  0.19093295391E+04  0.25500000920E-02 0.  1.
    10030    2    1    2    0    0  0.00000000000E+00  0.00000000000E+00 -0.11429483788E+03  0.37043642404E+04  0.37026005882E+04 0.  0.
        5    1    3    3  502    0 -0.14979913006E+04  0.62106243040E+03  0.83635928135E+03  0.18246137719E+04  0.46999998093E+01 0. -1.
       -5    1    3    3    0  502  0.14979913006E+04 -0.62106243040E+03 -0.95065411923E+03  0.18797504684E+04  0.46999998093E+01 0.  1.
</event>
<event>
 5   0  0.2839279E-07  0.3919037E+04  0.7818609E-02  0.8021082E-01
       -2   -1    0    0    0  501  0.00000000000E+00  0.00000000000E+00  0.12627729995E+04  0.12627729995E+04  0.25500000920E-02 0.  1.
        2   -1    0    0  501    0  0.00000000000E+00  0.00000000000E+00 -0.30406986111E+04  0.30406986111E+04  0.25500000920E-02 0. -1.
    10030    2    1    2    0    0  0.00000000000E+00  0.00000000000E+00 -0.17779256116E+04  0.43034716106E+04  0.39190366702E+04 0.  0.
        3    1    3    3  502    0 -0.12962579707E+03  0.15391687826E+04  0.43508055994E+03  0.16047238057E+04  0.10100000352E+00 0.  1.
       -3    1    3    3    0  502  0.12962579707E+03 -0.15391687826E+04 -0.22130061716E+04  0.26987478049E+04  0.10100000352E+00 0. -1.
</event>
<event>
 5   0  0.8528625E-08  0.3349381E+04  0.7818609E-02  0.8150443E-01
       -1   -1    0    0    0  501  0.00000000000E+00  0.00000000000E+00  0.12910288077E+04  0.12910288077E+04  0.50400001928E-02 0. -1.
        1   -1    0    0  501    0  0.00000000000E+00  0.00000000000E+00 -0.21723669393E+04  0.21723669393E+04  0.50400001928E-02 0.  1.
    10030    2    1    2    0    0  0.00000000000E+00  0.00000000000E+00 -0.88133813162E+03  0.34633957470E+04  0.33493810172E+04 0.  0.
        5    1    3    3  502    0 -0.96000697536E+03  0.98360280410E+03  0.54870745910E+03  0.14799289965E+04  0.46999998093E+01 0.  1.
       -5    1    3    3    0  502  0.96000697536E+03 -0.98360280410E+03 -0.14300455907E+04  0.19834667505E+04  0.46999998093E+01 0. -1.
</event>
<event>
 5   0  0.8583262E-08  0.4353022E+04  0.7818609E-02  0.7936886E-01
       -1   -1    0    0    0  501  0.00000000000E+00  0.00000000000E+00  0.18989483656E+04  0.18989483656E+04  0.50400001928E-02 0.  1.
        1   -1    0    0  501    0  0.00000000000E+00  0.00000000000E+00 -0.24946435723E+04  0.24946435723E+04  0.50400001928E-02 0. -1.
    10030    2    1    2    0    0  0.00000000000E+00  0.00000000000E+00 -0.59569520664E+03  0.43935919379E+04  0.43530216330E+04 0.  0.
        1    1    3    3  502    0 -0.14006649571E+04 -0.92594164818E+03 -0.16956625936E+04  0.23863155468E+04  0.50400001928E-02 0. -1.
       -1    1    3    3    0  502  0.14006649571E+04  0.92594164818E+03  0.10999673869E+04  0.20072763911E+04  0.50400001928E-02 0.  1.
</event>
<event>
 5   0  0.2839279E-07  0.3897350E+04  0.7818609E-02  0.8025581E-01
       -2   -1    0    0    0  501  0.00000000000E+00  0.00000000000E+00  0.33778879503E+04  0.33778879503E+04  0.25500000920E-02 0.  1.
        2   -1    0    0  501    0  0.00000000000E+00  0.00000000000E+00 -0.11241743293E+04  0.11241743293E+04  0.25500000920E-02 0. -1.
    10030    2    1    2    0    0  0.00000000000E+00  0.00000000000E+00  0.22537136210E+04  0.45020622795E+04  0.38973503413E+04 0.  0.
        3    1    3    3  502    0 -0.49418252733E+03  0.18849619607E+04  0.11198352671E+04  0.22475161844E+04  0.10100000352E+00 0. -1.
       -3    1    3    3    0  502  0.49418252733E+03 -0.18849619607E+04  0.11338783539E+04  0.22545460951E+04  0.10100000352E+00 0.  1.
</event>
<event>
 5   0  0.8528625E-08  0.3973511E+04  0.7818609E-02  0.8009912E-01
       -1   -1    0    0    0  501  0.00000000000E+00  0.00000000000E+00  0.16640746284E+04  0.16640746284E+04  0.50400001928E-02 0.  1.
        1   -1    0    0  501    0  0.00000000000E+00  0.00000000000E+00 -0.23720079559E+04  0.23720079559E+04  0.50400001928E-02 0. -1.
    10030    2    1    2    0    0  0.00000000000E+00  0.00000000000E+00 -0.70793332758E+03  0.40360825843E+04  0.39735114233E+04 0.  0.
        2    1    3    3  502    0  0.22472360151E+03 -0.19659594188E+04 -0.17311483237E+03  0.19863196819E+04  0.25500000920E-02 0. -1.
       -2    1    3    3    0  502 -0.22472360151E+03  0.19659594188E+04 -0.53481849521E+03  0.20497629024E+04  0.25500000920E-02 0.  1.
</event>
<event>
 5   0  0.2666978E-07  0.4025400E+04  0.7818609E-02  0.7999442E-01
       -2   -1    0    0    0  501  0.00000000000E+00  0.00000000000E+00  0.15654237906E+04  0.15654237906E+04  0.25500000920E-02 0.  1.
        2   -1    0    0  501    0  0.00000000000E+00  0.00000000000E+00 -0.25877726079E+04  0.25877726079E+04  0.25500000920E-02 0. -1.
    10030    2    1    2    0    0  0.00000000000E+00  0.00000000000E+00 -0.10223488173E+04  0.41531963985E+04  0.40253997590E+04 0.  0.
        4    1    3    3  502    0  0.27977107745E+03  0.19807866612E+04 -0.28238793039E+03  0.20202802304E+04  0.12699999809E+01 0.  1.
       -4    1    3    3    0  502 -0.27977107745E+03 -0.19807866612E+04 -0.73996088693E+03  0.21329161681E+04  0.12699999809E+01 0. -1.
</event>
<event>
 5   0  0.8528625E-08  0.3978409E+04  0.7818609E-02  0.8008916E-01
        1   -1    0    0  501    0  0.00000000000E+00  0.00000000000E+00  0.26957452119E+04  0.26957452119E+04  0.50400001928E-02 0. -1.
       -1   -1    0    0    0  501  0.00000000000E+00  0.00000000000E+00 -0.14678442056E+04  0.14678442056E+04  0.50400001928E-02 0.  1.
    10030    2    1    2    0    0  0.00000000000E+00  0.00000000000E+00  0.12279010063E+04  0.41635894175E+04  0.39784087216E+04 0.  0.
        4    1    3    3  502    0 -0.13457074611E+04 -0.13030191083E+04  0.13145467068E+04  0.22884103707E+04  0.12699999809E+01 0. -1.
       -4    1    3    3    0  502  0.13457074611E+04  0.13030191083E+04 -0.86645700449E+02  0.18751790468E+04  0.12699999809E+01 0.  1.
</event>
<event>
 5   0  0.2666978E-07  0.3675650E+04  0.7818609E-02  0.8073380E-01
       -2   -1    0    0    0  501  0.00000000000E+00  0.00000000000E+00  0.26984294811E+04  0.26984294811E+04  0.25500000920E-02 0. -1.
        2   -1    0    0  501    0  0.00000000000E+00  0.00000000000E+00 -0.12516911111E+04  0.12516911111E+04  0.25500000920E-02 0.  1.
    10030    2    1    2    0    0  0.00000000000E+00  0.00000000000E+00  0.14467383700E+04  0.39501205922E+04  0.36756497088E+04 0.  0.
        4    1    3    3  502    0  0.14650271953E+03 -0.12233414520E+04 -0.74212009868E+03  0.14383223591E+04  0.12699999809E+01 0.  1.
       -4    1    3    3    0  502 -0.14650271953E+03  0.12233414520E+04  0.21888584687E+04  0.25117982331E+04  0.12699999809E+01 0. -1.
</event>
<event>
 5   0  0.2661693E-07  0.3030731E+04  0.7818609E-02  0.8235009E-01
       -2   -1    0    0    0  501  0.00000000000E+00  0.00000000000E+00  0.16085955868E+04  0.16085955868E+04  0.25500000920E-02 0.  1.
        2   -1    0    0  501    0  0.00000000000E+00  0.00000000000E+00 -0.14275390676E+04  0.14275390676E+04  0.25500000920E-02 0. -1.
    10030    2    1    2    0    0  0.00000000000E+00  0.00000000000E+00  0.18105651921E+03  0.30361346544E+04  0.30307312940E+04 0.  0.
        1    1    3    3  502    0  0.21034635612E+03 -0.37194840427E+03  0.15469916325E+04  0.16049219034E+04  0.50400001928E-02 0.  1.
       -1    1    3    3    0  502 -0.21034635612E+03  0.37194840427E+03 -0.13659351133E+04  0.14312127510E+04  0.50400001928E-02 0. -1.
</event>
<event>
 5   0  0.2730801E-07  0.2958661E+04  0.7818609E-02  0.8255635E-01
       -2   -1    0    0    0  501  0.00000000000E+00  0.00000000000E+00  0.10729843176E+04  0.10729843176E+04  0.25500000920E-02 0.  1.
        2   -1    0    0  501    0  0.00000000000E+00  0.00000000000E+00 -0.20395619539E+04  0.20395619539E+04  0.25500000920E-02 0. -1.
    10030    2    1    2    0    0  0.00000000000E+00  0.00000000000E+00 -0.96657763622E+03  0.31125462715E+04  0.29586605019E+04 0.  0.
        2    1    3    3  502    0  0.83918667873E+03  0.44525432298E+03 -0.16762594008E+04  0.19267411016E+04  0.25500000920E-02 0. -1.
       -2    1    3    3    0  502 -0.83918667873E+03 -0.44525432298E+03  0.70968176459E+03  0.11858051699E+04  0.25500000920E-02 0.  1.
</event>
<event>
 5   0  0.8528625E-08  0.3903965E+04  0.7818609E-02  0.8024205E-01
       -1   -1    0    0    0  501  0.00000000000E+00  0.00000000000E+00  0.18751547596E+04  0.18751547596E+04  0.50400001928E-02 0. -1.
        1   -1    0    0  501    0  0.00000000000E+00  0.00000000000E+00 -0.20319584245E+04  0.20319584245E+04  0.50400001928E-02 0.  1.
    10030    2    1    2    0    0  0.00000000000E+00  0.00000000000E+00 -0.15680366490E+03  0.39071131841E+04  0.39039654255E+04 0.  0.
        3    1    3    3  502    0  0.10233204549E+04 -0.78013082751E+03  0.13905853331E+04  0.18946019213E+04  0.10100000352E+00 0. -1.
       -3    1    3    3    0  502 -0.10233204549E+04  0.78013082751E+03 -0.15473889980E+04  0.20125112628E+04  0.10100000352E+00 0.  1.
</event>
<event>
 5   0  0.8583262E-08  0.3982618E+04  0.7818609E-02  0.8008062E-01
       -1   -1    0    0    0  501  0.00000000000E+00  0.00000000000E+00  0.15679692033E+04  0.15679692033E+04  0.50400001928E-02 0.  1.
        1   -1    0    0  501    0  0.00000000000E+00  0.00000000000E+00 -0.25289478308E+04  0.25289478309E+04  0.50400001928E-02 0. -1.
    10030    2    1    2    0    0  0.00000000000E+00  0.00000000000E+00 -0.96097862756E+03  0.40969170341E+04  0.39826183927E+04 0.  0.
        1    1    3    3  502    0 -0.49169158049E+03 -0.18809674748E+04 -0.92356276005E+03  0.21523864484E+04  0.50400001928E-02 0. -1.
       -1    1    3    3    0  502  0.49169158049E+03  0.18809674748E+04 -0.37415867507E+02  0.19445305857E+04  0.50400001928E-02 0.  1.
</event>
<event>
 5   0  0.8528625E-08  0.3986699E+04  0.7818609E-02  0.8007235E-01
        1   -1    0    0  501    0  0.00000000000E+00  0.00000000000E+00  0.15906964297E+04  0.15906964297E+04  0.50400001928E-02 0.  1.
       -1   -1    0    0    0  501  0.00000000000E+00  0.00000000000E+00 -0.24979267865E+04  0.24979267865E+04  0.50400001928E-02 0. -1.
    10030    2    1    2    0    0  0.00000000000E+00  0.00000000000E+00 -0.90723035682E+03  0.40886232162E+04  0.39866994975E+04 0.  0.
        2    1    3    3  502    0  0.14113029986E+04 -0.13225058363E+04 -0.94827974838E+03  0.21540734254E+04  0.25500000920E-02 0. -1.
       -2    1    3    3    0  502 -0.14113029986E+04  0.13225058363E+04  0.41049391553E+02  0.19345497908E+04  0.25500000920E-02 0.  1.
</event>
<event>
 5   0  0.2730801E-07  0.3669167E+04  0.7818609E-02  0.8074829E-01
        2   -1    0    0  501    0  0.00000000000E+00  0.00000000000E+00  0.10910800835E+04  0.10910800835E+04  0.25500000920E-02 0.  1.
       -2   -1    0    0    0  501  0.00000000000E+00  0.00000000000E+00 -0.30847379755E+04  0.30847379755E+04  0.25500000920E-02 0. -1.
    10030    2    1    2    0    0  0.00000000000E+00  0.00000000000E+00 -0.19936578921E+04  0.41758180590E+04  0.36691667543E+04 0.  0.
        2    1    3    3  502    0 -0.74126326416E+03  0.11337033439E+04  0.41133571201E+03  0.14156099628E+04  0.25500000920E-02 0.  1.
       -2    1    3    3    0  502  0.74126326416E+03 -0.11337033439E+04 -0.24049936041E+04  0.27602080962E+04  0.25500000920E-02 0. -1.
</event>
<event>
 5   0  0.2704088E-07  0.3911674E+04  0.7818609E-02  0.8022606E-01
        2   -1    0    0  501    0  0.00000000000E+00  0.00000000000E+00  0.25168987576E+04  0.25168987576E+04  0.25500000920E-02 0.  1.
       -2   -1    0    0    0  501  0.00000000000E+00  0.00000000000E+00 -0.15198458797E+04  0.15198458797E+04  0.25500000920E-02 0. -1.
    10030    2    1    2    0    0  0.00000000000E+00  0.00000000000E+00  0.99705287783E+03  0.40367446373E+04  0.39116739161E+04 0.  0.
        5    1    3    3  502    0  0.27757071191E+03 -0.19384487559E+03 -0.14893707007E+04  0.15273730750E+04  0.46999998093E+01 0. -1.
       -5    1    3    3    0  502 -0.27757071191E+03  0.19384487559E+03  0.24864235786E+04  0.25093715624E+04  0.46999998093E+01 0.  1.
</event>
<event>
 5   0  0.8583262E-08  0.4041079E+04  0.7818609E-02  0.7996311E-01
        1   -1    0    0  501    0  0.00000000000E+00  0.00000000000E+00  0.28056391267E+04  0.28056391268E+04  0.50400001928E-02 0. -1.
       -1   -1    0    0    0  501  0.00000000000E+00  0.00000000000E+00 -0.14551336027E+04  0.14551336027E+04  0.50400001928E-02 0.  1.
    10030    2    1    2    0    0  0.00000000000E+00  0.00000000000E+00  0.13505055240E+04  0.42607727295E+04  0.40410789502E+04 0.  0.
        1    1    3    3  502    0 -0.71376850822E+02 -0.19071299220E+04  0.13749100904E+04  0.23521515578E+04  0.50400001928E-02 0. -1.
       -1    1    3    3    0  502  0.71376850822E+02  0.19071299220E+04 -0.24404566366E+02  0.19086211717E+04  0.50400001928E-02 0.  1.
</event>
<event>
 5   0  0.2661693E-07  0.3891400E+04  0.7818609E-02  0.8026820E-01
       -2   -1    0    0    0  501  0.00000000000E+00  0.00000000000E+00  0.18561678297E+04  0.18561678297E+04  0.25500000920E-02 0.  1.
        2   -1    0    0  501    0  0.00000000000E+00  0.00000000000E+00 -0.20395505194E+04  0.20395505194E+04  0.25500000920E-02 0. -1.
    10030    2    1    2    0    0  0.00000000000E+00  0.00000000000E+00 -0.18338268971E+03  0.38957183490E+04  0.38913997795E+04 0.  0.
        1    1    3    3  502    0 -0.34019544066E+03 -0.17688141867E+04  0.64486389960E+03  0.19131873965E+04  0.50400001928E-02 0.  1.
       -1    1    3    3    0  502  0.34019544066E+03  0.17688141867E+04 -0.82824658931E+03  0.19825309525E+04  0.50400001928E-02 0. -1.
</event>
<event>
 5   0  0.8583262E-08  0.3962605E+04  0.7818609E-02  0.8012133E-01
        1   -1    0    0  501    0  0.00000000000E+00  0.00000000000E+00  0.16125953899E+04  0.16125953899E+04  0.50400001928E-02 0.  1.
       -1   -1    0    0    0  501  0.00000000000E+00  0.00000000000E+00 -0.24343116245E+04  0.24343116245E+04  0.50400001928E-02 0. -1.
    10030    2    1    2    0    0  0.00000000000E+00  0.00000000000E+00 -0.82171623453E+03  0.40469070144E+04  0.39626050539E+04 0.  0.
        1    1    3    3  502    0  0.50288970348E+03  0.72480118423E+03  0.14009542717E+04  0.16555686883E+04  0.50400001928E-02 0.  1.
       -1    1    3    3    0  502 -0.50288970348E+03 -0.72480118423E+03 -0.22226705062E+04  0.23913383260E+04  0.50400001928E-02 0. -1.
</event>
<event>
 5   0  0.2704088E-07  0.2977238E+04  0.7818609E-02  0.8250261E-01
       -2   -1    0    0    0  501  0.00000000000E+00  0.00000000000E+00  0.72838452430E+03  0.72838452431E+03  0.25500000920E-02 0. -1.
        2   -1    0    0  501    0  0.00000000000E+00  0.00000000000E+00 -0.30423312861E+04  0.30423312861E+04  0.25500000920E-02 0.  1.
    10030    2    1    2    0    0  0.00000000000E+00  0.00000000000E+00 -0.23139467618E+04  0.37707158104E+04  0.29772383355E+04 0.  0.
        5    1    3    3  502    0  0.57718192236E+03  0.29117998925E+03  0.54130896740E+03  0.84318577183E+03  0.46999998093E+01 0. -1.
       -5    1    3    3    0  502 -0.57718192236E+03 -0.29117998925E+03 -0.28552557292E+04  0.29275300386E+04  0.46999998093E+01 0.  1.
</event>
<event>
 5   0  0.2666978E-07  0.4051203E+04  0.7818609E-02  0.7994296E-01
       -2   -1    0    0    0  501  0.00000000000E+00  0.00000000000E+00  0.18448623051E+04  0.18448623051E+04  0.25500000920E-02 0.  1.
        2   -1    0    0  501    0  0.00000000000E+00  0.00000000000E+00 -0.22240476676E+04  0.22240476676E+04  0.25500000920E-02 0. -1.
    10030    2    1    2    0    0  0.00000000000E+00  0.00000000000E+00 -0.37918536256E+03  0.40689099727E+04  0.40512031332E+04 0.  0.
        4    1    3    3  502    0 -0.37094091244E+03 -0.33166431342E+02 -0.21893659729E+04  0.22208156495E+04  0.12699999809E+01 0. -1.
       -4    1    3    3    0  502  0.37094091244E+03  0.33166431342E+02  0.18101806103E+04  0.18480943232E+04  0.12699999809E+01 0.  1.
</event>
<event>
 5   0  0.2704088E-07  0.3981289E+04  0.7818609E-02  0.8008332E-01
       -2   -1    0    0    0  501  0.00000000000E+00  0.00000000000E+00  0.21292340029E+04  0.21292340029E+04  0.25500000920E-02 0.  1.
        2   -1    0    0  501    0  0.00000000000E+00  0.00000000000E+00 -0.18610757703E+04  0.18610757703E+04  0.25500000920E-02 0. -1.
    10030    2    1    2    0    0  0.00000000000E+00  0.00000000000E+00  0.26815823255E+03  0.39903097732E+04  0.39812891440E+04 0.  0.
        5    1    3    3  502    0 -0.15770603961E+04  0.10773851269E+04  0.69638997074E+03  0.20329435029E+04  0.46999998093E+01 0. -1.
       -5    1    3    3    0  502  0.15770603961E+04 -0.10773851269E+04 -0.42823173819E+03  0.19573662703E+04  0.46999998093E+01 0.  1.
</event>
<event>
 5   0  0.2704088E-07  0.3956251E+04  0.7818609E-02  0.8013431E-01
       -2   -1    0    0    0  501  0.00000000000E+00  0.00000000000E+00  0.16523442641E+04  0.16523442641E+04  0.25500000920E-02 0.  1.
        2   -1    0    0  501    0  0.00000000000E+00  0.00000000000E+00 -0.23681386749E+04  0.23681386749E+04  0.25500000920E-02 0. -1.
    10030    2    1    2    0    0  0.00000000000E+00  0.00000000000E+00 -0.71579441084E+03  0.40204829390E+04  0.39562509304E+04 0.  0.
        5    1    3    3  502    0 -0.34454354167E+03 -0.63816907705E+03  0.15123595779E+04  0.16772667069E+04  0.46999998093E+01 0.  1.
       -5    1    3    3    0  502  0.34454354167E+03  0.63816907705E+03 -0.22281539888E+04  0.23432162322E+04  0.46999998093E+01 0. -1.
</event>
<event>
 5   0  0.8528625E-08  0.4078102E+04  0.7818609E-02  0.7988974E-01
        1   -1    0    0  501    0  0.00000000000E+00  0.00000000000E+00  0.22019575660E+04  0.22019575660E+04  0.50400001928E-02 0.  1.
       -1   -1    0    0    0  501  0.00000000000E+00  0.00000000000E+00 -0.18881962533E+04  0.18881962533E+04  0.50400001928E-02 0. -1.
    10030    2    1    2    0    0  0.00000000000E+00  0.00000000000E+00  0.31376131273E+03  0.40901538193E+04  0.40781015318E+04 0.  0.
        2    1    3    3  502    0 -0.11076126843E+04  0.15036310361E+04  0.97784473161E+03  0.21080541905E+04  0.25500000920E-02 0.  1.
       -2    1    3    3    0  502  0.11076126843E+04 -0.15036310361E+04 -0.66408341888E+03  0.19820996288E+04  0.25500000920E-02 0. -1.
</event>
<event>
 5   0  0.2661693E-07  0.4082776E+04  0.7818609E-02  0.7988053E-01
        2   -1    0    0  501    0  0.00000000000E+00  0.00000000000E+00  0.13968122486E+04  0.13968122486E+04  0.25500000920E-02 0.  1.
       -2   -1    0    0    0  501  0.00000000000E+00  0.00000000000E+00 -0.29834109610E+04  0.29834109610E+04  0.25500000920E-02 0. -1.
    10030    2    1    2    0    0  0.00000000000E+00  0.00000000000E+00 -0.15865987124E+04  0.43802232096E+04  0.40827760032E+04 0.  0.
        1    1    3    3  502    0  0.12718961902E+03  0.14071440941E+04  0.78748972761E+03  0.16175202539E+04  0.50400001928E-02 0.  1.
       -1    1    3    3    0  502 -0.12718961902E+03 -0.14071440941E+04 -0.23740884400E+04  0.27627029558E+04  0.50400001928E-02 0. -1.
</event>
<event>
 5   0  0.8528625E-08  0.4011470E+04  0.7818609E-02  0.8002237E-01
       -1   -1    0    0    0  501  0.00000000000E+00  0.00000000000E+00  0.15707836917E+04  0.15707836917E+04  0.50400001928E-02 0. -1.
        1   -1    0    0  501    0  0.00000000000E+00  0.00000000000E+00 -0.25611240805E+04  0.25611240805E+04  0.50400001928E-02 0.  1.
    10030    2    1    2    0    0  0.00000000000E+00  0.00000000000E+00 -0.99034038876E+03  0.41319077722E+04  0.40114695253E+04 0.  0.
        2    1    3    3  502    0  0.13654509981E+04  0.41711744464E+03 -0.19461982084E+04  0.24137379429E+04  0.25500000920E-02 0.  1.
       -2    1    3    3    0  502 -0.13654509981E+04 -0.41711744464E+03  0.95585781963E+03  0.17181698293E+04  0.25500000920E-02 0. -1.
</event>
<event>
 5   0  0.2666978E-07  0.3838945E+04  0.7818609E-02  0.8037849E-01
       -2   -1    0    0    0  501  0.00000000000E+00  0.00000000000E+00  0.27150870983E+04  0.27150870983E+04  0.25500000920E-02 0. -1.
        2   -1    0    0  501    0  0.00000000000E+00  0.00000000000E+00 -0.13570002458E+04  0.13570002458E+04  0.25500000920E-02 0.  1.
    10030    2    1    2    0    0  0.00000000000E+00  0.00000000000E+00  0.13580868525E+04  0.40720873441E+04  0.38389445736E+04 0.  0.
        4    1    3    3  502    0  0.31974658903E+03  0.18778308206E+04  0.92980205232E+03  0.21196744895E+04  0.12699999809E+01 0. -1.
       -4    1    3    3    0  502 -0.31974658903E+03 -0.18778308206E+04  0.42828480016E+03  0.19524128546E+04  0.12699999809E+01 0.  1.
</event>
<event>
 5   0  0.8528625E-08  0.3994044E+04  0.7818609E-02  0.8005749E-01
       -1   -1    0    0    0  501  0.00000000000E+00  0.00000000000E+00  0.18732243048E+04  0.18732243048E+04  0.50400001928E-02 0. -1.
        1   -1    0    0  501    0  0.00000000000E+00  0.00000000000E+00 -0.21290014259E+04  0.21290014259E+04  0.50400001928E-02 0.  1.
    10030    2    1    2    0    0  0.00000000000E+00  0.00000000000E+00 -0.25577712119E+03  0.40022257307E+04  0.39940441740E+04 0.  0.
        3    1    3    3  502    0 -0.62529948841E+03  0.15723417709E+04  0.93486830717E+03  0.19331934349E+04  0.10100000352E+00 0. -1.
       -3    1    3    3    0  502  0.62529948841E+03 -0.15723417709E+04 -0.11906454284E+04  0.20690322958E+04  0.10100000352E+00 0.  1.
</event>
<event>
 5   0  0.2839279E-07  0.4092965E+04  0.7818609E-02  0.7986051E-01
       -2   -1    0    0    0  501  0.00000000000E+00  0.00000000000E+00  0.26331560583E+04  0.26331560583E+04  0.25500000920E-02 0. -1.
        2   -1    0    0  501    0  0.00000000000E+00  0.00000000000E+00 -0.15905210461E+04  0.15905210461E+04  0.25500000920E-02 0.  1.
    10030    2    1    2    0    0  0.00000000000E+00  0.00000000000E+00  0.10426350122E+04  0.42236771044E+04  0.40929647584E+04 0.  0.
        3    1    3    3  502    0  0.17262306364E+04  0.55000299292E+03  0.15034009559E+04  0.23542705763E+04  0.10100000352E+00 0. -1.
       -3    1    3    3    0  502 -0.17262306364E+04 -0.55000299292E+03 -0.46076594365E+03  0.18694065281E+04  0.10100000352E+00 0.  1.
</event>
<event>
 5   0  0.8528625E-08  0.4045500E+04  0.7818609E-02  0.7995430E-01
        1   -1    0    0  501    0  0.00000000000E+00  0.00000000000E+00  0.23782881365E+04  0.23782881365E+04  0.50400001928E-02 0.  1.
       -1   -1    0    0    0  501  0.00000000000E+00  0.00000000000E+00 -0.17203620166E+04  0.17203620166E+04  0.50400001928E-02 0. -1.
    10030    2    1    2    0    0  0.00000000000E+00  0.00000000000E+00  0.65792611991E+03  0.40986501530E+04  0.40454995115E+04 0.  0.
        4    1    3    3  502    0 -0.98954507528E+03  0.17332336607E+04  0.66224793495E+03  0.21028248426E+04  0.12699999809E+01 0.  1.
       -4    1    3    3    0  502  0.98954507528E+03 -0.17332336607E+04 -0.43218150361E+01  0.19958253104E+04  0.12699999809E+01 0. -1.
</event>
<event>
 5   0  0.2661693E-07  0.4069762E+04  0.7818609E-02  0.7990619E-01
        2   -1    0    0  501    0  0.00000000000E+00  0.00000000000E+00  0.18859712528E+04  0.18859712528E+04  0.25500000920E-02 0. -1.
       -2   -1    0    0    0  501  0.00000000000E+00  0.00000000000E+00 -0.21955481016E+04  0.21955481016E+04  0.25500000920E-02 0.  1.
    10030    2    1    2    0    0  0.00000000000E+00  0.00000000000E+00 -0.30957684883E+03  0.40815193544E+04  0.40697619605E+04 0.  0.
        1    1    3    3  502    0  0.12950233193E+04  0.35756230385E+03 -0.16875375909E+04  0.21570163002E+04  0.50400001928E-02 0.  1.
       -1    1    3    3    0  502 -0.12950233193E+04 -0.35756230385E+03  0.13779607421E+04  0.19245030542E+04  0.50400001928E-02 0. -1.
</event>
<event>
 5   0  0.8528625E-08  0.3945071E+04  0.7818609E-02  0.8015720E-01
        1   -1    0    0  501    0  0.00000000000E+00  0.00000000000E+00  0.17077184449E+04  0.17077184449E+04  0.50400001928E-02 0.  1.
       -1   -1    0    0    0  501  0.00000000000E+00  0.00000000000E+00 -0.22784181759E+04  0.22784181759E+04  0.50400001928E-02 0. -1.
    10030    2    1    2    0    0  0.00000000000E+00  0.00000000000E+00 -0.57069973108E+03  0.39861366208E+04  0.39450712258E+04 0.  0.
        5    1    3    3  502    0 -0.92632336935E+03  0.54310590813E+03  0.13865144090E+04  0.17537055934E+04  0.46999998093E+01 0.  1.
       -5    1    3    3    0  502  0.92632336935E+03 -0.54310590813E+03 -0.19572141401E+04  0.22324310274E+04  0.46999998093E+01 0. -1.
</event>
<event>
 5   0  0.8528625E-08  0.3203580E+04  0.7818609E-02  0.8187872E-01
        1   -1    0    0  501    0  0.00000000000E+00  0.00000000000E+00  0.15833024544E+04  0.15833024544E+04  0.50400001928E-02 0.  1.
       -1   -1    0    0    0  501  0.00000000000E+00  0.00000000000E+00 -0.16204935610E+04  0.16204935610E+04  0.50400001928E-02 0. -1.
    10030    2    1    2    0    0  0.00000000000E+00  0.00000000000E+00 -0.37191106613E+02  0.32037960154E+04  0.32035801425E+04 0.  0.
        4    1    3    3  502    0  0.13907040661E+04 -0.32128956205E+03 -0.74558678993E+03  0.16103372493E+04  0.12699999809E+01 0. -1.
       -4    1    3    3    0  502 -0.13907040661E+04  0.32128956205E+03  0.70839568332E+03  0.15934587661E+04  0.12699999809E+01 0.  1.
</event>
<event>
 5   0  0.2839279E-07  0.4021318E+04  0.7818609E-02  0.8000260E-01
        2   -1    0    0  501    0  0.00000000000E+00  0.00000000000E+00  0.16588907854E+04  0.16588907854E+04  0.25500000920E-02 0. -1.
       -2   -1    0    0    0  501  0.00000000000E+00  0.00000000000E+00 -0.24370196402E+04  0.24370196402E+04  0.25500000920E-02 0.  1.
    10030    2    1    2    0    0  0.00000000000E+00  0.00000000000E+00 -0.77812885474E+03  0.40959104256E+04  0.40213179059E+04 0.  0.
        3    1    3    3  502    0 -0.14811756303E+04 -0.13476302492E+04 -0.57342150414E+03  0.20829788208E+04  0.10100000352E+00 0. -1.
       -3    1    3    3    0  502  0.14811756303E+04  0.13476302492E+04 -0.20470735060E+03  0.20129316048E+04  0.10100000352E+00 0.  1.
</event>
<event>
 5   0  0.8528625E-08  0.3974972E+04  0.7818609E-02  0.8009615E-01
       -3   -1    0    0    0  501  0.00000000000E+00  0.00000000000E+00  0.19917873480E+04  0.19917873505E+04  0.10100000352E+00 0. -1.
        3   -1    0    0  501    0  0.00000000000E+00  0.00000000000E+00 -0.19831935176E+04  0.19831935202E+04  0.10100000352E+00 0.  1.
    10030    2    1    2    0    0  0.00000000000E+00  0.00000000000E+00  0.85938303761E+01  0.39749808707E+04  0.39749715808E+04 0.  0.
        4    1    3    3  502    0  0.75321771319E+03  0.12664963953E+04  0.13379971910E+04  0.19903738691E+04  0.12699999809E+01 0. -1.
       -4    1    3    3    0  502 -0.75321771319E+03 -0.12664963953E+04 -0.13294033606E+04  0.19846070016E+04  0.12699999809E+01 0.  1.
</event>
<event>
 5   0  0.8528625E-08  0.3949997E+04  0.7818609E-02  0.8014710E-01
        1   -1    0    0  501    0  0.00000000000E+00  0.00000000000E+00  0.19553334311E+04  0.19553334311E+04  0.50400001928E-02 0.  1.
       -1   -1    0    0    0  501  0.00000000000E+00  0.00000000000E+00 -0.19948615648E+04  0.19948615648E+04  0.50400001928E-02 0. -1.
    10030    2    1    2    0    0  0.00000000000E+00  0.00000000000E+00 -0.39528133738E+02  0.39501949959E+04  0.39499972193E+04 0.  0.
        3    1    3    3  502    0 -0.18160201934E+04  0.72795088469E+03 -0.28955093223E+03  0.19777971549E+04  0.10100000352E+00 0.  1.
       -3    1    3    3    0  502  0.18160201934E+04 -0.72795088469E+03  0.25002279849E+03  0.19723978410E+04  0.10100000352E+00 0. -1.
</event>
<event>
 5   0  0.8528625E-08  0.3307162E+04  0.7818609E-02  0.8161076E-01
       -1   -1    0    0    0  501  0.00000000000E+00  0.00000000000E+00  0.10221945447E+04  0.10221945447E+04  0.50400001928E-02 0. -1.
        1   -1    0    0  501    0  0.00000000000E+00  0.00000000000E+00 -0.26749599656E+04  0.26749599656E+04  0.50400001928E-02 0.  1.
    10030    2    1    2    0    0  0.00000000000E+00  0.00000000000E+00 -0.16527654209E+04  0.36971545103E+04  0.33071616133E+04 0.  0.
        2    1    3    3  502    0 -0.15827539455E+04 -0.47784384037E+03 -0.85963406328E+03  0.18634418452E+04  0.25500000920E-02 0.  1.
       -2    1    3    3    0  502  0.15827539455E+04  0.47784384037E+03 -0.79313135765E+03  0.18337126651E+04  0.25500000920E-02 0. -1.
</event>
<event>
 5   0  0.2730801E-07  0.4153939E+04  0.7818609E-02  0.7974192E-01
       -2   -1    0    0    0  501  0.00000000000E+00  0.00000000000E+00  0.26287216702E+04  0.26287216702E+04  0.25500000920E-02 0. -1.
        2   -1    0    0  501    0  0.00000000000E+00  0.00000000000E+00 -0.16410264821E+04  0.16410264821E+04  0.25500000920E-02 0.  1.
    10030    2    1    2    0    0  0.00000000000E+00  0.00000000000E+00  0.98769518802E+03  0.42697481523E+04  0.41539387934E+04 0.  0.
        2    1    3    3  502    0 -0.85597867242E+03 -0.13536392202E+04  0.18531236760E+04  0.24493072459E+04  0.25500000920E-02 0. -1.
       -2    1    3    3    0  502  0.85597867242E+03  0.13536392202E+04 -0.86542848799E+03  0.18204409064E+04  0.25500000920E-02 0.  1.
</event>
<event>
 5   0  0.8528625E-08  0.3262219E+04  0.7818609E-02  0.8172576E-01
        1   -1    0    0  501    0  0.00000000000E+00  0.00000000000E+00  0.19798659551E+04  0.19798659551E+04  0.50400001928E-02 0.  1.
       -1   -1    0    0    0  501  0.00000000000E+00  0.00000000000E+00 -0.13437871354E+04  0.13437871354E+04  0.50400001928E-02 0. -1.
    10030    2    1    2    0    0  0.00000000000E+00  0.00000000000E+00  0.63607881971E+03  0.33236530905E+04  0.32622191222E+04 0.  0.
        4    1    3    3  502    0  0.22962787567E+03  0.12789750652E+04  0.13225119321E+04  0.18540619197E+04  0.12699999809E+01 0.  1.
       -4    1    3    3    0  502 -0.22962787567E+03 -0.12789750652E+04 -0.68643311237E+03  0.14695911708E+04  0.12699999809E+01 0. -1.
</event>
<event>
 5   0  0.8528625E-08  0.3824543E+04  0.7818609E-02  0.8040908E-01
       -1   -1    0    0    0  501  0.00000000000E+00  0.00000000000E+00  0.18997968235E+04  0.18997968235E+04  0.50400001928E-02 0. -1.
        1   -1    0    0  501    0  0.00000000000E+00  0.00000000000E+00 -0.19248283570E+04  0.19248283570E+04  0.50400001928E-02 0.  1.
    10030    2    1    2    0    0  0.00000000000E+00  0.00000000000E+00 -0.25031533515E+02  0.38246251806E+04  0.38245432661E+04 0.  0.
        2    1    3    3  502    0 -0.15335621063E+04  0.75642886460E+03 -0.86856297785E+03  0.19179152764E+04  0.25500000920E-02 0.  1.
       -2    1    3    3    0  502  0.15335621063E+04 -0.75642886460E+03  0.84353144434E+03  0.19067099042E+04  0.25500000920E-02 0. -1.
</event>
<event>
 5   0  0.8528625E-08  0.3999063E+04  0.7818609E-02  0.8004736E-01
        1   -1    0    0  501    0  0.00000000000E+00  0.00000000000E+00  0.17498317882E+04  0.17498317882E+04  0.50400001928E-02 0.  1.
       -1   -1    0    0    0  501  0.00000000000E+00  0.00000000000E+00 -0.22848634657E+04  0.22848634657E+04  0.50400001928E-02 0. -1.
    10030    2    1    2    0    0  0.00000000000E+00  0.00000000000E+00 -0.53503167753E+03  0.40346952539E+04  0.39990632523E+04 0.  0.
        3    1    3    3  502    0  0.96212324104E+03  0.17444300263E+04 -0.94495946855E+02  0.19944038562E+04  0.10100000352E+00 0. -1.
       -3    1    3    3    0  502 -0.96212324104E+03 -0.17444300263E+04 -0.44053573067E+03  0.20402913977E+04  0.10100000352E+00 0.  1.
</event>
<event>
 5   0  0.2661693E-07  0.3992048E+04  0.7818609E-02  0.8006153E-01
       -2   -1    0    0    0  501  0.00000000000E+00  0.00000000000E+00  0.20082704950E+04  0.20082704950E+04  0.25500000920E-02 0. -1.
        2   -1    0    0  501    0  0.00000000000E+00  0.00000000000E+00 -0.19838518944E+04  0.19838518944E+04  0.25500000920E-02 0.  1.
    10030    2    1    2    0    0  0.00000000000E+00  0.00000000000E+00  0.24418600601E+02  0.39921223893E+04  0.39920477081E+04 0.  0.
        1    1    3    3  502    0 -0.10357372262E+04  0.16381021007E+04 -0.46527332949E+03  0.19931405784E+04  0.50400001928E-02 0. -1.
       -1    1    3    3    0  502  0.10357372262E+04 -0.16381021007E+04  0.48969193009E+03  0.19989818110E+04  0.50400001928E-02 0.  1.
</event>
<event>
 5   0  0.2666978E-07  0.4105694E+04  0.7818609E-02  0.7983558E-01
       -2   -1    0    0    0  501  0.00000000000E+00  0.00000000000E+00  0.27398526299E+04  0.27398526299E+04  0.25500000920E-02 0.  1.
        2   -1    0    0  501    0  0.00000000000E+00  0.00000000000E+00 -0.15381046201E+04  0.15381046201E+04  0.25500000920E-02 0. -1.
    10030    2    1    2    0    0  0.00000000000E+00  0.00000000000E+00  0.12017480098E+04  0.42779572500E+04  0.41056936020E+04 0.  0.
        4    1    3    3  502    0 -0.13664647278E+04  0.32991760888E+03 -0.95792570734E+03  0.17010863455E+04  0.12699999809E+01 0. -1.
       -4    1    3    3    0  502  0.13664647278E+04 -0.32991760888E+03  0.21596737171E+04  0.25768709045E+04  0.12699999809E+01 0.  1.
</event>
<event>
 5   0  0.8583262E-08  0.3725211E+04  0.7818609E-02  0.8062398E-01
       -1   -1    0    0    0  501  0.00000000000E+00  0.00000000000E+00  0.16482631326E+04  0.16482631326E+04  0.50400001928E-02 0. -1.
        1   -1    0    0  501    0  0.00000000000E+00  0.00000000000E+00 -0.21048214896E+04  0.21048214896E+04  0.50400001928E-02 0.  1.
    10030    2    1    2    0    0  0.00000000000E+00  0.00000000000E+00 -0.45655835700E+03  0.37530846221E+04  0.37252112219E+04 0.  0.
        1    1    3    3  502    0  0.14200246556E+04  0.69983339675E+03  0.76042135997E+03  0.17562680463E+04  0.50400001928E-02 0. -1.
       -1    1    3    3    0  502 -0.14200246556E+04 -0.69983339675E+03 -0.12169797170E+04  0.19968165758E+04  0.50400001928E-02 0.  1.
</event>
<event>
 5   0  0.2661693E-07  0.4163089E+04  0.7818609E-02  0.7972431E-01
       -2   -1    0    0    0  501  0.00000000000E+00  0.00000000000E+00  0.22286521243E+04  0.22286521243E+04  0.25500000920E-02 0.  1.
        2   -1    0    0  501    0  0.00000000000E+00  0.00000000000E+00 -0.19441470373E+04  0.19441470373E+04  0.25500000920E-02 0. -1.
    10030    2    1    2    0    0  0.00000000000E+00  0.00000000000E+00  0.28450508705E+03  0.41727991616E+04  0.41630889611E+04 0.  0.
        1    1    3    3  502    0  0.10141436690E+04  0.36584684053E+03 -0.16424892960E+04  0.19647143252E+04  0.50400001928E-02 0. -1.
       -1    1    3    3    0  502 -0.10141436690E+04 -0.36584684053E+03  0.19269943831E+04  0.22080848364E+04  0.50400001928E-02 0.  1.
</event>
<event>
 5   0  0.2666978E-07  0.3675030E+04  0.7818609E-02  0.8073518E-01
       -2   -1    0    0    0  501  0.00000000000E+00  0.00000000000E+00  0.15554295336E+04  0.15554295336E+04  0.25500000920E-02 0.  1.
        2   -1    0    0  501    0  0.00000000000E+00  0.00000000000E+00 -0.21707580445E+04  0.21707580445E+04  0.25500000920E-02 0. -1.
    10030    2    1    2    0    0  0.00000000000E+00  0.00000000000E+00 -0.61532851084E+03  0.37261875781E+04  0.36750298898E+04 0.  0.
        4    1    3    3  502    0 -0.16062046904E+04 -0.78406076577E+02  0.59376655344E+03  0.17142349177E+04  0.12699999809E+01 0.  1.
       -4    1    3    3    0  502  0.16062046904E+04  0.78406076577E+02 -0.12090950643E+04  0.20119526604E+04  0.12699999809E+01 0. -1.
</event>
<event>
 5   0  0.2704088E-07  0.3731608E+04  0.7818609E-02  0.8060993E-01
        2   -1    0    0  501    0  0.00000000000E+00  0.00000000000E+00  0.25223460146E+04  0.25223460146E+04  0.25500000920E-02 0. -1.
       -2   -1    0    0    0  501  0.00000000000E+00  0.00000000000E+00 -0.13801537145E+04  0.13801537145E+04  0.25500000920E-02 0.  1.
    10030    2    1    2    0    0  0.00000000000E+00  0.00000000000E+00  0.11421923001E+04  0.39024997292E+04  0.37316083511E+04 0.  0.
        5    1    3    3  502    0  0.82285638877E+03 -0.36919758605E+03  0.22792373011E+04  0.24511924157E+04  0.46999998093E+01 0. -1.
       -5    1    3    3    0  502 -0.82285638877E+03  0.36919758605E+03 -0.11370450010E+04  0.14513073135E+04  0.46999998093E+01 0.  1.
</event>
<event>
 5   0  0.2661693E-07  0.3721079E+04  0.7818609E-02  0.8063306E-01
        2   -1    0    0  501    0  0.00000000000E+00  0.00000000000E+00  0.17864828753E+04  0.17864828753E+04  0.25500000920E-02 0. -1.
       -2   -1    0    0    0  501  0.00000000000E+00  0.00000000000E+00 -0.19376663094E+04  0.19376663094E+04  0.25500000920E-02 0.  1.
    10030    2    1    2    0    0  0.00000000000E+00  0.00000000000E+00 -0.15118343404E+03  0.37241491847E+04  0.37210792412E+04 0.  0.
        1    1    3    3  502    0  0.12751267182E+03 -0.42139494811E+03  0.17335983342E+04  0.17886297460E+04  0.50400001928E-02 0. -1.
       -1    1    3    3    0  502 -0.12751267182E+03  0.42139494811E+03 -0.18847817682E+04  0.19355194387E+04  0.50400001928E-02 0.  1.
</event>
<event>
 5   0  0.2704088E-07  0.4028197E+04  0.7818609E-02  0.7998882E-01
        2   -1    0    0  501    0  0.00000000000E+00  0.00000000000E+00  0.16476611656E+04  0.16476611656E+04  0.25500000920E-02 0. -1.
       -2   -1    0    0    0  501  0.00000000000E+00  0.00000000000E+00 -0.24620306623E+04  0.24620306623E+04  0.25500000920E-02 0.  1.
    10030    2    1    2    0    0  0.00000000000E+00  0.00000000000E+00 -0.81436949669E+03  0.41096918279E+04  0.40281967732E+04 0.  0.
        5    1    3    3  502    0 -0.13554180272E+04  0.96739536006E+03 -0.15630478440E+04  0.22838897661E+04  0.46999998093E+01 0.  1.
       -5    1    3    3    0  502  0.13554180272E+04 -0.96739536006E+03  0.74867834727E+03  0.18258020618E+04  0.46999998093E+01 0. -1.
</event>
<event>
 5   0  0.2661693E-07  0.4008549E+04  0.7818609E-02  0.8002824E-01
        2   -1    0    0  501    0  0.00000000000E+00  0.00000000000E+00  0.25859374778E+04  0.25859374778E+04  0.25500000920E-02 0.  1.
       -2   -1    0    0    0  501  0.00000000000E+00  0.00000000000E+00 -0.15534469236E+04  0.15534469236E+04  0.25500000920E-02 0. -1.
    10030    2    1    2    0    0  0.00000000000E+00  0.00000000000E+00  0.10324905542E+04  0.41393844014E+04  0.40085491737E+04 0.  0.
        1    1    3    3  502    0  0.76175408400E+02 -0.64328042783E+03 -0.14423702771E+04  0.15811528763E+04  0.50400001928E-02 0. -1.
       -1    1    3    3    0  502 -0.76175408400E+02  0.64328042783E+03  0.24748608313E+04  0.25582315251E+04  0.50400001928E-02 0.  1.
</event>
<event>
 5   0  0.8528625E-08  0.4061161E+04  0.7818609E-02  0.7992321E-01
       -1   -1    0    0    0  501  0.00000000000E+00  0.00000000000E+00  0.19387532784E+04  0.19387532784E+04  0.50400001928E-02 0. -1.
        1   -1    0    0  501    0  0.00000000000E+00  0.00000000000E+00 -0.21267572976E+04  0.21267572977E+04  0.50400001928E-02 0.  1.
    10030    2    1    2    0    0  0.00000000000E+00  0.00000000000E+00 -0.18800401927E+03  0.40655105760E+04  0.40611612542E+04 0.  0.
        4    1    3    3  502    0  0.10463908558E+04 -0.14960698909E+04  0.79582401389E+03  0.19916064911E+04  0.12699999809E+01 0. -1.
       -4    1    3    3    0  502 -0.10463908558E+04  0.14960698909E+04 -0.98382803315E+03  0.20739040849E+04  0.12699999809E+01 0.  1.
</event>
<event>
 5   0  0.8528625E-08  0.4011072E+04  0.7818609E-02  0.8002317E-01
        1   -1    0    0  501    0  0.00000000000E+00  0.00000000000E+00  0.12696144272E+04  0.12696144272E+04  0.50400001928E-02 0.  1.
       -1   -1    0    0    0  501  0.00000000000E+00  0.00000000000E+00 -0.31680279478E+04  0.31680279478E+04  0.50400001928E-02 0. -1.
    10030    2    1    2    0    0  0.00000000000E+00  0.00000000000E+00 -0.18984135206E+04  0.44376423751E+04  0.40110716715E+04 0.  0.
        3    1    3    3  502    0 -0.67002636729E+03 -0.11063210563E+04 -0.26449512382E+04  0.29442568969E+04  0.10100000352E+00 0. -1.
       -3    1    3    3    0  502  0.67002636729E+03  0.11063210563E+04  0.74653771760E+03  0.14933854782E+04  0.10100000352E+00 0.  1.
</event>
<event>
 5   0  0.2661693E-07  0.4003833E+04  0.7818609E-02  0.8003774E-01
        2   -1    0    0  501    0  0.00000000000E+00  0.00000000000E+00  0.23978301695E+04  0.23978301695E+04  0.25500000920E-02 0. -1.
       -2   -1    0    0    0  501  0.00000000000E+00  0.00000000000E+00 -0.16713735999E+04  0.16713735999E+04  0.25500000920E-02 0.  1.
    10030    2    1    2    0    0  0.00000000000E+00  0.00000000000E+00  0.72645656960E+03  0.40692037694E+04  0.40038331845E+04 0.  0.
        1    1    3    3  502    0 -0.92485130295E+03  0.44813672061E+03 -0.13828125063E+04  0.17228891086E+04  0.50400001928E-02 0.  1.
       -1    1    3    3    0  502  0.92485130295E+03 -0.44813672061E+03  0.21092690759E+04  0.23463146608E+04  0.50400001928E-02 0. -1.
</event>
<event>
 5   0  0.8528625E-08  0.4026914E+04  0.7818609E-02  0.7999139E-01
       -1   -1    0    0    0  501  0.00000000000E+00  0.00000000000E+00  0.20339171612E+04  0.20339171612E+04  0.50400001928E-02 0. -1.
        1   -1    0    0  501    0  0.00000000000E+00  0.00000000000E+00 -0.19932024030E+04  0.19932024030E+04  0.50400001928E-02 0.  1.
    10030    2    1    2    0    0  0.00000000000E+00  0.00000000000E+00  0.40714758200E+02  0.40271195643E+04  0.40269137430E+04 0.  0.
        2    1    3    3  502    0  0.14818983882E+04 -0.82791996605E+03 -0.10625341820E+04  0.20026115926E+04  0.25500000920E-02 0.  1.
       -2    1    3    3    0  502 -0.14818983882E+04  0.82791996605E+03  0.11032489402E+04  0.20245079716E+04  0.25500000920E-02 0. -1.
</event>
<event>
 5   0  0.2730801E-07  0.4098485E+04  0.7818609E-02  0.7984969E-01
        2   -1    0    0  501    0  0.00000000000E+00  0.00000000000E+00  0.19552976924E+04  0.19552976924E+04  0.25500000920E-02 0. -1.
       -2   -1    0    0    0  501  0.00000000000E+00  0.00000000000E+00 -0.21477007099E+04  0.21477007099E+04  0.25500000920E-02 0.  1.
    10030    2    1    2    0    0  0.00000000000E+00  0.00000000000E+00 -0.19240301745E+03  0.41029984023E+04  0.40984847161E+04 0.  0.
        2    1    3    3  502    0 -0.11066216187E+03  0.36080308148E+03 -0.21126117137E+04  0.21460552720E+04  0.25500000920E-02 0.  1.
       -2    1    3    3    0  502  0.11066216187E+03 -0.36080308148E+03  0.19202086963E+04  0.19569431302E+04  0.25500000920E-02 0. -1.
</event>
<event>
 5   0  0.8528625E-08  0.3981219E+04  0.7818609E-02  0.8008346E-01
       -1   -1    0    0    0  501  0.00000000000E+00  0.00000000000E+00  0.17841287208E+04  0.17841287208E+04  0.50400001928E-02 0.  1.
        1   -1    0    0  501    0  0.00000000000E+00  0.00000000000E+00 -0.22209863909E+04  0.22209863909E+04  0.50400001928E-02 0. -1.
    10030    2    1    2    0    0  0.00000000000E+00  0.00000000000E+00 -0.43685767009E+03  0.40051151117E+04  0.39812187121E+04 0.  0.
        4    1    3    3  502    0  0.16615288029E+03 -0.18121336455E+04  0.59331519017E+03  0.19140166291E+04  0.12699999809E+01 0.  1.
       -4    1    3    3    0  502 -0.16615288029E+03  0.18121336455E+04 -0.10301728603E+04  0.20910984825E+04  0.12699999809E+01 0. -1.
</event>
<event>
 5   0  0.2704088E-07  0.3993904E+04  0.7818609E-02  0.8005778E-01
       -2   -1    0    0    0  501  0.00000000000E+00  0.00000000000E+00  0.15895379524E+04  0.15895379524E+04  0.25500000920E-02 0. -1.
        2   -1    0    0  501    0  0.00000000000E+00  0.00000000000E+00 -0.25087896072E+04  0.25087896072E+04  0.25500000920E-02 0.  1.
    10030    2    1    2    0    0  0.00000000000E+00  0.00000000000E+00 -0.91925165476E+03  0.40983275597E+04  0.39939035018E+04 0.  0.
        5    1    3    3  502    0  0.14348555199E+04 -0.55609432646E+03 -0.17655926593E+04  0.23420911152E+04  0.46999998093E+01 0.  1.
       -5    1    3    3    0  502 -0.14348555199E+04  0.55609432646E+03  0.84634100457E+03  0.17562364445E+04  0.46999998093E+01 0. -1.
</event>
<event>
 5   0  0.8583262E-08  0.4027052E+04  0.7818609E-02  0.7999111E-01
       -1   -1    0    0    0  501  0.00000000000E+00  0.00000000000E+00  0.35593080139E+04  0.35593080139E+04  0.50400001928E-02 0. -1.
        1   -1    0    0  501    0  0.00000000000E+00  0.00000000000E+00 -0.11390662443E+04  0.11390662443E+04  0.50400001928E-02 0.  1.
    10030    2    1    2    0    0  0.00000000000E+00  0.00000000000E+00  0.24202417696E+04  0.46983742582E+04  0.40270523273E+04 0.  0.
        1    1    3    3  502    0  0.98412653704E+03 -0.15449802021E+04  0.23481103836E+03  0.18467823612E+04  0.50400001928E-02 0. -1.
       -1    1    3    3    0  502 -0.98412653704E+03  0.15449802021E+04  0.21854307313E+04  0.28515918970E+04  0.50400001928E-02 0.  1.
</event>
<event>
 5   0  0.2661693E-07  0.3960675E+04  0.7818609E-02  0.8012527E-01
       -2   -1    0    0    0  501  0.00000000000E+00  0.00000000000E+00  0.16325133610E+04  0.16325133610E+04  0.25500000920E-02 0. -1.
        2   -1    0    0  501    0  0.00000000000E+00  0.00000000000E+00 -0.24022686380E+04  0.24022686380E+04  0.25500000920E-02 0.  1.
    10030    2    1    2    0    0  0.00000000000E+00  0.00000000000E+00 -0.76975527692E+03  0.40347819990E+04  0.39606745124E+04 0.  0.
        1    1    3    3  502    0 -0.11991682976E+04 -0.32954112161E+03  0.11851053660E+04  0.17178698103E+04  0.50400001928E-02 0. -1.
       -1    1    3    3    0  502  0.11991682976E+04  0.32954112161E+03 -0.19548606429E+04  0.23169121887E+04  0.50400001928E-02 0.  1.
</event>
<event>
 5   0  0.8528625E-08  0.4001292E+04  0.7818609E-02  0.8004286E-01
        1   -1    0    0  501    0  0.00000000000E+00  0.00000000000E+00  0.13911599865E+04  0.13911599865E+04  0.50400001928E-02 0. -1.
       -1   -1    0    0    0  501  0.00000000000E+00  0.00000000000E+00 -0.28771565714E+04  0.28771565714E+04  0.50400001928E-02 0.  1.
    10030    2    1    2    0    0  0.00000000000E+00  0.00000000000E+00 -0.14859965849E+04  0.42683165579E+04  0.40012923397E+04 0.  0.
        2    1    3    3  502    0 -0.62676935003E+03 -0.16773415296E+04 -0.16948881482E+04  0.24655547571E+04  0.25500000920E-02 0.  1.
       -2    1    3    3    0  502  0.62676935003E+03  0.16773415296E+04  0.20889156335E+03  0.18027618008E+04  0.25500000920E-02 0. -1.
</event>
<event>
 5   0  0.8528625E-08  0.3169153E+04  0.7818609E-02  0.8197012E-01
        1   -1    0    0  501    0  0.00000000000E+00  0.00000000000E+00  0.85489214391E+03  0.85489214393E+03  0.50400001928E-02 0.  1.
       -1   -1    0    0    0  501  0.00000000000E+00  0.00000000000E+00 -0.29370755905E+04  0.29370755905E+04  0.50400001928E-02 0. -1.
    10030    2    1    2    0    0  0.00000000000E+00  0.00000000000E+00 -0.20821834466E+04  0.37919677344E+04  0.31691531035E+04 0.  0.
        2    1    3    3  502    0  0.68705373504E+03  0.12032233805E+04 -0.12117289422E+03  0.13908530506E+04  0.25500000920E-02 0.  1.
       -2    1    3    3    0  502 -0.68705373504E+03 -0.12032233805E+04 -0.19610105523E+04  0.24011146838E+04  0.25500000920E-02 0. -1.
</event>
<event>
 5   0  0.8528625E-08  0.4050086E+04  0.7818609E-02  0.7994518E-01
       -1   -1    0    0    0  501  0.00000000000E+00  0.00000000000E+00  0.21422713376E+04  0.21422713377E+04  0.50400001928E-02 0. -1.
        1   -1    0    0  501    0  0.00000000000E+00  0.00000000000E+00 -0.19142295728E+04  0.19142295729E+04  0.50400001928E-02 0.  1.
    10030    2    1    2    0    0  0.00000000000E+00  0.00000000000E+00  0.22804176480E+03  0.40565009105E+04  0.40500859979E+04 0.  0.
        5    1    3    3  502    0 -0.41220577067E+03  0.11021028232E+04  0.17647310626E+04  0.21210473930E+04  0.46999998093E+01 0. -1.
       -5    1    3    3    0  502  0.41220577067E+03 -0.11021028232E+04 -0.15366892978E+04  0.19354535175E+04  0.46999998093E+01 0.  1.
</event>
<event>
 5   0  0.8528625E-08  0.3977486E+04  0.7818609E-02  0.8009104E-01
        1   -1    0    0  501    0  0.00000000000E+00  0.00000000000E+00  0.21315559581E+04  0.21315559581E+04  0.50400001928E-02 0.  1.
       -1   -1    0    0    0  501  0.00000000000E+00  0.00000000000E+00 -0.18554982417E+04  0.18554982417E+04  0.50400001928E-02 0. -1.
    10030    2    1    2    0    0  0.00000000000E+00  0.00000000000E+00  0.27605771639E+03  0.39870541998E+04  0.39774858051E+04 0.  0.
        5    1    3    3  502    0 -0.27248689999E+03 -0.60769225740E+03 -0.17403887086E+04  0.18634682550E+04  0.46999998093E+01 0. -1.
       -5    1    3    3    0  502  0.27248689999E+03  0.60769225740E+03  0.20164464250E+04  0.21235859448E+04  0.46999998093E+01 0.  1.
</event>
<event>
 5   0  0.8528625E-08  0.3240502E+04  0.7818609E-02  0.8178202E-01
       -1   -1    0    0    0  501  0.00000000000E+00  0.00000000000E+00  0.11201870589E+04  0.11201870589E+04  0.50400001928E-02 0.  1.
        1   -1    0    0  501    0  0.00000000000E+00  0.00000000000E+00 -0.23435490095E+04  0.23435490096E+04  0.50400001928E-02 0. -1.
    10030    2    1    2    0    0  0.00000000000E+00  0.00000000000E+00 -0.12233619507E+04  0.34637360685E+04  0.32405019811E+04 0.  0.
        4    1    3    3  502    0  0.53391924493E+03 -0.15263523331E+04 -0.50272531983E+03  0.16933858287E+04  0.12699999809E+01 0.  1.
       -4    1    3    3    0  502 -0.53391924493E+03  0.15263523331E+04 -0.72063663083E+03  0.17703502397E+04  0.12699999809E+01 0. -1.
</event>
<event>
 5   0  0.2666978E-07  0.3940122E+04  0.7818609E-02  0.8016736E-01
       -2   -1    0    0    0  501  0.00000000000E+00  0.00000000000E+00  0.18619810049E+04  0.18619810049E+04  0.25500000920E-02 0. -1.
        2   -1    0    0  501    0  0.00000000000E+00  0.00000000000E+00 -0.20844145188E+04  0.20844145188E+04  0.25500000920E-02 0.  1.
    10030    2    1    2    0    0  0.00000000000E+00  0.00000000000E+00 -0.22243351388E+03  0.39463955237E+04  0.39401219476E+04 0.  0.
        4    1    3    3  502    0 -0.24337279956E+03 -0.69718193313E+03 -0.19405546090E+04  0.20763060398E+04  0.12699999809E+01 0.  1.
       -4    1    3    3    0  502  0.24337279956E+03  0.69718193313E+03  0.17181210951E+04  0.18700894839E+04  0.12699999809E+01 0. -1.
</event>
<event>
 5   0  0.2661693E-07  0.3989179E+04  0.7818609E-02  0.8006733E-01
        2   -1    0    0  501    0  0.00000000000E+00  0.00000000000E+00  0.27888541081E+04  0.27888541081E+04  0.25500000920E-02 0. -1.
       -2   -1    0    0    0  501  0.00000000000E+00  0.00000000000E+00 -0.14265313746E+04  0.14265313746E+04  0.25500000920E-02 0.  1.
    10030    2    1    2    0    0  0.00000000000E+00  0.00000000000E+00  0.13623227335E+04  0.42153854827E+04  0.39891793062E+04 0.  0.
        1    1    3    3  502    0  0.16362251739E+04  0.10318828006E+04  0.11949123028E+04  0.22737260928E+04  0.50400001928E-02 0. -1.
       -1    1    3    3    0  502 -0.16362251739E+04 -0.10318828006E+04  0.16741043073E+03  0.19416593898E+04  0.50400001928E-02 0.  1.
</event>
<event>
 5   0  0.2704088E-07  0.4008416E+04  0.7818609E-02  0.8002851E-01
        2   -1    0    0  501    0  0.00000000000E+00  0.00000000000E+00  0.32201778725E+04  0.32201778725E+04  0.25500000920E-02 0.  1.
       -2   -1    0    0    0  501  0.00000000000E+00  0.00000000000E+00 -0.12474001845E+04  0.12474001845E+04  0.25500000920E-02 0. -1.
    10030    2    1    2    0    0  0.00000000000E+00  0.00000000000E+00  0.19727776880E+04  0.44675780570E+04  0.40084163817E+04 0.  0.
        5    1    3    3  502    0 -0.12202275553E+04 -0.19410216076E+03  0.27451878544E+04  0.30104334209E+04  0.46999998093E+01 0.  1.
       -5    1    3    3    0  502  0.12202275553E+04  0.19410216076E+03 -0.77241016640E+03  0.14571446361E+04  0.46999998093E+01 0. -1.
</event>
<event>
 5   0  0.2730801E-07  0.3989676E+04  0.7818609E-02  0.8006632E-01
        2   -1    0    0  501    0  0.00000000000E+00  0.00000000000E+00  0.24902031098E+04  0.24902031098E+04  0.25500000920E-02 0. -1.
       -2   -1    0    0    0  501  0.00000000000E+00  0.00000000000E+00 -0.15980135919E+04  0.15980135919E+04  0.25500000920E-02 0.  1.
    10030    2    1    2    0    0  0.00000000000E+00  0.00000000000E+00  0.89218951790E+03  0.40882167016E+04  0.39896758845E+04 0.  0.
        2    1    3    3  502    0  0.18909709550E+04  0.77965095649E+02  0.10921661950E+04  0.21851033628E+04  0.25500000920E-02 0.  1.
       -2    1    3    3    0  502 -0.18909709550E+04 -0.77965095649E+02 -0.19997667708E+03  0.19031133388E+04  0.25500000920E-02 0. -1.
</event>
<event>
 5   0  0.8528625E-08  0.4161847E+04  0.7818609E-02  0.7972670E-01
        1   -1    0    0  501    0  0.00000000000E+00  0.00000000000E+00  0.20277737767E+04  0.20277737767E+04  0.50400001928E-02 0.  1.
       -1   -1    0    0    0  501  0.00000000000E+00  0.00000000000E+00 -0.21354660229E+04  0.21354660229E+04  0.50400001928E-02 0. -1.
    10030    2    1    2    0    0  0.00000000000E+00  0.00000000000E+00 -0.10769224618E+03  0.41632397996E+04  0.41618467066E+04 0.  0.
        2    1    3    3  502    0 -0.13952537858E+02 -0.15484763604E+04 -0.14443719521E+04  0.21175892067E+04  0.25500000920E-02 0. -1.
       -2    1    3    3    0  502  0.13952537858E+02  0.15484763604E+04  0.13366797060E+04  0.20456505929E+04  0.25500000920E-02 0.  1.
</event>
<event>
 5   0  0.8583262E-08  0.4035438E+04  0.7818609E-02  0.7997435E-01
        1   -1    0    0  501    0  0.00000000000E+00  0.00000000000E+00  0.21804020291E+04  0.21804020291E+04  0.50400001928E-02 0. -1.
       -1   -1    0    0    0  501  0.00000000000E+00  0.00000000000E+00 -0.18671744245E+04  0.18671744245E+04  0.50400001928E-02 0.  1.
    10030    2    1    2    0    0  0.00000000000E+00  0.00000000000E+00  0.31322760457E+03  0.40475764536E+04  0.40354384663E+04 0.  0.
        1    1    3    3  502    0 -0.95501775431E+03 -0.79468964157E+03  0.17512386834E+04  0.21471905979E+04  0.50400001928E-02 0. -1.
       -1    1    3    3    0  502  0.95501775431E+03  0.79468964157E+03 -0.14380110788E+04  0.19003858557E+04  0.50400001928E-02 0.  1.
</event>
<event>
 5   0  0.2704088E-07  0.4040831E+04  0.7818609E-02  0.7996360E-01
       -2   -1    0    0    0  501  0.00000000000E+00  0.00000000000E+00  0.25207061376E+04  0.25207061376E+04  0.25500000920E-02 0.  1.
        2   -1    0    0  501    0  0.00000000000E+00  0.00000000000E+00 -0.16194187329E+04  0.16194187329E+04  0.25500000920E-02 0. -1.
    10030    2    1    2    0    0  0.00000000000E+00  0.00000000000E+00  0.90128740473E+03  0.41401248705E+04  0.40408309736E+04 0.  0.
        5    1    3    3  502    0  0.45800848479E+02  0.38793739837E+03  0.24816411870E+04  0.25122018656E+04  0.46999998093E+01 0.  1.
       -5    1    3    3    0  502 -0.45800848479E+02 -0.38793739837E+03 -0.15803537822E+04  0.16279230049E+04  0.46999998093E+01 0. -1.
</event>
<event>
 5   0  0.2661693E-07  0.3664212E+04  0.7818609E-02  0.8075939E-01
       -2   -1    0    0    0  501  0.00000000000E+00  0.00000000000E+00  0.29097006005E+04  0.29097006005E+04  0.25500000920E-02 0.  1.
        2   -1    0    0  501    0  0.00000000000E+00  0.00000000000E+00 -0.11535937539E+04  0.11535937539E+04  0.25500000920E-02 0. -1.
    10030    2    1    2    0    0  0.00000000000E+00  0.00000000000E+00  0.17561068466E+04  0.40632943544E+04  0.36642120236E+04 0.  0.
        1    1    3    3  502    0  0.73767456665E+03 -0.76574297179E+03 -0.77645390416E+03  0.13165890515E+04  0.50400001928E-02 0. -1.
       -1    1    3    3    0  502 -0.73767456665E+03  0.76574297179E+03  0.25325607507E+04  0.27467053030E+04  0.50400001928E-02 0.  1.
</event>
<event>
 5   0  0.8528625E-08  0.3899008E+04  0.7818609E-02  0.8025236E-01
        3   -1    0    0  501    0  0.00000000000E+00  0.00000000000E+00  0.29686007396E+04  0.29686007413E+04  0.10100000352E+00 0.  1.
       -3   -1    0    0    0  501  0.00000000000E+00  0.00000000000E+00 -0.12802550498E+04  0.12802550538E+04  0.10100000352E+00 0. -1.
    10030    2    1    2    0    0  0.00000000000E+00  0.00000000000E+00  0.16883456897E+04  0.42488557951E+04  0.38990081302E+04 0.  0.
        1    1    3    3  502    0 -0.11636115934E+04 -0.12569001558E+04  0.18587178782E+04  0.25275723714E+04  0.50400001928E-02 0.  1.
       -1    1    3    3    0  502  0.11636115934E+04  0.12569001558E+04 -0.17037218848E+03  0.17212834237E+04  0.50400001928E-02 0. -1.
</event>
<event>
 5   0  0.8528625E-08  0.3528140E+04  0.7818609E-02  0.8107153E-01
       -1   -1    0    0    0  501  0.00000000000E+00  0.00000000000E+00  0.12642093014E+04  0.12642093014E+04  0.50400001928E-02 0. -1.
        1   -1    0    0  501    0  0.00000000000E+00  0.00000000000E+00 -0.24615729893E+04  0.24615729893E+04  0.50400001928E-02 0.  1.
    10030    2    1    2    0    0  0.00000000000E+00  0.00000000000E+00 -0.11973636879E+04  0.37257822907E+04  0.35281402858E+04 0.  0.
        3    1    3    3  502    0 -0.16068038701E+04  0.44064017753E+03 -0.12107729539E+04  0.20596003493E+04  0.10100000352E+00 0.  1.
       -3    1    3    3    0  502  0.16068038701E+04 -0.44064017753E+03  0.13409266007E+02  0.16661819413E+04  0.10100000352E+00 0. -1.
</event>
<event>
 5   0  0.2704088E-07  0.4091931E+04  0.7818609E-02  0.7986254E-01
        2   -1    0    0  501    0  0.00000000000E+00  0.00000000000E+00  0.19691339485E+04  0.19691339485E+04  0.25500000920E-02 0.  1.
       -2   -1    0    0    0  501  0.00000000000E+00  0.00000000000E+00 -0.21257948094E+04  0.21257948094E+04  0.25500000920E-02 0. -1.
    10030    2    1    2    0    0  0.00000000000E+00  0.00000000000E+00 -0.15666086095E+03  0.40949287579E+04  0.40919309509E+04 0.  0.
        5    1    3    3  502    0 -0.49215441586E+03  0.83201980032E+03  0.17261766007E+04  0.19784288372E+04  0.46999998093E+01 0.  1.
       -5    1    3    3    0  502  0.49215441586E+03 -0.83201980032E+03 -0.18828374617E+04  0.21164999207E+04  0.46999998093E+01 0. -1.
</event>
<event>
 5   0  0.8528625E-08  0.4042307E+04  0.7818609E-02  0.7996066E-01
        1   -1    0    0  501    0  0.00000000000E+00  0.00000000000E+00  0.24267858454E+04  0.24267858454E+04  0.50400001928E-02 0.  1.
       -1   -1    0    0    0  501  0.00000000000E+00  0.00000000000E+00 -0.16833215670E+04  0.16833215670E+04  0.50400001928E-02 0. -1.
    10030    2    1    2    0    0  0.00000000000E+00  0.00000000000E+00  0.74346427838E+03  0.41101074124E+04  0.40423067435E+04 0.  0.
        3    1    3    3  502    0  0.20146388018E+04 -0.38554039492E+01  0.53655152563E+03  0.20848673617E+04  0.10100000352E+00 0. -1.
       -3    1    3    3    0  502 -0.20146388018E+04  0.38554039492E+01  0.20691275276E+03  0.20252400508E+04  0.10100000352E+00 0.  1.
</event>
<event>
 5   0  0.2704088E-07  0.3569602E+04  0.7818609E-02  0.8097490E-01
        2   -1    0    0  501    0  0.00000000000E+00  0.00000000000E+00  0.15748826177E+04  0.15748826177E+04  0.25500000920E-02 0. -1.
       -2   -1    0    0    0  501  0.00000000000E+00  0.00000000000E+00 -0.20226997292E+04  0.20226997292E+04  0.25500000920E-02 0.  1.
    10030    2    1    2    0    0  0.00000000000E+00  0.00000000000E+00 -0.44781711147E+03  0.35975823469E+04  0.35696020195E+04 0.  0.
        5    1    3    3  502    0  0.77693646977E+03 -0.61651909239E+03 -0.17193746576E+04  0.19849426623E+04  0.46999998093E+01 0.  1.
       -5    1    3    3    0  502 -0.77693646977E+03  0.61651909239E+03  0.12715575461E+04  0.16126396846E+04  0.46999998093E+01 0. -1.
</event>
<event>
 5   0  0.8528625E-08  0.4002159E+04  0.7818609E-02  0.8004111E-01
       -1   -1    0    0    0  501  0.00000000000E+00  0.00000000000E+00  0.21278443539E+04  0.21278443539E+04  0.50400001928E-02 0. -1.
        1   -1    0    0  501    0  0.00000000000E+00  0.00000000000E+00 -0.18818666663E+04  0.18818666664E+04  0.50400001928E-02 0.  1.
    10030    2    1    2    0    0  0.00000000000E+00  0.00000000000E+00  0.24597768758E+03  0.40097110203E+04  0.40021590977E+04 0.  0.
        2    1    3    3  502    0  0.14977108472E+04  0.28478342091E+03 -0.11756359900E+04  0.19251907333E+04  0.25500000920E-02 0.  1.
       -2    1    3    3    0  502 -0.14977108472E+04 -0.28478342091E+03  0.14216136776E+04  0.20845202870E+04  0.25500000920E-02 0. -1.
</event>
<event>
 5   0  0.2661693E-07  0.3122504E+04  0.7818609E-02  0.8209589E-01
        2   -1    0    0  501    0  0.00000000000E+00  0.00000000000E+00  0.16340098238E+04  0.16340098238E+04  0.25500000920E-02 0.  1.
       -2   -1    0    0    0  501  0.00000000000E+00  0.00000000000E+00 -0.14917337131E+04  0.14917337131E+04  0.25500000920E-02 0. -1.
    10030    2    1    2    0    0  0.00000000000E+00  0.00000000000E+00  0.14227611070E+03  0.31257435370E+04  0.31225038298E+04 0.  0.
        1    1    3    3  502    0  0.42989337449E+03 -0.95966721203E+03  0.12263449433E+04  0.16154539273E+04  0.50400001928E-02 0.  1.
       -1    1    3    3    0  502 -0.42989337449E+03  0.95966721203E+03 -0.10840688326E+04  0.15102896097E+04  0.50400001928E-02 0. -1.
</event>
<event>
 5   0  0.8528625E-08  0.4004837E+04  0.7818609E-02  0.8003571E-01
        1   -1    0    0  501    0  0.00000000000E+00  0.00000000000E+00  0.13026363701E+04  0.13026363701E+04  0.50400001928E-02 0.  1.
       -1   -1    0    0    0  501  0.00000000000E+00  0.00000000000E+00 -0.30781270465E+04  0.30781270465E+04  0.50400001928E-02 0. -1.
    10030    2    1    2    0    0  0.00000000000E+00  0.00000000000E+00 -0.17754906764E+04  0.43807634165E+04  0.40048371964E+04 0.  0.
        2    1    3    3  502    0 -0.41871891179E+03 -0.38015594879E+03 -0.29889505804E+04  0.30419844912E+04  0.25500000920E-02 0. -1.
       -2    1    3    3    0  502  0.41871891179E+03  0.38015594879E+03  0.12134599040E+04  0.13387789254E+04  0.25500000920E-02 0.  1.
</event>
<event>
 5   0  0.2666978E-07  0.4036096E+04  0.7818609E-02  0.7997304E-01
       -2   -1    0    0    0  501  0.00000000000E+00  0.00000000000E+00  0.16739610892E+04  0.16739610892E+04  0.25500000920E-02 0.  1.
        2   -1    0    0  501    0  0.00000000000E+00  0.00000000000E+00 -0.24328623513E+04  0.24328623513E+04  0.25500000920E-02 0. -1.
    10030    2    1    2    0    0  0.00000000000E+00  0.00000000000E+00 -0.75890126212E+03  0.41068234406E+04  0.40360955943E+04 0.  0.
        4    1    3    3  502    0  0.11334534596E+04  0.17694328459E+03 -0.20688128199E+04  0.23655895180E+04  0.12699999809E+01 0. -1.
       -4    1    3    3    0  502 -0.11334534596E+04 -0.17694328459E+03  0.13099115578E+04  0.17412339226E+04  0.12699999809E+01 0.  1.
</event>
<event>
 5   0  0.8528625E-08  0.3948357E+04  0.7818609E-02  0.8015046E-01
       -1   -1    0    0    0  501  0.00000000000E+00  0.00000000000E+00  0.22181472041E+04  0.22181472041E+04  0.50400001928E-02 0.  1.
        1   -1    0    0  501    0  0.00000000000E+00  0.00000000000E+00 -0.17570435224E+04  0.17570435224E+04  0.50400001928E-02 0. -1.
    10030    2    1    2    0    0  0.00000000000E+00  0.00000000000E+00  0.46110368177E+03  0.39751907265E+04  0.39483572162E+04 0.  0.
        4    1    3    3  502    0  0.78375528010E+03 -0.13792470149E+04  0.14136057837E+04  0.21248241320E+04  0.12699999809E+01 0.  1.
       -4    1    3    3    0  502 -0.78375528010E+03  0.13792470149E+04 -0.95250210190E+03  0.18503665946E+04  0.12699999809E+01 0. -1.
</event>
<event>
 5   0  0.8528625E-08  0.4036169E+04  0.7818609E-02  0.7997290E-01
        1   -1    0    0  501    0  0.00000000000E+00  0.00000000000E+00  0.18577678992E+04  0.18577678992E+04  0.50400001928E-02 0. -1.
       -1   -1    0    0    0  501  0.00000000000E+00  0.00000000000E+00 -0.21922355475E+04  0.21922355475E+04  0.50400001928E-02 0.  1.
    10030    2    1    2    0    0  0.00000000000E+00  0.00000000000E+00 -0.33446764830E+03  0.40500034466E+04  0.40361688902E+04 0.  0.
        2    1    3    3  502    0  0.16043829936E+04  0.96625816112E+01  0.10611053449E+04  0.19235599052E+04  0.25500000920E-02 0. -1.
       -2    1    3    3    0  502 -0.16043829936E+04 -0.96625816112E+01 -0.13955729932E+04  0.21264435415E+04  0.25500000920E-02 0.  1.
</event>
<event>
 5   0  0.8528625E-08  0.2937971E+04  0.7818609E-02  0.8261669E-01
       -1   -1    0    0    0  501  0.00000000000E+00  0.00000000000E+00  0.15928245514E+04  0.15928245514E+04  0.50400001928E-02 0. -1.
        1   -1    0    0  501    0  0.00000000000E+00  0.00000000000E+00 -0.13547743344E+04  0.13547743344E+04  0.50400001928E-02 0.  1.
    10030    2    1    2    0    0  0.00000000000E+00  0.00000000000E+00  0.23805021697E+03  0.29475988858E+04  0.29379706067E+04 0.  0.
        5    1    3    3  502    0 -0.56074193768E+03 -0.45443939151E+03 -0.11646009302E+04  0.13701328760E+04  0.46999998093E+01 0.  1.
       -5    1    3    3    0  502  0.56074193768E+03  0.45443939151E+03  0.14026511472E+04  0.15774660098E+04  0.46999998093E+01 0. -1.
</event>
<event>
 5   0  0.8528625E-08  0.3973675E+04  0.7818609E-02  0.8009878E-01
       -1   -1    0    0    0  501  0.00000000000E+00  0.00000000000E+00  0.14411791902E+04  0.14411791902E+04  0.50400001928E-02 0. -1.
        1   -1    0    0  501    0  0.00000000000E+00  0.00000000000E+00 -0.27390922210E+04  0.27390922210E+04  0.50400001928E-02 0.  1.
    10030    2    1    2    0    0  0.00000000000E+00  0.00000000000E+00 -0.12979130308E+04  0.41802714112E+04  0.39736747270E+04 0.  0.
        2    1    3    3  502    0 -0.17600070606E+04  0.41029594667E+03 -0.15174421696E+04  0.23597877776E+04  0.25500000920E-02 0.  1.
       -2    1    3    3    0  502  0.17600070606E+04 -0.41029594667E+03  0.21952913886E+03  0.18204836336E+04  0.25500000920E-02 0. -1.
</event>
<event>
 5   0  0.8528625E-08  0.4089571E+04  0.7818609E-02  0.7986717E-01
        1   -1    0    0  501    0  0.00000000000E+00  0.00000000000E+00  0.17841226124E+04  0.17841226124E+04  0.50400001928E-02 0. -1.
       -1   -1    0    0    0  501  0.00000000000E+00  0.00000000000E+00 -0.23435317939E+04  0.23435317939E+04  0.50400001928E-02 0.  1.
    10030    2    1    2    0    0  0.00000000000E+00  0.00000000000E+00 -0.55940918152E+03  0.41276544063E+04  0.40895711591E+04 0.  0.
        3    1    3    3  502    0  0.18957805431E+04 -0.59847231648E+03  0.20328595502E+03  0.19983688776E+04  0.10100000352E+00 0. -1.
       -3    1    3    3    0  502 -0.18957805431E+04  0.59847231648E+03 -0.76269513654E+03  0.21292855287E+04  0.10100000352E+00 0.  1.
</event>
<event>
 5   0  0.8528625E-08  0.4022697E+04  0.7818609E-02  0.7999983E-01
        1   -1    0    0  501    0  0.00000000000E+00  0.00000000000E+00  0.24532860971E+04  0.24532860971E+04  0.50400001928E-02 0.  1.
       -1   -1    0    0    0  501  0.00000000000E+00  0.00000000000E+00 -0.16490219552E+04  0.16490219552E+04  0.50400001928E-02 0. -1.
    10030    2    1    2    0    0  0.00000000000E+00  0.00000000000E+00  0.80426414192E+03  0.41023080523E+04  0.40226969245E+04 0.  0.
        5    1    3    3  502    0  0.17282498588E+04  0.99028290586E+03  0.11733334609E+03  0.19953187746E+04  0.46999998093E+01 0. -1.
       -5    1    3    3    0  502 -0.17282498588E+04 -0.99028290586E+03  0.68693079582E+03  0.21069892777E+04  0.46999998093E+01 0.  1.
</event>
<event>
 5   0  0.8528625E-08  0.4000901E+04  0.7818609E-02  0.8004365E-01
       -1   -1    0    0    0  501  0.00000000000E+00  0.00000000000E+00  0.21866207807E+04  0.21866207808E+04  0.50400001928E-02 0. -1.
        1   -1    0    0  501    0  0.00000000000E+00  0.00000000000E+00 -0.18301313259E+04  0.18301313259E+04  0.50400001928E-02 0.  1.
    10030    2    1    2    0    0  0.00000000000E+00  0.00000000000E+00  0.35648945484E+03  0.40167521067E+04  0.40009014928E+04 0.  0.
        5    1    3    3  502    0 -0.13018739229E+03  0.15761908080E+03 -0.18196110668E+04  0.18310650060E+04  0.46999998093E+01 0.  1.
       -5    1    3    3    0  502  0.13018739229E+03 -0.15761908080E+03  0.21761005216E+04  0.21856871007E+04  0.46999998093E+01 0. -1.
</event>
<event>
 5   0  0.8528625E-08  0.3955671E+04  0.7818609E-02  0.8013549E-01
        1   -1    0    0  501    0  0.00000000000E+00  0.00000000000E+00  0.24167220348E+04  0.24167220348E+04  0.50400001928E-02 0. -1.
       -1   -1    0    0    0  501  0.00000000000E+00  0.00000000000E+00 -0.16186528672E+04  0.16186528672E+04  0.50400001928E-02 0.  1.
    10030    2    1    2    0    0  0.00000000000E+00  0.00000000000E+00  0.79806916763E+03  0.40353749020E+04  0.39556713973E+04 0.  0.
        5    1    3    3  502    0 -0.12268124999E+04  0.10387137687E+04  0.15745619779E+04  0.22501694859E+04  0.46999998093E+01 0. -1.
       -5    1    3    3    0  502  0.12268124999E+04 -0.10387137687E+04 -0.77649281025E+03  0.17852054161E+04  0.46999998093E+01 0.  1.
</event>
<event>
 5   0  0.2666978E-07  0.3961851E+04  0.7818609E-02  0.8012287E-01
       -2   -1    0    0    0  501  0.00000000000E+00  0.00000000000E+00  0.17724771679E+04  0.17724771679E+04  0.25500000920E-02 0.  1.
        2   -1    0    0  501    0  0.00000000000E+00  0.00000000000E+00 -0.22138881331E+04  0.22138881331E+04  0.25500000920E-02 0. -1.
    10030    2    1    2    0    0  0.00000000000E+00  0.00000000000E+00 -0.44141096526E+03  0.39863653010E+04  0.39618511674E+04 0.  0.
        4    1    3    3  502    0 -0.85557739607E+03 -0.16810667500E+04  0.38807245518E+03  0.19257725571E+04  0.12699999809E+01 0.  1.
       -4    1    3    3    0  502  0.85557739607E+03  0.16810667500E+04 -0.82948342044E+03  0.20605927439E+04  0.12699999809E+01 0. -1.
</event>
<event>
 5   0  0.8528625E-08  0.4026816E+04  0.7818609E-02  0.7999159E-01
        1   -1    0    0  501    0  0.00000000000E+00  0.00000000000E+00  0.16512026975E+04  0.16512026975E+04  0.50400001928E-02 0. -1.
       -1   -1    0    0    0  501  0.00000000000E+00  0.00000000000E+00 -0.24550666286E+04  0.24550666286E+04  0.50400001928E-02 0.  1.
    10030    2    1    2    0    0  0.00000000000E+00  0.00000000000E+00 -0.80386393109E+03  0.41062693261E+04  0.40268164297E+04 0.  0.
        4    1    3    3  502    0  0.23067472930E+03 -0.12833876020E+03  0.16334799586E+04  0.16546721900E+04  0.12699999809E+01 0. -1.
       -4    1    3    3    0  502 -0.23067472930E+03  0.12833876020E+03 -0.24373438897E+04  0.24515971361E+04  0.12699999809E+01 0.  1.
</event>
<event>
 5   0  0.2839279E-07  0.3997955E+04  0.7818609E-02  0.8004959E-01
        2   -1    0    0  501    0  0.00000000000E+00  0.00000000000E+00  0.29082454601E+04  0.29082454601E+04  0.25500000920E-02 0. -1.
       -2   -1    0    0    0  501  0.00000000000E+00  0.00000000000E+00 -0.13739939229E+04  0.13739939229E+04  0.25500000920E-02 0.  1.
    10030    2    1    2    0    0  0.00000000000E+00  0.00000000000E+00  0.15342515372E+04  0.42822393830E+04  0.39979552716E+04 0.  0.
        3    1    3    3  502    0  0.15240447241E+04  0.34422699564E+03 -0.56841543675E+03  0.16626186167E+04  0.10100000352E+00 0.  1.
       -3    1    3    3    0  502 -0.15240447241E+04 -0.34422699564E+03  0.21026669739E+04  0.26196207663E+04  0.10100000352E+00 0. -1.
</event>
<event>
 5   0  0.2661693E-07  0.4001842E+04  0.7818609E-02  0.8004175E-01
        2   -1    0    0  501    0  0.00000000000E+00  0.00000000000E+00  0.22488573582E+04  0.22488573582E+04  0.25500000920E-02 0.  1.
       -2   -1    0    0    0  501  0.00000000000E+00  0.00000000000E+00 -0.17803196291E+04  0.17803196291E+04  0.25500000920E-02 0. -1.
    10030    2    1    2    0    0  0.00000000000E+00  0.00000000000E+00  0.46853772917E+03  0.40291769873E+04  0.40018420248E+04 0.  0.
        1    1    3    3  502    0  0.60574014413E+03  0.14207725381E+04  0.15150306638E+04  0.21635234317E+04  0.50400001928E-02 0.  1.
       -1    1    3    3    0  502 -0.60574014413E+03 -0.14207725381E+04 -0.10464929347E+04  0.18656535556E+04  0.50400001928E-02 0. -1.
</event>
<event>
 5   0  0.8528625E-08  0.3901915E+04  0.7818609E-02  0.8024631E-01
        1   -1    0    0  501    0  0.00000000000E+00  0.00000000000E+00  0.17667431579E+04  0.17667431579E+04  0.50400001928E-02 0.  1.
       -1   -1    0    0    0  501  0.00000000000E+00  0.00000000000E+00 -0.21543792210E+04  0.21543792210E+04  0.50400001928E-02 0. -1.
    10030    2    1    2    0    0  0.00000000000E+00  0.00000000000E+00 -0.38763606306E+03  0.39211223789E+04  0.39019147855E+04 0.  0.
        4    1    3    3  502    0 -0.32563593239E+03 -0.15126116448E+04  0.10003921772E+04  0.18425034246E+04  0.12699999809E+01 0.  1.
       -4    1    3    3    0  502  0.32563593239E+03  0.15126116448E+04 -0.13880282403E+04  0.20786189543E+04  0.12699999809E+01 0. -1.
</event>
<event>
 5   0  0.2661693E-07  0.4005321E+04  0.7818609E-02  0.8003474E-01
       -2   -1    0    0    0  501  0.00000000000E+00  0.00000000000E+00  0.20694510789E+04  0.20694510789E+04  0.25500000920E-02 0. -1.
        2   -1    0    0  501    0  0.00000000000E+00  0.00000000000E+00 -0.19380251964E+04  0.19380251964E+04  0.25500000920E-02 0.  1.
    10030    2    1    2    0    0  0.00000000000E+00  0.00000000000E+00  0.13142588251E+03  0.40074762754E+04  0.40053206282E+04 0.  0.
        1    1    3    3  502    0 -0.47535215660E+03  0.34680186666E+02 -0.18804524049E+04  0.19399133061E+04  0.50400001928E-02 0.  1.
       -1    1    3    3    0  502  0.47535215660E+03 -0.34680186666E+02  0.20118782874E+04  0.20675629692E+04  0.50400001928E-02 0. -1.
</event>
<event>
 5   0  0.2661693E-07  0.4033717E+04  0.7818609E-02  0.7997779E-01
        2   -1    0    0  501    0  0.00000000000E+00  0.00000000000E+00  0.23677811753E+04  0.23677811753E+04  0.25500000920E-02 0. -1.
       -2   -1    0    0    0  501  0.00000000000E+00  0.00000000000E+00 -0.17179447669E+04  0.17179447669E+04  0.25500000920E-02 0.  1.
    10030    2    1    2    0    0  0.00000000000E+00  0.00000000000E+00  0.64983640836E+03  0.40857259422E+04  0.40337165390E+04 0.  0.
        1    1    3    3  502    0  0.12719181834E+04  0.14475755458E+04  0.92796557196E+03  0.21387779055E+04  0.50400001928E-02 0. -1.
       -1    1    3    3    0  502 -0.12719181834E+04 -0.14475755458E+04 -0.27812916360E+03  0.19469480367E+04  0.50400001928E-02 0.  1.
</event>
<event>
 5   0  0.8528625E-08  0.4362775E+04  0.7818609E-02  0.7935111E-01
        1   -1    0    0  501    0  0.00000000000E+00  0.00000000000E+00  0.15322052375E+04  0.15322052375E+04  0.50400001928E-02 0.  1.
       -1   -1    0    0    0  501  0.00000000000E+00  0.00000000000E+00 -0.31056224653E+04  0.31056224653E+04  0.50400001928E-02 0. -1.
    10030    2    1    2    0    0  0.00000000000E+00  0.00000000000E+00 -0.15734172278E+04  0.46378277028E+04  0.43627748083E+04 0.  0.
        2    1    3    3  502    0  0.18111649150E+04 -0.56543439328E+03  0.35744464161E+03  0.19307514273E+04  0.25500000920E-02 0.  1.
       -2    1    3    3    0  502 -0.18111649150E+04  0.56543439328E+03 -0.19308618694E+04  0.27070762754E+04  0.25500000920E-02 0. -1.
</event>
<event>
 5   0  0.2661693E-07  0.3983654E+04  0.7818609E-02  0.8007852E-01
       -2   -1    0    0    0  501  0.00000000000E+00  0.00000000000E+00  0.21008315155E+04  0.21008315155E+04  0.25500000920E-02 0. -1.
        2   -1    0    0  501    0  0.00000000000E+00  0.00000000000E+00 -0.18884786725E+04  0.18884786725E+04  0.25500000920E-02 0.  1.
    10030    2    1    2    0    0  0.00000000000E+00  0.00000000000E+00  0.21235284298E+03  0.39893101881E+04  0.39836543583E+04 0.  0.
        1    1    3    3  502    0 -0.49430513539E+03 -0.31554265599E+03  0.20124206326E+04  0.20961253630E+04  0.50400001928E-02 0. -1.
       -1    1    3    3    0  502  0.49430513539E+03  0.31554265599E+03 -0.18000677896E+04  0.18931848251E+04  0.50400001928E-02 0.  1.
</event>
<event>
 5   0  0.8583262E-08  0.3978519E+04  0.7818609E-02  0.8008894E-01
       -1   -1    0    0    0  501  0.00000000000E+00  0.00000000000E+00  0.15655108965E+04  0.15655108965E+04  0.50400001928E-02 0.  1.
        1   -1    0    0  501    0  0.00000000000E+00  0.00000000000E+00 -0.25277073366E+04  0.25277073366E+04  0.50400001928E-02 0. -1.
    10030    2    1    2    0    0  0.00000000000E+00  0.00000000000E+00 -0.96219644011E+03  0.40932182331E+04  0.39785190102E+04 0.  0.
        1    1    3    3  502    0  0.11362312956E+04 -0.12312890579E+04  0.62222697980E+03  0.17872494833E+04  0.50400001928E-02 0. -1.
       -1    1    3    3    0  502 -0.11362312956E+04  0.12312890579E+04 -0.15844234199E+04  0.23059687497E+04  0.50400001928E-02 0.  1.
</event>
<event>
 5   0  0.8528625E-08  0.4024627E+04  0.7818609E-02  0.7999597E-01
       -1   -1    0    0    0  501  0.00000000000E+00  0.00000000000E+00  0.25555322156E+04  0.25555322156E+04  0.50400001928E-02 0. -1.
        1   -1    0    0  501    0  0.00000000000E+00  0.00000000000E+00 -0.15845645712E+04  0.15845645712E+04  0.50400001928E-02 0.  1.
    10030    2    1    2    0    0  0.00000000000E+00  0.00000000000E+00  0.97096764440E+03  0.41400967867E+04  0.40246270929E+04 0.  0.
        2    1    3    3  502    0  0.14062236919E+04 -0.13268718822E+04  0.10594819824E+04  0.22046668987E+04  0.25500000920E-02 0. -1.
       -2    1    3    3    0  502 -0.14062236919E+04  0.13268718822E+04 -0.88514338038E+02  0.19354298880E+04  0.25500000920E-02 0.  1.
</event>
<event>
 5   0  0.8583262E-08  0.3985384E+04  0.7818609E-02  0.8007501E-01
        1   -1    0    0  501    0  0.00000000000E+00  0.00000000000E+00  0.18630732440E+04  0.18630732440E+04  0.50400001928E-02 0.  1.
       -1   -1    0    0    0  501  0.00000000000E+00  0.00000000000E+00 -0.21313291463E+04  0.21313291463E+04  0.50400001928E-02 0. -1.
    10030    2    1    2    0    0  0.00000000000E+00  0.00000000000E+00 -0.26825590227E+03  0.39944023903E+04  0.39853844515E+04 0.  0.
        1    1    3    3  502    0 -0.48298926032E+03 -0.77101679259E+03  0.16427560882E+04  0.18778692940E+04  0.50400001928E-02 0.  1.
       -1    1    3    3    0  502  0.48298926032E+03  0.77101679259E+03 -0.19110119904E+04  0.21165330963E+04  0.50400001928E-02 0. -1.
</event>
<event>
 5   0  0.2661693E-07  0.3477447E+04  0.7818609E-02  0.8119156E-01
        2   -1    0    0  501    0  0.00000000000E+00  0.00000000000E+00  0.14787560902E+04  0.14787560902E+04  0.25500000920E-02 0.  1.
       -2   -1    0    0    0  501  0.00000000000E+00  0.00000000000E+00 -0.20443938466E+04  0.20443938466E+04  0.25500000920E-02 0. -1.
    10030    2    1    2    0    0  0.00000000000E+00  0.00000000000E+00 -0.56563775642E+03  0.35231499368E+04  0.34774472542E+04 0.  0.
        1    1    3    3  502    0 -0.13249579637E+04 -0.69956596197E+02  0.85567228064E+03  0.15787914944E+04  0.50400001928E-02 0.  1.
       -1    1    3    3    0  502  0.13249579637E+04  0.69956596197E+02 -0.14213100371E+04  0.19443584424E+04  0.50400001928E-02 0. -1.
</event>
<event>
 5   0  0.8583262E-08  0.3981120E+04  0.7818609E-02  0.8008366E-01
        1   -1    0    0  501    0  0.00000000000E+00  0.00000000000E+00  0.17631905630E+04  0.17631905631E+04  0.50400001928E-02 0. -1.
       -1   -1    0    0    0  501  0.00000000000E+00  0.00000000000E+00 -0.22472492000E+04  0.22472492000E+04  0.50400001928E-02 0.  1.
    10030    2    1    2    0    0  0.00000000000E+00  0.00000000000E+00 -0.48405863693E+03  0.40104397630E+04  0.39811197331E+04 0.  0.
        1    1    3    3  502    0  0.55049068571E+03  0.13181295836E+04  0.11544787534E+04  0.18366618595E+04  0.50400001928E-02 0. -1.
       -1    1    3    3    0  502 -0.55049068571E+03 -0.13181295836E+04 -0.16385373903E+04  0.21737779035E+04  0.50400001928E-02 0.  1.
</event>
<event>
 5   0  0.8528625E-08  0.4041629E+04  0.7818609E-02  0.7996201E-01
        1   -1    0    0  501    0  0.00000000000E+00  0.00000000000E+00  0.27610749443E+04  0.27610749443E+04  0.50400001928E-02 0. -1.
       -1   -1    0    0    0  501  0.00000000000E+00  0.00000000000E+00 -0.14790221791E+04  0.14790221791E+04  0.50400001928E-02 0.  1.
    10030    2    1    2    0    0  0.00000000000E+00  0.00000000000E+00  0.12820527652E+04  0.42400971234E+04  0.40416289196E+04 0.  0.
        4    1    3    3  502    0 -0.14059938750E+04 -0.11565064380E+04  0.15612326181E+04  0.23982858083E+04  0.12699999809E+01 0. -1.
       -4    1    3    3    0  502  0.14059938750E+04  0.11565064380E+04 -0.27917985282E+03  0.18418113152E+04  0.12699999809E+01 0.  1.
</event>
<event>
 5   0  0.2730801E-07  0.4030245E+04  0.7818609E-02  0.7998473E-01
        2   -1    0    0  501    0  0.00000000000E+00  0.00000000000E+00  0.16593547111E+04  0.16593547111E+04  0.25500000920E-02 0.  1.
       -2   -1    0    0    0  501  0.00000000000E+00  0.00000000000E+00 -0.24471667656E+04  0.24471667656E+04  0.25500000920E-02 0. -1.
    10030    2    1    2    0    0  0.00000000000E+00  0.00000000000E+00 -0.78781205454E+03  0.41065214768E+04  0.40302445094E+04 0.  0.
        2    1    3    3  502    0  0.14392740759E+04  0.13106592165E+04  0.13689508683E+03  0.19514296586E+04  0.25500000920E-02 0. -1.
       -2    1    3    3    0  502 -0.14392740759E+04 -0.13106592165E+04 -0.92470714136E+03  0.21550918182E+04  0.25500000920E-02 0.  1.
</event>
<event>
 5   0  0.2730801E-07  0.3521914E+04  0.7818609E-02  0.8108616E-01
        2   -1    0    0  501    0  0.00000000000E+00  0.00000000000E+00  0.22585586524E+04  0.22585586524E+04  0.25500000920E-02 0. -1.
       -2   -1    0    0    0  501  0.00000000000E+00  0.00000000000E+00 -0.13729860846E+04  0.13729860846E+04  0.25500000920E-02 0.  1.
    10030    2    1    2    0    0  0.00000000000E+00  0.00000000000E+00  0.88557256784E+03  0.36315447370E+04  0.35219140256E+04 0.  0.
        2    1    3    3  502    0  0.42539795766E+03 -0.78737908772E+03  0.20065832855E+04  0.21971130449E+04  0.25500000920E-02 0. -1.
       -2    1    3    3    0  502 -0.42539795766E+03  0.78737908772E+03 -0.11210107177E+04  0.14344316921E+04  0.25500000920E-02 0.  1.
</event>
<event>
 5   0  0.2704088E-07  0.4005884E+04  0.7818609E-02  0.8003361E-01
       -2   -1    0    0    0  501  0.00000000000E+00  0.00000000000E+00  0.16325375037E+04  0.16325375037E+04  0.25500000920E-02 0.  1.
        2   -1    0    0  501    0  0.00000000000E+00  0.00000000000E+00 -0.24573876082E+04  0.24573876082E+04  0.25500000920E-02 0. -1.
    10030    2    1    2    0    0  0.00000000000E+00  0.00000000000E+00 -0.82485010450E+03  0.40899251118E+04  0.40058843874E+04 0.  0.
        5    1    3    3  502    0 -0.71910688766E+03 -0.10674548065E+02 -0.23210083772E+04  0.24298828447E+04  0.46999998093E+01 0. -1.
       -5    1    3    3    0  502  0.71910688766E+03  0.10674548065E+02  0.14961582727E+04  0.16600422672E+04  0.46999998093E+01 0.  1.
</event>
<event>
 5   0  0.2661693E-07  0.4065495E+04  0.7818609E-02  0.7991463E-01
       -2   -1    0    0    0  501  0.00000000000E+00  0.00000000000E+00  0.24982651729E+04  0.24982651729E+04  0.25500000920E-02 0. -1.
        2   -1    0    0  501    0  0.00000000000E+00  0.00000000000E+00 -0.16539725793E+04  0.16539725793E+04  0.25500000920E-02 0.  1.
    10030    2    1    2    0    0  0.00000000000E+00  0.00000000000E+00  0.84429259363E+03  0.41522377522E+04  0.40654948489E+04 0.  0.
        1    1    3    3  502    0 -0.11843471577E+04 -0.10203203685E+04  0.17492275010E+04  0.23459600795E+04  0.50400001928E-02 0. -1.
       -1    1    3    3    0  502  0.11843471577E+04  0.10203203685E+04 -0.90493490735E+03  0.18062776727E+04  0.50400001928E-02 0.  1.
</event>
<event>
 5   0  0.8528625E-08  0.3970706E+04  0.7818609E-02  0.8010482E-01
       -1   -1    0    0    0  501  0.00000000000E+00  0.00000000000E+00  0.16215597613E+04  0.16215597613E+04  0.50400001928E-02 0.  1.
        1   -1    0    0  501    0  0.00000000000E+00  0.00000000000E+00 -0.24307627770E+04  0.24307627770E+04  0.50400001928E-02 0. -1.
    10030    2    1    2    0    0  0.00000000000E+00  0.00000000000E+00 -0.80920301569E+03  0.40523225383E+04  0.39707062890E+04 0.  0.
        3    1    3    3  502    0 -0.27604067844E+03  0.17245330943E+04 -0.13681554381E+04  0.22185720999E+04  0.10100000352E+00 0. -1.
       -3    1    3    3    0  502  0.27604067844E+03 -0.17245330943E+04  0.55895242242E+03  0.18337504384E+04  0.10100000352E+00 0.  1.
</event>
<event>
 5   0  0.2666978E-07  0.3989254E+04  0.7818609E-02  0.8006718E-01
        2   -1    0    0  501    0  0.00000000000E+00  0.00000000000E+00  0.22154135803E+04  0.22154135803E+04  0.25500000920E-02 0.  1.
       -2   -1    0    0    0  501  0.00000000000E+00  0.00000000000E+00 -0.17958442337E+04  0.17958442337E+04  0.25500000920E-02 0. -1.
    10030    2    1    2    0    0  0.00000000000E+00  0.00000000000E+00  0.41956934662E+03  0.40112578139E+04  0.39892544182E+04 0.  0.
        4    1    3    3  502    0  0.12741050558E+04  0.82042723915E+03  0.15138929613E+04  0.21420359612E+04  0.12699999809E+01 0.  1.
       -4    1    3    3    0  502 -0.12741050558E+04 -0.82042723915E+03 -0.10943236147E+04  0.18692218527E+04  0.12699999809E+01 0. -1.
</event>
<event>
 5   0  0.2704088E-07  0.3993355E+04  0.7818609E-02  0.8005888E-01
        2   -1    0    0  501    0  0.00000000000E+00  0.00000000000E+00  0.18097274727E+04  0.18097274728E+04  0.25500000920E-02 0. -1.
       -2   -1    0    0    0  501  0.00000000000E+00  0.00000000000E+00 -0.22029396371E+04  0.22029396371E+04  0.25500000920E-02 0.  1.
    10030    2    1    2    0    0  0.00000000000E+00  0.00000000000E+00 -0.39321216432E+03  0.40126671098E+04  0.39933546710E+04 0.  0.
        5    1    3    3  502    0  0.14114712797E+04 -0.14057455962E+04 -0.33263594868E+03  0.20196634915E+04  0.46999998093E+01 0.  1.
       -5    1    3    3    0  502 -0.14114712797E+04  0.14057455962E+04 -0.60576215644E+02  0.19930036183E+04  0.46999998093E+01 0. -1.
</event>
<event>
 5   0  0.2661693E-07  0.3941801E+04  0.7818609E-02  0.8016391E-01
        2   -1    0    0  501    0  0.00000000000E+00  0.00000000000E+00  0.28886379705E+04  0.28886379705E+04  0.25500000920E-02 0. -1.
       -2   -1    0    0    0  501  0.00000000000E+00  0.00000000000E+00 -0.13447339324E+04  0.13447339324E+04  0.25500000920E-02 0.  1.
    10030    2    1    2    0    0  0.00000000000E+00  0.00000000000E+00  0.15439040380E+04  0.42333719029E+04  0.39418013635E+04 0.  0.
        1    1    3    3  502    0 -0.44394315434E+03  0.16702513337E+04  0.17894628147E+04  0.24877705295E+04  0.50400001928E-02 0. -1.
       -1    1    3    3    0  502  0.44394315434E+03 -0.16702513337E+04 -0.24555877666E+03  0.17456013734E+04  0.50400001928E-02 0.  1.
</event>
<event>
 5   0  0.8583262E-08  0.4017701E+04  0.7818609E-02  0.8000985E-01
        1   -1    0    0  501    0  0.00000000000E+00  0.00000000000E+00  0.17464016731E+04  0.17464016731E+04  0.50400001928E-02 0. -1.
       -1   -1    0    0    0  501  0.00000000000E+00  0.00000000000E+00 -0.23107399058E+04  0.23107399058E+04  0.50400001928E-02 0.  1.
    10030    2    1    2    0    0  0.00000000000E+00  0.00000000000E+00 -0.56433823277E+03  0.40571415789E+04  0.40177008538E+04 0.  0.
        1    1    3    3  502    0  0.18261934315E+04  0.70990694868E+03 -0.72983775925E+03  0.20908403765E+04  0.50400001928E-02 0. -1.
       -1    1    3    3    0  502 -0.18261934315E+04 -0.70990694868E+03  0.16549952649E+03  0.19663012024E+04  0.50400001928E-02 0.  1.
</event>
<event>
 5   0  0.8528625E-08  0.3952771E+04  0.7818609E-02  0.8014142E-01
        1   -1    0    0  501    0  0.00000000000E+00  0.00000000000E+00  0.18365922532E+04  0.18365922532E+04  0.50400001928E-02 0. -1.
       -1   -1    0    0    0  501  0.00000000000E+00  0.00000000000E+00 -0.21268195064E+04  0.21268195064E+04  0.50400001928E-02 0.  1.
    10030    2    1    2    0    0  0.00000000000E+00  0.00000000000E+00 -0.29022725315E+03  0.39634117596E+04  0.39527712959E+04 0.  0.
        2    1    3    3  502    0  0.77177266001E+03 -0.36350456424E+03 -0.19327003107E+04  0.21126048135E+04  0.25500000920E-02 0.  1.
       -2    1    3    3    0  502 -0.77177266001E+03  0.36350456424E+03  0.16424730576E+04  0.18508069461E+04  0.25500000920E-02 0. -1.
</event>
<event>
 5   0  0.8528625E-08  0.3994589E+04  0.7818609E-02  0.8005639E-01
        1   -1    0    0  501    0  0.00000000000E+00  0.00000000000E+00  0.19181158005E+04  0.19181158005E+04  0.50400001928E-02 0. -1.
       -1   -1    0    0    0  501  0.00000000000E+00  0.00000000000E+00 -0.20797417684E+04  0.20797417684E+04  0.50400001928E-02 0.  1.
    10030    2    1    2    0    0  0.00000000000E+00  0.00000000000E+00 -0.16162596791E+03  0.39978575688E+04  0.39945891137E+04 0.  0.
        2    1    3    3  502    0  0.17572278346E+04 -0.76012255766E+03  0.48846662046E+03  0.19759138657E+04  0.25500000920E-02 0. -1.
       -2    1    3    3    0  502 -0.17572278346E+04  0.76012255766E+03 -0.65009258837E+03  0.20219437032E+04  0.25500000920E-02 0.  1.
</event>
<event>
 5   0  0.2730801E-07  0.4042160E+04  0.7818609E-02  0.7996095E-01
        2   -1    0    0  501    0  0.00000000000E+00  0.00000000000E+00  0.31646165753E+04  0.31646165753E+04  0.25500000920E-02 0. -1.
       -2   -1    0    0    0  501  0.00000000000E+00  0.00000000000E+00 -0.12907614600E+04  0.12907614600E+04  0.25500000920E-02 0.  1.
    10030    2    1    2    0    0  0.00000000000E+00  0.00000000000E+00  0.18738551153E+04  0.44553780353E+04  0.40421603685E+04 0.  0.
        2    1    3    3  502    0 -0.19993362930E+03 -0.76759184463E+03 -0.11120273534E+04  0.13659339409E+04  0.25500000920E-02 0.  1.
       -2    1    3    3    0  502  0.19993362930E+03  0.76759184463E+03  0.29858824687E+04  0.30894440945E+04  0.25500000920E-02 0. -1.
</event>
<event>
 5   0  0.2666978E-07  0.3242933E+04  0.7818609E-02  0.8177570E-01
       -2   -1    0    0    0  501  0.00000000000E+00  0.00000000000E+00  0.14929366320E+04  0.14929366320E+04  0.25500000920E-02 0.  1.
        2   -1    0    0  501    0  0.00000000000E+00  0.00000000000E+00 -0.17610614071E+04  0.17610614071E+04  0.25500000920E-02 0. -1.
    10030    2    1    2    0    0  0.00000000000E+00  0.00000000000E+00 -0.26812477511E+03  0.32539980391E+04  0.32429326763E+04 0.  0.
        4    1    3    3  502    0 -0.49832060152E+03 -0.49170985156E+03  0.13334770086E+04  0.15060758764E+04  0.12699999809E+01 0.  1.
       -4    1    3    3    0  502  0.49832060152E+03  0.49170985156E+03 -0.16016017838E+04  0.17479221626E+04  0.12699999809E+01 0. -1.
</event>
<event>
 5   0  0.2704088E-07  0.3986529E+04  0.7818609E-02  0.8007270E-01
       -2   -1    0    0    0  501  0.00000000000E+00  0.00000000000E+00  0.13767708581E+04  0.13767708581E+04  0.25500000920E-02 0. -1.
        2   -1    0    0  501    0  0.00000000000E+00  0.00000000000E+00 -0.28858128265E+04  0.28858128265E+04  0.25500000920E-02 0.  1.
    10030    2    1    2    0    0  0.00000000000E+00  0.00000000000E+00 -0.15090419684E+04  0.42625836846E+04  0.39865288166E+04 0.  0.
        5    1    3    3  502    0  0.28468373680E+03 -0.18152268240E+04  0.71632402027E+02  0.18388166150E+04  0.46999998093E+01 0. -1.
       -5    1    3    3    0  502 -0.28468373680E+03  0.18152268240E+04 -0.15806743704E+04  0.24237670696E+04  0.46999998093E+01 0.  1.
</event>
<event>
 5   0  0.8583262E-08  0.3767544E+04  0.7818609E-02  0.8053156E-01
        1   -1    0    0  501    0  0.00000000000E+00  0.00000000000E+00  0.23682516935E+04  0.23682516935E+04  0.50400001928E-02 0.  1.
       -1   -1    0    0    0  501  0.00000000000E+00  0.00000000000E+00 -0.14984035603E+04  0.14984035603E+04  0.50400001928E-02 0. -1.
    10030    2    1    2    0    0  0.00000000000E+00  0.00000000000E+00  0.86984813314E+03  0.38666552538E+04  0.37675439051E+04 0.  0.
        1    1    3    3  502    0 -0.42225842318E+02 -0.14514377208E+04 -0.79670472405E+03  0.16562587046E+04  0.50400001928E-02 0. -1.
       -1    1    3    3    0  502  0.42225842318E+02  0.14514377208E+04  0.16665528572E+04  0.22103965492E+04  0.50400001928E-02 0.  1.
</event>
<event>
 5   0  0.8528625E-08  0.3601117E+04  0.7818609E-02  0.8090236E-01
        1   -1    0    0  501    0  0.00000000000E+00  0.00000000000E+00  0.30639803927E+04  0.30639803927E+04  0.50400001928E-02 0. -1.
       -1   -1    0    0    0  501  0.00000000000E+00  0.00000000000E+00 -0.10581046191E+04  0.10581046191E+04  0.50400001928E-02 0.  1.
    10030    2    1    2    0    0  0.00000000000E+00  0.00000000000E+00  0.20058757736E+04  0.41220850118E+04  0.36011174968E+04 0.  0.
        4    1    3    3  502    0  0.50141301191E+03 -0.14199578355E+04 -0.12693433453E+03  0.15112277133E+04  0.12699999809E+01 0.  1.
       -4    1    3    3    0  502 -0.50141301191E+03  0.14199578355E+04  0.21328101081E+04  0.26108572986E+04  0.12699999809E+01 0. -1.
</event>
<event>
 5   0  0.2730801E-07  0.3474851E+04  0.7818609E-02  0.8119776E-01
       -2   -1    0    0    0  501  0.00000000000E+00  0.00000000000E+00  0.15768020185E+04  0.15768020185E+04  0.25500000920E-02 0. -1.
        2   -1    0    0  501    0  0.00000000000E+00  0.00000000000E+00 -0.19144108299E+04  0.19144108299E+04  0.25500000920E-02 0.  1.
    10030    2    1    2    0    0  0.00000000000E+00  0.00000000000E+00 -0.33760881144E+03  0.34912128484E+04  0.34748507081E+04 0.  0.
        2    1    3    3  502    0  0.72694310480E+03 -0.49087410716E+03  0.13380052143E+04  0.15998942528E+04  0.25500000920E-02 0. -1.
       -2    1    3    3    0  502 -0.72694310480E+03  0.49087410716E+03 -0.16756140257E+04  0.18913185956E+04  0.25500000920E-02 0.  1.
</event>
<event>
 5   0  0.2661693E-07  0.3964776E+04  0.7818609E-02  0.8011690E-01
        2   -1    0    0  501    0  0.00000000000E+00  0.00000000000E+00  0.17195311863E+04  0.17195311863E+04  0.25500000920E-02 0. -1.
       -2   -1    0    0    0  501  0.00000000000E+00  0.00000000000E+00 -0.22854261351E+04  0.22854261351E+04  0.25500000920E-02 0.  1.
    10030    2    1    2    0    0  0.00000000000E+00  0.00000000000E+00 -0.56589494881E+03  0.40049573213E+04  0.39647756623E+04 0.  0.
        1    1    3    3  502    0 -0.17325459102E+04  0.87611999555E+03  0.12181278575E+03  0.19452865939E+04  0.50400001928E-02 0.  1.
       -1    1    3    3    0  502  0.17325459102E+04 -0.87611999555E+03 -0.68770773457E+03  0.20596707275E+04  0.50400001928E-02 0. -1.
</event>
<event>
 5   0  0.2661693E-07  0.4022780E+04  0.7818609E-02  0.7999967E-01
       -2   -1    0    0    0  501  0.00000000000E+00  0.00000000000E+00  0.19404078523E+04  0.19404078523E+04  0.25500000920E-02 0.  1.
        2   -1    0    0  501    0  0.00000000000E+00  0.00000000000E+00 -0.20849690766E+04  0.20849690766E+04  0.25500000920E-02 0. -1.
    10030    2    1    2    0    0  0.00000000000E+00  0.00000000000E+00 -0.14456122435E+03  0.40253769289E+04  0.40227803161E+04 0.  0.
        1    1    3    3  502    0  0.41873631318E+03 -0.79838158128E+03  0.17269169978E+04  0.19480748360E+04  0.50400001928E-02 0.  1.
       -1    1    3    3    0  502 -0.41873631318E+03  0.79838158128E+03 -0.18714782221E+04  0.20773020929E+04  0.50400001928E-02 0. -1.
</event>
<event>
 5   0  0.8528625E-08  0.3942665E+04  0.7818609E-02  0.8016214E-01
        1   -1    0    0  501    0  0.00000000000E+00  0.00000000000E+00  0.23656155858E+04  0.23656155858E+04  0.50400001928E-02 0.  1.
       -1   -1    0    0    0  501  0.00000000000E+00  0.00000000000E+00 -0.16427654841E+04  0.16427654841E+04  0.50400001928E-02 0. -1.
    10030    2    1    2    0    0  0.00000000000E+00  0.00000000000E+00  0.72285010174E+03  0.40083810699E+04  0.39426649023E+04 0.  0.
        2    1    3    3  502    0 -0.12610842547E+04  0.21626445236E+03  0.18861042688E+04  0.22791430678E+04  0.25500000920E-02 0.  1.
       -2    1    3    3    0  502  0.12610842547E+04 -0.21626445236E+03 -0.11632541670E+04  0.17292380021E+04  0.25500000920E-02 0. -1.
</event>
<event>
 5   0  0.2704088E-07  0.4015406E+04  0.7818609E-02  0.8001446E-01
       -2   -1    0    0    0  501  0.00000000000E+00  0.00000000000E+00  0.27520925168E+04  0.27520925168E+04  0.25500000920E-02 0. -1.
        2   -1    0    0  501    0  0.00000000000E+00  0.00000000000E+00 -0.14646565637E+04  0.14646565637E+04  0.25500000920E-02 0.  1.
    10030    2    1    2    0    0  0.00000000000E+00  0.00000000000E+00  0.12874359531E+04  0.42167490805E+04  0.40154055180E+04 0.  0.
        5    1    3    3  502    0 -0.29707275922E+03 -0.10539711036E+04 -0.11234389176E+04  0.15688353652E+04  0.46999998093E+01 0.  1.
       -5    1    3    3    0  502  0.29707275922E+03  0.10539711036E+04  0.24108748707E+04  0.26479137153E+04  0.46999998093E+01 0. -1.
</event>
<event>
 5   0  0.8528625E-08  0.3935231E+04  0.7818609E-02  0.8017741E-01
        1   -1    0    0  501    0  0.00000000000E+00  0.00000000000E+00  0.21104645846E+04  0.21104645846E+04  0.50400001928E-02 0. -1.
       -1   -1    0    0    0  501  0.00000000000E+00  0.00000000000E+00 -0.18344356071E+04  0.18344356071E+04  0.50400001928E-02 0.  1.
    10030    2    1    2    0    0  0.00000000000E+00  0.00000000000E+00  0.27602897746E+03  0.39449001918E+04  0.39352313180E+04 0.  0.
        4    1    3    3  502    0  0.12327297793E+03 -0.19635280538E+04  0.16760181017E+03  0.19745203531E+04  0.12699999809E+01 0.  1.
       -4    1    3    3    0  502 -0.12327297793E+03  0.19635280538E+04  0.10842716729E+03  0.19703798387E+04  0.12699999809E+01 0. -1.
</event>
<event>
 5   0  0.8583262E-08  0.4006749E+04  0.7818609E-02  0.8003187E-01
       -1   -1    0    0    0  501  0.00000000000E+00  0.00000000000E+00  0.27274481571E+04  0.27274481571E+04  0.50400001928E-02 0.  1.
        1   -1    0    0  501    0  0.00000000000E+00  0.00000000000E+00 -0.14715252197E+04  0.14715252197E+04  0.50400001928E-02 0. -1.
    10030    2    1    2    0    0  0.00000000000E+00  0.00000000000E+00  0.12559229374E+04  0.41989733768E+04  0.40067486812E+04 0.  0.
        1    1    3    3  502    0 -0.12034677975E+04 -0.12013439887E+04 -0.48207466870E+03  0.17674722360E+04  0.50400001928E-02 0. -1.
       -1    1    3    3    0  502  0.12034677975E+04  0.12013439887E+04  0.17379976061E+04  0.24315011408E+04  0.50400001928E-02 0.  1.
</event>
<event>
 5   0  0.8583262E-08  0.3962224E+04  0.7818609E-02  0.8012211E-01
       -1   -1    0    0    0  501  0.00000000000E+00  0.00000000000E+00  0.21952576131E+04  0.21952576131E+04  0.50400001928E-02 0. -1.
        1   -1    0    0  501    0  0.00000000000E+00  0.00000000000E+00 -0.17878556848E+04  0.17878556848E+04  0.50400001928E-02 0.  1.
    10030    2    1    2    0    0  0.00000000000E+00  0.00000000000E+00  0.40740192831E+03  0.39831132979E+04  0.39622235187E+04 0.  0.
        1    1    3    3  502    0 -0.62954770006E+03 -0.17818601604E+04  0.80135020169E+03  0.20526855784E+04  0.50400001928E-02 0. -1.
       -1    1    3    3    0  502  0.62954770006E+03  0.17818601604E+04 -0.39394827338E+03  0.19304277195E+04  0.50400001928E-02 0.  1.
</event>
<event>
 5   0  0.8528625E-08  0.3962020E+04  0.7818609E-02  0.8012252E-01
       -1   -1    0    0    0  501  0.00000000000E+00  0.00000000000E+00  0.19968557484E+04  0.19968557484E+04  0.50400001928E-02 0.  1.
        1   -1    0    0  501    0  0.00000000000E+00  0.00000000000E+00 -0.19652904086E+04  0.19652904086E+04  0.50400001928E-02 0. -1.
    10030    2    1    2    0    0  0.00000000000E+00  0.00000000000E+00  0.31565339750E+02  0.39621461570E+04  0.39620204188E+04 0.  0.
        2    1    3    3  502    0  0.57997966764E+03 -0.12286733604E+04 -0.14259242106E+04  0.19695873923E+04  0.25500000920E-02 0. -1.
       -2    1    3    3    0  502 -0.57997966764E+03  0.12286733604E+04  0.14574895504E+04  0.19925587647E+04  0.25500000920E-02 0.  1.
</event>
<event>
 5   0  0.8528625E-08  0.2946911E+04  0.7818609E-02  0.8259055E-01
        1   -1    0    0  501    0  0.00000000000E+00  0.00000000000E+00  0.22293312868E+04  0.22293312868E+04  0.50400001928E-02 0.  1.
       -1   -1    0    0    0  501  0.00000000000E+00  0.00000000000E+00 -0.97386637243E+03  0.97386637244E+03  0.50400001928E-02 0. -1.
    10030    2    1    2    0    0  0.00000000000E+00  0.00000000000E+00  0.12554649144E+04  0.32031976593E+04  0.29469107712E+04 0.  0.
        3    1    3    3  502    0  0.13591422258E+04 -0.42021863252E+03  0.10447932680E+04  0.17650621156E+04  0.10100000352E+00 0.  1.
       -3    1    3    3    0  502 -0.13591422258E+04  0.42021863252E+03  0.21067164645E+03  0.14381355437E+04  0.10100000352E+00 0. -1.
</event>
<event>
 5   0  0.2839279E-07  0.3902125E+04  0.7818609E-02  0.8024587E-01
       -2   -1    0    0    0  501  0.00000000000E+00  0.00000000000E+00  0.16699762426E+04  0.16699762426E+04  0.25500000920E-02 0.  1.
        2   -1    0    0  501    0  0.00000000000E+00  0.00000000000E+00 -0.22794604488E+04  0.22794604488E+04  0.25500000920E-02 0. -1.
    10030    2    1    2    0    0  0.00000000000E+00  0.00000000000E+00 -0.60948420622E+03  0.39494366914E+04  0.39021249572E+04 0.  0.
        3    1    3    3  502    0 -0.88737783895E+03  0.59239799257E+03  0.13485472484E+04  0.17195797458E+04  0.10100000352E+00 0.  1.
       -3    1    3    3    0  502  0.88737783895E+03 -0.59239799257E+03 -0.19580314546E+04  0.22298569457E+04  0.10100000352E+00 0. -1.
</event>
<event>
 5   0  0.8528625E-08  0.3915514E+04  0.7818609E-02  0.8021810E-01
        1   -1    0    0  501    0  0.00000000000E+00  0.00000000000E+00  0.21964899319E+04  0.21964899319E+04  0.50400001928E-02 0.  1.
       -1   -1    0    0    0  501  0.00000000000E+00  0.00000000000E+00 -0.17449716786E+04  0.17449716786E+04  0.50400001928E-02 0. -1.
    10030    2    1    2    0    0  0.00000000000E+00  0.00000000000E+00  0.45151825331E+03  0.39414616105E+04  0.39155141289E+04 0.  0.
        3    1    3    3  502    0  0.16991532919E+04 -0.64800502378E+03  0.95567138536E+03  0.20543466667E+04  0.10100000352E+00 0.  1.
       -3    1    3    3    0  502 -0.16991532919E+04  0.64800502378E+03 -0.50415313205E+03  0.18871149438E+04  0.10100000352E+00 0. -1.
</event>
<event>
 5   0  0.2666978E-07  0.3923340E+04  0.7818609E-02  0.8020192E-01
       -2   -1    0    0    0  501  0.00000000000E+00  0.00000000000E+00  0.17577551708E+04  0.17577551708E+04  0.25500000920E-02 0.  1.
        2   -1    0    0  501    0  0.00000000000E+00  0.00000000000E+00 -0.21892409302E+04  0.21892409302E+04  0.25500000920E-02 0. -1.
    10030    2    1    2    0    0  0.00000000000E+00  0.00000000000E+00 -0.43148575941E+03  0.39469961010E+04  0.39233401918E+04 0.  0.
        4    1    3    3  502    0 -0.13869894128E+03 -0.16960186719E+04 -0.11975530840E+04  0.20808295782E+04  0.12699999809E+01 0. -1.
       -4    1    3    3    0  502  0.13869894128E+03  0.16960186719E+04  0.76606732459E+03  0.18661665227E+04  0.12699999809E+01 0.  1.
</event>
<event>
 5   0  0.2839279E-07  0.3857064E+04  0.7818609E-02  0.8034019E-01
        2   -1    0    0  501    0  0.00000000000E+00  0.00000000000E+00  0.26628760550E+04  0.26628760550E+04  0.25500000920E-02 0.  1.
       -2   -1    0    0    0  501  0.00000000000E+00  0.00000000000E+00 -0.13966985725E+04  0.13966985725E+04  0.25500000920E-02 0. -1.
    10030    2    1    2    0    0  0.00000000000E+00  0.00000000000E+00  0.12661774824E+04  0.40595746275E+04  0.38570637458E+04 0.  0.
        3    1    3    3  502    0  0.61929997496E+03 -0.60714409536E+03  0.24460488594E+04  0.25952478580E+04  0.10100000352E+00 0.  1.
       -3    1    3    3    0  502 -0.61929997496E+03  0.60714409536E+03 -0.11798713770E+04  0.14643267695E+04  0.10100000352E+00 0. -1.
</event>
<event>
 5   0  0.2730801E-07  0.3811695E+04  0.7818609E-02  0.8043650E-01
       -2   -1    0    0    0  501  0.00000000000E+00  0.00000000000E+00  0.17469121788E+04  0.17469121788E+04  0.25500000920E-02 0. -1.
        2   -1    0    0  501    0  0.00000000000E+00  0.00000000000E+00 -0.20792433192E+04  0.20792433192E+04  0.25500000920E-02 0.  1.
    10030    2    1    2    0    0  0.00000000000E+00  0.00000000000E+00 -0.33233114040E+03  0.38261554980E+04  0.38116954112E+04 0.  0.
        2    1    3    3  502    0 -0.14019206874E+04 -0.10359650137E+04  0.60724444608E+03  0.18459011189E+04  0.25500000920E-02 0. -1.
       -2    1    3    3    0  502  0.14019206874E+04  0.10359650137E+04 -0.93957558649E+03  0.19802543791E+04  0.25500000920E-02 0.  1.
</event>
<event>
 5   0  0.8528625E-08  0.4041780E+04  0.7818609E-02  0.7996171E-01
       -1   -1    0    0    0  501  0.00000000000E+00  0.00000000000E+00  0.23520312711E+04  0.23520312711E+04  0.50400001928E-02 0. -1.
        1   -1    0    0  501    0  0.00000000000E+00  0.00000000000E+00 -0.17363701271E+04  0.17363701271E+04  0.50400001928E-02 0.  1.
    10030    2    1    2    0    0  0.00000000000E+00  0.00000000000E+00  0.61566114398E+03  0.40884013982E+04  0.40417802202E+04 0.  0.
        5    1    3    3  502    0  0.22368522549E+03 -0.15719065200E+04  0.15724714278E+04  0.22346394942E+04  0.46999998093E+01 0. -1.
       -5    1    3    3    0  502 -0.22368522549E+03  0.15719065200E+04 -0.95681028386E+03  0.18537619040E+04  0.46999998093E+01 0.  1.
</event>
<event>
 5   0  0.8583262E-08  0.3943585E+04  0.7818609E-02  0.8016025E-01
       -1   -1    0    0    0  501  0.00000000000E+00  0.00000000000E+00  0.26353772649E+04  0.26353772649E+04  0.50400001928E-02 0. -1.
        1   -1    0    0  501    0  0.00000000000E+00  0.00000000000E+00 -0.14752975865E+04  0.14752975865E+04  0.50400001928E-02 0.  1.
    10030    2    1    2    0    0  0.00000000000E+00  0.00000000000E+00  0.11600796784E+04  0.41106748514E+04  0.39435850281E+04 0.  0.
        1    1    3    3  502    0 -0.84911142266E+03 -0.15788648765E+04  0.14359019447E+04  0.22968715465E+04  0.50400001928E-02 0. -1.
       -1    1    3    3    0  502  0.84911142266E+03  0.15788648765E+04 -0.27582226630E+03  0.18138033049E+04  0.50400001928E-02 0.  1.
</event>
<event>
 5   0  0.2666978E-07  0.3966342E+04  0.7818609E-02  0.8011371E-01
       -2   -1    0    0    0  501  0.00000000000E+00  0.00000000000E+00  0.19400705083E+04  0.19400705083E+04  0.25500000920E-02 0.  1.
        2   -1    0    0  501    0  0.00000000000E+00  0.00000000000E+00 -0.20272292269E+04  0.20272292269E+04  0.25500000920E-02 0. -1.
    10030    2    1    2    0    0  0.00000000000E+00  0.00000000000E+00 -0.87158718642E+02  0.39672997352E+04  0.39663422125E+04 0.  0.
        4    1    3    3  502    0 -0.12485416624E+04 -0.13946301379E+04  0.61164864095E+03  0.19692549802E+04  0.12699999809E+01 0.  1.
       -4    1    3    3    0  502  0.12485416624E+04  0.13946301379E+04 -0.69880735959E+03  0.19980447550E+04  0.12699999809E+01 0. -1.
</event>
<event>
 5   0  0.2666978E-07  0.2899446E+04  0.7818609E-02  0.8273042E-01
        2   -1    0    0  501    0  0.00000000000E+00  0.00000000000E+00  0.21720020123E+04  0.21720020123E+04  0.25500000920E-02 0.  1.
       -2   -1    0    0    0  501  0.00000000000E+00  0.00000000000E+00 -0.96763135655E+03  0.96763135655E+03  0.25500000920E-02 0. -1.
    10030    2    1    2    0    0  0.00000000000E+00  0.00000000000E+00  0.12043706558E+04  0.31396333689E+04  0.28994463290E+04 0.  0.
        4    1    3    3  502    0  0.11068501651E+04 -0.90741904691E+03  0.35249988947E+03  0.14740367701E+04  0.12699999809E+01 0.  1.
       -4    1    3    3    0  502 -0.11068501651E+04  0.90741904691E+03  0.85187076633E+03  0.16655965988E+04  0.12699999809E+01 0. -1.
</event>
<event>
 5   0  0.2704088E-07  0.3514869E+04  0.7818609E-02  0.8110275E-01
        2   -1    0    0  501    0  0.00000000000E+00  0.00000000000E+00  0.18773708528E+04  0.18773708528E+04  0.25500000920E-02 0.  1.
       -2   -1    0    0    0  501  0.00000000000E+00  0.00000000000E+00 -0.16451607349E+04  0.16451607349E+04  0.25500000920E-02 0. -1.
    10030    2    1    2    0    0  0.00000000000E+00  0.00000000000E+00  0.23221011789E+03  0.35225315877E+04  0.35148694496E+04 0.  0.
        5    1    3    3  502    0  0.30981769531E+03  0.14305573751E+04 -0.85867827100E+03  0.16970067386E+04  0.46999998093E+01 0. -1.
       -5    1    3    3    0  502 -0.30981769531E+03 -0.14305573751E+04  0.10908883889E+04  0.18255248491E+04  0.46999998093E+01 0.  1.
</event>
<event>
 5   0  0.2839279E-07  0.3970822E+04  0.7818609E-02  0.8010459E-01
        2   -1    0    0  501    0  0.00000000000E+00  0.00000000000E+00  0.17716033973E+04  0.17716033973E+04  0.25500000920E-02 0. -1.
       -2   -1    0    0    0  501  0.00000000000E+00  0.00000000000E+00 -0.22250226635E+04  0.22250226635E+04  0.25500000920E-02 0.  1.
    10030    2    1    2    0    0  0.00000000000E+00  0.00000000000E+00 -0.45341926620E+03  0.39966260608E+04  0.39708224386E+04 0.  0.
        3    1    3    3  502    0 -0.63156414076E+02  0.26203446068E+03 -0.22065219686E+04  0.22229237502E+04  0.10100000352E+00 0.  1.
       -3    1    3    3    0  502  0.63156414076E+02 -0.26203446068E+03  0.17531027024E+04  0.17737023106E+04  0.10100000352E+00 0. -1.
</event>
<event>
 5   0  0.2666978E-07  0.3994287E+04  0.7818609E-02  0.8005700E-01
       -2   -1    0    0    0  501  0.00000000000E+00  0.00000000000E+00  0.16785698929E+04  0.16785698929E+04  0.25500000920E-02 0. -1.
        2   -1    0    0  501    0  0.00000000000E+00  0.00000000000E+00 -0.23761784247E+04  0.23761784248E+04  0.25500000920E-02 0.  1.
    10030    2    1    2    0    0  0.00000000000E+00  0.00000000000E+00 -0.69760853184E+03  0.40547483177E+04  0.39942867018E+04 0.  0.
        4    1    3    3  502    0  0.46278343961E+03 -0.14907944962E+04 -0.16134316459E+04  0.22449498949E+04  0.12699999809E+01 0.  1.
       -4    1    3    3    0  502 -0.46278343961E+03  0.14907944962E+04  0.91582311401E+03  0.18097984227E+04  0.12699999809E+01 0. -1.
</event>
<event>
 5   0  0.8528625E-08  0.4010311E+04  0.7818609E-02  0.8002470E-01
        1   -1    0    0  501    0  0.00000000000E+00  0.00000000000E+00  0.17270669054E+04  0.17270669054E+04  0.50400001928E-02 0.  1.
       -1   -1    0    0    0  501  0.00000000000E+00  0.00000000000E+00 -0.23280215881E+04  0.23280215881E+04  0.50400001928E-02 0. -1.
    10030    2    1    2    0    0  0.00000000000E+00  0.00000000000E+00 -0.60095468275E+03  0.40550884935E+04  0.40103112298E+04 0.  0.
        5    1    3    3  502    0 -0.14659476984E+04 -0.88230029828E+03 -0.13576993741E+04  0.21842220930E+04  0.46999998093E+01 0. -1.
       -5    1    3    3    0  502  0.14659476984E+04  0.88230029828E+03  0.75674469140E+03  0.18708664006E+04  0.46999998093E+01 0.  1.
</event>
<event>
 5   0  0.8528625E-08  0.3991336E+04  0.7818609E-02  0.8006297E-01
       -1   -1    0    0    0  501  0.00000000000E+00  0.00000000000E+00  0.15153618531E+04  0.15153618531E+04  0.50400001928E-02 0.  1.
        1   -1    0    0  501    0  0.00000000000E+00  0.00000000000E+00 -0.26282114613E+04  0.26282114613E+04  0.50400001928E-02 0. -1.
    10030    2    1    2    0    0  0.00000000000E+00  0.00000000000E+00 -0.11128496082E+04  0.41435733144E+04  0.39913363128E+04 0.  0.
        2    1    3    3  502    0 -0.12774203870E+04 -0.82373619596E+03 -0.18989422285E+04  0.24323498418E+04  0.25500000920E-02 0. -1.
       -2    1    3    3    0  502  0.12774203870E+04  0.82373619596E+03  0.78609262027E+03  0.17112234727E+04  0.25500000920E-02 0.  1.
</event>
<event>
 5   0  0.2666978E-07  0.3959024E+04  0.7818609E-02  0.8012864E-01
        2   -1    0    0  501    0  0.00000000000E+00  0.00000000000E+00  0.17736380666E+04  0.17736380666E+04  0.25500000920E-02 0. -1.
       -2   -1    0    0    0  501  0.00000000000E+00  0.00000000000E+00 -0.22092830843E+04  0.22092830843E+04  0.25500000920E-02 0.  1.
    10030    2    1    2    0    0  0.00000000000E+00  0.00000000000E+00 -0.43564501765E+03  0.39829211509E+04  0.39590244143E+04 0.  0.
        4    1    3    3  502    0  0.16673042048E+04 -0.42832120333E+03  0.76537098826E+03  0.18839205735E+04  0.12699999809E+01 0. -1.
       -4    1    3    3    0  502 -0.16673042048E+04  0.42832120333E+03 -0.12010160059E+04  0.20990005774E+04  0.12699999809E+01 0.  1.
</event>
<event>
 5   0  0.2839279E-07  0.4009345E+04  0.7818609E-02  0.8002664E-01
        2   -1    0    0  501    0  0.00000000000E+00  0.00000000000E+00  0.31576193883E+04  0.31576193883E+04  0.25500000920E-02 0. -1.
       -2   -1    0    0    0  501  0.00000000000E+00  0.00000000000E+00 -0.12727028773E+04  0.12727028773E+04  0.25500000920E-02 0.  1.
    10030    2    1    2    0    0  0.00000000000E+00  0.00000000000E+00  0.18849165109E+04  0.44303222656E+04  0.40093447250E+04 0.  0.
        3    1    3    3  502    0  0.19870762987E+04 -0.96309197338E+02  0.66962506910E+03  0.20990820426E+04  0.10100000352E+00 0. -1.
       -3    1    3    3    0  502 -0.19870762987E+04  0.96309197338E+02  0.12152914418E+04  0.23312402230E+04  0.10100000352E+00 0.  1.
</event>
<event>
 5   0  0.2730801E-07  0.3977160E+04  0.7818609E-02  0.8009170E-01
        2   -1    0    0  501    0  0.00000000000E+00  0.00000000000E+00  0.16186117148E+04  0.16186117148E+04  0.25500000920E-02 0.  1.
       -2   -1    0    0    0  501  0.00000000000E+00  0.00000000000E+00 -0.24431120690E+04  0.24431120691E+04  0.25500000920E-02 0. -1.
    10030    2    1    2    0    0  0.00000000000E+00  0.00000000000E+00 -0.82450035421E+03  0.40617237839E+04  0.39771596979E+04 0.  0.
        2    1    3    3  502    0  0.52554926251E+03  0.18283615027E+04  0.17914984118E+03  0.19108119943E+04  0.25500000920E-02 0. -1.
       -2    1    3    3    0  502 -0.52554926251E+03 -0.18283615027E+04 -0.10036501954E+04  0.21509117896E+04  0.25500000920E-02 0.  1.
</event>
<event>
 5   0  0.2666978E-07  0.2947616E+04  0.7818609E-02  0.8258850E-01
        2   -1    0    0  501    0  0.00000000000E+00  0.00000000000E+00  0.14674681730E+04  0.14674681730E+04  0.25500000920E-02 0. -1.
       -2   -1    0    0    0  501  0.00000000000E+00  0.00000000000E+00 -0.14801753970E+04  0.14801753970E+04  0.25500000920E-02 0.  1.
    10030    2    1    2    0    0  0.00000000000E+00  0.00000000000E+00 -0.12707224011E+02  0.29476435701E+04  0.29476161797E+04 0.  0.
        4    1    3    3  502    0 -0.92004694260E+03  0.13779650687E+03  0.11367381177E+04  0.14688939427E+04  0.12699999809E+01 0. -1.
       -4    1    3    3    0  502  0.92004694260E+03 -0.13779650687E+03 -0.11494453417E+04  0.14787496273E+04  0.12699999809E+01 0.  1.
</event>
<event>
 5   0  0.8583262E-08  0.3999555E+04  0.7818609E-02  0.8004636E-01
        1   -1    0    0  501    0  0.00000000000E+00  0.00000000000E+00  0.25719989697E+04  0.25719989697E+04  0.50400001928E-02 0. -1.
       -1   -1    0    0    0  501  0.00000000000E+00  0.00000000000E+00 -0.15548648186E+04  0.15548648186E+04  0.50400001928E-02 0.  1.
    10030    2    1    2    0    0  0.00000000000E+00  0.00000000000E+00  0.10171341511E+04  0.41268637883E+04  0.39995553310E+04 0.  0.
        1    1    3    3  502    0  0.26115123053E+03  0.19761913849E+04  0.34354397554E+03  0.20227592092E+04  0.50400001928E-02 0. -1.
       -1    1    3    3    0  502 -0.26115123053E+03 -0.19761913849E+04  0.67359017558E+03  0.21041045791E+04  0.50400001928E-02 0.  1.
</event>
<event>
 5   0  0.2730801E-07  0.3996705E+04  0.7818609E-02  0.8005212E-01
        2   -1    0    0  501    0  0.00000000000E+00  0.00000000000E+00  0.25731321543E+04  0.25731321543E+04  0.25500000920E-02 0. -1.
       -2   -1    0    0    0  501  0.00000000000E+00  0.00000000000E+00 -0.15519656804E+04  0.15519656804E+04  0.25500000920E-02 0.  1.
    10030    2    1    2    0    0  0.00000000000E+00  0.00000000000E+00  0.10211664740E+04  0.41250978347E+04  0.39967050402E+04 0.  0.
        2    1    3    3  502    0 -0.19750699832E+04  0.16976625448E+03  0.77106086079E+03  0.21270300587E+04  0.25500000920E-02 0. -1.
       -2    1    3    3    0  502  0.19750699832E+04 -0.16976625448E+03  0.25010561317E+03  0.19980677760E+04  0.25500000920E-02 0.  1.
</event>
<event>
 5   0  0.8528625E-08  0.4006530E+04  0.7818609E-02  0.8003231E-01
       -1   -1    0    0    0  501  0.00000000000E+00  0.00000000000E+00  0.24524238039E+04  0.24524238039E+04  0.50400001928E-02 0.  1.
        1   -1    0    0  501    0  0.00000000000E+00  0.00000000000E+00 -0.16363693121E+04  0.16363693121E+04  0.50400001928E-02 0. -1.
    10030    2    1    2    0    0  0.00000000000E+00  0.00000000000E+00  0.81605449177E+03  0.40887931160E+04  0.40065301960E+04 0.  0.
        5    1    3    3  502    0  0.56188822192E+02 -0.11839868448E+04  0.20561368218E+04  0.23733315724E+04  0.46999998093E+01 0.  1.
       -5    1    3    3    0  502 -0.56188822192E+02  0.11839868448E+04 -0.12400823300E+04  0.17154615436E+04  0.46999998093E+01 0. -1.
</event>
<event>
 5   0  0.8528625E-08  0.3972630E+04  0.7818609E-02  0.8010091E-01
       -1   -1    0    0    0  501  0.00000000000E+00  0.00000000000E+00  0.20073854709E+04  0.20073854709E+04  0.50400001928E-02 0. -1.
        1   -1    0    0  501    0  0.00000000000E+00  0.00000000000E+00 -0.19654659685E+04  0.19654659685E+04  0.50400001928E-02 0.  1.
    10030    2    1    2    0    0  0.00000000000E+00  0.00000000000E+00  0.41919502378E+02  0.39728514393E+04  0.39726302766E+04 0.  0.
        3    1    3    3  502    0 -0.16106982443E+04 -0.58882701754E+01  0.11833773821E+04  0.19986909577E+04  0.10100000352E+00 0. -1.
       -3    1    3    3    0  502  0.16106982443E+04  0.58882701754E+01 -0.11414578797E+04  0.19741604816E+04  0.10100000352E+00 0.  1.
</event>
<event>
 5   0  0.2704088E-07  0.3836652E+04  0.7818609E-02  0.8038335E-01
       -2   -1    0    0    0  501  0.00000000000E+00  0.00000000000E+00  0.34264459582E+04  0.34264459582E+04  0.25500000920E-02 0.  1.
        2   -1    0    0  501    0  0.00000000000E+00  0.00000000000E+00 -0.10739916104E+04  0.10739916104E+04  0.25500000920E-02 0. -1.
    10030    2    1    2    0    0  0.00000000000E+00  0.00000000000E+00  0.23524543478E+04  0.45004375686E+04  0.38366517760E+04 0.  0.
        5    1    3    3  502    0 -0.13386349393E+04  0.10617907092E+04  0.15320953956E+03  0.17154702748E+04  0.46999998093E+01 0. -1.
       -5    1    3    3    0  502  0.13386349393E+04 -0.10617907092E+04  0.21992448082E+04  0.27849672937E+04  0.46999998093E+01 0.  1.
</event>
<event>
 5   0  0.8528625E-08  0.3259628E+04  0.7818609E-02  0.8173245E-01
       -1   -1    0    0    0  501  0.00000000000E+00  0.00000000000E+00  0.22928767853E+04  0.22928767853E+04  0.50400001928E-02 0.  1.
        1   -1    0    0  501    0  0.00000000000E+00  0.00000000000E+00 -0.11584983428E+04  0.11584983428E+04  0.50400001928E-02 0. -1.
    10030    2    1    2    0    0  0.00000000000E+00  0.00000000000E+00  0.11343784426E+04  0.34513751281E+04  0.32596281726E+04 0.  0.
        5    1    3    3  502    0 -0.14752649092E+04  0.50590933885E+03  0.66150180123E+02  0.15610088878E+04  0.46999998093E+01 0.  1.
       -5    1    3    3    0  502  0.14752649092E+04 -0.50590933885E+03  0.10682282624E+04  0.18903662402E+04  0.46999998093E+01 0. -1.
</event>
<event>
 5   0  0.2839279E-07  0.3915900E+04  0.7818609E-02  0.8021730E-01
        2   -1    0    0  501    0  0.00000000000E+00  0.00000000000E+00  0.29229962536E+04  0.29229962536E+04  0.25500000920E-02 0.  1.
       -2   -1    0    0    0  501  0.00000000000E+00  0.00000000000E+00 -0.13115203181E+04  0.13115203181E+04  0.25500000920E-02 0. -1.
    10030    2    1    2    0    0  0.00000000000E+00  0.00000000000E+00  0.16114759355E+04  0.42345165717E+04  0.39159003952E+04 0.  0.
        3    1    3    3  502    0 -0.21723975829E+03  0.12867259661E+03  0.29053181372E+04  0.29162687184E+04  0.10100000352E+00 0.  1.
       -3    1    3    3    0  502  0.21723975829E+03 -0.12867259661E+03 -0.12938422016E+04  0.13182478532E+04  0.10100000352E+00 0. -1.
</event>
<event>
 5   0  0.8583262E-08  0.3759543E+04  0.7818609E-02  0.8054893E-01
       -1   -1    0    0    0  501  0.00000000000E+00  0.00000000000E+00  0.17851538805E+04  0.17851538805E+04  0.50400001928E-02 0.  1.
        1   -1    0    0  501    0  0.00000000000E+00  0.00000000000E+00 -0.19794042859E+04  0.19794042859E+04  0.50400001928E-02 0. -1.
    10030    2    1    2    0    0  0.00000000000E+00  0.00000000000E+00 -0.19425040540E+03  0.37645581665E+04  0.37595431862E+04 0.  0.
        1    1    3    3  502    0  0.96062204930E+03  0.95142188542E+02 -0.17122537079E+04  0.19656193726E+04  0.50400001928E-02 0. -1.
       -1    1    3    3    0  502 -0.96062204930E+03 -0.95142188542E+02  0.15180033025E+04  0.17989387939E+04  0.50400001928E-02 0.  1.
</event>
<event>
 5   0  0.8528625E-08  0.3935336E+04  0.7818609E-02  0.8017720E-01
        1   -1    0    0  501    0  0.00000000000E+00  0.00000000000E+00  0.13802190212E+04  0.13802190212E+04  0.50400001928E-02 0. -1.
       -1   -1    0    0    0  501  0.00000000000E+00  0.00000000000E+00 -0.28051475725E+04  0.28051475725E+04  0.50400001928E-02 0.  1.
    10030    2    1    2    0    0  0.00000000000E+00  0.00000000000E+00 -0.14249285513E+04  0.41853665937E+04  0.39353363449E+04 0.  0.
        5    1    3    3  502    0  0.12228661394E+03 -0.12019698156E+04  0.93927404073E+03  0.15303408990E+04  0.46999998093E+01 0. -1.
       -5    1    3    3    0  502 -0.12228661394E+03  0.12019698156E+04 -0.23642025920E+04  0.26550256947E+04  0.46999998093E+01 0.  1.
</event>
<event>
 5   0  0.2839279E-07  0.4007425E+04  0.7818609E-02  0.8003050E-01
       -2   -1    0    0    0  501  0.00000000000E+00  0.00000000000E+00  0.23559236076E+04  0.23559236076E+04  0.25500000920E-02 0.  1.
        2   -1    0    0  501    0  0.00000000000E+00  0.00000000000E+00 -0.17041570409E+04  0.17041570409E+04  0.25500000920E-02 0. -1.
    10030    2    1    2    0    0  0.00000000000E+00  0.00000000000E+00  0.65176656668E+03  0.40600806484E+04  0.40074250104E+04 0.  0.
        3    1    3    3  502    0 -0.46135265602E+03  0.19479547273E+04  0.23820192338E+03  0.20159647962E+04  0.10100000352E+00 0. -1.
       -3    1    3    3    0  502  0.46135265602E+03 -0.19479547273E+04  0.41356464330E+03  0.20441158522E+04  0.10100000352E+00 0.  1.
</event>
<event>
 5   0  0.2704088E-07  0.4018779E+04  0.7818609E-02  0.8000769E-01
       -2   -1    0    0    0  501  0.00000000000E+00  0.00000000000E+00  0.20905712698E+04  0.20905712698E+04  0.25500000920E-02 0.  1.
        2   -1    0    0  501    0  0.00000000000E+00  0.00000000000E+00 -0.19313601700E+04  0.19313601700E+04  0.25500000920E-02 0. -1.
    10030    2    1    2    0    0  0.00000000000E+00  0.00000000000E+00  0.15921109987E+03  0.40219314398E+04  0.40187789603E+04 0.  0.
        5    1    3    3  502    0 -0.14385796805E+04 -0.13212824793E+04  0.55148905536E+03  0.20296455738E+04  0.46999998093E+01 0. -1.
       -5    1    3    3    0  502  0.14385796805E+04  0.13212824793E+04 -0.39227795550E+03  0.19922858659E+04  0.46999998093E+01 0.  1.
</event>
<event>
 5   0  0.2704088E-07  0.3702234E+04  0.7818609E-02  0.8067467E-01
        2   -1    0    0  501    0  0.00000000000E+00  0.00000000000E+00  0.19717997578E+04  0.19717997578E+04  0.25500000920E-02 0.  1.
       -2   -1    0    0    0  501  0.00000000000E+00  0.00000000000E+00 -0.17378208328E+04  0.17378208328E+04  0.25500000920E-02 0. -1.
    10030    2    1    2    0    0  0.00000000000E+00  0.00000000000E+00  0.23397892504E+03  0.37096205906E+04  0.37022342969E+04 0.  0.
        5    1    3    3  502    0  0.28743560195E+03  0.77230455832E+03 -0.15438877658E+04  0.17500528790E+04  0.46999998093E+01 0. -1.
       -5    1    3    3    0  502 -0.28743560195E+03 -0.77230455832E+03  0.17778666908E+04  0.19595677116E+04  0.46999998093E+01 0.  1.
</event>
<event>
 5   0  0.8528625E-08  0.3974339E+04  0.7818609E-02  0.8009743E-01
       -1   -1    0    0    0  501  0.00000000000E+00  0.00000000000E+00  0.28933523375E+04  0.28933523375E+04  0.50400001928E-02 0. -1.
        1   -1    0    0  501    0  0.00000000000E+00  0.00000000000E+00 -0.13647982582E+04  0.13647982582E+04  0.50400001928E-02 0.  1.
    10030    2    1    2    0    0  0.00000000000E+00  0.00000000000E+00  0.15285540793E+04  0.42581505958E+04  0.39743388032E+04 0.  0.
        4    1    3    3  502    0 -0.18113094263E+04  0.61330759089E+03  0.13430895344E+04  0.23368524021E+04  0.12699999809E+01 0.  1.
       -4    1    3    3    0  502  0.18113094263E+04 -0.61330759089E+03  0.18546454492E+03  0.19212981937E+04  0.12699999809E+01 0. -1.
</event>
<event>
 5   0  0.8528625E-08  0.3736982E+04  0.7818609E-02  0.8059815E-01
       -1   -1    0    0    0  501  0.00000000000E+00  0.00000000000E+00  0.24675867055E+04  0.24675867055E+04  0.50400001928E-02 0.  1.
        1   -1    0    0  501    0  0.00000000000E+00  0.00000000000E+00 -0.14148470984E+04  0.14148470984E+04  0.50400001928E-02 0. -1.
    10030    2    1    2    0    0  0.00000000000E+00  0.00000000000E+00  0.10527396071E+04  0.38824338039E+04  0.37369816111E+04 0.  0.
        4    1    3    3  502    0  0.58470339006E+03  0.89190662590E+03  0.21203221433E+04  0.23734243380E+04  0.12699999809E+01 0.  1.
       -4    1    3    3    0  502 -0.58470339006E+03 -0.89190662590E+03 -0.10675825363E+04  0.15090094659E+04  0.12699999809E+01 0. -1.
</event>
<event>
 5   0  0.8528625E-08  0.4302227E+04  0.7818609E-02  0.7946206E-01
        1   -1    0    0  501    0  0.00000000000E+00  0.00000000000E+00  0.27310690407E+04  0.27310690407E+04  0.50400001928E-02 0.  1.
       -1   -1    0    0    0  501  0.00000000000E+00  0.00000000000E+00 -0.16943145895E+04  0.16943145895E+04  0.50400001928E-02 0. -1.
    10030    2    1    2    0    0  0.00000000000E+00  0.00000000000E+00  0.10367544512E+04  0.44253836303E+04  0.43022273862E+04 0.  0.
        3    1    3    3  502    0 -0.13884056220E+03  0.11411805995E+04  0.23885882534E+04  0.26508345322E+04  0.10100000352E+00 0.  1.
       -3    1    3    3    0  502  0.13884056220E+03 -0.11411805995E+04 -0.13518338022E+04  0.17745490981E+04  0.10100000352E+00 0. -1.
</event>
<event>
 5   0  0.8583262E-08  0.4013568E+04  0.7818609E-02  0.8001815E-01
       -1   -1    0    0    0  501  0.00000000000E+00  0.00000000000E+00  0.17393314317E+04  0.17393314317E+04  0.50400001928E-02 0. -1.
        1   -1    0    0  501    0  0.00000000000E+00  0.00000000000E+00 -0.23153617033E+04  0.23153617033E+04  0.50400001928E-02 0.  1.
    10030    2    1    2    0    0  0.00000000000E+00  0.00000000000E+00 -0.57603027157E+03  0.40546931350E+04  0.40135676829E+04 0.  0.
        1    1    3    3  502    0 -0.81708161744E+03 -0.80926593098E+03 -0.19494478200E+04  0.22633781212E+04  0.50400001928E-02 0.  1.
       -1    1    3    3    0  502  0.81708161744E+03  0.80926593098E+03  0.13734175484E+04  0.17913150138E+04  0.50400001928E-02 0. -1.
</event>
<event>
 5   0  0.2839279E-07  0.3988464E+04  0.7818609E-02  0.8006878E-01
        2   -1    0    0  501    0  0.00000000000E+00  0.00000000000E+00  0.18981093044E+04  0.18981093044E+04  0.25500000920E-02 0. -1.
       -2   -1    0    0    0  501  0.00000000000E+00  0.00000000000E+00 -0.20952220239E+04  0.20952220239E+04  0.25500000920E-02 0.  1.
    10030    2    1    2    0    0  0.00000000000E+00  0.00000000000E+00 -0.19711271955E+03  0.39933313283E+04  0.39884635731E+04 0.  0.
        3    1    3    3  502    0 -0.78126507865E+02 -0.10100369769E+04 -0.18184077280E+04  0.20815583396E+04  0.10100000352E+00 0.  1.
       -3    1    3    3    0  502  0.78126507865E+02  0.10100369769E+04  0.16212950084E+04  0.19117729887E+04  0.10100000352E+00 0. -1.
</event>
<event>
 5   0  0.2704088E-07  0.3999934E+04  0.7818609E-02  0.8004560E-01
        2   -1    0    0  501    0  0.00000000000E+00  0.00000000000E+00  0.18821965599E+04  0.18821965599E+04  0.25500000920E-02 0. -1.
       -2   -1    0    0    0  501  0.00000000000E+00  0.00000000000E+00 -0.21251068721E+04  0.21251068721E+04  0.25500000920E-02 0.  1.
    10030    2    1    2    0    0  0.00000000000E+00  0.00000000000E+00 -0.24291031219E+03  0.40073034321E+04  0.39999344216E+04 0.  0.
        5    1    3    3  502    0 -0.29299431000E+02 -0.11263363525E+04  0.15339674959E+04  0.19033051264E+04  0.46999998093E+01 0. -1.
       -5    1    3    3    0  502  0.29299431000E+02  0.11263363525E+04 -0.17768778081E+04  0.21039983057E+04  0.46999998093E+01 0.  1.
</event>
<event>
 5   0  0.2704088E-07  0.4005522E+04  0.7818609E-02  0.8003434E-01
       -2   -1    0    0    0  501  0.00000000000E+00  0.00000000000E+00  0.25502215786E+04  0.25502215786E+04  0.25500000920E-02 0. -1.
        2   -1    0    0  501    0  0.00000000000E+00  0.00000000000E+00 -0.15728246238E+04  0.15728246238E+04  0.25500000920E-02 0.  1.
    10030    2    1    2    0    0  0.00000000000E+00  0.00000000000E+00  0.97739695484E+03  0.41230462024E+04  0.40055218362E+04 0.  0.
        5    1    3    3  502    0 -0.15583027256E+04  0.36362664634E+03  0.17284012929E+04  0.23554033289E+04  0.46999998093E+01 0. -1.
       -5    1    3    3    0  502  0.15583027256E+04 -0.36362664634E+03 -0.75100433807E+03  0.17676428735E+04  0.46999998093E+01 0.  1.
</event>
<event>
 5   0  0.8583262E-08  0.3957913E+04  0.7818609E-02  0.8013091E-01
       -1   -1    0    0    0  501  0.00000000000E+00  0.00000000000E+00  0.18744005272E+04  0.18744005272E+04  0.50400001928E-02 0.  1.
        1   -1    0    0  501    0  0.00000000000E+00  0.00000000000E+00 -0.20893448139E+04  0.20893448139E+04  0.50400001928E-02 0. -1.
    10030    2    1    2    0    0  0.00000000000E+00  0.00000000000E+00 -0.21494428668E+03  0.39637453412E+04  0.39579130970E+04 0.  0.
        1    1    3    3  502    0 -0.40690039001E+03  0.19365850413E+04 -0.89020249789E+02  0.19808720692E+04  0.50400001928E-02 0. -1.
       -1    1    3    3    0  502  0.40690039001E+03 -0.19365850413E+04 -0.12592403689E+03  0.19828732720E+04  0.50400001928E-02 0.  1.
</event>
<event>
 5   0  0.2661693E-07  0.3896197E+04  0.7818609E-02  0.8025821E-01
       -2   -1    0    0    0  501  0.00000000000E+00  0.00000000000E+00  0.14403755013E+04  0.14403755013E+04  0.25500000920E-02 0.  1.
        2   -1    0    0  501    0  0.00000000000E+00  0.00000000000E+00 -0.26347909088E+04  0.26347909088E+04  0.25500000920E-02 0. -1.
    10030    2    1    2    0    0  0.00000000000E+00  0.00000000000E+00 -0.11944154074E+04  0.40751664101E+04  0.38961972620E+04 0.  0.
        1    1    3    3  502    0  0.44149060153E+03 -0.95665455568E+03 -0.23110681467E+04  0.25399090277E+04  0.50400001928E-02 0. -1.
       -1    1    3    3    0  502 -0.44149060153E+03  0.95665455568E+03  0.11166527392E+04  0.15352573824E+04  0.50400001928E-02 0.  1.
</event>
<event>
 5   0  0.2661693E-07  0.3978006E+04  0.7818609E-02  0.8008998E-01
        2   -1    0    0  501    0  0.00000000000E+00  0.00000000000E+00  0.24367154090E+04  0.24367154090E+04  0.25500000920E-02 0.  1.
       -2   -1    0    0    0  501  0.00000000000E+00  0.00000000000E+00 -0.16235517268E+04  0.16235517268E+04  0.25500000920E-02 0. -1.
    10030    2    1    2    0    0  0.00000000000E+00  0.00000000000E+00  0.81316368212E+03  0.40602671358E+04  0.39780062896E+04 0.  0.
        1    1    3    3  502    0 -0.64389758869E+03 -0.71077857599E+03  0.21851198175E+04  0.23863274934E+04  0.50400001928E-02 0.  1.
       -1    1    3    3    0  502  0.64389758869E+03  0.71077857599E+03 -0.13719561354E+04  0.16739396424E+04  0.50400001928E-02 0. -1.
</event>
<event>
 5   0  0.8528625E-08  0.3988297E+04  0.7818609E-02  0.8006912E-01
       -1   -1    0    0    0  501  0.00000000000E+00  0.00000000000E+00  0.22907649352E+04  0.22907649352E+04  0.50400001928E-02 0.  1.
        1   -1    0    0  501    0  0.00000000000E+00  0.00000000000E+00 -0.17359391853E+04  0.17359391853E+04  0.50400001928E-02 0. -1.
    10030    2    1    2    0    0  0.00000000000E+00  0.00000000000E+00  0.55482574986E+03  0.40267041205E+04  0.39882971882E+04 0.  0.
        3    1    3    3  502    0 -0.18294642346E+04 -0.21860469446E+02 -0.52345426949E+03  0.19030033233E+04  0.10100000352E+00 0. -1.
       -3    1    3    3    0  502  0.18294642346E+04  0.21860469446E+02  0.10782800193E+04  0.21237007972E+04  0.10100000352E+00 0.  1.
</event>
<event>
 5   0  0.2666978E-07  0.3963487E+04  0.7818609E-02  0.8011953E-01
        2   -1    0    0  501    0  0.00000000000E+00  0.00000000000E+00  0.22889030035E+04  0.22889030035E+04  0.25500000920E-02 0.  1.
       -2   -1    0    0    0  501  0.00000000000E+00  0.00000000000E+00 -0.17158028803E+04  0.17158028803E+04  0.25500000920E-02 0. -1.
    10030    2    1    2    0    0  0.00000000000E+00  0.00000000000E+00  0.57310012323E+03  0.40047058838E+04  0.39634865288E+04 0.  0.
        4    1    3    3  502    0 -0.87470805601E+03 -0.17781498909E+04  0.26702200450E+03  0.19995583467E+04  0.12699999809E+01 0.  1.
       -4    1    3    3    0  502  0.87470805601E+03  0.17781498909E+04  0.30607811874E+03  0.20051475371E+04  0.12699999809E+01 0. -1.
</event>
<event>
 5   0  0.8528625E-08  0.2888309E+04  0.7818609E-02  0.8276364E-01
       -1   -1    0    0    0  501  0.00000000000E+00  0.00000000000E+00  0.83747820503E+03  0.83747820504E+03  0.50400001928E-02 0. -1.
        1   -1    0    0  501    0  0.00000000000E+00  0.00000000000E+00 -0.24903129313E+04  0.24903129313E+04  0.50400001928E-02 0.  1.
    10030    2    1    2    0    0  0.00000000000E+00  0.00000000000E+00 -0.16528347263E+04  0.33277911363E+04  0.28883094043E+04 0.  0.
        2    1    3    3  502    0 -0.13421636849E+04  0.43777693538E+03 -0.47594360282E+03  0.14898235853E+04  0.25500000920E-02 0. -1.
       -2    1    3    3    0  502  0.13421636849E+04 -0.43777693538E+03 -0.11768911234E+04  0.18379675510E+04  0.25500000920E-02 0.  1.
</event>
<event>
 5   0  0.2730801E-07  0.4002823E+04  0.7818609E-02  0.8003977E-01
       -2   -1    0    0    0  501  0.00000000000E+00  0.00000000000E+00  0.22311862758E+04  0.22311862758E+04  0.25500000920E-02 0.  1.
        2   -1    0    0  501    0  0.00000000000E+00  0.00000000000E+00 -0.17952993365E+04  0.17952993365E+04  0.25500000920E-02 0. -1.
    10030    2    1    2    0    0  0.00000000000E+00  0.00000000000E+00  0.43588693930E+03  0.40264856122E+04  0.40028226243E+04 0.  0.
        2    1    3    3  502    0  0.13410838581E+04 -0.55262692965E+03  0.16051333910E+04  0.21634129612E+04  0.25500000920E-02 0.  1.
       -2    1    3    3    0  502 -0.13410838581E+04  0.55262692965E+03 -0.11692464517E+04  0.18630726510E+04  0.25500000920E-02 0. -1.
</event>
<event>
 5   0  0.8528625E-08  0.2960449E+04  0.7818609E-02  0.8255116E-01
       -1   -1    0    0    0  501  0.00000000000E+00  0.00000000000E+00  0.15749593661E+04  0.15749593662E+04  0.50400001928E-02 0. -1.
        1   -1    0    0  501    0  0.00000000000E+00  0.00000000000E+00 -0.13911883855E+04  0.13911883855E+04  0.50400001928E-02 0.  1.
    10030    2    1    2    0    0  0.00000000000E+00  0.00000000000E+00  0.18377098067E+03  0.29661477517E+04  0.29604494104E+04 0.  0.
        3    1    3    3  502    0  0.19999350342E+03  0.49653458190E+03 -0.12908147534E+04  0.13974071454E+04  0.10100000352E+00 0.  1.
       -3    1    3    3    0  502 -0.19999350342E+03 -0.49653458190E+03  0.14745857340E+04  0.15687406062E+04  0.10100000352E+00 0. -1.
</event>
<event>
 5   0  0.2730801E-07  0.3058455E+04  0.7818609E-02  0.8227233E-01
        2   -1    0    0  501    0  0.00000000000E+00  0.00000000000E+00  0.26429478766E+04  0.26429478766E+04  0.25500000920E-02 0. -1.
       -2   -1    0    0    0  501  0.00000000000E+00  0.00000000000E+00 -0.88482162720E+03  0.88482162721E+03  0.25500000920E-02 0.  1.
    10030    2    1    2    0    0  0.00000000000E+00  0.00000000000E+00  0.17581262494E+04  0.35277695038E+04  0.30584554538E+04 0.  0.
        2    1    3    3  502    0  0.10755111219E+03 -0.15213888721E+04  0.10072261993E+04  0.18277570841E+04  0.25500000920E-02 0. -1.
       -2    1    3    3    0  502 -0.10755111219E+03  0.15213888721E+04  0.75090005004E+03  0.17000124197E+04  0.25500000920E-02 0.  1.
</event>
<event>
 5   0  0.2704088E-07  0.3511836E+04  0.7818609E-02  0.8110991E-01
       -2   -1    0    0    0  501  0.00000000000E+00  0.00000000000E+00  0.11866358122E+04  0.11866358122E+04  0.25500000920E-02 0.  1.
        2   -1    0    0  501    0  0.00000000000E+00  0.00000000000E+00 -0.25983105911E+04  0.25983105911E+04  0.25500000920E-02 0. -1.
    10030    2    1    2    0    0  0.00000000000E+00  0.00000000000E+00 -0.14116747788E+04  0.37849464033E+04  0.35118362141E+04 0.  0.
        5    1    3    3  502    0 -0.13871711739E+04 -0.82044352838E+03 -0.14570774803E+04  0.21726638771E+04  0.46999998093E+01 0. -1.
       -5    1    3    3    0  502  0.13871711739E+04  0.82044352838E+03  0.45402701502E+02  0.16122825262E+04  0.46999998093E+01 0.  1.
</event>
<event>
 5   0  0.2704088E-07  0.3923674E+04  0.7818609E-02  0.8020123E-01
        2   -1    0    0  501    0  0.00000000000E+00  0.00000000000E+00  0.21111366055E+04  0.21111366055E+04  0.25500000920E-02 0.  1.
       -2   -1    0    0    0  501  0.00000000000E+00  0.00000000000E+00 -0.18230962085E+04  0.18230962085E+04  0.25500000920E-02 0. -1.
    10030    2    1    2    0    0  0.00000000000E+00  0.00000000000E+00  0.28804039698E+03  0.39342328141E+04  0.39236743704E+04 0.  0.
        5    1    3    3  502    0  0.12000178416E+02 -0.76599116452E+03 -0.16669120083E+04  0.18345310578E+04  0.46999998093E+01 0. -1.
       -5    1    3    3    0  502 -0.12000178416E+02  0.76599116452E+03  0.19549524053E+04  0.20997017563E+04  0.46999998093E+01 0.  1.
</event>
<event>
 5   0  0.2704088E-07  0.3685137E+04  0.7818609E-02  0.8071264E-01
        2   -1    0    0  501    0  0.00000000000E+00  0.00000000000E+00  0.27302310180E+04  0.27302310180E+04  0.25500000920E-02 0.  1.
       -2   -1    0    0    0  501  0.00000000000E+00  0.00000000000E+00 -0.12435059000E+04  0.12435059000E+04  0.25500000920E-02 0. -1.
    10030    2    1    2    0    0  0.00000000000E+00  0.00000000000E+00  0.14867251180E+04  0.39737369181E+04  0.36851368384E+04 0.  0.
        5    1    3    3  502    0  0.24537211283E+03 -0.16102250939E+04  0.16722190162E+04  0.23343887540E+04  0.46999998093E+01 0.  1.
       -5    1    3    3    0  502 -0.24537211283E+03  0.16102250939E+04 -0.18549389822E+03  0.16393481640E+04  0.46999998093E+01 0. -1.
</event>
<event>
 5   0  0.8528625E-08  0.4031125E+04  0.7818609E-02  0.7998297E-01
       -1   -1    0    0    0  501  0.00000000000E+00  0.00000000000E+00  0.20373521915E+04  0.20373521915E+04  0.50400001928E-02 0. -1.
        1   -1    0    0  501    0  0.00000000000E+00  0.00000000000E+00 -0.19940057812E+04  0.19940057812E+04  0.50400001928E-02 0.  1.
    10030    2    1    2    0    0  0.00000000000E+00  0.00000000000E+00  0.43346410270E+02  0.40313579727E+04  0.40311249289E+04 0.  0.
        3    1    3    3  502    0  0.18181261164E+04 -0.63040641919E+03  0.62128872908E+03  0.20221262383E+04  0.10100000352E+00 0. -1.
       -3    1    3    3    0  502 -0.18181261164E+04  0.63040641919E+03 -0.57794231881E+03  0.20092317344E+04  0.10100000352E+00 0.  1.
</event>
<event>
 5   0  0.8528625E-08  0.3976492E+04  0.7818609E-02  0.8009306E-01
       -1   -1    0    0    0  501  0.00000000000E+00  0.00000000000E+00  0.18164173941E+04  0.18164173941E+04  0.50400001928E-02 0.  1.
        1   -1    0    0  501    0  0.00000000000E+00  0.00000000000E+00 -0.21763294928E+04  0.21763294928E+04  0.50400001928E-02 0. -1.
    10030    2    1    2    0    0  0.00000000000E+00  0.00000000000E+00 -0.35991209868E+03  0.39927468869E+04  0.39764922965E+04 0.  0.
        3    1    3    3  502    0 -0.18009099166E+02  0.10600636473E+04 -0.18688134446E+04  0.21486095422E+04  0.10100000352E+00 0. -1.
       -3    1    3    3    0  502  0.18009099166E+02 -0.10600636473E+04  0.15089013459E+04  0.18441373447E+04  0.10100000352E+00 0.  1.
</event>
<event>
 5   0  0.8528625E-08  0.3649791E+04  0.7818609E-02  0.8079181E-01
        1   -1    0    0  501    0  0.00000000000E+00  0.00000000000E+00  0.14021537081E+04  0.14021537081E+04  0.50400001928E-02 0.  1.
       -1   -1    0    0    0  501  0.00000000000E+00  0.00000000000E+00 -0.23750915118E+04  0.23750915118E+04  0.50400001928E-02 0. -1.
    10030    2    1    2    0    0  0.00000000000E+00  0.00000000000E+00 -0.97293780367E+03  0.37772452199E+04  0.36497908819E+04 0.  0.
        5    1    3    3  502    0 -0.46348037908E+03 -0.17139375097E+04 -0.92288838845E+03  0.20010349613E+04  0.46999998093E+01 0.  1.
       -5    1    3    3    0  502  0.46348037908E+03  0.17139375097E+04 -0.50049415228E+02  0.17762102586E+04  0.46999998093E+01 0. -1.
</event>
<event>
 5   0  0.2661693E-07  0.3896930E+04  0.7818609E-02  0.8025668E-01
        2   -1    0    0  501    0  0.00000000000E+00  0.00000000000E+00  0.13855735275E+04  0.13855735275E+04  0.25500000920E-02 0.  1.
       -2   -1    0    0    0  501  0.00000000000E+00  0.00000000000E+00 -0.27400327189E+04  0.27400327189E+04  0.25500000920E-02 0. -1.
    10030    2    1    2    0    0  0.00000000000E+00  0.00000000000E+00 -0.13544591914E+04  0.41256062464E+04  0.38969304843E+04 0.  0.
        1    1    3    3  502    0  0.91483402088E+03 -0.10119141954E+04 -0.21501380273E+04  0.25463670516E+04  0.50400001928E-02 0. -1.
       -1    1    3    3    0  502 -0.91483402088E+03  0.10119141954E+04  0.79567883593E+03  0.15792391949E+04  0.50400001928E-02 0.  1.
</event>
<event>
 5   0  0.8528625E-08  0.3920651E+04  0.7818609E-02  0.8020748E-01
       -1   -1    0    0    0  501  0.00000000000E+00  0.00000000000E+00  0.17606610755E+04  0.17606610755E+04  0.50400001928E-02 0. -1.
        1   -1    0    0  501    0  0.00000000000E+00  0.00000000000E+00 -0.21826323100E+04  0.21826323100E+04  0.50400001928E-02 0.  1.
    10030    2    1    2    0    0  0.00000000000E+00  0.00000000000E+00 -0.42197123453E+03  0.39432933855E+04  0.39206508390E+04 0.  0.
        5    1    3    3  502    0  0.37890528039E+03 -0.41496235996E+03 -0.20998867906E+04  0.21737777244E+04  0.46999998093E+01 0.  1.
       -5    1    3    3    0  502 -0.37890528039E+03  0.41496235996E+03  0.16779155561E+04  0.17695156611E+04  0.46999998093E+01 0. -1.
</event>
<event>
 5   0  0.2661693E-07  0.3979134E+04  0.7818609E-02  0.8008769E-01
        2   -1    0    0  501    0  0.00000000000E+00  0.00000000000E+00  0.14822079307E+04  0.14822079307E+04  0.25500000920E-02 0.  1.
       -2   -1    0    0    0  501  0.00000000000E+00  0.00000000000E+00 -0.26705945182E+04  0.26705945182E+04  0.25500000920E-02 0. -1.
    10030    2    1    2    0    0  0.00000000000E+00  0.00000000000E+00 -0.11883865876E+04  0.41528024489E+04  0.39791337623E+04 0.  0.
        1    1    3    3  502    0 -0.13317559930E+03  0.29898118013E+03  0.14539184090E+04  0.14903034008E+04  0.50400001928E-02 0.  1.
       -1    1    3    3    0  502  0.13317559930E+03 -0.29898118013E+03 -0.26423049966E+04  0.26624990481E+04  0.50400001928E-02 0. -1.
</event>
<event>
 5   0  0.2839279E-07  0.4037893E+04  0.7818609E-02  0.7996946E-01
       -2   -1    0    0    0  501  0.00000000000E+00  0.00000000000E+00  0.16993798816E+04  0.16993798816E+04  0.25500000920E-02 0. -1.
        2   -1    0    0  501    0  0.00000000000E+00  0.00000000000E+00 -0.23986078667E+04  0.23986078667E+04  0.25500000920E-02 0.  1.
    10030    2    1    2    0    0  0.00000000000E+00  0.00000000000E+00 -0.69922798510E+03  0.40979877482E+04  0.40378934866E+04 0.  0.
        3    1    3    3  502    0 -0.35441454005E+03 -0.13361861096E+03  0.16629988103E+04  0.17055874802E+04  0.10100000352E+00 0. -1.
       -3    1    3    3    0  502  0.35441454005E+03  0.13361861096E+03 -0.23622267954E+04  0.23924002680E+04  0.10100000352E+00 0.  1.
</event>
<event>
 5   0  0.2730801E-07  0.4017622E+04  0.7818609E-02  0.8001001E-01
       -2   -1    0    0    0  501  0.00000000000E+00  0.00000000000E+00  0.12873571508E+04  0.12873571509E+04  0.25500000920E-02 0.  1.
        2   -1    0    0  501    0  0.00000000000E+00  0.00000000000E+00 -0.31345783850E+04  0.31345783850E+04  0.25500000920E-02 0. -1.
    10030    2    1    2    0    0  0.00000000000E+00  0.00000000000E+00 -0.18472212341E+04  0.44219355358E+04  0.40176221320E+04 0.  0.
        2    1    3    3  502    0 -0.11377797615E+04  0.16439978035E+04 -0.11383059299E+04  0.23006546794E+04  0.25500000920E-02 0. -1.
       -2    1    3    3    0  502  0.11377797615E+04 -0.16439978035E+04 -0.70891530420E+03  0.21212808565E+04  0.25500000920E-02 0.  1.
</event>
<event>
 5   0  0.8528625E-08  0.4094650E+04  0.7818609E-02  0.7985720E-01
        1   -1    0    0  501    0  0.00000000000E+00  0.00000000000E+00  0.29242432470E+04  0.29242432470E+04  0.50400001928E-02 0.  1.
       -1   -1    0    0    0  501  0.00000000000E+00  0.00000000000E+00 -0.14333755824E+04  0.14333755824E+04  0.50400001928E-02 0. -1.
    10030    2    1    2    0    0  0.00000000000E+00  0.00000000000E+00  0.14908676646E+04  0.43576188294E+04  0.40946496149E+04 0.  0.
        2    1    3    3  502    0 -0.15190466690E+04 -0.13521812904E+04  0.99646823599E+03  0.22646955580E+04  0.25500000920E-02 0. -1.
       -2    1    3    3    0  502  0.15190466690E+04  0.13521812904E+04  0.49439942864E+03  0.20929232714E+04  0.25500000920E-02 0.  1.
</event>
<event>
 5   0  0.2704088E-07  0.3988754E+04  0.7818609E-02  0.8006819E-01
       -2   -1    0    0    0  501  0.00000000000E+00  0.00000000000E+00  0.17513780576E+04  0.17513780576E+04  0.25500000920E-02 0. -1.
        2   -1    0    0  501    0  0.00000000000E+00  0.00000000000E+00 -0.22710918529E+04  0.22710918529E+04  0.25500000920E-02 0.  1.
    10030    2    1    2    0    0  0.00000000000E+00  0.00000000000E+00 -0.51971379535E+03  0.40224699105E+04  0.39887544111E+04 0.  0.
        5    1    3    3  502    0  0.11215588341E+04  0.12411129899E+04 -0.13549745595E+04  0.21527270656E+04  0.46999998093E+01 0.  1.
       -5    1    3    3    0  502 -0.11215588341E+04 -0.12411129899E+04  0.83526076415E+03  0.18697428449E+04  0.46999998093E+01 0. -1.
</event>
<event>
 5   0  0.2704088E-07  0.4000921E+04  0.7818609E-02  0.8004361E-01
        2   -1    0    0  501    0  0.00000000000E+00  0.00000000000E+00  0.20215109528E+04  0.20215109528E+04  0.25500000920E-02 0.  1.
       -2   -1    0    0    0  501  0.00000000000E+00  0.00000000000E+00 -0.19796295802E+04  0.19796295802E+04  0.25500000920E-02 0. -1.
    10030    2    1    2    0    0  0.00000000000E+00  0.00000000000E+00  0.41881372626E+02  0.40011405331E+04  0.40009213334E+04 0.  0.
        5    1    3    3  502    0 -0.32051030313E+03  0.35497985987E+03 -0.19216083296E+04  0.19802369095E+04  0.46999998093E+01 0. -1.
       -5    1    3    3    0  502  0.32051030313E+03 -0.35497985987E+03  0.19634897022E+04  0.20209036236E+04  0.46999998093E+01 0.  1.
</event>
<event>
 5   0  0.2661693E-07  0.4063079E+04  0.7818609E-02  0.7991941E-01
        2   -1    0    0  501    0  0.00000000000E+00  0.00000000000E+00  0.20110357408E+04  0.20110357408E+04  0.25500000920E-02 0. -1.
       -2   -1    0    0    0  501  0.00000000000E+00  0.00000000000E+00 -0.20522525901E+04  0.20522525901E+04  0.25500000920E-02 0.  1.
    10030    2    1    2    0    0  0.00000000000E+00  0.00000000000E+00 -0.41216849249E+02  0.40632883309E+04  0.40630792795E+04 0.  0.
        1    1    3    3  502    0 -0.45439003647E+03  0.18401043578E+04  0.71066032102E+03  0.20242263818E+04  0.50400001928E-02 0. -1.
       -1    1    3    3    0  502  0.45439003647E+03 -0.18401043578E+04 -0.75187717026E+03  0.20390619491E+04  0.50400001928E-02 0.  1.
</event>
<event>
 5   0  0.2666978E-07  0.4022559E+04  0.7818609E-02  0.8000011E-01
       -2   -1    0    0    0  501  0.00000000000E+00  0.00000000000E+00  0.25348845176E+04  0.25348845176E+04  0.25500000920E-02 0.  1.
        2   -1    0    0  501    0  0.00000000000E+00  0.00000000000E+00 -0.15958299444E+04  0.15958299444E+04  0.25500000920E-02 0. -1.
    10030    2    1    2    0    0  0.00000000000E+00  0.00000000000E+00  0.93905457328E+03  0.41307144620E+04  0.40225586975E+04 0.  0.
        4    1    3    3  502    0 -0.15241208969E+04 -0.99036620217E+03 -0.41471349025E+03  0.18643386535E+04  0.12699999809E+01 0. -1.
       -4    1    3    3    0  502  0.15241208969E+04  0.99036620217E+03  0.13537680635E+04  0.22663758086E+04  0.12699999809E+01 0.  1.
</event>
<event>
 5   0  0.8528625E-08  0.3978761E+04  0.7818609E-02  0.8008845E-01
       -1   -1    0    0    0  501  0.00000000000E+00  0.00000000000E+00  0.16045641667E+04  0.16045641667E+04  0.50400001928E-02 0.  1.
        1   -1    0    0  501    0  0.00000000000E+00  0.00000000000E+00 -0.24664854109E+04  0.24664854109E+04  0.50400001928E-02 0. -1.
    10030    2    1    2    0    0  0.00000000000E+00  0.00000000000E+00 -0.86192124420E+03  0.40710495776E+04  0.39787606653E+04 0.  0.
        2    1    3    3  502    0  0.15042177381E+04 -0.12927476923E+04 -0.27322082888E+03  0.20021281729E+04  0.25500000920E-02 0. -1.
       -2    1    3    3    0  502 -0.15042177381E+04  0.12927476923E+04 -0.58870041532E+03  0.20689214046E+04  0.25500000920E-02 0.  1.
</event>
<event>
 5   0  0.8528625E-08  0.3987628E+04  0.7818609E-02  0.8007047E-01
       -1   -1    0    0    0  501  0.00000000000E+00  0.00000000000E+00  0.13328439324E+04  0.13328439324E+04  0.50400001928E-02 0.  1.
        1   -1    0    0  501    0  0.00000000000E+00  0.00000000000E+00 -0.29825647705E+04  0.29825647705E+04  0.50400001928E-02 0. -1.
    10030    2    1    2    0    0  0.00000000000E+00  0.00000000000E+00 -0.16497208381E+04  0.43154087029E+04  0.39876275440E+04 0.  0.
        2    1    3    3  502    0 -0.72541128789E+02  0.45446630633E+03  0.12745764354E+04  0.13551187876E+04  0.25500000920E-02 0.  1.
       -2    1    3    3    0  502  0.72541128789E+02 -0.45446630633E+03 -0.29242972735E+04  0.29602899153E+04  0.25500000920E-02 0. -1.
</event>
<event>
 5   0  0.2704088E-07  0.3011488E+04  0.7818609E-02  0.8240458E-01
       -2   -1    0    0    0  501  0.00000000000E+00  0.00000000000E+00  0.12115322833E+04  0.12115322833E+04  0.25500000920E-02 0. -1.
        2   -1    0    0  501    0  0.00000000000E+00  0.00000000000E+00 -0.18714023074E+04  0.18714023074E+04  0.25500000920E-02 0.  1.
    10030    2    1    2    0    0  0.00000000000E+00  0.00000000000E+00 -0.65987002409E+03  0.30829345907E+04  0.30114875464E+04 0.  0.
        5    1    3    3  502    0 -0.81647102774E+03 -0.10909696902E+03  0.96041121172E+03  0.12652821319E+04  0.46999998093E+01 0. -1.
       -5    1    3    3    0  502  0.81647102774E+03  0.10909696902E+03 -0.16202812358E+04  0.18176524588E+04  0.46999998093E+01 0.  1.
</event>
<event>
 5   0  0.2839279E-07  0.3997838E+04  0.7818609E-02  0.8004983E-01
        2   -1    0    0  501    0  0.00000000000E+00  0.00000000000E+00  0.34548430475E+04  0.34548430475E+04  0.25500000920E-02 0.  1.
       -2   -1    0    0    0  501  0.00000000000E+00  0.00000000000E+00 -0.11565435948E+04  0.11565435948E+04  0.25500000920E-02 0. -1.
    10030    2    1    2    0    0  0.00000000000E+00  0.00000000000E+00  0.22982994527E+04  0.46113866423E+04  0.39978377144E+04 0.  0.
        3    1    3    3  502    0  0.68925517131E+03  0.18086891065E+04  0.17250163124E+04  0.25927032733E+04  0.10100000352E+00 0.  1.
       -3    1    3    3    0  502 -0.68925517131E+03 -0.18086891065E+04  0.57328314034E+03  0.20186833690E+04  0.10100000352E+00 0. -1.
</event>
<event>
 5   0  0.8528625E-08  0.4008534E+04  0.7818609E-02  0.8002827E-01
       -1   -1    0    0    0  501  0.00000000000E+00  0.00000000000E+00  0.29216584197E+04  0.29216584198E+04  0.50400001928E-02 0. -1.
        1   -1    0    0  501    0  0.00000000000E+00  0.00000000000E+00 -0.13749336196E+04  0.13749336196E+04  0.50400001928E-02 0.  1.
    10030    2    1    2    0    0  0.00000000000E+00  0.00000000000E+00  0.15467248001E+04  0.42965920394E+04  0.40085340894E+04 0.  0.
        2    1    3    3  502    0 -0.12228546622E+04  0.23808319807E+03 -0.90950375764E+03  0.15424831342E+04  0.25500000920E-02 0.  1.
       -2    1    3    3    0  502  0.12228546622E+04 -0.23808319807E+03  0.24562285578E+04  0.27541089052E+04  0.25500000920E-02 0. -1.
</event>
<event>
 5   0  0.2666978E-07  0.3785602E+04  0.7818609E-02  0.8049252E-01
       -2   -1    0    0    0  501  0.00000000000E+00  0.00000000000E+00  0.12022206851E+04  0.12022206851E+04  0.25500000920E-02 0. -1.
        2   -1    0    0  501    0  0.00000000000E+00  0.00000000000E+00 -0.29800649585E+04  0.29800649585E+04  0.25500000920E-02 0.  1.
    10030    2    1    2    0    0  0.00000000000E+00  0.00000000000E+00 -0.17778442734E+04  0.41822856436E+04  0.37856020583E+04 0.  0.
        4    1    3    3  502    0 -0.13143472566E+04 -0.43341918767E+03 -0.23154817791E+04  0.26975578558E+04  0.12699999809E+01 0.  1.
       -4    1    3    3    0  502  0.13143472566E+04  0.43341918767E+03  0.53763750572E+03  0.14847277877E+04  0.12699999809E+01 0. -1.
</event>
<event>
 5   0  0.8528625E-08  0.4063004E+04  0.7818609E-02  0.7991956E-01
       -1   -1    0    0    0  501  0.00000000000E+00  0.00000000000E+00  0.20812614122E+04  0.20812614122E+04  0.50400001928E-02 0.  1.
        1   -1    0    0  501    0  0.00000000000E+00  0.00000000000E+00 -0.19829319682E+04  0.19829319683E+04  0.50400001928E-02 0. -1.
    10030    2    1    2    0    0  0.00000000000E+00  0.00000000000E+00  0.98329443917E+02  0.40641933804E+04  0.40630037108E+04 0.  0.
        4    1    3    3  502    0 -0.19027331770E+04  0.31322181732E+03  0.68848935072E+03  0.20475645652E+04  0.12699999809E+01 0.  1.
       -4    1    3    3    0  502  0.19027331770E+04 -0.31322181732E+03 -0.59015990680E+03  0.20166288152E+04  0.12699999809E+01 0. -1.
</event>
<event>
 5   0  0.8528625E-08  0.3959400E+04  0.7818609E-02  0.8012787E-01
       -1   -1    0    0    0  501  0.00000000000E+00  0.00000000000E+00  0.13867829629E+04  0.13867829629E+04  0.50400001928E-02 0. -1.
        1   -1    0    0  501    0  0.00000000000E+00  0.00000000000E+00 -0.28261172005E+04  0.28261172005E+04  0.50400001928E-02 0.  1.
    10030    2    1    2    0    0  0.00000000000E+00  0.00000000000E+00 -0.14393342375E+04  0.42129001634E+04  0.39593995428E+04 0.  0.
        3    1    3    3  502    0 -0.19793239078E+04  0.36618529034E+02 -0.70676097693E+03  0.21020407078E+04  0.10100000352E+00 0.  1.
       -3    1    3    3    0  502  0.19793239078E+04 -0.36618529034E+02 -0.73257326061E+03  0.21108594556E+04  0.10100000352E+00 0. -1.
</event>
<event>
 5   0  0.2661693E-07  0.3988766E+04  0.7818609E-02  0.8006817E-01
        2   -1    0    0  501    0  0.00000000000E+00  0.00000000000E+00  0.22607946626E+04  0.22607946626E+04  0.25500000920E-02 0.  1.
       -2   -1    0    0    0  501  0.00000000000E+00  0.00000000000E+00 -0.17593655219E+04  0.17593655219E+04  0.25500000920E-02 0. -1.
    10030    2    1    2    0    0  0.00000000000E+00  0.00000000000E+00  0.50142914066E+03  0.40201601845E+04  0.39887663163E+04 0.  0.
        1    1    3    3  502    0 -0.83302597496E+03  0.79470167873E+03  0.18920531154E+04  0.22148020283E+04  0.50400001928E-02 0.  1.
       -1    1    3    3    0  502  0.83302597496E+03 -0.79470167873E+03 -0.13906239747E+04  0.18053581562E+04  0.50400001928E-02 0. -1.
</event>
<event>
 5   0  0.8528625E-08  0.3717499E+04  0.7818609E-02  0.8064095E-01
        1   -1    0    0  501    0  0.00000000000E+00  0.00000000000E+00  0.14924318986E+04  0.14924318986E+04  0.50400001928E-02 0.  1.
       -1   -1    0    0    0  501  0.00000000000E+00  0.00000000000E+00 -0.23149794916E+04  0.23149794916E+04  0.50400001928E-02 0. -1.
    10030    2    1    2    0    0  0.00000000000E+00  0.00000000000E+00 -0.82254759304E+03  0.38074113902E+04  0.37174987494E+04 0.  0.
        2    1    3    3  502    0 -0.10428911260E+04  0.66281082514E+03  0.10108372789E+04  0.15964748965E+04  0.25500000920E-02 0.  1.
       -2    1    3    3    0  502  0.10428911260E+04 -0.66281082514E+03 -0.18333848719E+04  0.22109364937E+04  0.25500000920E-02 0. -1.
</event>
<event>
 5   0  0.2661693E-07  0.4085787E+04  0.7818609E-02  0.7987461E-01
       -2   -1    0    0    0  501  0.00000000000E+00  0.00000000000E+00  0.29852087840E+04  0.29852087840E+04  0.25500000920E-02 0. -1.
        2   -1    0    0  501    0  0.00000000000E+00  0.00000000000E+00 -0.13980309779E+04  0.13980309779E+04  0.25500000920E-02 0.  1.
    10030    2    1    2    0    0  0.00000000000E+00  0.00000000000E+00  0.15871778061E+04  0.43832397620E+04  0.40857872464E+04 0.  0.
        1    1    3    3  502    0 -0.11775226375E+04  0.10608093622E+04  0.21764375711E+04  0.26923514937E+04  0.50400001928E-02 0. -1.
       -1    1    3    3    0  502  0.11775226375E+04 -0.10608093622E+04 -0.58925976507E+03  0.16908882682E+04  0.50400001928E-02 0.  1.
</event>
<event>
 5   0  0.2839279E-07  0.4008645E+04  0.7818609E-02  0.8002805E-01
        2   -1    0    0  501    0  0.00000000000E+00  0.00000000000E+00  0.13093352337E+04  0.13093352337E+04  0.25500000920E-02 0.  1.
       -2   -1    0    0    0  501  0.00000000000E+00  0.00000000000E+00 -0.30682048390E+04  0.30682048390E+04  0.25500000920E-02 0. -1.
    10030    2    1    2    0    0  0.00000000000E+00  0.00000000000E+00 -0.17588696054E+04  0.43775400727E+04  0.40086450079E+04 0.  0.
        3    1    3    3  502    0  0.12816304283E+04 -0.11842971839E+04  0.19728861028E+03  0.17561489631E+04  0.10100000352E+00 0.  1.
       -3    1    3    3    0  502 -0.12816304283E+04  0.11842971839E+04 -0.19561582156E+04  0.26213911096E+04  0.10100000352E+00 0. -1.
</event>
<event>
 5   0  0.8528625E-08  0.3965406E+04  0.7818609E-02  0.8011562E-01
       -1   -1    0    0    0  501  0.00000000000E+00  0.00000000000E+00  0.20224861218E+04  0.20224861218E+04  0.50400001928E-02 0. -1.
        1   -1    0    0  501    0  0.00000000000E+00  0.00000000000E+00 -0.19437020379E+04  0.19437020379E+04  0.50400001928E-02 0.  1.
    10030    2    1    2    0    0  0.00000000000E+00  0.00000000000E+00  0.78784083895E+02  0.39661881598E+04  0.39654056018E+04 0.  0.
        3    1    3    3  502    0  0.13756246673E+04  0.14219669859E+04 -0.90159780090E+02  0.19805206716E+04  0.10100000352E+00 0.  1.
       -3    1    3    3    0  502 -0.13756246673E+04 -0.14219669859E+04  0.16894386399E+03  0.19856674882E+04  0.10100000352E+00 0. -1.
</event>
<event>
 5   0  0.8583262E-08  0.3871170E+04  0.7818609E-02  0.8031052E-01
        1   -1    0    0  501    0  0.00000000000E+00  0.00000000000E+00  0.29895690459E+04  0.29895690459E+04  0.50400001928E-02 0. -1.
       -1   -1    0    0    0  501  0.00000000000E+00  0.00000000000E+00 -0.12531872940E+04  0.12531872940E+04  0.50400001928E-02 0.  1.
    10030    2    1    2    0    0  0.00000000000E+00  0.00000000000E+00  0.17363817519E+04  0.42427563398E+04  0.38711703361E+04 0.  0.
        1    1    3    3  502    0  0.17540927624E+04  0.81762292145E+03  0.90521648985E+03  0.21365311967E+04  0.50400001928E-02 0. -1.
       -1    1    3    3    0  502 -0.17540927624E+04 -0.81762292145E+03  0.83116526203E+03  0.21062251432E+04  0.50400001928E-02 0.  1.
</event>
<event>
 5   0  0.2661693E-07  0.3857593E+04  0.7818609E-02  0.8033907E-01
       -2   -1    0    0    0  501  0.00000000000E+00  0.00000000000E+00  0.19321510412E+04  0.19321510412E+04  0.25500000920E-02 0. -1.
        2   -1    0    0  501    0  0.00000000000E+00  0.00000000000E+00 -0.19254481874E+04  0.19254481874E+04  0.25500000920E-02 0.  1.
    10030    2    1    2    0    0  0.00000000000E+00  0.00000000000E+00  0.67028538250E+01  0.38575992287E+04  0.38575934053E+04 0.  0.
        1    1    3    3  502    0  0.10124001397E+04  0.12559622781E+04 -0.10539398330E+04  0.19269624954E+04  0.50400001928E-02 0.  1.
       -1    1    3    3    0  502 -0.10124001397E+04 -0.12559622781E+04  0.10606426868E+04  0.19306367333E+04  0.50400001928E-02 0. -1.
</event>
<event>
 5   0  0.8528625E-08  0.3988378E+04  0.7818609E-02  0.8006895E-01
        1   -1    0    0  501    0  0.00000000000E+00  0.00000000000E+00  0.18959015147E+04  0.18959015147E+04  0.50400001928E-02 0.  1.
       -1   -1    0    0    0  501  0.00000000000E+00  0.00000000000E+00 -0.20975722867E+04  0.20975722867E+04  0.50400001928E-02 0. -1.
    10030    2    1    2    0    0  0.00000000000E+00  0.00000000000E+00 -0.20167077202E+03  0.39934738014E+04  0.39883783550E+04 0.  0.
        2    1    3    3  502    0  0.94258825036E+03  0.11016620296E+04 -0.14717663568E+04  0.20659690332E+04  0.25500000920E-02 0. -1.
       -2    1    3    3    0  502 -0.94258825036E+03 -0.11016620296E+04  0.12700955848E+04  0.19275047682E+04  0.25500000920E-02 0.  1.
</event>
<event>
 5   0  0.8583262E-08  0.4048268E+04  0.7818609E-02  0.7994879E-01
       -1   -1    0    0    0  501  0.00000000000E+00  0.00000000000E+00  0.19410918666E+04  0.19410918666E+04  0.50400001928E-02 0. -1.
        1   -1    0    0  501    0  0.00000000000E+00  0.00000000000E+00 -0.21107291767E+04  0.21107291768E+04  0.50400001928E-02 0.  1.
    10030    2    1    2    0    0  0.00000000000E+00  0.00000000000E+00 -0.16963731010E+03  0.40518210434E+04  0.40482683892E+04 0.  0.
        1    1    3    3  502    0  0.12511603117E+04 -0.12829814538E+04 -0.10267479916E+04  0.20653462118E+04  0.50400001928E-02 0.  1.
       -1    1    3    3    0  502 -0.12511603117E+04  0.12829814538E+04  0.85711068145E+03  0.19864748316E+04  0.50400001928E-02 0. -1.
</event>
<event>
 5   0  0.2839279E-07  0.3975873E+04  0.7818609E-02  0.8009432E-01
       -2   -1    0    0    0  501  0.00000000000E+00  0.00000000000E+00  0.15396702516E+04  0.15396702516E+04  0.25500000920E-02 0.  1.
        2   -1    0    0  501    0  0.00000000000E+00  0.00000000000E+00 -0.25667126930E+04  0.25667126930E+04  0.25500000920E-02 0. -1.
    10030    2    1    2    0    0  0.00000000000E+00  0.00000000000E+00 -0.10270424414E+04  0.41063829445E+04  0.39758728238E+04 0.  0.
        3    1    3    3  502    0 -0.83731040480E+03 -0.16607617904E+04 -0.12384681672E+04  0.22345070709E+04  0.10100000352E+00 0. -1.
       -3    1    3    3    0  502  0.83731040480E+03  0.16607617904E+04  0.21142572580E+03  0.18718758736E+04  0.10100000352E+00 0.  1.
</event>
<event>
 5   0  0.8528625E-08  0.4012160E+04  0.7818609E-02  0.8002098E-01
       -1   -1    0    0    0  501  0.00000000000E+00  0.00000000000E+00  0.20828153278E+04  0.20828153278E+04  0.50400001928E-02 0. -1.
        1   -1    0    0  501    0  0.00000000000E+00  0.00000000000E+00 -0.19321719752E+04  0.19321719753E+04  0.50400001928E-02 0.  1.
    10030    2    1    2    0    0  0.00000000000E+00  0.00000000000E+00  0.15064335258E+03  0.40149873031E+04  0.40121602192E+04 0.  0.
        4    1    3    3  502    0 -0.14982644633E+03 -0.79187498573E+03  0.19136903917E+04  0.20764697169E+04  0.12699999809E+01 0. -1.
       -4    1    3    3    0  502  0.14982644633E+03  0.79187498573E+03 -0.17630470391E+04  0.19385175862E+04  0.12699999809E+01 0.  1.
</event>
<event>
 5   0  0.8583262E-08  0.3952366E+04  0.7818609E-02  0.8014225E-01
        1   -1    0    0  501    0  0.00000000000E+00  0.00000000000E+00  0.19592335061E+04  0.19592335061E+04  0.50400001928E-02 0.  1.
       -1   -1    0    0    0  501  0.00000000000E+00  0.00000000000E+00 -0.19932792387E+04  0.19932792387E+04  0.50400001928E-02 0. -1.
    10030    2    1    2    0    0  0.00000000000E+00  0.00000000000E+00 -0.34045732628E+02  0.39525127448E+04  0.39523661123E+04 0.  0.
        1    1    3    3  502    0  0.35885062210E+03  0.15583971874E+04 -0.11780671921E+04  0.19862572522E+04  0.50400001928E-02 0. -1.
       -1    1    3    3    0  502 -0.35885062210E+03 -0.15583971874E+04  0.11440214595E+04  0.19662554926E+04  0.50400001928E-02 0.  1.
</event>
<event>
 5   0  0.8583262E-08  0.3965635E+04  0.7818609E-02  0.8011515E-01
        1   -1    0    0  501    0  0.00000000000E+00  0.00000000000E+00  0.17204113391E+04  0.17204113391E+04  0.50400001928E-02 0. -1.
       -1   -1    0    0    0  501  0.00000000000E+00  0.00000000000E+00 -0.22852474451E+04  0.22852474451E+04  0.50400001928E-02 0.  1.
    10030    2    1    2    0    0  0.00000000000E+00  0.00000000000E+00 -0.56483610603E+03  0.40056587841E+04  0.39656351910E+04 0.  0.
        1    1    3    3  502    0  0.10863047725E+04 -0.13406788876E+04  0.70421426168E+03  0.18637048224E+04  0.50400001928E-02 0. -1.
       -1    1    3    3    0  502 -0.10863047725E+04  0.13406788876E+04 -0.12690503677E+04  0.21419539618E+04  0.50400001928E-02 0.  1.
</event>
<event>
 5   0  0.2730801E-07  0.3835033E+04  0.7818609E-02  0.8038678E-01
       -2   -1    0    0    0  501  0.00000000000E+00  0.00000000000E+00  0.28908316515E+04  0.28908316515E+04  0.25500000920E-02 0.  1.
        2   -1    0    0  501    0  0.00000000000E+00  0.00000000000E+00 -0.12719071800E+04  0.12719071801E+04  0.25500000920E-02 0. -1.
    10030    2    1    2    0    0  0.00000000000E+00  0.00000000000E+00  0.16189244715E+04  0.41627388316E+04  0.38350330032E+04 0.  0.
        2    1    3    3  502    0  0.12851245652E+04  0.78092317967E+01  0.23541859577E+04  0.26821255853E+04  0.25500000920E-02 0.  1.
       -2    1    3    3    0  502 -0.12851245652E+04 -0.78092317967E+01 -0.73526148615E+03  0.14806132463E+04  0.25500000920E-02 0. -1.
</event>
<event>
 5   0  0.2666978E-07  0.3968821E+04  0.7818609E-02  0.8010866E-01
       -2   -1    0    0    0  501  0.00000000000E+00  0.00000000000E+00  0.14799987390E+04  0.14799987390E+04  0.25500000920E-02 0. -1.
        2   -1    0    0  501    0  0.00000000000E+00  0.00000000000E+00 -0.26607359476E+04  0.26607359476E+04  0.25500000920E-02 0.  1.
    10030    2    1    2    0    0  0.00000000000E+00  0.00000000000E+00 -0.11807372086E+04  0.41407346867E+04  0.39688214106E+04 0.  0.
        4    1    3    3  502    0  0.54138209470E+03  0.96806924003E+03 -0.23071327524E+04  0.25599054233E+04  0.12699999809E+01 0.  1.
       -4    1    3    3    0  502 -0.54138209470E+03 -0.96806924003E+03  0.11263955438E+04  0.15808292634E+04  0.12699999809E+01 0. -1.
</event>
<event>
 5   0  0.2839279E-07  0.3999366E+04  0.7818609E-02  0.8004674E-01
        2   -1    0    0  501    0  0.00000000000E+00  0.00000000000E+00  0.29675854758E+04  0.29675854758E+04  0.25500000920E-02 0.  1.
       -2   -1    0    0    0  501  0.00000000000E+00  0.00000000000E+00 -0.13474698890E+04  0.13474698890E+04  0.25500000920E-02 0. -1.
    10030    2    1    2    0    0  0.00000000000E+00  0.00000000000E+00  0.16201155868E+04  0.43150553647E+04  0.39993659855E+04 0.  0.
        3    1    3    3  502    0  0.13439796423E+04 -0.95922678528E+03  0.20270727604E+04  0.26144638630E+04  0.10100000352E+00 0.  1.
       -3    1    3    3    0  502 -0.13439796423E+04  0.95922678528E+03 -0.40695717356E+03  0.17005915018E+04  0.10100000352E+00 0. -1.
</event>
<event>
 5   0  0.8528625E-08  0.3818453E+04  0.7818609E-02  0.8042206E-01
       -1   -1    0    0    0  501  0.00000000000E+00  0.00000000000E+00  0.20334884626E+04  0.20334884626E+04  0.50400001928E-02 0.  1.
        1   -1    0    0  501    0  0.00000000000E+00  0.00000000000E+00 -0.17925580639E+04  0.17925580639E+04  0.50400001928E-02 0. -1.
    10030    2    1    2    0    0  0.00000000000E+00  0.00000000000E+00  0.24093039872E+03  0.38260465265E+04  0.38184531640E+04 0.  0.
        3    1    3    3  502    0 -0.46494019923E+02  0.17752124518E+04 -0.58207472194E+03  0.18687835442E+04  0.10100000352E+00 0. -1.
       -3    1    3    3    0  502  0.46494019923E+02 -0.17752124518E+04  0.82300512066E+03  0.19572629823E+04  0.10100000352E+00 0.  1.
</event>
<event>
 5   0  0.2704088E-07  0.3980718E+04  0.7818609E-02  0.8008448E-01
       -2   -1    0    0    0  501  0.00000000000E+00  0.00000000000E+00  0.18238414165E+04  0.18238414165E+04  0.25500000920E-02 0.  1.
        2   -1    0    0  501    0  0.00000000000E+00  0.00000000000E+00 -0.21720793826E+04  0.21720793826E+04  0.25500000920E-02 0. -1.
    10030    2    1    2    0    0  0.00000000000E+00  0.00000000000E+00 -0.34823796614E+03  0.39959207991E+04  0.39807176930E+04 0.  0.
        5    1    3    3  502    0 -0.72585735290E+03  0.13905631699E+04 -0.14039394159E+04  0.21051372401E+04  0.46999998093E+01 0. -1.
       -5    1    3    3    0  502  0.72585735290E+03 -0.13905631699E+04  0.10557014497E+04  0.18907835590E+04  0.46999998093E+01 0.  1.
</event>
<event>
 5   0  0.2730801E-07  0.4037896E+04  0.7818609E-02  0.7996945E-01
        2   -1    0    0  501    0  0.00000000000E+00  0.00000000000E+00  0.31917790446E+04  0.31917790446E+04  0.25500000920E-02 0. -1.
       -2   -1    0    0    0  501  0.00000000000E+00  0.00000000000E+00 -0.12770779240E+04  0.12770779240E+04  0.25500000920E-02 0.  1.
    10030    2    1    2    0    0  0.00000000000E+00  0.00000000000E+00  0.19147011207E+04  0.44688569686E+04  0.40378957669E+04 0.  0.
        2    1    3    3  502    0 -0.14814689934E+04  0.30256056872E+02  0.24750167479E+04  0.28846791347E+04  0.25500000920E-02 0. -1.
       -2    1    3    3    0  502  0.14814689934E+04 -0.30256056872E+02 -0.56031562723E+03  0.15841778340E+04  0.25500000920E-02 0.  1.
</event>
<event>
 5   0  0.8528625E-08  0.3040259E+04  0.7818609E-02  0.8232327E-01
        1   -1    0    0  501    0  0.00000000000E+00  0.00000000000E+00  0.67172365533E+03  0.67172365535E+03  0.50400001928E-02 0. -1.
       -1   -1    0    0    0  501  0.00000000000E+00  0.00000000000E+00 -0.34400965124E+04  0.34400965124E+04  0.50400001928E-02 0.  1.
    10030    2    1    2    0    0  0.00000000000E+00  0.00000000000E+00 -0.27683728570E+04  0.41118201677E+04  0.30402593337E+04 0.  0.
        3    1    3    3  502    0 -0.91458459855E+03 -0.72087300949E+03 -0.27056354617E+04  0.29456045467E+04  0.10100000352E+00 0.  1.
       -3    1    3    3    0  502  0.91458459855E+03  0.72087300949E+03 -0.62737395319E+02  0.11662156210E+04  0.10100000352E+00 0. -1.
</event>
<event>
 5   0  0.2704088E-07  0.4066411E+04  0.7818609E-02  0.7991282E-01
       -2   -1    0    0    0  501  0.00000000000E+00  0.00000000000E+00  0.23731396841E+04  0.23731396841E+04  0.25500000920E-02 0. -1.
        2   -1    0    0  501    0  0.00000000000E+00  0.00000000000E+00 -0.17419639528E+04  0.17419639528E+04  0.25500000920E-02 0.  1.
    10030    2    1    2    0    0  0.00000000000E+00  0.00000000000E+00  0.63117573131E+03  0.41151036368E+04  0.40664105964E+04 0.  0.
        5    1    3    3  502    0 -0.36770086588E+03 -0.12182307632E+04  0.19203290700E+04  0.23036874671E+04  0.46999998093E+01 0. -1.
       -5    1    3    3    0  502  0.36770086588E+03  0.12182307632E+04 -0.12891533387E+04  0.18114161697E+04  0.46999998093E+01 0.  1.
</event>
<event>
 5   0  0.2704088E-07  0.4010126E+04  0.7818609E-02  0.8002507E-01
        2   -1    0    0  501    0  0.00000000000E+00  0.00000000000E+00  0.23509567342E+04  0.23509567342E+04  0.25500000920E-02 0.  1.
       -2   -1    0    0    0  501  0.00000000000E+00  0.00000000000E+00 -0.17100602664E+04  0.17100602664E+04  0.25500000920E-02 0. -1.
    10030    2    1    2    0    0  0.00000000000E+00  0.00000000000E+00  0.64089646786E+03  0.40610170006E+04  0.40101260325E+04 0.  0.
        5    1    3    3  502    0  0.55484180506E+03  0.15166465264E+04  0.15238849951E+04  0.22204309679E+04  0.46999998093E+01 0.  1.
       -5    1    3    3    0  502 -0.55484180506E+03 -0.15166465264E+04 -0.88298852722E+03  0.18405860328E+04  0.46999998093E+01 0. -1.
</event>
<event>
 5   0  0.2661693E-07  0.3932087E+04  0.7818609E-02  0.8018389E-01
       -2   -1    0    0    0  501  0.00000000000E+00  0.00000000000E+00  0.17461195619E+04  0.17461195619E+04  0.25500000920E-02 0.  1.
        2   -1    0    0  501    0  0.00000000000E+00  0.00000000000E+00 -0.22136671758E+04  0.22136671758E+04  0.25500000920E-02 0. -1.
    10030    2    1    2    0    0  0.00000000000E+00  0.00000000000E+00 -0.46754761396E+03  0.39597867377E+04  0.39320872621E+04 0.  0.
        1    1    3    3  502    0 -0.35250852388E+02 -0.74915642637E+03 -0.20639506142E+04  0.21959895518E+04  0.50400001928E-02 0. -1.
       -1    1    3    3    0  502  0.35250852388E+02  0.74915642637E+03  0.15964030002E+04  0.17637971859E+04  0.50400001928E-02 0.  1.
</event>
<event>
 5   0  0.2666978E-07  0.3295181E+04  0.7818609E-02  0.8164123E-01
        2   -1    0    0  501    0  0.00000000000E+00  0.00000000000E+00  0.81854287616E+03  0.81854287617E+03  0.25500000920E-02 0. -1.
       -2   -1    0    0    0  501  0.00000000000E+00  0.00000000000E+00 -0.33163244830E+04  0.33163244830E+04  0.25500000920E-02 0.  1.
    10030    2    1    2    0    0  0.00000000000E+00  0.00000000000E+00 -0.24977816069E+04  0.41348673592E+04  0.32951805903E+04 0.  0.
        4    1    3    3  502    0  0.10499294108E+04  0.25630144003E+03  0.31159105497E+03  0.11247812206E+04  0.12699999809E+01 0. -1.
       -4    1    3    3    0  502 -0.10499294108E+04 -0.25630144003E+03 -0.28093726618E+04  0.30100861386E+04  0.12699999809E+01 0.  1.
</event>
<event>
 5   0  0.8528625E-08  0.4049881E+04  0.7818609E-02  0.7994559E-01
       -1   -1    0    0    0  501  0.00000000000E+00  0.00000000000E+00  0.14633900063E+04  0.14633900063E+04  0.50400001928E-02 0. -1.
        1   -1    0    0  501    0  0.00000000000E+00  0.00000000000E+00 -0.28019769157E+04  0.28019769157E+04  0.50400001928E-02 0.  1.
    10030    2    1    2    0    0  0.00000000000E+00  0.00000000000E+00 -0.13385869094E+04  0.42653669220E+04  0.40498814878E+04 0.  0.
        3    1    3    3  502    0  0.17929753165E+04  0.73941466863E+03 -0.56175888618E+02  0.19402706714E+04  0.10100000352E+00 0.  1.
       -3    1    3    3    0  502 -0.17929753165E+04 -0.73941466863E+03 -0.12824110208E+04  0.23250962505E+04  0.10100000352E+00 0. -1.
</event>
<event>
 5   0  0.8528625E-08  0.4013732E+04  0.7818609E-02  0.8001782E-01
        1   -1    0    0  501    0  0.00000000000E+00  0.00000000000E+00  0.22899710061E+04  0.22899710061E+04  0.50400001928E-02 0. -1.
       -1   -1    0    0    0  501  0.00000000000E+00  0.00000000000E+00 -0.17587605783E+04  0.17587605783E+04  0.50400001928E-02 0.  1.
    10030    2    1    2    0    0  0.00000000000E+00  0.00000000000E+00  0.53121042780E+03  0.40487315844E+04  0.40137317953E+04 0.  0.
        4    1    3    3  502    0 -0.85667173575E+03  0.18056909365E+04  0.44913376612E+03  0.20484455018E+04  0.12699999809E+01 0.  1.
       -4    1    3    3    0  502  0.85667173575E+03 -0.18056909365E+04  0.82076661682E+02  0.20002860826E+04  0.12699999809E+01 0. -1.
</event>
<event>
 5   0  0.2661693E-07  0.4002358E+04  0.7818609E-02  0.8004071E-01
        2   -1    0    0  501    0  0.00000000000E+00  0.00000000000E+00  0.25545477273E+04  0.25545477273E+04  0.25500000920E-02 0. -1.
       -2   -1    0    0    0  501  0.00000000000E+00  0.00000000000E+00 -0.15676814277E+04  0.15676814277E+04  0.25500000920E-02 0.  1.
    10030    2    1    2    0    0  0.00000000000E+00  0.00000000000E+00  0.98686629955E+03  0.41222291550E+04  0.40023578193E+04 0.  0.
        1    1    3    3  502    0  0.12896473348E+04 -0.11767130177E+04  0.15009293701E+04  0.23023103067E+04  0.50400001928E-02 0. -1.
       -1    1    3    3    0  502 -0.12896473348E+04  0.11767130177E+04 -0.51406307055E+03  0.18199188484E+04  0.50400001928E-02 0.  1.
</event>
<event>
 5   0  0.8583262E-08  0.3919603E+04  0.7818609E-02  0.8020964E-01
        1   -1    0    0  501    0  0.00000000000E+00  0.00000000000E+00  0.14513748411E+04  0.14513748411E+04  0.50400001928E-02 0. -1.
       -1   -1    0    0    0  501  0.00000000000E+00  0.00000000000E+00 -0.26463340356E+04  0.26463340356E+04  0.50400001928E-02 0.  1.
    10030    2    1    2    0    0  0.00000000000E+00  0.00000000000E+00 -0.11949591945E+04  0.40977088767E+04  0.39196033679E+04 0.  0.
        1    1    3    3  502    0  0.17420929649E+04  0.58048772877E+03 -0.13134101974E+04  0.22576315572E+04  0.50400001928E-02 0.  1.
       -1    1    3    3    0  502 -0.17420929649E+04 -0.58048772877E+03  0.11845100291E+03  0.18400773195E+04  0.50400001928E-02 0. -1.
</event>
<event>
 5   0  0.2666978E-07  0.3377829E+04  0.7818609E-02  0.8143369E-01
       -2   -1    0    0    0  501  0.00000000000E+00  0.00000000000E+00  0.16024817267E+04  0.16024817267E+04  0.25500000920E-02 0. -1.
        2   -1    0    0  501    0  0.00000000000E+00  0.00000000000E+00 -0.17800092966E+04  0.17800092966E+04  0.25500000920E-02 0.  1.
    10030    2    1    2    0    0  0.00000000000E+00  0.00000000000E+00 -0.17752756995E+03  0.33824910233E+04  0.33778291083E+04 0.  0.
        4    1    3    3  502    0  0.16249777802E+04  0.12661743208E+03  0.35439190480E+03  0.16679868091E+04  0.12699999809E+01 0. -1.
       -4    1    3    3    0  502 -0.16249777802E+04 -0.12661743208E+03 -0.53191947476E+03  0.17145042143E+04  0.12699999809E+01 0.  1.
</event>
<event>
 5   0  0.2704088E-07  0.3872658E+04  0.7818609E-02  0.8030740E-01
       -2   -1    0    0    0  501  0.00000000000E+00  0.00000000000E+00  0.14337294280E+04  0.14337294280E+04  0.25500000920E-02 0.  1.
        2   -1    0    0  501    0  0.00000000000E+00  0.00000000000E+00 -0.26151173340E+04  0.26151173340E+04  0.25500000920E-02 0. -1.
    10030    2    1    2    0    0  0.00000000000E+00  0.00000000000E+00 -0.11813879060E+04  0.40488467620E+04  0.38726583528E+04 0.  0.
        5    1    3    3  502    0 -0.92218127205E+03  0.10071416085E+04 -0.20259563140E+04  0.24432096910E+04  0.46999998093E+01 0. -1.
       -5    1    3    3    0  502  0.92218127205E+03 -0.10071416085E+04  0.84456840796E+03  0.16056370710E+04  0.46999998093E+01 0.  1.
</event>
<event>
 5   0  0.2704088E-07  0.4021958E+04  0.7818609E-02  0.8000132E-01
        2   -1    0    0  501    0  0.00000000000E+00  0.00000000000E+00  0.16424815224E+04  0.16424815224E+04  0.25500000920E-02 0. -1.
       -2   -1    0    0    0  501  0.00000000000E+00  0.00000000000E+00 -0.24621501667E+04  0.24621501667E+04  0.25500000920E-02 0.  1.
    10030    2    1    2    0    0  0.00000000000E+00  0.00000000000E+00 -0.81966864434E+03  0.41046316891E+04  0.40219578090E+04 0.  0.
        5    1    3    3  502    0 -0.14439671410E+04  0.99652294260E+03 -0.14128463363E+04  0.22526109161E+04  0.46999998093E+01 0. -1.
       -5    1    3    3    0  502  0.14439671410E+04 -0.99652294260E+03  0.59317769198E+03  0.18520207730E+04  0.46999998093E+01 0.  1.
</event>
<event>
 5   0  0.8528625E-08  0.3984702E+04  0.7818609E-02  0.8007640E-01
       -1   -1    0    0    0  501  0.00000000000E+00  0.00000000000E+00  0.20191016916E+04  0.20191016916E+04  0.50400001928E-02 0. -1.
        1   -1    0    0  501    0  0.00000000000E+00  0.00000000000E+00 -0.19659544859E+04  0.19659544859E+04  0.50400001928E-02 0.  1.
    10030    2    1    2    0    0  0.00000000000E+00  0.00000000000E+00  0.53147205690E+02  0.39850561775E+04  0.39847017595E+04 0.  0.
        4    1    3    3  502    0  0.17869008550E+04  0.63115368284E+03 -0.58837195538E+03  0.19843267895E+04  0.12699999809E+01 0.  1.
       -4    1    3    3    0  502 -0.17869008550E+04 -0.63115368284E+03  0.64151916107E+03  0.20007293879E+04  0.12699999809E+01 0. -1.
</event>
<event>
 5   0  0.8528625E-08  0.3980780E+04  0.7818609E-02  0.8008435E-01
        1   -1    0    0  501    0  0.00000000000E+00  0.00000000000E+00  0.18749403520E+04  0.18749403521E+04  0.50400001928E-02 0. -1.
       -1   -1    0    0    0  501  0.00000000000E+00  0.00000000000E+00 -0.21129486518E+04  0.21129486518E+04  0.50400001928E-02 0.  1.
    10030    2    1    2    0    0  0.00000000000E+00  0.00000000000E+00 -0.23800829978E+03  0.39878890039E+04  0.39807801693E+04 0.  0.
        4    1    3    3  502    0  0.12232223726E+04  0.66362465126E+03  0.13065551299E+04  0.19088631619E+04  0.12699999809E+01 0. -1.
       -4    1    3    3    0  502 -0.12232223726E+04 -0.66362465126E+03 -0.15445634297E+04  0.20790258420E+04  0.12699999809E+01 0.  1.
</event>
<event>
 5   0  0.8583262E-08  0.3959758E+04  0.7818609E-02  0.8012714E-01
        1   -1    0    0  501    0  0.00000000000E+00  0.00000000000E+00  0.18448265792E+04  0.18448265792E+04  0.50400001928E-02 0.  1.
       -1   -1    0    0    0  501  0.00000000000E+00  0.00000000000E+00 -0.21248179543E+04  0.21248179543E+04  0.50400001928E-02 0. -1.
    10030    2    1    2    0    0  0.00000000000E+00  0.00000000000E+00 -0.27999137508E+03  0.39696445336E+04  0.39597578907E+04 0.  0.
        1    1    3    3  502    0  0.91832569823E+02  0.19691932153E+04  0.44217011356E+02  0.19718291722E+04  0.50400001928E-02 0.  1.
       -1    1    3    3    0  502 -0.91832569823E+02 -0.19691932153E+04 -0.32420838643E+03  0.19978153614E+04  0.50400001928E-02 0. -1.
</event>
<event>
 5   0  0.2704088E-07  0.3725297E+04  0.7818609E-02  0.8062379E-01
       -2   -1    0    0    0  501  0.00000000000E+00  0.00000000000E+00  0.16059283070E+04  0.16059283070E+04  0.25500000920E-02 0. -1.
        2   -1    0    0  501    0  0.00000000000E+00  0.00000000000E+00 -0.21604068586E+04  0.21604068586E+04  0.25500000920E-02 0.  1.
    10030    2    1    2    0    0  0.00000000000E+00  0.00000000000E+00 -0.55447855159E+03  0.37663351655E+04  0.37252965137E+04 0.  0.
        5    1    3    3  502    0 -0.10441353103E+04 -0.45296959415E+03 -0.17679436600E+04  0.21026285631E+04  0.46999998093E+01 0.  1.
       -5    1    3    3    0  502  0.10441353103E+04  0.45296959415E+03  0.12134651084E+04  0.16637066024E+04  0.46999998093E+01 0. -1.
</event>
<event>
 5   0  0.2666978E-07  0.3956632E+04  0.7818609E-02  0.8013353E-01
        2   -1    0    0  501    0  0.00000000000E+00  0.00000000000E+00  0.21727633777E+04  0.21727633777E+04  0.25500000920E-02 0.  1.
       -2   -1    0    0    0  501  0.00000000000E+00  0.00000000000E+00 -0.18012705914E+04  0.18012705915E+04  0.25500000920E-02 0. -1.
    10030    2    1    2    0    0  0.00000000000E+00  0.00000000000E+00  0.37149278628E+03  0.39740339692E+04  0.39566322925E+04 0.  0.
        4    1    3    3  502    0 -0.17611579698E+04  0.50586909123E+03  0.93478245171E+03  0.20570368925E+04  0.12699999809E+01 0.  1.
       -4    1    3    3    0  502  0.17611579698E+04 -0.50586909123E+03 -0.56328966544E+03  0.19169970767E+04  0.12699999809E+01 0. -1.
</event>
<event>
 5   0  0.2661693E-07  0.4049477E+04  0.7818609E-02  0.7994639E-01
        2   -1    0    0  501    0  0.00000000000E+00  0.00000000000E+00  0.12151269316E+04  0.12151269316E+04  0.25500000920E-02 0. -1.
       -2   -1    0    0    0  501  0.00000000000E+00  0.00000000000E+00 -0.33737758735E+04  0.33737758735E+04  0.25500000920E-02 0.  1.
    10030    2    1    2    0    0  0.00000000000E+00  0.00000000000E+00 -0.21586489420E+04  0.45889028051E+04  0.40494769662E+04 0.  0.
        1    1    3    3  502    0  0.19699738224E+04 -0.13716744998E+03 -0.57259619108E+03  0.20560832105E+04  0.50400001928E-02 0.  1.
       -1    1    3    3    0  502 -0.19699738224E+04  0.13716744998E+03 -0.15860527509E+04  0.25328195946E+04  0.50400001928E-02 0. -1.
</event>
<event>
 5   0  0.2661693E-07  0.3952605E+04  0.7818609E-02  0.8014176E-01
        2   -1    0    0  501    0  0.00000000000E+00  0.00000000000E+00  0.14152632902E+04  0.14152632902E+04  0.25500000920E-02 0. -1.
       -2   -1    0    0    0  501  0.00000000000E+00  0.00000000000E+00 -0.27597493166E+04  0.27597493166E+04  0.25500000920E-02 0.  1.
    10030    2    1    2    0    0  0.00000000000E+00  0.00000000000E+00 -0.13444860264E+04  0.41750126068E+04  0.39526051652E+04 0.  0.
        1    1    3    3  502    0  0.14093506841E+04 -0.13808492063E+04 -0.79155001810E+03  0.21259269301E+04  0.50400001928E-02 0.  1.
       -1    1    3    3    0  502 -0.14093506841E+04  0.13808492063E+04 -0.55293600832E+03  0.20490856767E+04  0.50400001928E-02 0. -1.
</event>
<event>
 5   0  0.8528625E-08  0.3571863E+04  0.7818609E-02  0.8096967E-01
        1   -1    0    0  501    0  0.00000000000E+00  0.00000000000E+00  0.11641900138E+04  0.11641900138E+04  0.50400001928E-02 0.  1.
       -1   -1    0    0    0  501  0.00000000000E+00  0.00000000000E+00 -0.27397171867E+04  0.27397171867E+04  0.50400001928E-02 0. -1.
    10030    2    1    2    0    0  0.00000000000E+00  0.00000000000E+00 -0.15755271729E+04  0.39039072005E+04  0.35718630374E+04 0.  0.
        2    1    3    3  502    0  0.77919991634E+03  0.14408804984E+04 -0.15654284349E+04  0.22658012501E+04  0.25500000920E-02 0. -1.
       -2    1    3    3    0  502 -0.77919991634E+03 -0.14408804984E+04 -0.10098737986E+02  0.16381059504E+04  0.25500000920E-02 0.  1.
</event>
<event>
 5   0  0.8528625E-08  0.3778228E+04  0.7818609E-02  0.8050843E-01
       -3   -1    0    0    0  501  0.00000000000E+00  0.00000000000E+00  0.15086505988E+04  0.15086506022E+04  0.10100000352E+00 0. -1.
        3   -1    0    0  501    0  0.00000000000E+00  0.00000000000E+00 -0.23655260160E+04  0.23655260181E+04  0.10100000352E+00 0.  1.
    10030    2    1    2    0    0  0.00000000000E+00  0.00000000000E+00 -0.85687541717E+03  0.38741766203E+04  0.37782282891E+04 0.  0.
        2    1    3    3  502    0  0.11189888357E+04  0.45234344284E+03  0.10617409751E+04  0.16074963462E+04  0.25500000920E-02 0. -1.
       -2    1    3    3    0  502 -0.11189888357E+04 -0.45234344284E+03 -0.19186163922E+04  0.22666802742E+04  0.25500000920E-02 0.  1.
</event>
<event>
 5   0  0.2704088E-07  0.3609754E+04  0.7818609E-02  0.8088261E-01
       -2   -1    0    0    0  501  0.00000000000E+00  0.00000000000E+00  0.10441231565E+04  0.10441231565E+04  0.25500000920E-02 0. -1.
        2   -1    0    0  501    0  0.00000000000E+00  0.00000000000E+00 -0.31199198128E+04  0.31199198128E+04  0.25500000920E-02 0.  1.
    10030    2    1    2    0    0  0.00000000000E+00  0.00000000000E+00 -0.20757966563E+04  0.41640429692E+04  0.36097537438E+04 0.  0.
        5    1    3    3  502    0  0.11381110004E+04 -0.12354584930E+04 -0.27628751452E+03  0.17023546099E+04  0.46999998093E+01 0. -1.
       -5    1    3    3    0  502 -0.11381110004E+04  0.12354584930E+04 -0.17995091418E+04  0.24616883593E+04  0.46999998093E+01 0.  1.
</event>
<event>
 5   0  0.8528625E-08  0.3174809E+04  0.7818609E-02  0.8195502E-01
        1   -1    0    0  501    0  0.00000000000E+00  0.00000000000E+00  0.18591929013E+04  0.18591929013E+04  0.50400001928E-02 0.  1.
       -1   -1    0    0    0  501  0.00000000000E+00  0.00000000000E+00 -0.13553477403E+04  0.13553477403E+04  0.50400001928E-02 0. -1.
    10030    2    1    2    0    0  0.00000000000E+00  0.00000000000E+00  0.50384516095E+03  0.32145406416E+04  0.31748089061E+04 0.  0.
        4    1    3    3  502    0 -0.99204782171E+02  0.58829712119E+03  0.17413575612E+04  0.18407234611E+04  0.12699999809E+01 0.  1.
       -4    1    3    3    0  502  0.99204782171E+02 -0.58829712119E+03 -0.12375124002E+04  0.13738171804E+04  0.12699999809E+01 0. -1.
</event>
<event>
 5   0  0.2730801E-07  0.3961781E+04  0.7818609E-02  0.8012301E-01
        2   -1    0    0  501    0  0.00000000000E+00  0.00000000000E+00  0.26994149638E+04  0.26994149638E+04  0.25500000920E-02 0.  1.
       -2   -1    0    0    0  501  0.00000000000E+00  0.00000000000E+00 -0.14536212457E+04  0.14536212457E+04  0.25500000920E-02 0. -1.
    10030    2    1    2    0    0  0.00000000000E+00  0.00000000000E+00  0.12457937181E+04  0.41530362095E+04  0.39617808835E+04 0.  0.
        2    1    3    3  502    0 -0.91464088345E+03  0.42884901531E+03 -0.11633120688E+04  0.15407058100E+04  0.25500000920E-02 0. -1.
       -2    1    3    3    0  502  0.91464088345E+03 -0.42884901531E+03  0.24091057869E+04  0.26123303994E+04  0.25500000920E-02 0.  1.
</event>
<event>
 5   0  0.8583262E-08  0.4085340E+04  0.7818609E-02  0.7987549E-01
       -1   -1    0    0    0  501  0.00000000000E+00  0.00000000000E+00  0.19468562829E+04  0.19468562829E+04  0.50400001928E-02 0. -1.
        1   -1    0    0  501    0  0.00000000000E+00  0.00000000000E+00 -0.21431990224E+04  0.21431990224E+04  0.50400001928E-02 0.  1.
    10030    2    1    2    0    0  0.00000000000E+00  0.00000000000E+00 -0.19634273948E+03  0.40900553054E+04  0.40853398793E+04 0.  0.
        1    1    3    3  502    0  0.10980832896E+04 -0.15368504215E+04  0.68041794887E+03  0.20076515420E+04  0.50400001928E-02 0. -1.
       -1    1    3    3    0  502 -0.10980832896E+04  0.15368504215E+04 -0.87676068834E+03  0.20824037633E+04  0.50400001928E-02 0.  1.
</event>
<event>
 5   0  0.2839279E-07  0.3763965E+04  0.7818609E-02  0.8053932E-01
        2   -1    0    0  501    0  0.00000000000E+00  0.00000000000E+00  0.25842985803E+04  0.25842985803E+04  0.25500000920E-02 0. -1.
       -2   -1    0    0    0  501  0.00000000000E+00  0.00000000000E+00 -0.13705299617E+04  0.13705299617E+04  0.25500000920E-02 0.  1.
    10030    2    1    2    0    0  0.00000000000E+00  0.00000000000E+00  0.12137686186E+04  0.39548285421E+04  0.37639652678E+04 0.  0.
        3    1    3    3  502    0  0.95072038617E+03 -0.10387826292E+04  0.19187638823E+04  0.23800406403E+04  0.10100000352E+00 0. -1.
       -3    1    3    3    0  502 -0.95072038617E+03  0.10387826292E+04 -0.70499526371E+03  0.15747879017E+04  0.10100000352E+00 0.  1.
</event>
<event>
 5   0  0.2704088E-07  0.3264548E+04  0.7818609E-02  0.8171975E-01
        2   -1    0    0  501    0  0.00000000000E+00  0.00000000000E+00  0.26771737948E+04  0.26771737948E+04  0.25500000920E-02 0.  1.
       -2   -1    0    0    0  501  0.00000000000E+00  0.00000000000E+00 -0.99519814609E+03  0.99519814609E+03  0.25500000920E-02 0. -1.
    10030    2    1    2    0    0  0.00000000000E+00  0.00000000000E+00  0.16819756487E+04  0.36723719409E+04  0.32645479916E+04 0.  0.
        5    1    3    3  502    0  0.14135216585E+04 -0.80867176314E+03  0.96576229105E+03  0.18933336717E+04  0.46999998093E+01 0.  1.
       -5    1    3    3    0  502 -0.14135216585E+04  0.80867176314E+03  0.71621335768E+03  0.17790382692E+04  0.46999998093E+01 0. -1.
</event>
<event>
 5   0  0.8583262E-08  0.4032164E+04  0.7818609E-02  0.7998089E-01
       -1   -1    0    0    0  501  0.00000000000E+00  0.00000000000E+00  0.22818242553E+04  0.22818242553E+04  0.50400001928E-02 0.  1.
        1   -1    0    0  501    0  0.00000000000E+00  0.00000000000E+00 -0.17812878132E+04  0.17812878132E+04  0.50400001928E-02 0. -1.
    10030    2    1    2    0    0  0.00000000000E+00  0.00000000000E+00  0.50053644212E+03  0.40631120685E+04  0.40321635571E+04 0.  0.
        1    1    3    3  502    0 -0.36407164916E+03 -0.89187924247E+03  0.20349034748E+04  0.22514059831E+04  0.50400001928E-02 0.  1.
       -1    1    3    3    0  502  0.36407164916E+03  0.89187924247E+03 -0.15343670327E+04  0.18117060854E+04  0.50400001928E-02 0. -1.
</event>
<event>
 5   0  0.8528625E-08  0.4035085E+04  0.7818609E-02  0.7997506E-01
        1   -1    0    0  501    0  0.00000000000E+00  0.00000000000E+00  0.13619959679E+04  0.13619959679E+04  0.50400001928E-02 0. -1.
       -1   -1    0    0    0  501  0.00000000000E+00  0.00000000000E+00 -0.29886114518E+04  0.29886114518E+04  0.50400001928E-02 0.  1.
    10030    2    1    2    0    0  0.00000000000E+00  0.00000000000E+00 -0.16266154839E+04  0.43506074196E+04  0.40350845081E+04 0.  0.
        4    1    3    3  502    0 -0.10973932452E+04 -0.14394981592E+04 -0.17740805602E+04  0.25345197438E+04  0.12699999809E+01 0.  1.
       -4    1    3    3    0  502  0.10973932452E+04  0.14394981592E+04  0.14746507629E+03  0.18160876759E+04  0.12699999809E+01 0. -1.
</event>
<event>
 5   0  0.8528625E-08  0.3999888E+04  0.7818609E-02  0.8004569E-01
        1   -1    0    0  501    0  0.00000000000E+00  0.00000000000E+00  0.13489081859E+04  0.13489081859E+04  0.50400001928E-02 0.  1.
       -1   -1    0    0    0  501  0.00000000000E+00  0.00000000000E+00 -0.29651956695E+04  0.29651956695E+04  0.50400001928E-02 0. -1.
    10030    2    1    2    0    0  0.00000000000E+00  0.00000000000E+00 -0.16162874836E+04  0.43141038554E+04  0.39998883542E+04 0.  0.
        5    1    3    3  502    0  0.12698012334E+04 -0.52974835897E+03  0.75733353076E+03  0.15705427925E+04  0.46999998093E+01 0.  1.
       -5    1    3    3    0  502 -0.12698012334E+04  0.52974835897E+03 -0.23736210143E+04  0.27435610629E+04  0.46999998093E+01 0. -1.
</event>
<event>
 5   0  0.2704088E-07  0.4025578E+04  0.7818609E-02  0.7999406E-01
       -2   -1    0    0    0  501  0.00000000000E+00  0.00000000000E+00  0.23884866633E+04  0.23884866633E+04  0.25500000920E-02 0.  1.
        2   -1    0    0  501    0  0.00000000000E+00  0.00000000000E+00 -0.16961870236E+04  0.16961870236E+04  0.25500000920E-02 0. -1.
    10030    2    1    2    0    0  0.00000000000E+00  0.00000000000E+00  0.69229963972E+03  0.40846736869E+04  0.40255782612E+04 0.  0.
        5    1    3    3  502    0  0.42327403486E+03  0.15580239607E+04 -0.87345095873E+03  0.18356302019E+04  0.46999998093E+01 0. -1.
       -5    1    3    3    0  502 -0.42327403486E+03 -0.15580239607E+04  0.15657505985E+04  0.22490434850E+04  0.46999998093E+01 0.  1.
</event>
<event>
 5   0  0.2704088E-07  0.4275372E+04  0.7818609E-02  0.7951188E-01
        2   -1    0    0  501    0  0.00000000000E+00  0.00000000000E+00  0.29579012651E+04  0.29579012651E+04  0.25500000920E-02 0. -1.
       -2   -1    0    0    0  501  0.00000000000E+00  0.00000000000E+00 -0.15449133678E+04  0.15449133678E+04  0.25500000920E-02 0.  1.
    10030    2    1    2    0    0  0.00000000000E+00  0.00000000000E+00  0.14129878973E+04  0.45028146329E+04  0.42753718926E+04 0.  0.
        5    1    3    3  502    0 -0.14888720849E+04 -0.10759066827E+04  0.18579841007E+04  0.26127461193E+04  0.46999998093E+01 0. -1.
       -5    1    3    3    0  502  0.14888720849E+04  0.10759066827E+04 -0.44499620341E+03  0.18900685136E+04  0.46999998093E+01 0.  1.
</event>
<event>
 5   0  0.2839279E-07  0.3856558E+04  0.7818609E-02  0.8034125E-01
        2   -1    0    0  501    0  0.00000000000E+00  0.00000000000E+00  0.16614333972E+04  0.16614333973E+04  0.25500000920E-02 0. -1.
       -2   -1    0    0    0  501  0.00000000000E+00  0.00000000000E+00 -0.22379833894E+04  0.22379833894E+04  0.25500000920E-02 0.  1.
    10030    2    1    2    0    0  0.00000000000E+00  0.00000000000E+00 -0.57654999212E+03  0.38994167866E+04  0.38565582301E+04 0.  0.
        3    1    3    3  502    0 -0.18890756067E+04 -0.38546879808E+03 -0.25523938608E+03  0.19448238986E+04  0.10100000352E+00 0.  1.
       -3    1    3    3    0  502  0.18890756067E+04  0.38546879808E+03 -0.32131060603E+03  0.19545928880E+04  0.10100000352E+00 0. -1.
</event>
<event>
 5   0  0.2704088E-07  0.3914104E+04  0.7818609E-02  0.8022102E-01
       -2   -1    0    0    0  501  0.00000000000E+00  0.00000000000E+00  0.16442118326E+04  0.16442118326E+04  0.25500000920E-02 0.  1.
        2   -1    0    0  501    0  0.00000000000E+00  0.00000000000E+00 -0.23294156720E+04  0.23294156720E+04  0.25500000920E-02 0. -1.
    10030    2    1    2    0    0  0.00000000000E+00  0.00000000000E+00 -0.68520383939E+03  0.39736275047E+04  0.39141041433E+04 0.  0.
        5    1    3    3  502    0  0.66271588244E+03  0.87320458009E+03  0.13032719550E+04  0.17030027769E+04  0.46999998093E+01 0.  1.
       -5    1    3    3    0  502 -0.66271588244E+03 -0.87320458009E+03 -0.19884757944E+04  0.22706247278E+04  0.46999998093E+01 0. -1.
</event>
<event>
 5   0  0.8528625E-08  0.4072901E+04  0.7818609E-02  0.7989999E-01
        1   -1    0    0  501    0  0.00000000000E+00  0.00000000000E+00  0.29286593696E+04  0.29286593696E+04  0.50400001928E-02 0. -1.
       -1   -1    0    0    0  501  0.00000000000E+00  0.00000000000E+00 -0.14160511327E+04  0.14160511327E+04  0.50400001928E-02 0.  1.
    10030    2    1    2    0    0  0.00000000000E+00  0.00000000000E+00  0.15126082370E+04  0.43447105023E+04  0.40729013824E+04 0.  0.
        2    1    3    3  502    0 -0.19365301204E+04  0.31040055415E+03  0.17141168733E+03  0.19687253180E+04  0.25500000920E-02 0.  1.
       -2    1    3    3    0  502  0.19365301204E+04 -0.31040055415E+03  0.13411965496E+04  0.23759851843E+04  0.25500000920E-02 0. -1.
</event>
<event>
 5   0  0.2839279E-07  0.4016683E+04  0.7818609E-02  0.8001189E-01
        2   -1    0    0  501    0  0.00000000000E+00  0.00000000000E+00  0.16420620393E+04  0.16420620393E+04  0.25500000920E-02 0. -1.
       -2   -1    0    0    0  501  0.00000000000E+00  0.00000000000E+00 -0.24563241143E+04  0.24563241143E+04  0.25500000920E-02 0.  1.
    10030    2    1    2    0    0  0.00000000000E+00  0.00000000000E+00 -0.81426207494E+03  0.40983861536E+04  0.40166834998E+04 0.  0.
        3    1    3    3  502    0 -0.19370407171E+04 -0.52904922967E+03 -0.36872571516E+03  0.20415627569E+04  0.10100000352E+00 0. -1.
       -3    1    3    3    0  502  0.19370407171E+04  0.52904922967E+03 -0.44553635978E+03  0.20568233967E+04  0.10100000352E+00 0.  1.
</event>
<event>
 5   0  0.2666978E-07  0.3955905E+04  0.7818609E-02  0.8013502E-01
        2   -1    0    0  501    0  0.00000000000E+00  0.00000000000E+00  0.27975066785E+04  0.27975066785E+04  0.25500000920E-02 0. -1.
       -2   -1    0    0    0  501  0.00000000000E+00  0.00000000000E+00 -0.13984937266E+04  0.13984937266E+04  0.25500000920E-02 0.  1.
    10030    2    1    2    0    0  0.00000000000E+00  0.00000000000E+00  0.13990129519E+04  0.41960004051E+04  0.39559047207E+04 0.  0.
        4    1    3    3  502    0 -0.11144243497E+04  0.14416174031E+04  0.15156830647E+04  0.23701263962E+04  0.12699999809E+01 0. -1.
       -4    1    3    3    0  502  0.11144243497E+04 -0.14416174031E+04 -0.11667011278E+03  0.18258740089E+04  0.12699999809E+01 0.  1.
</event>
<event>
 5   0  0.2839279E-07  0.3973990E+04  0.7818609E-02  0.8009814E-01
        2   -1    0    0  501    0  0.00000000000E+00  0.00000000000E+00  0.14731492179E+04  0.14731492179E+04  0.25500000920E-02 0. -1.
       -2   -1    0    0    0  501  0.00000000000E+00  0.00000000000E+00 -0.26800746064E+04  0.26800746064E+04  0.25500000920E-02 0.  1.
    10030    2    1    2    0    0  0.00000000000E+00  0.00000000000E+00 -0.12069253885E+04  0.41532238243E+04  0.39739903423E+04 0.  0.
        3    1    3    3  502    0 -0.16816930562E+03 -0.18993780054E+04 -0.19483615574E+02  0.19069077964E+04  0.10100000352E+00 0. -1.
       -3    1    3    3    0  502  0.16816930562E+03  0.18993780054E+04 -0.11874417730E+04  0.22463160278E+04  0.10100000352E+00 0.  1.
</event>
<event>
 5   0  0.8528625E-08  0.3975692E+04  0.7818609E-02  0.8009468E-01
        1   -1    0    0  501    0  0.00000000000E+00  0.00000000000E+00  0.25026844827E+04  0.25026844827E+04  0.50400001928E-02 0.  1.
       -1   -1    0    0    0  501  0.00000000000E+00  0.00000000000E+00 -0.15789173544E+04  0.15789173544E+04  0.50400001928E-02 0. -1.
    10030    2    1    2    0    0  0.00000000000E+00  0.00000000000E+00  0.92376712827E+03  0.40816018371E+04  0.39756921221E+04 0.  0.
        2    1    3    3  502    0 -0.14073907719E+04  0.16171063243E+03  0.18935330457E+04  0.23648184938E+04  0.25500000920E-02 0.  1.
       -2    1    3    3    0  502  0.14073907719E+04 -0.16171063243E+03 -0.96976591743E+03  0.17167833434E+04  0.25500000920E-02 0. -1.
</event>
<event>
 5   0  0.2730801E-07  0.3985057E+04  0.7818609E-02  0.8007568E-01
       -2   -1    0    0    0  501  0.00000000000E+00  0.00000000000E+00  0.19862193452E+04  0.19862193452E+04  0.25500000920E-02 0.  1.
        2   -1    0    0  501    0  0.00000000000E+00  0.00000000000E+00 -0.19988572331E+04  0.19988572331E+04  0.25500000920E-02 0. -1.
    10030    2    1    2    0    0  0.00000000000E+00  0.00000000000E+00 -0.12637887898E+02  0.39850765783E+04  0.39850565389E+04 0.  0.
        2    1    3    3  502    0 -0.13175313825E+04 -0.11112166733E+04 -0.10060626700E+04  0.19957087801E+04  0.25500000920E-02 0. -1.
       -2    1    3    3    0  502  0.13175313825E+04  0.11112166733E+04  0.99342478214E+03  0.19893677982E+04  0.25500000920E-02 0.  1.
</event>
<event>
 5   0  0.8528625E-08  0.3962233E+04  0.7818609E-02  0.8012209E-01
        1   -1    0    0  501    0  0.00000000000E+00  0.00000000000E+00  0.22166759934E+04  0.22166759934E+04  0.50400001928E-02 0.  1.
       -1   -1    0    0    0  501  0.00000000000E+00  0.00000000000E+00 -0.17705892911E+04  0.17705892911E+04  0.50400001928E-02 0. -1.
    10030    2    1    2    0    0  0.00000000000E+00  0.00000000000E+00  0.44608670236E+03  0.39872652845E+04  0.39622330955E+04 0.  0.
        4    1    3    3  502    0 -0.81860585468E+03  0.56596325720E+01  0.20385123196E+04  0.21967434231E+04  0.12699999809E+01 0.  1.
       -4    1    3    3    0  502  0.81860585468E+03 -0.56596325720E+01 -0.15924256173E+04  0.17905218614E+04  0.12699999809E+01 0. -1.
</event>
<event>
 5   0  0.8528625E-08  0.4061587E+04  0.7818609E-02  0.7992237E-01
        1   -1    0    0  501    0  0.00000000000E+00  0.00000000000E+00  0.26346661632E+04  0.26346661632E+04  0.50400001928E-02 0.  1.
       -1   -1    0    0    0  501  0.00000000000E+00  0.00000000000E+00 -0.15653298257E+04  0.15653298257E+04  0.50400001928E-02 0. -1.
    10030    2    1    2    0    0  0.00000000000E+00  0.00000000000E+00  0.10693363375E+04  0.41999959889E+04  0.40615866486E+04 0.  0.
        4    1    3    3  502    0 -0.15107569860E+03 -0.43460588818E+03  0.25800554081E+04  0.26207620393E+04  0.12699999809E+01 0.  1.
       -4    1    3    3    0  502  0.15107569860E+03  0.43460588818E+03 -0.15107190706E+04  0.15792339497E+04  0.12699999809E+01 0. -1.
</event>
<event>
 5   0  0.2666978E-07  0.3724160E+04  0.7818609E-02  0.8062629E-01
        2   -1    0    0  501    0  0.00000000000E+00  0.00000000000E+00  0.28426247379E+04  0.28426247379E+04  0.25500000920E-02 0.  1.
       -2   -1    0    0    0  501  0.00000000000E+00  0.00000000000E+00 -0.12197678462E+04  0.12197678462E+04  0.25500000920E-02 0. -1.
    10030    2    1    2    0    0  0.00000000000E+00  0.00000000000E+00  0.16228568918E+04  0.40623925841E+04  0.37241601759E+04 0.  0.
        4    1    3    3  502    0 -0.54445834794E+03  0.10188596218E+04  0.24044870144E+04  0.26675961533E+04  0.12699999809E+01 0.  1.
       -4    1    3    3    0  502  0.54445834794E+03 -0.10188596218E+04 -0.78163012268E+03  0.13947964308E+04  0.12699999809E+01 0. -1.
</event>
<event>
 5   0  0.8528625E-08  0.4034057E+04  0.7818609E-02  0.7997711E-01
       -1   -1    0    0    0  501  0.00000000000E+00  0.00000000000E+00  0.20544910538E+04  0.20544910538E+04  0.50400001928E-02 0. -1.
        1   -1    0    0  501    0  0.00000000000E+00  0.00000000000E+00 -0.19802488555E+04  0.19802488555E+04  0.50400001928E-02 0.  1.
    10030    2    1    2    0    0  0.00000000000E+00  0.00000000000E+00  0.74242198339E+02  0.40347399093E+04  0.40340567958E+04 0.  0.
        5    1    3    3  502    0 -0.55079992482E+03  0.84864608645E+03 -0.17081101206E+04  0.19852564095E+04  0.46999998093E+01 0.  1.
       -5    1    3    3    0  502  0.55079992482E+03 -0.84864608645E+03  0.17823523189E+04  0.20494834998E+04  0.46999998093E+01 0. -1.
</event>
<event>
 5   0  0.8528625E-08  0.3858861E+04  0.7818609E-02  0.8033640E-01
        1   -1    0    0  501    0  0.00000000000E+00  0.00000000000E+00  0.24321061122E+04  0.24321061122E+04  0.50400001928E-02 0.  1.
       -1   -1    0    0    0  501  0.00000000000E+00  0.00000000000E+00 -0.15306493271E+04  0.15306493271E+04  0.50400001928E-02 0. -1.
    10030    2    1    2    0    0  0.00000000000E+00  0.00000000000E+00  0.90145678514E+03  0.39627554393E+04  0.38588607563E+04 0.  0.
        2    1    3    3  502    0 -0.87500832646E+03 -0.11949163485E+04 -0.81918923656E+03  0.16924939162E+04  0.25500000920E-02 0. -1.
       -2    1    3    3    0  502  0.87500832646E+03  0.11949163485E+04  0.17206460217E+04  0.22702615231E+04  0.25500000920E-02 0.  1.
</event>
<event>
 5   0  0.2661693E-07  0.4019804E+04  0.7818609E-02  0.8000563E-01
       -2   -1    0    0    0  501  0.00000000000E+00  0.00000000000E+00  0.19167520575E+04  0.19167520575E+04  0.25500000920E-02 0.  1.
        2   -1    0    0  501    0  0.00000000000E+00  0.00000000000E+00 -0.21075789777E+04  0.21075789777E+04  0.25500000920E-02 0. -1.
    10030    2    1    2    0    0  0.00000000000E+00  0.00000000000E+00 -0.19082692021E+03  0.40243310353E+04  0.40198041455E+04 0.  0.
        1    1    3    3  502    0 -0.47140268448E+03 -0.57309811571E+03 -0.19654153795E+04  0.21008378222E+04  0.50400001928E-02 0. -1.
       -1    1    3    3    0  502  0.47140268448E+03  0.57309811571E+03  0.17745884593E+04  0.19234932131E+04  0.50400001928E-02 0.  1.
</event>
<event>
 5   0  0.2839279E-07  0.4038557E+04  0.7818609E-02  0.7996813E-01
       -2   -1    0    0    0  501  0.00000000000E+00  0.00000000000E+00  0.12903974141E+04  0.12903974141E+04  0.25500000920E-02 0.  1.
        2   -1    0    0  501    0  0.00000000000E+00  0.00000000000E+00 -0.31598674006E+04  0.31598674006E+04  0.25500000920E-02 0. -1.
    10030    2    1    2    0    0  0.00000000000E+00  0.00000000000E+00 -0.18694699865E+04  0.44502648147E+04  0.40385565355E+04 0.  0.
        3    1    3    3  502    0 -0.11467356544E+04 -0.76344573773E+03 -0.25615993371E+04  0.29085465837E+04  0.10100000352E+00 0. -1.
       -3    1    3    3    0  502  0.11467356544E+04  0.76344573773E+03  0.69212935062E+03  0.15417182310E+04  0.10100000352E+00 0.  1.
</event>
<event>
 5   0  0.2666978E-07  0.3932828E+04  0.7818609E-02  0.8018236E-01
        2   -1    0    0  501    0  0.00000000000E+00  0.00000000000E+00  0.18055323801E+04  0.18055323801E+04  0.25500000920E-02 0.  1.
       -2   -1    0    0    0  501  0.00000000000E+00  0.00000000000E+00 -0.21416305137E+04  0.21416305137E+04  0.25500000920E-02 0. -1.
    10030    2    1    2    0    0  0.00000000000E+00  0.00000000000E+00 -0.33609813363E+03  0.39471628938E+04  0.39328276030E+04 0.  0.
        4    1    3    3  502    0 -0.13166437000E+04  0.12739968873E+04  0.54881132745E+03  0.19125412904E+04  0.12699999809E+01 0.  1.
       -4    1    3    3    0  502  0.13166437000E+04 -0.12739968873E+04 -0.88490946107E+03  0.20346216033E+04  0.12699999809E+01 0. -1.
</event>
<event>
 5   0  0.8583262E-08  0.3115302E+04  0.7818609E-02  0.8211551E-01
       -1   -1    0    0    0  501  0.00000000000E+00  0.00000000000E+00  0.25452930037E+04  0.25452930037E+04  0.50400001928E-02 0.  1.
        1   -1    0    0  501    0  0.00000000000E+00  0.00000000000E+00 -0.95324034757E+03  0.95324034759E+03  0.50400001928E-02 0. -1.
    10030    2    1    2    0    0  0.00000000000E+00  0.00000000000E+00  0.15920526561E+04  0.34985333513E+04  0.31153015825E+04 0.  0.
        1    1    3    3  502    0 -0.34407563670E+03  0.46345805054E+03 -0.82870049015E+03  0.10099138135E+04  0.50400001928E-02 0. -1.
       -1    1    3    3    0  502  0.34407563670E+03 -0.46345805054E+03  0.24207531462E+04  0.24886195377E+04  0.50400001928E-02 0.  1.
</event>
<event>
 5   0  0.2666978E-07  0.3995241E+04  0.7818609E-02  0.8005507E-01
        2   -1    0    0  501    0  0.00000000000E+00  0.00000000000E+00  0.21145521694E+04  0.21145521694E+04  0.25500000920E-02 0. -1.
       -2   -1    0    0    0  501  0.00000000000E+00  0.00000000000E+00 -0.18871553778E+04  0.18871553778E+04  0.25500000920E-02 0.  1.
    10030    2    1    2    0    0  0.00000000000E+00  0.00000000000E+00  0.22739679161E+03  0.40017075472E+04  0.39952414185E+04 0.  0.
        4    1    3    3  502    0 -0.43866677253E+03 -0.12585953129E+04  0.16040569108E+04  0.20855433069E+04  0.12699999809E+01 0. -1.
       -4    1    3    3    0  502  0.43866677253E+03  0.12585953129E+04 -0.13766601192E+04  0.19161642403E+04  0.12699999809E+01 0.  1.
</event>
<event>
 5   0  0.8528625E-08  0.4087132E+04  0.7818609E-02  0.7987196E-01
       -1   -1    0    0    0  501  0.00000000000E+00  0.00000000000E+00  0.32200125284E+04  0.32200125284E+04  0.50400001928E-02 0.  1.
        1   -1    0    0  501    0  0.00000000000E+00  0.00000000000E+00 -0.12969395629E+04  0.12969395629E+04  0.50400001928E-02 0. -1.
    10030    2    1    2    0    0  0.00000000000E+00  0.00000000000E+00  0.19230729655E+04  0.45169520913E+04  0.40871318261E+04 0.  0.
        3    1    3    3  502    0 -0.14863042929E+03  0.18529458681E+04  0.18997306338E+04  0.26579081786E+04  0.10100000352E+00 0.  1.
       -3    1    3    3    0  502  0.14863042929E+03 -0.18529458681E+04  0.23342331724E+02  0.18590439127E+04  0.10100000352E+00 0. -1.
</event>
<event>
 5   0  0.2839279E-07  0.3395827E+04  0.7818609E-02  0.8138931E-01
       -2   -1    0    0    0  501  0.00000000000E+00  0.00000000000E+00  0.10032971653E+04  0.10032971653E+04  0.25500000920E-02 0.  1.
        2   -1    0    0  501    0  0.00000000000E+00  0.00000000000E+00 -0.28734355698E+04  0.28734355698E+04  0.25500000920E-02 0. -1.
    10030    2    1    2    0    0  0.00000000000E+00  0.00000000000E+00 -0.18701384045E+04  0.38767327351E+04  0.33958267105E+04 0.  0.
        3    1    3    3  502    0  0.78343180346E+03 -0.12864741761E+04 -0.40425751407E+02  0.15067897823E+04  0.10100000352E+00 0.  1.
       -3    1    3    3    0  502 -0.78343180346E+03  0.12864741761E+04 -0.18297126531E+04  0.23699429528E+04  0.10100000352E+00 0. -1.
</event>
<event>
 5   0  0.2839279E-07  0.3313784E+04  0.7818609E-02  0.8159397E-01
        2   -1    0    0  501    0  0.00000000000E+00  0.00000000000E+00  0.20251645977E+04  0.20251645977E+04  0.25500000920E-02 0.  1.
       -2   -1    0    0    0  501  0.00000000000E+00  0.00000000000E+00 -0.13555895055E+04  0.13555895055E+04  0.25500000920E-02 0. -1.
    10030    2    1    2    0    0  0.00000000000E+00  0.00000000000E+00  0.66957509218E+03  0.33807541033E+04  0.33137844684E+04 0.  0.
        3    1    3    3  502    0 -0.35718085667E+02  0.30394196174E+03 -0.13265054238E+04  0.13613497520E+04  0.10100000352E+00 0. -1.
       -3    1    3    3    0  502  0.35718085667E+02 -0.30394196174E+03  0.19960805159E+04  0.20194043513E+04  0.10100000352E+00 0.  1.
</event>
<event>
 5   0  0.8583262E-08  0.4001211E+04  0.7818609E-02  0.8004302E-01
       -1   -1    0    0    0  501  0.00000000000E+00  0.00000000000E+00  0.13260961637E+04  0.13260961637E+04  0.50400001928E-02 0. -1.
        1   -1    0    0  501    0  0.00000000000E+00  0.00000000000E+00 -0.30181990859E+04  0.30181990859E+04  0.50400001928E-02 0.  1.
    10030    2    1    2    0    0  0.00000000000E+00  0.00000000000E+00 -0.16921029222E+04  0.43442952496E+04  0.40012109312E+04 0.  0.
        1    1    3    3  502    0  0.19629164216E+04  0.36132537630E+03 -0.69708136129E+03  0.21141237736E+04  0.50400001928E-02 0. -1.
       -1    1    3    3    0  502 -0.19629164216E+04 -0.36132537630E+03 -0.99502156088E+03  0.22301714760E+04  0.50400001928E-02 0.  1.
</event>
<event>
 5   0  0.8583262E-08  0.3965093E+04  0.7818609E-02  0.8011626E-01
        1   -1    0    0  501    0  0.00000000000E+00  0.00000000000E+00  0.15355482104E+04  0.15355482104E+04  0.50400001928E-02 0.  1.
       -1   -1    0    0    0  501  0.00000000000E+00  0.00000000000E+00 -0.25596656645E+04  0.25596656645E+04  0.50400001928E-02 0. -1.
    10030    2    1    2    0    0  0.00000000000E+00  0.00000000000E+00 -0.10241174541E+04  0.40952138749E+04  0.39650927003E+04 0.  0.
        1    1    3    3  502    0  0.62847222447E+03 -0.82807464491E+02  0.14280580906E+04  0.15624289818E+04  0.50400001928E-02 0.  1.
       -1    1    3    3    0  502 -0.62847222447E+03  0.82807464491E+02 -0.24521755447E+04  0.25327848931E+04  0.50400001928E-02 0. -1.
</event>
<event>
 5   0  0.2661693E-07  0.4003237E+04  0.7818609E-02  0.8003894E-01
        2   -1    0    0  501    0  0.00000000000E+00  0.00000000000E+00  0.20240599531E+04  0.20240599531E+04  0.25500000920E-02 0. -1.
       -2   -1    0    0    0  501  0.00000000000E+00  0.00000000000E+00 -0.19794262820E+04  0.19794262820E+04  0.25500000920E-02 0.  1.
    10030    2    1    2    0    0  0.00000000000E+00  0.00000000000E+00  0.44633671117E+02  0.40034862352E+04  0.40032374237E+04 0.  0.
        1    1    3    3  502    0 -0.21926913216E+03 -0.17282832560E+04 -0.96335869947E+03  0.19907541157E+04  0.50400001928E-02 0.  1.
       -1    1    3    3    0  502  0.21926913216E+03  0.17282832560E+04  0.10079923706E+04  0.20127321194E+04  0.50400001928E-02 0. -1.
</event>
<event>
 5   0  0.8528625E-08  0.4012631E+04  0.7818609E-02  0.8002003E-01
        1   -1    0    0  501    0  0.00000000000E+00  0.00000000000E+00  0.14950683875E+04  0.14950683875E+04  0.50400001928E-02 0.  1.
       -1   -1    0    0    0  501  0.00000000000E+00  0.00000000000E+00 -0.26923858236E+04  0.26923858236E+04  0.50400001928E-02 0. -1.
    10030    2    1    2    0    0  0.00000000000E+00  0.00000000000E+00 -0.11973174361E+04  0.41874542111E+04  0.40126305246E+04 0.  0.
        4    1    3    3  502    0 -0.13615354914E+04 -0.95743801437E+03 -0.17676569178E+04  0.24279783849E+04  0.12699999809E+01 0. -1.
       -4    1    3    3    0  502  0.13615354914E+04  0.95743801437E+03  0.57033948166E+03  0.17594758262E+04  0.12699999809E+01 0.  1.
</event>
<event>
 5   0  0.2704088E-07  0.3932722E+04  0.7818609E-02  0.8018258E-01
        2   -1    0    0  501    0  0.00000000000E+00  0.00000000000E+00  0.25733209718E+04  0.25733209718E+04  0.25500000920E-02 0.  1.
       -2   -1    0    0    0  501  0.00000000000E+00  0.00000000000E+00 -0.15025624106E+04  0.15025624106E+04  0.25500000920E-02 0. -1.
    10030    2    1    2    0    0  0.00000000000E+00  0.00000000000E+00  0.10707585612E+04  0.40758833824E+04  0.39327218883E+04 0.  0.
        5    1    3    3  502    0  0.51242334977E+03  0.17891408549E+03  0.24941433637E+04  0.25525205480E+04  0.46999998093E+01 0.  1.
       -5    1    3    3    0  502 -0.51242334977E+03 -0.17891408549E+03 -0.14233848025E+04  0.15233628344E+04  0.46999998093E+01 0. -1.
</event>
<event>
 5   0  0.8528625E-08  0.3755899E+04  0.7818609E-02  0.8055686E-01
       -1   -1    0    0    0  501  0.00000000000E+00  0.00000000000E+00  0.36513595822E+04  0.36513595822E+04  0.50400001928E-02 0. -1.
        1   -1    0    0  501    0  0.00000000000E+00  0.00000000000E+00 -0.96585763048E+03  0.96585763050E+03  0.50400001928E-02 0.  1.
    10030    2    1    2    0    0  0.00000000000E+00  0.00000000000E+00  0.26855019517E+04  0.46172172127E+04  0.37558985685E+04 0.  0.
        2    1    3    3  502    0  0.36980214786E+02 -0.18442565554E+04  0.90978490001E+03  0.20567834944E+04  0.25500000920E-02 0.  1.
       -2    1    3    3    0  502 -0.36980214786E+02  0.18442565554E+04  0.17757170517E+04  0.25604337184E+04  0.25500000920E-02 0. -1.
</event>
<event>
 5   0  0.8528625E-08  0.3329070E+04  0.7818609E-02  0.8155538E-01
        1   -1    0    0  501    0  0.00000000000E+00  0.00000000000E+00  0.18874129360E+04  0.18874129360E+04  0.50400001928E-02 0.  1.
       -1   -1    0    0    0  501  0.00000000000E+00  0.00000000000E+00 -0.14679762340E+04  0.14679762340E+04  0.50400001928E-02 0. -1.
    10030    2    1    2    0    0  0.00000000000E+00  0.00000000000E+00  0.41943670205E+03  0.33553891700E+04  0.33290703410E+04 0.  0.
        5    1    3    3  502    0 -0.11326475779E+04  0.65833528330E+03  0.12446561676E+04  0.18070658390E+04  0.46999998093E+01 0.  1.
       -5    1    3    3    0  502  0.11326475779E+04 -0.65833528330E+03 -0.82521946550E+03  0.15483233310E+04  0.46999998093E+01 0. -1.
</event>
<event>
 5   0  0.8528625E-08  0.4016831E+04  0.7818609E-02  0.8001160E-01
        1   -1    0    0  501    0  0.00000000000E+00  0.00000000000E+00  0.20305166633E+04  0.20305166633E+04  0.50400001928E-02 0.  1.
       -1   -1    0    0    0  501  0.00000000000E+00  0.00000000000E+00 -0.19865547568E+04  0.19865547568E+04  0.50400001928E-02 0. -1.
    10030    2    1    2    0    0  0.00000000000E+00  0.00000000000E+00  0.43961906541E+02  0.40170714201E+04  0.40168308584E+04 0.  0.
        3    1    3    3  502    0  0.15130385302E+04  0.44228766296E+03  0.12665748930E+04  0.20221562601E+04  0.10100000352E+00 0.  1.
       -3    1    3    3    0  502 -0.15130385302E+04 -0.44228766296E+03 -0.12226129864E+04  0.19949151600E+04  0.10100000352E+00 0. -1.
</event>
<event>
 5   0  0.2704088E-07  0.3925245E+04  0.7818609E-02  0.8019799E-01
        2   -1    0    0  501    0  0.00000000000E+00  0.00000000000E+00  0.14791827053E+04  0.14791827053E+04  0.25500000920E-02 0.  1.
       -2   -1    0    0    0  501  0.00000000000E+00  0.00000000000E+00 -0.26040649144E+04  0.26040649144E+04  0.25500000920E-02 0. -1.
    10030    2    1    2    0    0  0.00000000000E+00  0.00000000000E+00 -0.11248822091E+04  0.40832476196E+04  0.39252453603E+04 0.  0.
        5    1    3    3  502    0 -0.31979740951E+02 -0.14812952827E+04 -0.19013427982E+04  0.24104740083E+04  0.46999998093E+01 0. -1.
       -5    1    3    3    0  502  0.31979740951E+02  0.14812952827E+04  0.77646058909E+03  0.16727736114E+04  0.46999998093E+01 0.  1.
</event>
<event>
 5   0  0.8528625E-08  0.3974909E+04  0.7818609E-02  0.8009627E-01
       -1   -1    0    0    0  501  0.00000000000E+00  0.00000000000E+00  0.19917729673E+04  0.19917729673E+04  0.50400001928E-02 0. -1.
        1   -1    0    0  501    0  0.00000000000E+00  0.00000000000E+00 -0.19831456206E+04  0.19831456206E+04  0.50400001928E-02 0.  1.
    10030    2    1    2    0    0  0.00000000000E+00  0.00000000000E+00  0.86273467253E+01  0.39749185878E+04  0.39749092252E+04 0.  0.
        2    1    3    3  502    0  0.75664392849E+03  0.15836365399E+04  0.93681847688E+03  0.19894832454E+04  0.25500000920E-02 0. -1.
       -2    1    3    3    0  502 -0.75664392849E+03 -0.15836365399E+04 -0.92819113015E+03  0.19854353425E+04  0.25500000920E-02 0.  1.
</event>
<event>
 5   0  0.8528625E-08  0.3803345E+04  0.7818609E-02  0.8045437E-01
        1   -1    0    0  501    0  0.00000000000E+00  0.00000000000E+00  0.22151633516E+04  0.22151633516E+04  0.50400001928E-02 0.  1.
       -1   -1    0    0    0  501  0.00000000000E+00  0.00000000000E+00 -0.16325469966E+04  0.16325469966E+04  0.50400001928E-02 0. -1.
    10030    2    1    2    0    0  0.00000000000E+00  0.00000000000E+00  0.58261635496E+03  0.38477103482E+04  0.38033449892E+04 0.  0.
        3    1    3    3  502    0  0.10513539009E+04 -0.13449961983E+04 -0.55631872648E+03  0.17955083776E+04  0.10100000352E+00 0. -1.
       -3    1    3    3    0  502 -0.10513539009E+04  0.13449961983E+04  0.11389350814E+04  0.20522019706E+04  0.10100000352E+00 0.  1.
</event>
<event>
 5   0  0.2839279E-07  0.3978361E+04  0.7818609E-02  0.8008926E-01
        2   -1    0    0  501    0  0.00000000000E+00  0.00000000000E+00  0.22376557358E+04  0.22376557358E+04  0.25500000920E-02 0.  1.
       -2   -1    0    0    0  501  0.00000000000E+00  0.00000000000E+00 -0.17682962637E+04  0.17682962637E+04  0.25500000920E-02 0. -1.
    10030    2    1    2    0    0  0.00000000000E+00  0.00000000000E+00  0.46935947211E+03  0.40059519995E+04  0.39783606056E+04 0.  0.
        3    1    3    3  502    0 -0.14741327593E+04 -0.37389316959E+03 -0.10563884209E+04  0.18517073204E+04  0.10100000352E+00 0. -1.
       -3    1    3    3    0  502  0.14741327593E+04  0.37389316959E+03  0.15257478930E+04  0.21542446791E+04  0.10100000352E+00 0.  1.
</event>
<event>
 5   0  0.2704088E-07  0.3991612E+04  0.7818609E-02  0.8006241E-01
       -2   -1    0    0    0  501  0.00000000000E+00  0.00000000000E+00  0.16062542057E+04  0.16062542057E+04  0.25500000920E-02 0.  1.
        2   -1    0    0  501    0  0.00000000000E+00  0.00000000000E+00 -0.24798327709E+04  0.24798327709E+04  0.25500000920E-02 0. -1.
    10030    2    1    2    0    0  0.00000000000E+00  0.00000000000E+00 -0.87357856526E+03  0.40860869766E+04  0.39916121142E+04 0.  0.
        5    1    3    3  502    0 -0.14497668399E+04 -0.41030571877E+03 -0.17766006789E+04  0.23294863673E+04  0.46999998093E+01 0. -1.
       -5    1    3    3    0  502  0.14497668399E+04  0.41030571877E+03  0.90302211365E+03  0.17566006093E+04  0.46999998093E+01 0.  1.
</event>
<event>
 5   0  0.2661693E-07  0.3962045E+04  0.7818609E-02  0.8012247E-01
        2   -1    0    0  501    0  0.00000000000E+00  0.00000000000E+00  0.21539197896E+04  0.21539197896E+04  0.25500000920E-02 0.  1.
       -2   -1    0    0    0  501  0.00000000000E+00  0.00000000000E+00 -0.18220036524E+04  0.18220036524E+04  0.25500000920E-02 0. -1.
    10030    2    1    2    0    0  0.00000000000E+00  0.00000000000E+00  0.33191613716E+03  0.39759234420E+04  0.39620447871E+04 0.  0.
        1    1    3    3  502    0 -0.88811928464E+03  0.11533608993E+04 -0.11824199555E+04  0.18753970724E+04  0.50400001928E-02 0. -1.
       -1    1    3    3    0  502  0.88811928464E+03 -0.11533608993E+04  0.15143360927E+04  0.21005263696E+04  0.50400001928E-02 0.  1.
</event>
<event>
 5   0  0.8528625E-08  0.3990845E+04  0.7818609E-02  0.8006396E-01
       -1   -1    0    0    0  501  0.00000000000E+00  0.00000000000E+00  0.17181136910E+04  0.17181136910E+04  0.50400001928E-02 0. -1.
        1   -1    0    0  501    0  0.00000000000E+00  0.00000000000E+00 -0.23174902741E+04  0.23174902741E+04  0.50400001928E-02 0.  1.
    10030    2    1    2    0    0  0.00000000000E+00  0.00000000000E+00 -0.59937658310E+03  0.40356039651E+04  0.39908454085E+04 0.  0.
        4    1    3    3  502    0 -0.43389590532E+03  0.18212994689E+04  0.39820614401E+03  0.19141491995E+04  0.12699999809E+01 0. -1.
       -4    1    3    3    0  502  0.43389590532E+03 -0.18212994689E+04 -0.99758272711E+03  0.21214547656E+04  0.12699999809E+01 0.  1.
</event>
<event>
 5   0  0.8528625E-08  0.3506693E+04  0.7818609E-02  0.8112206E-01
        1   -1    0    0  501    0  0.00000000000E+00  0.00000000000E+00  0.12462328955E+04  0.12462328955E+04  0.50400001928E-02 0. -1.
       -1   -1    0    0    0  501  0.00000000000E+00  0.00000000000E+00 -0.24668132053E+04  0.24668132053E+04  0.50400001928E-02 0.  1.
    10030    2    1    2    0    0  0.00000000000E+00  0.00000000000E+00 -0.12205803098E+04  0.37130461009E+04  0.35066928943E+04 0.  0.
        5    1    3    3  502    0  0.87823172136E+03 -0.14540602711E+04 -0.10701503716E+04  0.20076917433E+04  0.46999998093E+01 0.  1.
       -5    1    3    3    0  502 -0.87823172136E+03  0.14540602711E+04 -0.15042993823E+03  0.17053543576E+04  0.46999998093E+01 0. -1.
</event>
<event>
 5   0  0.8528625E-08  0.3988456E+04  0.7818609E-02  0.8006879E-01
        1   -1    0    0  501    0  0.00000000000E+00  0.00000000000E+00  0.27621681758E+04  0.27621681758E+04  0.50400001928E-02 0. -1.
       -1   -1    0    0    0  501  0.00000000000E+00  0.00000000000E+00 -0.14397908958E+04  0.14397908958E+04  0.50400001928E-02 0.  1.
    10030    2    1    2    0    0  0.00000000000E+00  0.00000000000E+00  0.13223772800E+04  0.42019590716E+04  0.39884556371E+04 0.  0.
        3    1    3    3  502    0 -0.14988181369E+04 -0.13154346069E+04  0.64962043545E+03  0.20973389647E+04  0.10100000352E+00 0. -1.
       -3    1    3    3    0  502  0.14988181369E+04  0.13154346069E+04  0.67275684460E+03  0.21046201070E+04  0.10100000352E+00 0.  1.
</event>
<event>
 5   0  0.2730801E-07  0.3354843E+04  0.7818609E-02  0.8149079E-01
       -2   -1    0    0    0  501  0.00000000000E+00  0.00000000000E+00  0.13376398609E+04  0.13376398609E+04  0.25500000920E-02 0.  1.
        2   -1    0    0  501    0  0.00000000000E+00  0.00000000000E+00 -0.21035125040E+04  0.21035125040E+04  0.25500000920E-02 0. -1.
    10030    2    1    2    0    0  0.00000000000E+00  0.00000000000E+00 -0.76587264312E+03  0.34411523649E+04  0.33548425735E+04 0.  0.
        2    1    3    3  502    0 -0.45139251135E+03  0.43953351829E+03  0.12116640713E+04  0.13656773904E+04  0.25500000920E-02 0.  1.
       -2    1    3    3    0  502  0.45139251135E+03 -0.43953351829E+03 -0.19775367144E+04  0.20754749745E+04  0.25500000920E-02 0. -1.
</event>
<event>
 5   0  0.8528625E-08  0.3847073E+04  0.7818609E-02  0.8036128E-01
        1   -1    0    0  501    0  0.00000000000E+00  0.00000000000E+00  0.23317036603E+04  0.23317036603E+04  0.50400001928E-02 0. -1.
       -1   -1    0    0    0  501  0.00000000000E+00  0.00000000000E+00 -0.15868191506E+04  0.15868191506E+04  0.50400001928E-02 0.  1.
    10030    2    1    2    0    0  0.00000000000E+00  0.00000000000E+00  0.74488450971E+03  0.39185228109E+04  0.38470726646E+04 0.  0.
        3    1    3    3  502    0 -0.15706564534E+04  0.50385732055E+03 -0.63545997053E+03  0.17676660540E+04  0.10100000352E+00 0.  1.
       -3    1    3    3    0  502  0.15706564534E+04 -0.50385732055E+03  0.13803444802E+04  0.21508567569E+04  0.10100000352E+00 0. -1.
</event>
<event>
 5   0  0.8528625E-08  0.3966926E+04  0.7818609E-02  0.8011252E-01
        1   -1    0    0  501    0  0.00000000000E+00  0.00000000000E+00  0.22127252612E+04  0.22127252612E+04  0.50400001928E-02 0. -1.
       -1   -1    0    0    0  501  0.00000000000E+00  0.00000000000E+00 -0.17779547286E+04  0.17779547286E+04  0.50400001928E-02 0.  1.
    10030    2    1    2    0    0  0.00000000000E+00  0.00000000000E+00  0.43477053256E+03  0.39906799899E+04  0.39669259339E+04 0.  0.
        2    1    3    3  502    0 -0.18337312891E+03 -0.61591728580E+03  0.21050931919E+04  0.22009991263E+04  0.25500000920E-02 0. -1.
       -2    1    3    3    0  502  0.18337312891E+03  0.61591728580E+03 -0.16703226593E+04  0.17896808636E+04  0.25500000920E-02 0.  1.
</event>
<event>
 5   0  0.8528625E-08  0.4024678E+04  0.7818609E-02  0.7999587E-01
        1   -1    0    0  501    0  0.00000000000E+00  0.00000000000E+00  0.16242978506E+04  0.16242978506E+04  0.50400001928E-02 0. -1.
       -1   -1    0    0    0  501  0.00000000000E+00  0.00000000000E+00 -0.24930822863E+04  0.24930822863E+04  0.50400001928E-02 0.  1.
    10030    2    1    2    0    0  0.00000000000E+00  0.00000000000E+00 -0.86878443569E+03  0.41173801369E+04  0.40246779742E+04 0.  0.
        4    1    3    3  502    0  0.28900570649E+03 -0.58191882357E+03 -0.23828218469E+04  0.24698168723E+04  0.12699999809E+01 0.  1.
       -4    1    3    3    0  502 -0.28900570649E+03  0.58191882357E+03  0.15140374112E+04  0.16475632646E+04  0.12699999809E+01 0. -1.
</event>
<event>
 5   0  0.2661693E-07  0.4028815E+04  0.7818609E-02  0.7998759E-01
       -2   -1    0    0    0  501  0.00000000000E+00  0.00000000000E+00  0.26696485875E+04  0.26696485875E+04  0.25500000920E-02 0.  1.
        2   -1    0    0  501    0  0.00000000000E+00  0.00000000000E+00 -0.15199891818E+04  0.15199891818E+04  0.25500000920E-02 0. -1.
    10030    2    1    2    0    0  0.00000000000E+00  0.00000000000E+00  0.11496594057E+04  0.41896377694E+04  0.40288147003E+04 0.  0.
        1    1    3    3  502    0  0.18994444550E+04  0.60742445507E+03  0.87076503992E+03  0.21760251518E+04  0.50400001928E-02 0.  1.
       -1    1    3    3    0  502 -0.18994444550E+04 -0.60742445507E+03  0.27889436576E+03  0.20136126176E+04  0.50400001928E-02 0. -1.
</event>
<event>
 5   0  0.2839279E-07  0.4003755E+04  0.7818609E-02  0.8003789E-01
        2   -1    0    0  501    0  0.00000000000E+00  0.00000000000E+00  0.16900827427E+04  0.16900827427E+04  0.25500000920E-02 0.  1.
       -2   -1    0    0    0  501  0.00000000000E+00  0.00000000000E+00 -0.23711942067E+04  0.23711942067E+04  0.25500000920E-02 0. -1.
    10030    2    1    2    0    0  0.00000000000E+00  0.00000000000E+00 -0.68111146396E+03  0.40612769494E+04  0.40037554413E+04 0.  0.
        3    1    3    3  502    0 -0.14135979187E+02 -0.91717026206E+03 -0.21454771113E+04  0.23333394868E+04  0.10100000352E+00 0. -1.
       -3    1    3    3    0  502  0.14135979187E+02  0.91717026206E+03  0.14643656473E+04  0.17279374626E+04  0.10100000352E+00 0.  1.
</event>
<event>
 5   0  0.8528625E-08  0.4022110E+04  0.7818609E-02  0.8000101E-01
       -1   -1    0    0    0  501  0.00000000000E+00  0.00000000000E+00  0.13480684028E+04  0.13480684029E+04  0.50400001928E-02 0. -1.
        1   -1    0    0  501    0  0.00000000000E+00  0.00000000000E+00 -0.30001021449E+04  0.30001021449E+04  0.50400001928E-02 0.  1.
    10030    2    1    2    0    0  0.00000000000E+00  0.00000000000E+00 -0.16520337420E+04  0.43481705477E+04  0.40221103450E+04 0.  0.
        2    1    3    3  502    0 -0.18970875871E+04 -0.44000366187E+03 -0.13684910198E+04  0.23801916324E+04  0.25500000920E-02 0.  1.
       -2    1    3    3    0  502  0.18970875871E+04  0.44000366187E+03 -0.28354272222E+03  0.19679789153E+04  0.25500000920E-02 0. -1.
</event>
<event>
 5   0  0.8528625E-08  0.4002423E+04  0.7818609E-02  0.8004058E-01
        1   -1    0    0  501    0  0.00000000000E+00  0.00000000000E+00  0.29079561279E+04  0.29079561279E+04  0.50400001928E-02 0. -1.
       -1   -1    0    0    0  501  0.00000000000E+00  0.00000000000E+00 -0.13772035297E+04  0.13772035298E+04  0.50400001928E-02 0.  1.
    10030    2    1    2    0    0  0.00000000000E+00  0.00000000000E+00  0.15307525981E+04  0.42851596576E+04  0.40024229880E+04 0.  0.
        5    1    3    3  502    0 -0.15647719750E+04  0.11719007589E+04  0.12233338477E+04  0.23061722649E+04  0.46999998093E+01 0.  1.
       -5    1    3    3    0  502  0.15647719750E+04 -0.11719007589E+04  0.30741875040E+03  0.19789873927E+04  0.46999998093E+01 0. -1.
</event>
<event>
 5   0  0.2704088E-07  0.3713106E+04  0.7818609E-02  0.8065064E-01
       -2   -1    0    0    0  501  0.00000000000E+00  0.00000000000E+00  0.18741634120E+04  0.18741634121E+04  0.25500000920E-02 0.  1.
        2   -1    0    0  501    0  0.00000000000E+00  0.00000000000E+00 -0.18391083253E+04  0.18391083253E+04  0.25500000920E-02 0. -1.
    10030    2    1    2    0    0  0.00000000000E+00  0.00000000000E+00  0.35055086730E+02  0.37132717374E+04  0.37131062652E+04 0.  0.
        5    1    3    3  502    0 -0.17431829203E+04  0.60261785407E+03  0.22950980078E+03  0.18586370840E+04  0.46999998093E+01 0.  1.
       -5    1    3    3    0  502  0.17431829203E+04 -0.60261785407E+03 -0.19445471405E+03  0.18546346533E+04  0.46999998093E+01 0. -1.
</event>
<event>
 5   0  0.2661693E-07  0.3985259E+04  0.7818609E-02  0.8007527E-01
       -2   -1    0    0    0  501  0.00000000000E+00  0.00000000000E+00  0.17862620591E+04  0.17862620591E+04  0.25500000920E-02 0.  1.
        2   -1    0    0  501    0  0.00000000000E+00  0.00000000000E+00 -0.22228391844E+04  0.22228391844E+04  0.25500000920E-02 0. -1.
    10030    2    1    2    0    0  0.00000000000E+00  0.00000000000E+00 -0.43657712529E+03  0.40091012436E+04  0.39852594890E+04 0.  0.
        1    1    3    3  502    0  0.49466195951E+03  0.14761638260E+04  0.10328654075E+04  0.18683043236E+04  0.50400001928E-02 0.  1.
       -1    1    3    3    0  502 -0.49466195951E+03 -0.14761638260E+04 -0.14694425328E+04  0.21407969200E+04  0.50400001928E-02 0. -1.
</event>
<event>
 5   0  0.8528625E-08  0.3976875E+04  0.7818609E-02  0.8009228E-01
        1   -1    0    0  501    0  0.00000000000E+00  0.00000000000E+00  0.21766921492E+04  0.21766921492E+04  0.50400001928E-02 0. -1.
       -1   -1    0    0    0  501  0.00000000000E+00  0.00000000000E+00 -0.18164647614E+04  0.18164647614E+04  0.50400001928E-02 0.  1.
    10030    2    1    2    0    0  0.00000000000E+00  0.00000000000E+00  0.36022738785E+03  0.39931569106E+04  0.39768754497E+04 0.  0.
        4    1    3    3  502    0  0.13133027802E+03  0.15132941850E+04  0.14685569071E+04  0.21128104350E+04  0.12699999809E+01 0. -1.
       -4    1    3    3    0  502 -0.13133027802E+03 -0.15132941850E+04 -0.11083295192E+04  0.18803464756E+04  0.12699999809E+01 0.  1.
</event>
<event>
 5   0  0.2666978E-07  0.3685566E+04  0.7818609E-02  0.8071168E-01
        2   -1    0    0  501    0  0.00000000000E+00  0.00000000000E+00  0.15221218117E+04  0.15221218118E+04  0.25500000920E-02 0.  1.
       -2   -1    0    0    0  501  0.00000000000E+00  0.00000000000E+00 -0.22309969104E+04  0.22309969104E+04  0.25500000920E-02 0. -1.
    10030    2    1    2    0    0  0.00000000000E+00  0.00000000000E+00 -0.70887509863E+03  0.37531187221E+04  0.36855659317E+04 0.  0.
        4    1    3    3  502    0  0.15494049268E+04 -0.86479503735E+03 -0.86086697602E+03  0.19722118667E+04  0.12699999809E+01 0. -1.
       -4    1    3    3    0  502 -0.15494049268E+04  0.86479503735E+03  0.15199187739E+03  0.17809068554E+04  0.12699999809E+01 0.  1.
</event>
<event>
 5   0  0.2661693E-07  0.3960640E+04  0.7818609E-02  0.8012534E-01
       -2   -1    0    0    0  501  0.00000000000E+00  0.00000000000E+00  0.26095118298E+04  0.26095118298E+04  0.25500000920E-02 0. -1.
        2   -1    0    0  501    0  0.00000000000E+00  0.00000000000E+00 -0.15028359118E+04  0.15028359118E+04  0.25500000920E-02 0.  1.
    10030    2    1    2    0    0  0.00000000000E+00  0.00000000000E+00  0.11066759180E+04  0.41123477415E+04  0.39606403977E+04 0.  0.
        1    1    3    3  502    0 -0.16248523563E+04  0.75624371015E+03  0.14279930751E+04  0.22915527381E+04  0.50400001928E-02 0.  1.
       -1    1    3    3    0  502  0.16248523563E+04 -0.75624371015E+03 -0.32131715710E+03  0.18207950034E+04  0.50400001928E-02 0. -1.
</event>
<event>
 5   0  0.2704088E-07  0.4038313E+04  0.7818609E-02  0.7996862E-01
       -2   -1    0    0    0  501  0.00000000000E+00  0.00000000000E+00  0.19917007735E+04  0.19917007735E+04  0.25500000920E-02 0.  1.
        2   -1    0    0  501    0  0.00000000000E+00  0.00000000000E+00 -0.20469903065E+04  0.20469903065E+04  0.25500000920E-02 0. -1.
    10030    2    1    2    0    0  0.00000000000E+00  0.00000000000E+00 -0.55289532992E+02  0.40386910801E+04  0.40383126065E+04 0.  0.
        5    1    3    3  502    0 -0.13387803339E+03 -0.12578750568E+04 -0.16015765873E+04  0.20408926090E+04  0.46999998093E+01 0. -1.
       -5    1    3    3    0  502  0.13387803339E+03  0.12578750568E+04  0.15462870543E+04  0.19977984710E+04  0.46999998093E+01 0.  1.
</event>
<event>
 5   0  0.2704088E-07  0.4047086E+04  0.7818609E-02  0.7995115E-01
       -2   -1    0    0    0  501  0.00000000000E+00  0.00000000000E+00  0.26228768214E+04  0.26228768214E+04  0.25500000920E-02 0.  1.
        2   -1    0    0  501    0  0.00000000000E+00  0.00000000000E+00 -0.15611582845E+04  0.15611582846E+04  0.25500000920E-02 0. -1.
    10030    2    1    2    0    0  0.00000000000E+00  0.00000000000E+00  0.10617185368E+04  0.41840351059E+04  0.40470858054E+04 0.  0.
        5    1    3    3  502    0 -0.15377199214E+04 -0.13401958331E+03 -0.82191420568E+03  0.17487449376E+04  0.46999998093E+01 0. -1.
       -5    1    3    3    0  502  0.15377199214E+04  0.13401958331E+03  0.18836327425E+04  0.24352901683E+04  0.46999998093E+01 0.  1.
</event>
<event>
 5   0  0.2704088E-07  0.3992480E+04  0.7818609E-02  0.8006065E-01
        2   -1    0    0  501    0  0.00000000000E+00  0.00000000000E+00  0.16757806542E+04  0.16757806542E+04  0.25500000920E-02 0. -1.
       -2   -1    0    0    0  501  0.00000000000E+00  0.00000000000E+00 -0.23779804027E+04  0.23779804027E+04  0.25500000920E-02 0.  1.
    10030    2    1    2    0    0  0.00000000000E+00  0.00000000000E+00 -0.70219974845E+03  0.40537610569E+04  0.39924797081E+04 0.  0.
        5    1    3    3  502    0  0.10523483961E+04  0.15745784808E+03  0.13638250193E+04  0.17298181679E+04  0.46999998093E+01 0. -1.
       -5    1    3    3    0  502 -0.10523483961E+04 -0.15745784808E+03 -0.20660247677E+04  0.23239428890E+04  0.46999998093E+01 0.  1.
</event>
<event>
 5   0  0.8528625E-08  0.4139606E+04  0.7818609E-02  0.7976961E-01
       -1   -1    0    0    0  501  0.00000000000E+00  0.00000000000E+00  0.16514630877E+04  0.16514630877E+04  0.50400001928E-02 0. -1.
        1   -1    0    0  501    0  0.00000000000E+00  0.00000000000E+00 -0.25941142245E+04  0.25941142245E+04  0.50400001928E-02 0.  1.
    10030    2    1    2    0    0  0.00000000000E+00  0.00000000000E+00 -0.94265113683E+03  0.42455773123E+04  0.41396057238E+04 0.  0.
        5    1    3    3  502    0  0.90366546987E+03  0.64496497096E+03  0.13202386388E+04  0.17250052895E+04  0.46999998093E+01 0. -1.
       -5    1    3    3    0  502 -0.90366546987E+03 -0.64496497096E+03 -0.22628897757E+04  0.25205720228E+04  0.46999998093E+01 0.  1.
</event>
<event>
 5   0  0.2661693E-07  0.3260695E+04  0.7818609E-02  0.8172969E-01
        2   -1    0    0  501    0  0.00000000000E+00  0.00000000000E+00  0.27124067622E+04  0.27124067622E+04  0.25500000920E-02 0. -1.
       -2   -1    0    0    0  501  0.00000000000E+00  0.00000000000E+00 -0.97995396032E+03  0.97995396032E+03  0.25500000920E-02 0.  1.
    10030    2    1    2    0    0  0.00000000000E+00  0.00000000000E+00  0.17324528019E+04  0.36923607225E+04  0.32606954771E+04 0.  0.
        1    1    3    3  502    0  0.12278268558E+04 -0.97803798477E+03  0.13648828544E+04  0.20801495845E+04  0.50400001928E-02 0. -1.
       -1    1    3    3    0  502 -0.12278268558E+04  0.97803798477E+03  0.36756994745E+03  0.16122111381E+04  0.50400001928E-02 0.  1.
</event>
<event>
 5   0  0.8528625E-08  0.4137328E+04  0.7818609E-02  0.7977402E-01
        1   -1    0    0  501    0  0.00000000000E+00  0.00000000000E+00  0.19811364527E+04  0.19811364527E+04  0.50400001928E-02 0.  1.
       -1   -1    0    0    0  501  0.00000000000E+00  0.00000000000E+00 -0.21600580810E+04  0.21600580810E+04  0.50400001928E-02 0. -1.
    10030    2    1    2    0    0  0.00000000000E+00  0.00000000000E+00 -0.17892162829E+03  0.41411945337E+04  0.41373275452E+04 0.  0.
        2    1    3    3  502    0 -0.83611559699E+03 -0.18920003450E+04 -0.64634259541E+02  0.20695246276E+04  0.25500000920E-02 0.  1.
       -2    1    3    3    0  502  0.83611559699E+03  0.18920003450E+04 -0.11428736875E+03  0.20716699060E+04  0.25500000920E-02 0. -1.
</event>
<event>
 5   0  0.8528625E-08  0.3987896E+04  0.7818609E-02  0.8006993E-01
       -1   -1    0    0    0  501  0.00000000000E+00  0.00000000000E+00  0.16560722699E+04  0.16560722699E+04  0.50400001928E-02 0.  1.
        1   -1    0    0  501    0  0.00000000000E+00  0.00000000000E+00 -0.24007582079E+04  0.24007582079E+04  0.50400001928E-02 0. -1.
    10030    2    1    2    0    0  0.00000000000E+00  0.00000000000E+00 -0.74468593797E+03  0.40568304778E+04  0.39878962348E+04 0.  0.
        4    1    3    3  502    0  0.13164838308E+04  0.13015941191E+04 -0.11257875957E+04  0.21667201598E+04  0.12699999809E+01 0. -1.
       -4    1    3    3    0  502 -0.13164838308E+04 -0.13015941191E+04  0.38110165770E+03  0.18901103179E+04  0.12699999809E+01 0.  1.
</event>
<event>
 5   0  0.8528625E-08  0.3990506E+04  0.7818609E-02  0.8006464E-01
       -1   -1    0    0    0  501  0.00000000000E+00  0.00000000000E+00  0.15045525889E+04  0.15045525889E+04  0.50400001928E-02 0.  1.
        1   -1    0    0  501    0  0.00000000000E+00  0.00000000000E+00 -0.26459928033E+04  0.26459928033E+04  0.50400001928E-02 0. -1.
    10030    2    1    2    0    0  0.00000000000E+00  0.00000000000E+00 -0.11414402144E+04  0.41505453922E+04  0.39905063951E+04 0.  0.
        3    1    3    3  502    0 -0.47923573381E+03 -0.19268515099E+04 -0.36634099027E+03  0.20190664579E+04  0.10100000352E+00 0.  1.
       -3    1    3    3    0  502  0.47923573381E+03  0.19268515099E+04 -0.77509922415E+03  0.21314789343E+04  0.10100000352E+00 0. -1.
</event>
<event>
 5   0  0.2661693E-07  0.3891077E+04  0.7818609E-02  0.8026888E-01
        2   -1    0    0  501    0  0.00000000000E+00  0.00000000000E+00  0.20960776624E+04  0.20960776624E+04  0.25500000920E-02 0.  1.
       -2   -1    0    0    0  501  0.00000000000E+00  0.00000000000E+00 -0.18058106372E+04  0.18058106372E+04  0.25500000920E-02 0. -1.
    10030    2    1    2    0    0  0.00000000000E+00  0.00000000000E+00  0.29026702527E+03  0.39018882996E+04  0.38910766321E+04 0.  0.
        1    1    3    3  502    0  0.14618707569E+04  0.45332790020E+02  0.14316629333E+04  0.20466509049E+04  0.50400001928E-02 0.  1.
       -1    1    3    3    0  502 -0.14618707569E+04 -0.45332790020E+02 -0.11413959081E+04  0.18552373947E+04  0.50400001928E-02 0. -1.
</event>
<event>
 5   0  0.8528625E-08  0.3349123E+04  0.7818609E-02  0.8150507E-01
        1   -1    0    0  501    0  0.00000000000E+00  0.00000000000E+00  0.16115828055E+04  0.16115828055E+04  0.50400001928E-02 0.  1.
       -1   -1    0    0    0  501  0.00000000000E+00  0.00000000000E+00 -0.17400008359E+04  0.17400008359E+04  0.50400001928E-02 0. -1.
    10030    2    1    2    0    0  0.00000000000E+00  0.00000000000E+00 -0.12841803039E+03  0.33515836414E+04  0.33491225291E+04 0.  0.
        4    1    3    3  502    0  0.45364047069E+02 -0.13911313248E+04 -0.99594075676E+03  0.17114917071E+04  0.12699999809E+01 0. -1.
       -4    1    3    3    0  502 -0.45364047069E+02  0.13911313248E+04  0.86752272637E+03  0.16400919344E+04  0.12699999809E+01 0.  1.
</event>
<event>
 5   0  0.8528625E-08  0.3879788E+04  0.7818609E-02  0.8029246E-01
       -1   -1    0    0    0  501  0.00000000000E+00  0.00000000000E+00  0.15185712551E+04  0.15185712551E+04  0.50400001928E-02 0.  1.
        1   -1    0    0  501    0  0.00000000000E+00  0.00000000000E+00 -0.24781115352E+04  0.24781115352E+04  0.50400001928E-02 0. -1.
    10030    2    1    2    0    0  0.00000000000E+00  0.00000000000E+00 -0.95954028002E+03  0.39966827903E+04  0.38797881099E+04 0.  0.
        4    1    3    3  502    0 -0.19107865454E+04  0.49388298947E+02 -0.82087031313E+03  0.20802341479E+04  0.12699999809E+01 0. -1.
       -4    1    3    3    0  502  0.19107865454E+04 -0.49388298947E+02 -0.13866996689E+03  0.19164486424E+04  0.12699999809E+01 0.  1.
</event>
<event>
 5   0  0.8528625E-08  0.4084205E+04  0.7818609E-02  0.7987772E-01
        1   -1    0    0  501    0  0.00000000000E+00  0.00000000000E+00  0.13700925971E+04  0.13700925971E+04  0.50400001928E-02 0.  1.
       -1   -1    0    0    0  501  0.00000000000E+00  0.00000000000E+00 -0.30437229448E+04  0.30437229448E+04  0.50400001928E-02 0. -1.
    10030    2    1    2    0    0  0.00000000000E+00  0.00000000000E+00 -0.16736303477E+04  0.44138155420E+04  0.40842048305E+04 0.  0.
        5    1    3    3  502    0  0.39409938794E+03  0.57405820554E+03 -0.29114576590E+04  0.29935706006E+04  0.46999998093E+01 0. -1.
       -5    1    3    3    0  502 -0.39409938794E+03 -0.57405820554E+03  0.12378273113E+04  0.14202449413E+04  0.46999998093E+01 0.  1.
</event>
<event>
 5   0  0.2730801E-07  0.3985978E+04  0.7818609E-02  0.8007381E-01
        2   -1    0    0  501    0  0.00000000000E+00  0.00000000000E+00  0.16761066416E+04  0.16761066416E+04  0.25500000920E-02 0. -1.
       -2   -1    0    0    0  501  0.00000000000E+00  0.00000000000E+00 -0.23697801605E+04  0.23697801605E+04  0.25500000920E-02 0.  1.
    10030    2    1    2    0    0  0.00000000000E+00  0.00000000000E+00 -0.69367351891E+03  0.40458868021E+04  0.39859775545E+04 0.  0.
        2    1    3    3  502    0  0.45975997259E+03  0.43289151352E+03 -0.22655468650E+04  0.23519092016E+04  0.25500000920E-02 0.  1.
       -2    1    3    3    0  502 -0.45975997259E+03 -0.43289151352E+03  0.15718733461E+04  0.16939776005E+04  0.25500000920E-02 0. -1.
</event>
<event>
 5   0  0.2666978E-07  0.4041912E+04  0.7818609E-02  0.7996144E-01
        2   -1    0    0  501    0  0.00000000000E+00  0.00000000000E+00  0.32683691726E+04  0.32683691726E+04  0.25500000920E-02 0.  1.
       -2   -1    0    0    0  501  0.00000000000E+00  0.00000000000E+00 -0.12496335462E+04  0.12496335462E+04  0.25500000920E-02 0. -1.
    10030    2    1    2    0    0  0.00000000000E+00  0.00000000000E+00  0.20187356265E+04  0.45180027188E+04  0.40419122996E+04 0.  0.
        4    1    3    3  502    0 -0.46464414908E+03  0.38189846085E+03 -0.11472749420E+04  0.12953694551E+04  0.12699999809E+01 0. -1.
       -4    1    3    3    0  502  0.46464414908E+03 -0.38189846085E+03  0.31660105685E+04  0.32226332637E+04  0.12699999809E+01 0.  1.
</event>
<event>
 5   0  0.2704088E-07  0.3323224E+04  0.7818609E-02  0.8157011E-01
        2   -1    0    0  501    0  0.00000000000E+00  0.00000000000E+00  0.25226536832E+04  0.25226536832E+04  0.25500000920E-02 0.  1.
       -2   -1    0    0    0  501  0.00000000000E+00  0.00000000000E+00 -0.10944646059E+04  0.10944646059E+04  0.25500000920E-02 0. -1.
    10030    2    1    2    0    0  0.00000000000E+00  0.00000000000E+00  0.14281890773E+04  0.36171182891E+04  0.33232244397E+04 0.  0.
        5    1    3    3  502    0 -0.12207018622E+03 -0.41058324366E+03 -0.10333300606E+04  0.11186030728E+04  0.46999998093E+01 0. -1.
       -5    1    3    3    0  502  0.12207018622E+03  0.41058324366E+03  0.24615191378E+04  0.24985152163E+04  0.46999998093E+01 0.  1.
</event>
<event>
 5   0  0.2839279E-07  0.4089540E+04  0.7818609E-02  0.7986723E-01
       -2   -1    0    0    0  501  0.00000000000E+00  0.00000000000E+00  0.17482040292E+04  0.17482040292E+04  0.25500000920E-02 0. -1.
        2   -1    0    0  501    0  0.00000000000E+00  0.00000000000E+00 -0.23916455101E+04  0.23916455101E+04  0.25500000920E-02 0.  1.
    10030    2    1    2    0    0  0.00000000000E+00  0.00000000000E+00 -0.64344148092E+03  0.41398495393E+04  0.40895399825E+04 0.  0.
        3    1    3    3  502    0  0.32584203915E+03 -0.16290651170E+03 -0.23585299248E+04  0.23864984773E+04  0.10100000352E+00 0.  1.
       -3    1    3    3    0  502 -0.32584203915E+03  0.16290651170E+03  0.17150884438E+04  0.17533510619E+04  0.10100000352E+00 0. -1.
</event>
<event>
 5   0  0.2704088E-07  0.3240430E+04  0.7818609E-02  0.8178221E-01
       -2   -1    0    0    0  501  0.00000000000E+00  0.00000000000E+00  0.16853543107E+04  0.16853543107E+04  0.25500000920E-02 0.  1.
        2   -1    0    0  501    0  0.00000000000E+00  0.00000000000E+00 -0.15575934328E+04  0.15575934328E+04  0.25500000920E-02 0. -1.
    10030    2    1    2    0    0  0.00000000000E+00  0.00000000000E+00  0.12776087796E+03  0.32429477435E+04  0.32404300988E+04 0.  0.
        5    1    3    3  502    0  0.11491852559E+04 -0.32488235394E+03  0.11596738082E+04  0.16646443247E+04  0.46999998093E+01 0.  1.
       -5    1    3    3    0  502 -0.11491852559E+04  0.32488235394E+03 -0.10319129302E+04  0.15783034188E+04  0.46999998093E+01 0. -1.
</event>
<event>
 5   0  0.2730801E-07  0.4101924E+04  0.7818609E-02  0.7984295E-01
        2   -1    0    0  501    0  0.00000000000E+00  0.00000000000E+00  0.18620081289E+04  0.18620081289E+04  0.25500000920E-02 0.  1.
       -2   -1    0    0    0  501  0.00000000000E+00  0.00000000000E+00 -0.22590910999E+04  0.22590910999E+04  0.25500000920E-02 0. -1.
    10030    2    1    2    0    0  0.00000000000E+00  0.00000000000E+00 -0.39708297100E+03  0.41210992289E+04  0.41019244226E+04 0.  0.
        2    1    3    3  502    0 -0.47363498483E+02  0.14300719351E+04  0.12777138816E+04  0.19183070149E+04  0.25500000920E-02 0.  1.
       -2    1    3    3    0  502  0.47363498483E+02 -0.14300719351E+04 -0.16747968526E+04  0.22027922139E+04  0.25500000920E-02 0. -1.
</event>
<event>
 5   0  0.8583262E-08  0.3902197E+04  0.7818609E-02  0.8024572E-01
       -1   -1    0    0    0  501  0.00000000000E+00  0.00000000000E+00  0.18427949173E+04  0.18427949174E+04  0.50400001928E-02 0. -1.
        1   -1    0    0  501    0  0.00000000000E+00  0.00000000000E+00 -0.20657675696E+04  0.20657675696E+04  0.50400001928E-02 0.  1.
    10030    2    1    2    0    0  0.00000000000E+00  0.00000000000E+00 -0.22297265229E+03  0.39085624870E+04  0.39021973183E+04 0.  0.
        1    1    3    3  502    0  0.63002100863E+03 -0.81970252098E+03  0.15458871120E+04  0.18597326844E+04  0.50400001928E-02 0. -1.
       -1    1    3    3    0  502 -0.63002100863E+03  0.81970252098E+03 -0.17688597643E+04  0.20488298026E+04  0.50400001928E-02 0.  1.
</event>
<event>
 5   0  0.8528625E-08  0.3053606E+04  0.7818609E-02  0.8228587E-01
       -1   -1    0    0    0  501  0.00000000000E+00  0.00000000000E+00  0.13199532621E+04  0.13199532621E+04  0.50400001928E-02 0. -1.
        1   -1    0    0  501    0  0.00000000000E+00  0.00000000000E+00 -0.17660683099E+04  0.17660683099E+04  0.50400001928E-02 0.  1.
    10030    2    1    2    0    0  0.00000000000E+00  0.00000000000E+00 -0.44611504782E+03  0.30860215720E+04  0.30536061480E+04 0.  0.
        4    1    3    3  502    0 -0.31959644309E+03 -0.31373363550E+03  0.12520794383E+04  0.13297650970E+04  0.12699999809E+01 0. -1.
       -4    1    3    3    0  502  0.31959644309E+03  0.31373363550E+03 -0.16981944861E+04  0.17562564750E+04  0.12699999809E+01 0.  1.
</event>
<event>
 5   0  0.2666978E-07  0.4062790E+04  0.7818609E-02  0.7991998E-01
        2   -1    0    0  501    0  0.00000000000E+00  0.00000000000E+00  0.20362697068E+04  0.20362697068E+04  0.25500000920E-02 0.  1.
       -2   -1    0    0    0  501  0.00000000000E+00  0.00000000000E+00 -0.20265317382E+04  0.20265317382E+04  0.25500000920E-02 0. -1.
    10030    2    1    2    0    0  0.00000000000E+00  0.00000000000E+00  0.97379685444E+01  0.40628014450E+04  0.40627897747E+04 0.  0.
        4    1    3    3  502    0  0.12964923910E+03  0.14735779604E+04  0.13971095455E+04  0.20347377290E+04  0.12699999809E+01 0.  1.
       -4    1    3    3    0  502 -0.12964923910E+03 -0.14735779604E+04 -0.13873715770E+04  0.20280637160E+04  0.12699999809E+01 0. -1.
</event>
<event>
 5   0  0.2666978E-07  0.4017442E+04  0.7818609E-02  0.8001037E-01
       -2   -1    0    0    0  501  0.00000000000E+00  0.00000000000E+00  0.15170889453E+04  0.15170889453E+04  0.25500000920E-02 0.  1.
        2   -1    0    0  501    0  0.00000000000E+00  0.00000000000E+00 -0.26596721112E+04  0.26596721112E+04  0.25500000920E-02 0. -1.
    10030    2    1    2    0    0  0.00000000000E+00  0.00000000000E+00 -0.11425831660E+04  0.41767610565E+04  0.40174415530E+04 0.  0.
        4    1    3    3  502    0  0.82648716258E+03  0.35341761431E+03  0.12963248914E+04  0.15774805473E+04  0.12699999809E+01 0.  1.
       -4    1    3    3    0  502 -0.82648716258E+03 -0.35341761431E+03 -0.24389080574E+04  0.25992805092E+04  0.12699999809E+01 0. -1.
</event>
<event>
 5   0  0.8528625E-08  0.4014077E+04  0.7818609E-02  0.8001713E-01
       -1   -1    0    0    0  501  0.00000000000E+00  0.00000000000E+00  0.13634769888E+04  0.13634769888E+04  0.50400001928E-02 0. -1.
        1   -1    0    0  501    0  0.00000000000E+00  0.00000000000E+00 -0.29543617863E+04  0.29543617863E+04  0.50400001928E-02 0.  1.
    10030    2    1    2    0    0  0.00000000000E+00  0.00000000000E+00 -0.15908847975E+04  0.43178387751E+04  0.40140773845E+04 0.  0.
        2    1    3    3  502    0  0.12578194979E+04  0.86959350702E+03 -0.21937779015E+04  0.26741286876E+04  0.25500000920E-02 0.  1.
       -2    1    3    3    0  502 -0.12578194979E+04 -0.86959350702E+03  0.60289310401E+03  0.16437100875E+04  0.25500000920E-02 0. -1.
</event>
<event>
 5   0  0.8528625E-08  0.4039768E+04  0.7818609E-02  0.7996572E-01
        1   -1    0    0  501    0  0.00000000000E+00  0.00000000000E+00  0.21043765024E+04  0.21043765025E+04  0.50400001928E-02 0. -1.
       -1   -1    0    0    0  501  0.00000000000E+00  0.00000000000E+00 -0.19387842506E+04  0.19387842506E+04  0.50400001928E-02 0.  1.
    10030    2    1    2    0    0  0.00000000000E+00  0.00000000000E+00  0.16559225181E+03  0.40431607531E+04  0.40397683203E+04 0.  0.
        2    1    3    3  502    0 -0.19506132871E+04 -0.36414907220E+03 -0.29492678952E+03  0.20061103045E+04  0.25500000920E-02 0. -1.
       -2    1    3    3    0  502  0.19506132871E+04  0.36414907220E+03  0.46051904133E+03  0.20370504486E+04  0.25500000920E-02 0.  1.
</event>
<event>
 5   0  0.2730801E-07  0.4020626E+04  0.7818609E-02  0.8000399E-01
       -2   -1    0    0    0  501  0.00000000000E+00  0.00000000000E+00  0.15679284807E+04  0.15679284807E+04  0.25500000920E-02 0. -1.
        2   -1    0    0  501    0  0.00000000000E+00  0.00000000000E+00 -0.25775140277E+04  0.25775140278E+04  0.25500000920E-02 0.  1.
    10030    2    1    2    0    0  0.00000000000E+00  0.00000000000E+00 -0.10095855471E+04  0.41454425084E+04  0.40206256496E+04 0.  0.
        2    1    3    3  502    0  0.93346001723E+03  0.74951964248E+03 -0.21699307664E+04  0.24782507599E+04  0.25500000920E-02 0.  1.
       -2    1    3    3    0  502 -0.93346001723E+03 -0.74951964248E+03  0.11603452193E+04  0.16671917485E+04  0.25500000920E-02 0. -1.
</event>
<event>
 5   0  0.2839279E-07  0.3200005E+04  0.7818609E-02  0.8188816E-01
       -2   -1    0    0    0  501  0.00000000000E+00  0.00000000000E+00  0.22408745497E+04  0.22408745497E+04  0.25500000920E-02 0. -1.
        2   -1    0    0  501    0  0.00000000000E+00  0.00000000000E+00 -0.11424145367E+04  0.11424145367E+04  0.25500000920E-02 0.  1.
    10030    2    1    2    0    0  0.00000000000E+00  0.00000000000E+00  0.10984600130E+04  0.33832890864E+04  0.32000047878E+04 0.  0.
        3    1    3    3  502    0  0.84609471694E+03  0.69929653463E+03 -0.68153934829E+03  0.12920479120E+04  0.10100000352E+00 0.  1.
       -3    1    3    3    0  502 -0.84609471694E+03 -0.69929653463E+03  0.17799993613E+04  0.20912411745E+04  0.10100000352E+00 0. -1.
</event>
<event>
 5   0  0.2730801E-07  0.4013286E+04  0.7818609E-02  0.8001872E-01
       -2   -1    0    0    0  501  0.00000000000E+00  0.00000000000E+00  0.29458118057E+04  0.29458118057E+04  0.25500000920E-02 0.  1.
        2   -1    0    0  501    0  0.00000000000E+00  0.00000000000E+00 -0.13668949326E+04  0.13668949326E+04  0.25500000920E-02 0. -1.
    10030    2    1    2    0    0  0.00000000000E+00  0.00000000000E+00  0.15789168730E+04  0.43127067383E+04  0.40132855516E+04 0.  0.
        2    1    3    3  502    0  0.88416941882E+03  0.50839724241E+03  0.26465070219E+04  0.28362338997E+04  0.25500000920E-02 0.  1.
       -2    1    3    3    0  502 -0.88416941882E+03 -0.50839724241E+03 -0.10675901488E+04  0.14764728386E+04  0.25500000920E-02 0. -1.
</event>
<event>
 5   0  0.2661693E-07  0.3958935E+04  0.7818609E-02  0.8012882E-01
       -2   -1    0    0    0  501  0.00000000000E+00  0.00000000000E+00  0.14596837259E+04  0.14596837259E+04  0.25500000920E-02 0. -1.
        2   -1    0    0  501    0  0.00000000000E+00  0.00000000000E+00 -0.26843430809E+04  0.26843430809E+04  0.25500000920E-02 0.  1.
    10030    2    1    2    0    0  0.00000000000E+00  0.00000000000E+00 -0.12246593550E+04  0.41440268067E+04  0.39589351648E+04 0.  0.
        1    1    3    3  502    0  0.94726485111E+03  0.51915511945E+03  0.11239740726E+04  0.15588939836E+04  0.50400001928E-02 0. -1.
       -1    1    3    3    0  502 -0.94726485111E+03 -0.51915511945E+03 -0.23486334276E+04  0.25851328232E+04  0.50400001928E-02 0.  1.
</event>
<event>
 5   0  0.8528625E-08  0.4005979E+04  0.7818609E-02  0.8003342E-01
        1   -1    0    0  501    0  0.00000000000E+00  0.00000000000E+00  0.14352631077E+04  0.14352631077E+04  0.50400001928E-02 0.  1.
       -1   -1    0    0    0  501  0.00000000000E+00  0.00000000000E+00 -0.27952826755E+04  0.27952826756E+04  0.50400001928E-02 0. -1.
    10030    2    1    2    0    0  0.00000000000E+00  0.00000000000E+00 -0.13600195679E+04  0.42305457832E+04  0.40059785820E+04 0.  0.
        5    1    3    3  502    0  0.80077305691E+03 -0.17943394200E+04 -0.10904518183E+04  0.22472202163E+04  0.46999998093E+01 0. -1.
       -5    1    3    3    0  502 -0.80077305691E+03  0.17943394200E+04 -0.26956774955E+03  0.19833255669E+04  0.46999998093E+01 0.  1.
</event>
<event>
 5   0  0.2704088E-07  0.3004144E+04  0.7818609E-02  0.8242549E-01
       -2   -1    0    0    0  501  0.00000000000E+00  0.00000000000E+00  0.15821050323E+04  0.15821050323E+04  0.25500000920E-02 0.  1.
        2   -1    0    0  501    0  0.00000000000E+00  0.00000000000E+00 -0.14260873145E+04  0.14260873145E+04  0.25500000920E-02 0. -1.
    10030    2    1    2    0    0  0.00000000000E+00  0.00000000000E+00  0.15601771789E+03  0.30081923468E+04  0.30041437494E+04 0.  0.
        5    1    3    3  502    0  0.49192489349E+03  0.99198487036E+02  0.14956736579E+04  0.15776223317E+04  0.46999998093E+01 0.  1.
       -5    1    3    3    0  502 -0.49192489349E+03 -0.99198487036E+02 -0.13396559400E+04  0.14305700151E+04  0.46999998093E+01 0. -1.
</event>
<event>
 5   0  0.2666978E-07  0.3990831E+04  0.7818609E-02  0.8006399E-01
       -2   -1    0    0    0  501  0.00000000000E+00  0.00000000000E+00  0.31826728172E+04  0.31826728172E+04  0.25500000920E-02 0. -1.
        2   -1    0    0  501    0  0.00000000000E+00  0.00000000000E+00 -0.12510500780E+04  0.12510500780E+04  0.25500000920E-02 0.  1.
    10030    2    1    2    0    0  0.00000000000E+00  0.00000000000E+00  0.19316227392E+04  0.44337228952E+04  0.39908310294E+04 0.  0.
        4    1    3    3  502    0  0.14929999791E+04  0.11490184339E+03 -0.49942839326E+03  0.15785061622E+04  0.12699999809E+01 0.  1.
       -4    1    3    3    0  502 -0.14929999791E+04 -0.11490184339E+03  0.24310511324E+04  0.28552167330E+04  0.12699999809E+01 0. -1.
</event>
<event>
 5   0  0.2730801E-07  0.3925247E+04  0.7818609E-02  0.8019799E-01
        2   -1    0    0  501    0  0.00000000000E+00  0.00000000000E+00  0.22318775156E+04  0.22318775156E+04  0.25500000920E-02 0. -1.
       -2   -1    0    0    0  501  0.00000000000E+00  0.00000000000E+00 -0.17258521082E+04  0.17258521082E+04  0.25500000920E-02 0.  1.
    10030    2    1    2    0    0  0.00000000000E+00  0.00000000000E+00  0.50602540737E+03  0.39577296238E+04  0.39252467518E+04 0.  0.
        2    1    3    3  502    0 -0.45170134529E+03  0.19082219975E+04  0.33458472660E+03  0.19892944067E+04  0.25500000920E-02 0.  1.
       -2    1    3    3    0  502  0.45170134529E+03 -0.19082219975E+04  0.17144068077E+03  0.19684352172E+04  0.25500000920E-02 0. -1.
</event>
<event>
 5   0  0.8528625E-08  0.3994068E+04  0.7818609E-02  0.8005744E-01
       -1   -1    0    0    0  501  0.00000000000E+00  0.00000000000E+00  0.17585459053E+04  0.17585459053E+04  0.50400001928E-02 0. -1.
        1   -1    0    0  501    0  0.00000000000E+00  0.00000000000E+00 -0.22678644963E+04  0.22678644963E+04  0.50400001928E-02 0.  1.
    10030    2    1    2    0    0  0.00000000000E+00  0.00000000000E+00 -0.50931859104E+03  0.40264104016E+04  0.39940675126E+04 0.  0.
        5    1    3    3  502    0  0.66238312350E+03  0.81631671668E+03 -0.19663478998E+04  0.22297243187E+04  0.46999998093E+01 0.  1.
       -5    1    3    3    0  502 -0.66238312350E+03 -0.81631671668E+03  0.14570293087E+04  0.17966860830E+04  0.46999998093E+01 0. -1.
</event>
<event>
 5   0  0.8528625E-08  0.3786504E+04  0.7818609E-02  0.8049057E-01
       -1   -1    0    0    0  501  0.00000000000E+00  0.00000000000E+00  0.12003712769E+04  0.12003712769E+04  0.50400001928E-02 0. -1.
        1   -1    0    0  501    0  0.00000000000E+00  0.00000000000E+00 -0.29860790932E+04  0.29860790932E+04  0.50400001928E-02 0.  1.
    10030    2    1    2    0    0  0.00000000000E+00  0.00000000000E+00 -0.17857078163E+04  0.41864503701E+04  0.37865042316E+04 0.  0.
        5    1    3    3  502    0 -0.67314703475E+03  0.11261628870E+04 -0.24019444333E+04  0.27369196058E+04  0.46999998093E+01 0.  1.
       -5    1    3    3    0  502  0.67314703475E+03 -0.11261628870E+04  0.61623661701E+03  0.14495307643E+04  0.46999998093E+01 0. -1.
</event>
<event>
 5   0  0.2661693E-07  0.3968111E+04  0.7818609E-02  0.8011011E-01
        2   -1    0    0  501    0  0.00000000000E+00  0.00000000000E+00  0.29325556638E+04  0.29325556638E+04  0.25500000920E-02 0. -1.
       -2   -1    0    0    0  501  0.00000000000E+00  0.00000000000E+00 -0.13423364274E+04  0.13423364274E+04  0.25500000920E-02 0.  1.
    10030    2    1    2    0    0  0.00000000000E+00  0.00000000000E+00  0.15902192364E+04  0.42748920911E+04  0.39681110331E+04 0.  0.
        1    1    3    3  502    0 -0.11514493941E+04 -0.16112665439E+04  0.92465924002E+03  0.21856372739E+04  0.50400001928E-02 0.  1.
       -1    1    3    3    0  502  0.11514493941E+04  0.16112665439E+04  0.66555999636E+03  0.20892548173E+04  0.50400001928E-02 0. -1.
</event>
<event>
 5   0  0.2704088E-07  0.3956284E+04  0.7818609E-02  0.8013424E-01
        2   -1    0    0  501    0  0.00000000000E+00  0.00000000000E+00  0.25484172987E+04  0.25484172987E+04  0.25500000920E-02 0.  1.
       -2   -1    0    0    0  501  0.00000000000E+00  0.00000000000E+00 -0.15354807264E+04  0.15354807264E+04  0.25500000920E-02 0. -1.
    10030    2    1    2    0    0  0.00000000000E+00  0.00000000000E+00  0.10129365723E+04  0.40838980251E+04  0.39562839356E+04 0.  0.
        5    1    3    3  502    0 -0.13626768534E+04 -0.97966175417E+03  0.15873336313E+04  0.23100379881E+04  0.46999998093E+01 0.  1.
       -5    1    3    3    0  502  0.13626768534E+04  0.97966175417E+03 -0.57439705892E+03  0.17738600370E+04  0.46999998093E+01 0. -1.
</event>
<event>
 5   0  0.2704088E-07  0.3899101E+04  0.7818609E-02  0.8025216E-01
       -2   -1    0    0    0  501  0.00000000000E+00  0.00000000000E+00  0.14222855661E+04  0.14222855661E+04  0.25500000920E-02 0.  1.
        2   -1    0    0  501    0  0.00000000000E+00  0.00000000000E+00 -0.26722814940E+04  0.26722814940E+04  0.25500000920E-02 0. -1.
    10030    2    1    2    0    0  0.00000000000E+00  0.00000000000E+00 -0.12499959279E+04  0.40945670602E+04  0.38991011260E+04 0.  0.
        5    1    3    3  502    0 -0.20224955759E+03 -0.47962611211E+03 -0.25979533286E+04  0.26495904738E+04  0.46999998093E+01 0. -1.
       -5    1    3    3    0  502  0.20224955759E+03  0.47962611211E+03  0.13479574008E+04  0.14449765864E+04  0.46999998093E+01 0.  1.
</event>
<event>
 5   0  0.8528625E-08  0.3970450E+04  0.7818609E-02  0.8010534E-01
       -1   -1    0    0    0  501  0.00000000000E+00  0.00000000000E+00  0.27419540941E+04  0.27419540941E+04  0.50400001928E-02 0. -1.
        1   -1    0    0  501    0  0.00000000000E+00  0.00000000000E+00 -0.14373391130E+04  0.14373391130E+04  0.50400001928E-02 0.  1.
    10030    2    1    2    0    0  0.00000000000E+00  0.00000000000E+00  0.13046149812E+04  0.41792932071E+04  0.39704497808E+04 0.  0.
        4    1    3    3  502    0  0.18575369979E+04  0.30871111055E+03  0.13141657493E+04  0.22962533567E+04  0.12699999809E+01 0. -1.
       -4    1    3    3    0  502 -0.18575369979E+04 -0.30871111055E+03 -0.95507681765E+01  0.18830398505E+04  0.12699999809E+01 0.  1.
</event>
<event>
 5   0  0.8528625E-08  0.2880062E+04  0.7818609E-02  0.8278834E-01
        1   -1    0    0  501    0  0.00000000000E+00  0.00000000000E+00  0.13046404249E+04  0.13046404249E+04  0.50400001928E-02 0.  1.
       -1   -1    0    0    0  501  0.00000000000E+00  0.00000000000E+00 -0.15894719764E+04  0.15894719764E+04  0.50400001928E-02 0. -1.
    10030    2    1    2    0    0  0.00000000000E+00  0.00000000000E+00 -0.28483155143E+03  0.28941124013E+04  0.28800620790E+04 0.  0.
        4    1    3    3  502    0  0.10622983802E+03  0.96380757400E+03 -0.12122588655E+04  0.15523475732E+04  0.12699999809E+01 0. -1.
       -4    1    3    3    0  502 -0.10622983802E+03 -0.96380757400E+03  0.92742731405E+03  0.13417648281E+04  0.12699999809E+01 0.  1.
</event>
<event>
 5   0  0.8528625E-08  0.4034565E+04  0.7818609E-02  0.7997610E-01
       -1   -1    0    0    0  501  0.00000000000E+00  0.00000000000E+00  0.17586233844E+04  0.17586233844E+04  0.50400001928E-02 0.  1.
        1   -1    0    0  501    0  0.00000000000E+00  0.00000000000E+00 -0.23139852853E+04  0.23139852853E+04  0.50400001928E-02 0. -1.
    10030    2    1    2    0    0  0.00000000000E+00  0.00000000000E+00 -0.55536190090E+03  0.40726086696E+04  0.40345649747E+04 0.  0.
        2    1    3    3  502    0 -0.13678694923E+04 -0.49704460493E+03 -0.16877452547E+04  0.22285879682E+04  0.25500000920E-02 0. -1.
       -2    1    3    3    0  502  0.13678694923E+04  0.49704460493E+03  0.11323833538E+04  0.18440207014E+04  0.25500000920E-02 0.  1.
</event>
<event>
 5   0  0.2661693E-07  0.3998516E+04  0.7818609E-02  0.8004846E-01
        2   -1    0    0  501    0  0.00000000000E+00  0.00000000000E+00  0.23723193080E+04  0.23723193080E+04  0.25500000920E-02 0. -1.
       -2   -1    0    0    0  501  0.00000000000E+00  0.00000000000E+00 -0.16848631816E+04  0.16848631816E+04  0.25500000920E-02 0.  1.
    10030    2    1    2    0    0  0.00000000000E+00  0.00000000000E+00  0.68745612635E+03  0.40571824896E+04  0.39985164534E+04 0.  0.
        1    1    3    3  502    0  0.89478383888E+03 -0.14538087565E+04 -0.71213326882E+03  0.18496842464E+04  0.50400001928E-02 0.  1.
       -1    1    3    3    0  502 -0.89478383888E+03  0.14538087565E+04  0.13995893952E+04  0.22074982432E+04  0.50400001928E-02 0. -1.
</event>
<event>
 5   0  0.2704088E-07  0.3986793E+04  0.7818609E-02  0.8007216E-01
        2   -1    0    0  501    0  0.00000000000E+00  0.00000000000E+00  0.21570654255E+04  0.21570654255E+04  0.25500000920E-02 0. -1.
       -2   -1    0    0    0  501  0.00000000000E+00  0.00000000000E+00 -0.18421462655E+04  0.18421462655E+04  0.25500000920E-02 0.  1.
    10030    2    1    2    0    0  0.00000000000E+00  0.00000000000E+00  0.31491915999E+03  0.39992116909E+04  0.39867932065E+04 0.  0.
        5    1    3    3  502    0  0.13153449668E+04 -0.14478071651E+04  0.54249104146E+03  0.20299252668E+04  0.46999998093E+01 0. -1.
       -5    1    3    3    0  502 -0.13153449668E+04  0.14478071651E+04 -0.22757188147E+03  0.19692864241E+04  0.46999998093E+01 0.  1.
</event>
<event>
 5   0  0.2839279E-07  0.3793592E+04  0.7818609E-02  0.8047531E-01
       -2   -1    0    0    0  501  0.00000000000E+00  0.00000000000E+00  0.14825385298E+04  0.14825385298E+04  0.25500000920E-02 0. -1.
        2   -1    0    0  501    0  0.00000000000E+00  0.00000000000E+00 -0.24268066815E+04  0.24268066815E+04  0.25500000920E-02 0.  1.
    10030    2    1    2    0    0  0.00000000000E+00  0.00000000000E+00 -0.94426815167E+03  0.39093452113E+04  0.37935916543E+04 0.  0.
        3    1    3    3  502    0 -0.62384305080E+03  0.14364666301E+04 -0.15749359579E+04  0.22210447572E+04  0.10100000352E+00 0.  1.
       -3    1    3    3    0  502  0.62384305080E+03 -0.14364666301E+04  0.63066780625E+03  0.16883004542E+04  0.10100000352E+00 0. -1.
</event>
<event>
 5   0  0.8583262E-08  0.3978191E+04  0.7818609E-02  0.8008961E-01
        1   -1    0    0  501    0  0.00000000000E+00  0.00000000000E+00  0.22327679536E+04  0.22327679536E+04  0.50400001928E-02 0. -1.
       -1   -1    0    0    0  501  0.00000000000E+00  0.00000000000E+00 -0.17720158934E+04  0.17720158934E+04  0.50400001928E-02 0.  1.
    10030    2    1    2    0    0  0.00000000000E+00  0.00000000000E+00  0.46075206014E+03  0.40047838470E+04  0.39781906943E+04 0.  0.
        1    1    3    3  502    0  0.47980875408E+03 -0.16803486011E+03 -0.17055099022E+04  0.17796674356E+04  0.50400001928E-02 0.  1.
       -1    1    3    3    0  502 -0.47980875408E+03  0.16803486011E+03  0.21662619624E+04  0.22251164114E+04  0.50400001928E-02 0. -1.
</event>
<event>
 5   0  0.2661693E-07  0.3947073E+04  0.7818609E-02  0.8015310E-01
       -2   -1    0    0    0  501  0.00000000000E+00  0.00000000000E+00  0.19154092291E+04  0.19154092291E+04  0.25500000920E-02 0.  1.
        2   -1    0    0  501    0  0.00000000000E+00  0.00000000000E+00 -0.20334278019E+04  0.20334278019E+04  0.25500000920E-02 0. -1.
    10030    2    1    2    0    0  0.00000000000E+00  0.00000000000E+00 -0.11801857273E+03  0.39488370310E+04  0.39470730312E+04 0.  0.
        1    1    3    3  502    0  0.23381152301E+02 -0.45151417585E+03  0.18628996593E+04  0.19169785784E+04  0.50400001928E-02 0.  1.
       -1    1    3    3    0  502 -0.23381152301E+02  0.45151417585E+03 -0.19809182321E+04  0.20318584526E+04  0.50400001928E-02 0. -1.
</event>
<event>
 5   0  0.8528625E-08  0.3977506E+04  0.7818609E-02  0.8009100E-01
        1   -1    0    0  501    0  0.00000000000E+00  0.00000000000E+00  0.18157213930E+04  0.18157213930E+04  0.50400001928E-02 0. -1.
       -1   -1    0    0    0  501  0.00000000000E+00  0.00000000000E+00 -0.21782737907E+04  0.21782737907E+04  0.50400001928E-02 0.  1.
    10030    2    1    2    0    0  0.00000000000E+00  0.00000000000E+00 -0.36255239772E+03  0.39939951837E+04  0.39775059128E+04 0.  0.
        4    1    3    3  502    0  0.14055617299E+04  0.24208269888E+02  0.12313061416E+04  0.18687713194E+04  0.12699999809E+01 0. -1.
       -4    1    3    3    0  502 -0.14055617299E+04 -0.24208269888E+02 -0.15938585393E+04  0.21252238643E+04  0.12699999809E+01 0.  1.
</event>
<event>
 5   0  0.2839279E-07  0.4032535E+04  0.7818609E-02  0.7998015E-01
       -2   -1    0    0    0  501  0.00000000000E+00  0.00000000000E+00  0.13786488013E+04  0.13786488013E+04  0.25500000920E-02 0.  1.
        2   -1    0    0  501    0  0.00000000000E+00  0.00000000000E+00 -0.29487817694E+04  0.29487817694E+04  0.25500000920E-02 0. -1.
    10030    2    1    2    0    0  0.00000000000E+00  0.00000000000E+00 -0.15701329682E+04  0.43274305707E+04  0.40325349108E+04 0.  0.
        3    1    3    3  502    0  0.28139952657E+02 -0.63163182488E+03  0.12695158541E+04  0.14182457943E+04  0.10100000352E+00 0.  1.
       -3    1    3    3    0  502 -0.28139952657E+02  0.63163182488E+03 -0.28396488223E+04  0.29091847764E+04  0.10100000352E+00 0. -1.
</event>
<event>
 5   0  0.2666978E-07  0.4003722E+04  0.7818609E-02  0.8003796E-01
        2   -1    0    0  501    0  0.00000000000E+00  0.00000000000E+00  0.23786669083E+04  0.23786669083E+04  0.25500000920E-02 0.  1.
       -2   -1    0    0    0  501  0.00000000000E+00  0.00000000000E+00 -0.16847452020E+04  0.16847452020E+04  0.25500000920E-02 0. -1.
    10030    2    1    2    0    0  0.00000000000E+00  0.00000000000E+00  0.69392170629E+03  0.40634121104E+04  0.40037220988E+04 0.  0.
        4    1    3    3  502    0  0.20133081225E+02 -0.35836144067E+03  0.23457428898E+04  0.23730443698E+04  0.12699999809E+01 0.  1.
       -4    1    3    3    0  502 -0.20133081225E+02  0.35836144067E+03 -0.16518211835E+04  0.16903677406E+04  0.12699999809E+01 0. -1.
</event>
<event>
 5   0  0.8583262E-08  0.3981845E+04  0.7818609E-02  0.8008219E-01
       -1   -1    0    0    0  501  0.00000000000E+00  0.00000000000E+00  0.19947643287E+04  0.19947643287E+04  0.50400001928E-02 0. -1.
        1   -1    0    0  501    0  0.00000000000E+00  0.00000000000E+00 -0.19870883390E+04  0.19870883390E+04  0.50400001928E-02 0.  1.
    10030    2    1    2    0    0  0.00000000000E+00  0.00000000000E+00  0.76759896675E+01  0.39818526677E+04  0.39818452691E+04 0.  0.
        1    1    3    3  502    0  0.12353121204E+04 -0.50630384430E+02 -0.15566819556E+04  0.19879180520E+04  0.50400001928E-02 0.  1.
       -1    1    3    3    0  502 -0.12353121204E+04  0.50630384430E+02  0.15643579453E+04  0.19939346157E+04  0.50400001928E-02 0. -1.
</event>
<event>
 5   0  0.2661693E-07  0.4032119E+04  0.7818609E-02  0.7998098E-01
       -2   -1    0    0    0  501  0.00000000000E+00  0.00000000000E+00  0.14813419057E+04  0.14813419057E+04  0.25500000920E-02 0.  1.
        2   -1    0    0  501    0  0.00000000000E+00  0.00000000000E+00 -0.27437938103E+04  0.27437938103E+04  0.25500000920E-02 0. -1.
    10030    2    1    2    0    0  0.00000000000E+00  0.00000000000E+00 -0.12624519046E+04  0.42251357160E+04  0.40321194188E+04 0.  0.
        1    1    3    3  502    0 -0.15616457534E+04  0.67744517627E+03 -0.17631325024E+04  0.24507765396E+04  0.50400001928E-02 0. -1.
       -1    1    3    3    0  502  0.15616457534E+04 -0.67744517627E+03  0.50068059784E+03  0.17743591764E+04  0.50400001928E-02 0.  1.
</event>
<event>
 5   0  0.8528625E-08  0.3969075E+04  0.7818609E-02  0.8010814E-01
        1   -1    0    0  501    0  0.00000000000E+00  0.00000000000E+00  0.29347142660E+04  0.29347142660E+04  0.50400001928E-02 0.  1.
       -1   -1    0    0    0  501  0.00000000000E+00  0.00000000000E+00 -0.13420009348E+04  0.13420009348E+04  0.50400001928E-02 0. -1.
    10030    2    1    2    0    0  0.00000000000E+00  0.00000000000E+00  0.15927133311E+04  0.42767152008E+04  0.39690751005E+04 0.  0.
        5    1    3    3  502    0 -0.16067909234E+04 -0.11083315963E+04  0.11821459136E+04  0.22820313429E+04  0.46999998093E+01 0. -1.
       -5    1    3    3    0  502  0.16067909234E+04  0.11083315963E+04  0.41056741750E+03  0.19946838579E+04  0.46999998093E+01 0.  1.
</event>
<event>
 5   0  0.8528625E-08  0.3997142E+04  0.7818609E-02  0.8005123E-01
       -1   -1    0    0    0  501  0.00000000000E+00  0.00000000000E+00  0.27408333029E+04  0.27408333029E+04  0.50400001928E-02 0. -1.
        1   -1    0    0  501    0  0.00000000000E+00  0.00000000000E+00 -0.14573251152E+04  0.14573251152E+04  0.50400001928E-02 0.  1.
    10030    2    1    2    0    0  0.00000000000E+00  0.00000000000E+00  0.12835081877E+04  0.41981584181E+04  0.39971415831E+04 0.  0.
        5    1    3    3  502    0 -0.78856609371E+03  0.11781760452E+04  0.21212576178E+04  0.25514096591E+04  0.46999998093E+01 0.  1.
       -5    1    3    3    0  502  0.78856609371E+03 -0.11781760452E+04 -0.83774943011E+03  0.16467487590E+04  0.46999998093E+01 0. -1.
</event>
<event>
 5   0  0.8583262E-08  0.3936396E+04  0.7818609E-02  0.8017502E-01
       -1   -1    0    0    0  501  0.00000000000E+00  0.00000000000E+00  0.22834314846E+04  0.22834314846E+04  0.50400001928E-02 0. -1.
        1   -1    0    0  501    0  0.00000000000E+00  0.00000000000E+00 -0.16964832634E+04  0.16964832634E+04  0.50400001928E-02 0.  1.
    10030    2    1    2    0    0  0.00000000000E+00  0.00000000000E+00  0.58694822121E+03  0.39799147480E+04  0.39363959642E+04 0.  0.
        1    1    3    3  502    0  0.11543240863E+03  0.16829958947E+04  0.13185883890E+04  0.21411387536E+04  0.50400001928E-02 0. -1.
       -1    1    3    3    0  502 -0.11543240863E+03 -0.16829958947E+04 -0.73164016777E+03  0.18387759944E+04  0.50400001928E-02 0.  1.
</event>
<event>
 5   0  0.8528625E-08  0.3401880E+04  0.7818609E-02  0.8137445E-01
        1   -1    0    0  501    0  0.00000000000E+00  0.00000000000E+00  0.25177039787E+04  0.25177039787E+04  0.50400001928E-02 0.  1.
       -1   -1    0    0    0  501  0.00000000000E+00  0.00000000000E+00 -0.11491413435E+04  0.11491413435E+04  0.50400001928E-02 0. -1.
    10030    2    1    2    0    0  0.00000000000E+00  0.00000000000E+00  0.13685626353E+04  0.36668453222E+04  0.34018804992E+04 0.  0.
        3    1    3    3  502    0 -0.12393177450E+04 -0.91777090043E+03 -0.89238017460E+02  0.15447250023E+04  0.10100000352E+00 0. -1.
       -3    1    3    3    0  502  0.12393177450E+04  0.91777090043E+03  0.14578006527E+04  0.21221203199E+04  0.10100000352E+00 0.  1.
</event>
<event>
 5   0  0.8528625E-08  0.3773380E+04  0.7818609E-02  0.8051892E-01
        1   -1    0    0  501    0  0.00000000000E+00  0.00000000000E+00  0.29006461893E+04  0.29006461893E+04  0.50400001928E-02 0.  1.
       -1   -1    0    0    0  501  0.00000000000E+00  0.00000000000E+00 -0.12271745825E+04  0.12271745825E+04  0.50400001928E-02 0. -1.
    10030    2    1    2    0    0  0.00000000000E+00  0.00000000000E+00  0.16734716068E+04  0.41278207719E+04  0.37733800638E+04 0.  0.
        3    1    3    3  502    0 -0.58559474434E+02 -0.17748713681E+04  0.15337701800E+04  0.23464970830E+04  0.10100000352E+00 0.  1.
       -3    1    3    3    0  502  0.58559474434E+02  0.17748713681E+04  0.13970142683E+03  0.17813236888E+04  0.10100000352E+00 0. -1.
</event>
<event>
 5   0  0.8528625E-08  0.4021362E+04  0.7818609E-02  0.8000251E-01
        1   -1    0    0  501    0  0.00000000000E+00  0.00000000000E+00  0.20394596472E+04  0.20394596472E+04  0.50400001928E-02 0. -1.
       -1   -1    0    0    0  501  0.00000000000E+00  0.00000000000E+00 -0.19823080668E+04  0.19823080668E+04  0.50400001928E-02 0.  1.
    10030    2    1    2    0    0  0.00000000000E+00  0.00000000000E+00  0.57151580371E+02  0.40217677140E+04  0.40213616155E+04 0.  0.
        4    1    3    3  502    0  0.21781244781E+03 -0.14448318441E+04 -0.13528147149E+04  0.19912535213E+04  0.12699999809E+01 0.  1.
       -4    1    3    3    0  502 -0.21781244781E+03  0.14448318441E+04  0.14099662953E+04  0.20305141927E+04  0.12699999809E+01 0. -1.
</event>
<event>
 5   0  0.8528625E-08  0.4068907E+04  0.7818609E-02  0.7990788E-01
        1   -1    0    0  501    0  0.00000000000E+00  0.00000000000E+00  0.24532325990E+04  0.24532325990E+04  0.50400001928E-02 0.  1.
       -1   -1    0    0    0  501  0.00000000000E+00  0.00000000000E+00 -0.16871620401E+04  0.16871620401E+04  0.50400001928E-02 0. -1.
    10030    2    1    2    0    0  0.00000000000E+00  0.00000000000E+00  0.76607055892E+03  0.41403946391E+04  0.40689069375E+04 0.  0.
        3    1    3    3  502    0  0.11194926674E+04 -0.12518919238E+04 -0.78539998150E+03  0.18540092671E+04  0.10100000352E+00 0. -1.
       -3    1    3    3    0  502 -0.11194926674E+04  0.12518919238E+04  0.15514705404E+04  0.22863853720E+04  0.10100000352E+00 0.  1.
</event>
<event>
 5   0  0.8583262E-08  0.3484884E+04  0.7818609E-02  0.8117382E-01
       -1   -1    0    0    0  501  0.00000000000E+00  0.00000000000E+00  0.14687069897E+04  0.14687069897E+04  0.50400001928E-02 0. -1.
        1   -1    0    0  501    0  0.00000000000E+00  0.00000000000E+00 -0.20671948220E+04  0.20671948221E+04  0.50400001928E-02 0.  1.
    10030    2    1    2    0    0  0.00000000000E+00  0.00000000000E+00 -0.59848783234E+03  0.35359018118E+04  0.34848836332E+04 0.  0.
        1    1    3    3  502    0  0.21158678741E+03 -0.16737047596E+04 -0.74156974837E+03  0.18428191128E+04  0.50400001928E-02 0.  1.
       -1    1    3    3    0  502 -0.21158678741E+03  0.16737047596E+04  0.14308191603E+03  0.16930826990E+04  0.50400001928E-02 0. -1.
</event>
<event>
 5   0  0.8528625E-08  0.4010436E+04  0.7818609E-02  0.8002445E-01
       -1   -1    0    0    0  501  0.00000000000E+00  0.00000000000E+00  0.25892204458E+04  0.25892204459E+04  0.50400001928E-02 0.  1.
        1   -1    0    0  501    0  0.00000000000E+00  0.00000000000E+00 -0.15529380450E+04  0.15529380450E+04  0.50400001928E-02 0. -1.
    10030    2    1    2    0    0  0.00000000000E+00  0.00000000000E+00  0.10362824009E+04  0.41421584909E+04  0.40104358552E+04 0.  0.
        5    1    3    3  502    0  0.84834921012E+02  0.89342623811E+03  0.23702109188E+04  0.25344287910E+04  0.46999998093E+01 0.  1.
       -5    1    3    3    0  502 -0.84834921012E+02 -0.89342623811E+03 -0.13339285180E+04  0.16077296999E+04  0.46999998093E+01 0. -1.
</event>
<event>
 5   0  0.2839279E-07  0.3941319E+04  0.7818609E-02  0.8016490E-01
        2   -1    0    0  501    0  0.00000000000E+00  0.00000000000E+00  0.15942567392E+04  0.15942567392E+04  0.25500000920E-02 0. -1.
       -2   -1    0    0    0  501  0.00000000000E+00  0.00000000000E+00 -0.24359300771E+04  0.24359300771E+04  0.25500000920E-02 0.  1.
    10030    2    1    2    0    0  0.00000000000E+00  0.00000000000E+00 -0.84167333798E+03  0.40301868163E+04  0.39413185315E+04 0.  0.
        3    1    3    3  502    0 -0.17744079782E+04  0.72924307057E+03 -0.88175379023E+03  0.21113523831E+04  0.10100000352E+00 0. -1.
       -3    1    3    3    0  502  0.17744079782E+04 -0.72924307057E+03  0.40080452250E+02  0.19188344332E+04  0.10100000352E+00 0.  1.
</event>
<event>
 5   0  0.2730801E-07  0.4002321E+04  0.7818609E-02  0.8004078E-01
        2   -1    0    0  501    0  0.00000000000E+00  0.00000000000E+00  0.14468843446E+04  0.14468843446E+04  0.25500000920E-02 0.  1.
       -2   -1    0    0    0  501  0.00000000000E+00  0.00000000000E+00 -0.27677708422E+04  0.27677708422E+04  0.25500000920E-02 0. -1.
    10030    2    1    2    0    0  0.00000000000E+00  0.00000000000E+00 -0.13208864977E+04  0.42146551868E+04  0.40023214769E+04 0.  0.
        2    1    3    3  502    0  0.10730074915E+04 -0.39445661235E+03  0.10691626753E+04  0.15652635312E+04  0.25500000920E-02 0.  1.
       -2    1    3    3    0  502 -0.10730074915E+04  0.39445661235E+03 -0.23900491730E+04  0.26493916556E+04  0.25500000920E-02 0. -1.
</event>
<event>
 5   0  0.8528625E-08  0.3979259E+04  0.7818609E-02  0.8008744E-01
       -1   -1    0    0    0  501  0.00000000000E+00  0.00000000000E+00  0.13186102758E+04  0.13186102758E+04  0.50400001928E-02 0. -1.
        1   -1    0    0  501    0  0.00000000000E+00  0.00000000000E+00 -0.30021189299E+04  0.30021189299E+04  0.50400001928E-02 0.  1.
    10030    2    1    2    0    0  0.00000000000E+00  0.00000000000E+00 -0.16835086540E+04  0.43207292057E+04  0.39792586597E+04 0.  0.
        5    1    3    3  502    0  0.19501672834E+04 -0.37815677071E+03 -0.96289814047E+03  0.22075665099E+04  0.46999998093E+01 0. -1.
       -5    1    3    3    0  502 -0.19501672834E+04  0.37815677071E+03 -0.72061051356E+03  0.21131626958E+04  0.46999998093E+01 0.  1.
</event>
<event>
 5   0  0.2839279E-07  0.2938351E+04  0.7818609E-02  0.8261557E-01
        2   -1    0    0  501    0  0.00000000000E+00  0.00000000000E+00  0.13228046925E+04  0.13228046925E+04  0.25500000920E-02 0. -1.
       -2   -1    0    0    0  501  0.00000000000E+00  0.00000000000E+00 -0.16317429719E+04  0.16317429719E+04  0.25500000920E-02 0.  1.
    10030    2    1    2    0    0  0.00000000000E+00  0.00000000000E+00 -0.30893827936E+03  0.29545476644E+04  0.29383514154E+04 0.  0.
        3    1    3    3  502    0 -0.78420539111E+03 -0.38191427614E+03 -0.13432040754E+04  0.16015722925E+04  0.10100000352E+00 0.  1.
       -3    1    3    3    0  502  0.78420539111E+03  0.38191427614E+03  0.10342657960E+04  0.13529753719E+04  0.10100000352E+00 0. -1.
</event>
<event>
 5   0  0.2661693E-07  0.3982832E+04  0.7818609E-02  0.8008019E-01
        2   -1    0    0  501    0  0.00000000000E+00  0.00000000000E+00  0.18005107041E+04  0.18005107041E+04  0.25500000920E-02 0. -1.
       -2   -1    0    0    0  501  0.00000000000E+00  0.00000000000E+00 -0.22025622656E+04  0.22025622656E+04  0.25500000920E-02 0.  1.
    10030    2    1    2    0    0  0.00000000000E+00  0.00000000000E+00 -0.40205156150E+03  0.40030729697E+04  0.39828316237E+04 0.  0.
        1    1    3    3  502    0 -0.22269676243E+03  0.17159538806E+04  0.78970453445E+03  0.19020317610E+04  0.50400001928E-02 0. -1.
       -1    1    3    3    0  502  0.22269676243E+03 -0.17159538806E+04 -0.11917560959E+04  0.21010412087E+04  0.50400001928E-02 0.  1.
</event>
<event>
 5   0  0.2666978E-07  0.3913402E+04  0.7818609E-02  0.8022248E-01
        2   -1    0    0  501    0  0.00000000000E+00  0.00000000000E+00  0.15615104730E+04  0.15615104730E+04  0.25500000920E-02 0.  1.
       -2   -1    0    0    0  501  0.00000000000E+00  0.00000000000E+00 -0.24519071707E+04  0.24519071707E+04  0.25500000920E-02 0. -1.
    10030    2    1    2    0    0  0.00000000000E+00  0.00000000000E+00 -0.89039669764E+03  0.40134176437E+04  0.39134019604E+04 0.  0.
        4    1    3    3  502    0 -0.11881298878E+04 -0.11028206027E+03 -0.20355933754E+04  0.23595458813E+04  0.12699999809E+01 0. -1.
       -4    1    3    3    0  502  0.11881298878E+04  0.11028206027E+03  0.11451966777E+04  0.16538717624E+04  0.12699999809E+01 0.  1.
</event>
<event>
 5   0  0.2730801E-07  0.3254775E+04  0.7818609E-02  0.8174499E-01
        2   -1    0    0  501    0  0.00000000000E+00  0.00000000000E+00  0.13323860464E+04  0.13323860464E+04  0.25500000920E-02 0. -1.
       -2   -1    0    0    0  501  0.00000000000E+00  0.00000000000E+00 -0.19877046022E+04  0.19877046022E+04  0.25500000920E-02 0.  1.
    10030    2    1    2    0    0  0.00000000000E+00  0.00000000000E+00 -0.65531855582E+03  0.33200906486E+04  0.32547748778E+04 0.  0.
        2    1    3    3  502    0 -0.98162229887E+03  0.54178691823E+03 -0.15308525499E+04  0.18975312730E+04  0.25500000920E-02 0.  1.
       -2    1    3    3    0  502  0.98162229887E+03 -0.54178691823E+03  0.87553399405E+03  0.14225593756E+04  0.25500000920E-02 0. -1.
</event>
<event>
 5   0  0.8528625E-08  0.3543436E+04  0.7818609E-02  0.8103573E-01
       -1   -1    0    0    0  501  0.00000000000E+00  0.00000000000E+00  0.28909012004E+04  0.28909012004E+04  0.50400001928E-02 0. -1.
        1   -1    0    0  501    0  0.00000000000E+00  0.00000000000E+00 -0.10858153988E+04  0.10858153988E+04  0.50400001928E-02 0.  1.
    10030    2    1    2    0    0  0.00000000000E+00  0.00000000000E+00  0.18050858016E+04  0.39767165992E+04  0.35434362078E+04 0.  0.
        5    1    3    3  502    0  0.20754822012E+03  0.31783231994E+03 -0.10396347874E+04  0.11067774070E+04  0.46999998093E+01 0.  1.
       -5    1    3    3    0  502 -0.20754822012E+03 -0.31783231994E+03  0.28447205890E+04  0.28699391922E+04  0.46999998093E+01 0. -1.
</event>
<event>
 5   0  0.2730801E-07  0.3990669E+04  0.7818609E-02  0.8006432E-01
        2   -1    0    0  501    0  0.00000000000E+00  0.00000000000E+00  0.20906520695E+04  0.20906520695E+04  0.25500000920E-02 0. -1.
       -2   -1    0    0    0  501  0.00000000000E+00  0.00000000000E+00 -0.19043625964E+04  0.19043625964E+04  0.25500000920E-02 0.  1.
    10030    2    1    2    0    0  0.00000000000E+00  0.00000000000E+00  0.18628947306E+03  0.39950146659E+04  0.39906689180E+04 0.  0.
        2    1    3    3  502    0  0.18382470459E+04 -0.52634343555E+03  0.66400249494E+03  0.20241267073E+04  0.25500000920E-02 0. -1.
       -2    1    3    3    0  502 -0.18382470459E+04  0.52634343555E+03 -0.47771302188E+03  0.19708879586E+04  0.25500000920E-02 0.  1.
</event>
<event>
 5   0  0.8528625E-08  0.3970430E+04  0.7818609E-02  0.8010538E-01
       -1   -1    0    0    0  501  0.00000000000E+00  0.00000000000E+00  0.23859565434E+04  0.23859565434E+04  0.50400001928E-02 0. -1.
        1   -1    0    0  501    0  0.00000000000E+00  0.00000000000E+00 -0.16517817440E+04  0.16517817440E+04  0.50400001928E-02 0.  1.
    10030    2    1    2    0    0  0.00000000000E+00  0.00000000000E+00  0.73417479941E+03  0.40377382875E+04  0.39704304353E+04 0.  0.
        5    1    3    3  502    0 -0.15645332551E+04  0.12202836184E+04  0.30117386911E+03  0.20068842032E+04  0.46999998093E+01 0.  1.
       -5    1    3    3    0  502  0.15645332551E+04 -0.12202836184E+04  0.43300093030E+03  0.20308540842E+04  0.46999998093E+01 0. -1.
</event>
<event>
 5   0  0.8528625E-08  0.4106152E+04  0.7818609E-02  0.7983468E-01
        1   -1    0    0  501    0  0.00000000000E+00  0.00000000000E+00  0.19108746687E+04  0.19108746687E+04  0.50400001928E-02 0.  1.
       -1   -1    0    0    0  501  0.00000000000E+00  0.00000000000E+00 -0.22058599622E+04  0.22058599622E+04  0.50400001928E-02 0. -1.
    10030    2    1    2    0    0  0.00000000000E+00  0.00000000000E+00 -0.29498529350E+03  0.41167346309E+04  0.41061524202E+04 0.  0.
        4    1    3    3  502    0 -0.16880470909E+04  0.66872727812E+03  0.81332007903E+03  0.19895201224E+04  0.12699999809E+01 0.  1.
       -4    1    3    3    0  502  0.16880470909E+04 -0.66872727812E+03 -0.11083053725E+04  0.21272145085E+04  0.12699999809E+01 0. -1.
</event>
<event>
 5   0  0.8528625E-08  0.3914289E+04  0.7818609E-02  0.8022064E-01
       -1   -1    0    0    0  501  0.00000000000E+00  0.00000000000E+00  0.23593628079E+04  0.23593628079E+04  0.50400001928E-02 0.  1.
        1   -1    0    0  501    0  0.00000000000E+00  0.00000000000E+00 -0.16234951460E+04  0.16234951460E+04  0.50400001928E-02 0. -1.
    10030    2    1    2    0    0  0.00000000000E+00  0.00000000000E+00  0.73586766191E+03  0.39828579538E+04  0.39142887303E+04 0.  0.
        2    1    3    3  502    0 -0.61884009001E+03 -0.96948668108E+03 -0.12433292841E+04  0.16937340968E+04  0.25500000920E-02 0. -1.
       -2    1    3    3    0  502  0.61884009001E+03  0.96948668108E+03  0.19791969460E+04  0.22891238571E+04  0.25500000920E-02 0.  1.
</event>
<event>
 5   0  0.8528625E-08  0.4122550E+04  0.7818609E-02  0.7980271E-01
       -1   -1    0    0    0  501  0.00000000000E+00  0.00000000000E+00  0.18046392486E+04  0.18046392486E+04  0.50400001928E-02 0. -1.
        1   -1    0    0  501    0  0.00000000000E+00  0.00000000000E+00 -0.23544061148E+04  0.23544061148E+04  0.50400001928E-02 0.  1.
    10030    2    1    2    0    0  0.00000000000E+00  0.00000000000E+00 -0.54976686624E+03  0.41590453634E+04  0.41225495421E+04 0.  0.
        4    1    3    3  502    0  0.15861907428E+04  0.18072857414E+03 -0.15903392631E+04  0.22534073033E+04  0.12699999809E+01 0.  1.
       -4    1    3    3    0  502 -0.15861907428E+04 -0.18072857414E+03  0.10405723969E+04  0.19056380601E+04  0.12699999809E+01 0. -1.
</event>
<event>
 5   0  0.2661693E-07  0.4009454E+04  0.7818609E-02  0.8002642E-01
       -2   -1    0    0    0  501  0.00000000000E+00  0.00000000000E+00  0.16560741847E+04  0.16560741847E+04  0.25500000920E-02 0. -1.
        2   -1    0    0  501    0  0.00000000000E+00  0.00000000000E+00 -0.24267814881E+04  0.24267814881E+04  0.25500000920E-02 0.  1.
    10030    2    1    2    0    0  0.00000000000E+00  0.00000000000E+00 -0.77070730341E+03  0.40828556727E+04  0.40094539150E+04 0.  0.
        1    1    3    3  502    0 -0.61809133675E+03 -0.13236478674E+04 -0.17833857814E+04  0.23053297862E+04  0.50400001928E-02 0.  1.
       -1    1    3    3    0  502  0.61809133675E+03  0.13236478674E+04  0.10126784780E+04  0.17775258866E+04  0.50400001928E-02 0. -1.
</event>
<event>
 5   0  0.2666978E-07  0.3976543E+04  0.7818609E-02  0.8009295E-01
        2   -1    0    0  501    0  0.00000000000E+00  0.00000000000E+00  0.19892163082E+04  0.19892163082E+04  0.25500000920E-02 0.  1.
       -2   -1    0    0    0  501  0.00000000000E+00  0.00000000000E+00 -0.19873268747E+04  0.19873268747E+04  0.25500000920E-02 0. -1.
    10030    2    1    2    0    0  0.00000000000E+00  0.00000000000E+00  0.18894335083E+01  0.39765431829E+04  0.39765427340E+04 0.  0.
        4    1    3    3  502    0 -0.19034845836E+04  0.54104529865E+03  0.19391582645E+03  0.19883632806E+04  0.12699999809E+01 0. -1.
       -4    1    3    3    0  502  0.19034845836E+04 -0.54104529865E+03 -0.19202639294E+03  0.19881799022E+04  0.12699999809E+01 0.  1.
</event>
<event>
 5   0  0.8528625E-08  0.4022065E+04  0.7818609E-02  0.8000110E-01
       -1   -1    0    0    0  501  0.00000000000E+00  0.00000000000E+00  0.24512971536E+04  0.24512971536E+04  0.50400001928E-02 0. -1.
        1   -1    0    0  501    0  0.00000000000E+00  0.00000000000E+00 -0.16498412354E+04  0.16498412354E+04  0.50400001928E-02 0.  1.
    10030    2    1    2    0    0  0.00000000000E+00  0.00000000000E+00  0.80145591820E+03  0.41011383890E+04  0.40220647057E+04 0.  0.
        3    1    3    3  502    0 -0.35449028404E+03  0.16397847368E+04  0.15314447921E+04  0.22715370360E+04  0.10100000352E+00 0. -1.
       -3    1    3    3    0  502  0.35449028404E+03 -0.16397847368E+04 -0.72998887389E+03  0.18296013530E+04  0.10100000352E+00 0.  1.
</event>
<event>
 5   0  0.2839279E-07  0.3997618E+04  0.7818609E-02  0.8005027E-01
       -2   -1    0    0    0  501  0.00000000000E+00  0.00000000000E+00  0.15291932635E+04  0.15291932635E+04  0.25500000920E-02 0. -1.
        2   -1    0    0  501    0  0.00000000000E+00  0.00000000000E+00 -0.26126444750E+04  0.26126444750E+04  0.25500000920E-02 0.  1.
    10030    2    1    2    0    0  0.00000000000E+00  0.00000000000E+00 -0.10834512115E+04  0.41418377385E+04  0.39976184566E+04 0.  0.
        3    1    3    3  502    0 -0.13501769679E+03 -0.16913034250E+04  0.55304051617E+03  0.17845422036E+04  0.10100000352E+00 0. -1.
       -3    1    3    3    0  502  0.13501769679E+03  0.16913034250E+04 -0.16364917277E+04  0.23572955349E+04  0.10100000352E+00 0.  1.
</event>
<event>
 5   0  0.8528625E-08  0.3868474E+04  0.7818609E-02  0.8031618E-01
       -1   -1    0    0    0  501  0.00000000000E+00  0.00000000000E+00  0.16116593681E+04  0.16116593681E+04  0.50400001928E-02 0.  1.
        1   -1    0    0  501    0  0.00000000000E+00  0.00000000000E+00 -0.23213788389E+04  0.23213788389E+04  0.50400001928E-02 0. -1.
    10030    2    1    2    0    0  0.00000000000E+00  0.00000000000E+00 -0.70971947079E+03  0.39330382070E+04  0.38684735763E+04 0.  0.
        3    1    3    3  502    0  0.12167354089E+04 -0.62294728524E+03 -0.17461892774E+04  0.22175854838E+04  0.10100000352E+00 0. -1.
       -3    1    3    3    0  502 -0.12167354089E+04  0.62294728524E+03  0.10364698066E+04  0.17154527232E+04  0.10100000352E+00 0.  1.
</event>
<event>
 5   0  0.8528625E-08  0.4033151E+04  0.7818609E-02  0.7997892E-01
        1   -1    0    0  501    0  0.00000000000E+00  0.00000000000E+00  0.22141639882E+04  0.22141639882E+04  0.50400001928E-02 0. -1.
       -1   -1    0    0    0  501  0.00000000000E+00  0.00000000000E+00 -0.18366197601E+04  0.18366197601E+04  0.50400001928E-02 0.  1.
    10030    2    1    2    0    0  0.00000000000E+00  0.00000000000E+00  0.37754422815E+03  0.40507837483E+04  0.40331512904E+04 0.  0.
        2    1    3    3  502    0 -0.15203171351E+03 -0.15106076609E+04  0.15218003350E+04  0.21496337844E+04  0.25500000920E-02 0. -1.
       -2    1    3    3    0  502  0.15203171351E+03  0.15106076609E+04 -0.11442561069E+04  0.19011499639E+04  0.25500000920E-02 0.  1.
</event>
<event>
 5   0  0.2730801E-07  0.3917670E+04  0.7818609E-02  0.8021364E-01
        2   -1    0    0  501    0  0.00000000000E+00  0.00000000000E+00  0.17261228713E+04  0.17261228713E+04  0.25500000920E-02 0. -1.
       -2   -1    0    0    0  501  0.00000000000E+00  0.00000000000E+00 -0.22229212062E+04  0.22229212062E+04  0.25500000920E-02 0.  1.
    10030    2    1    2    0    0  0.00000000000E+00  0.00000000000E+00 -0.49679833492E+03  0.39490440774E+04  0.39176702950E+04 0.  0.
        2    1    3    3  502    0 -0.58326294875E+03 -0.84708119697E+02  0.16346250446E+04  0.17376334969E+04  0.25500000920E-02 0. -1.
       -2    1    3    3    0  502  0.58326294875E+03  0.84708119697E+02 -0.21314233795E+04  0.22114105806E+04  0.25500000920E-02 0.  1.
</event>
<event>
 5   0  0.8528625E-08  0.3822213E+04  0.7818609E-02  0.8041405E-01
       -3   -1    0    0    0  501  0.00000000000E+00  0.00000000000E+00  0.19669397508E+04  0.19669397534E+04  0.10100000352E+00 0.  1.
        3   -1    0    0  501    0  0.00000000000E+00  0.00000000000E+00 -0.18568584036E+04  0.18568584063E+04  0.10100000352E+00 0. -1.
    10030    2    1    2    0    0  0.00000000000E+00  0.00000000000E+00  0.11008134718E+03  0.38237981597E+04  0.38222132938E+04 0.  0.
        5    1    3    3  502    0  0.15897068730E+04 -0.96299761708E+03 -0.38986180981E+03  0.18990910124E+04  0.46999998093E+01 0. -1.
       -5    1    3    3    0  502 -0.15897068730E+04  0.96299761708E+03  0.49994315699E+03  0.19247071473E+04  0.46999998093E+01 0.  1.
</event>
<event>
 5   0  0.8583262E-08  0.4016165E+04  0.7818609E-02  0.8001294E-01
       -1   -1    0    0    0  501  0.00000000000E+00  0.00000000000E+00  0.22673474454E+04  0.22673474454E+04  0.50400001928E-02 0.  1.
        1   -1    0    0  501    0  0.00000000000E+00  0.00000000000E+00 -0.17784635422E+04  0.17784635422E+04  0.50400001928E-02 0. -1.
    10030    2    1    2    0    0  0.00000000000E+00  0.00000000000E+00  0.48888390324E+03  0.40458109876E+04  0.40161647223E+04 0.  0.
        1    1    3    3  502    0  0.14515083583E+04 -0.12544502810E+02  0.16422583961E+04  0.21918135227E+04  0.50400001928E-02 0.  1.
       -1    1    3    3    0  502 -0.14515083583E+04  0.12544502810E+02 -0.11533744929E+04  0.18539974648E+04  0.50400001928E-02 0. -1.
</event>
<event>
 5   0  0.2666978E-07  0.3932573E+04  0.7818609E-02  0.8018289E-01
       -2   -1    0    0    0  501  0.00000000000E+00  0.00000000000E+00  0.23997647094E+04  0.23997647094E+04  0.25500000920E-02 0.  1.
        2   -1    0    0  501    0  0.00000000000E+00  0.00000000000E+00 -0.16111090092E+04  0.16111090092E+04  0.25500000920E-02 0. -1.
    10030    2    1    2    0    0  0.00000000000E+00  0.00000000000E+00  0.78865570020E+03  0.40108737187E+04  0.39325729712E+04 0.  0.
        4    1    3    3  502    0 -0.14983692353E+03 -0.16876444774E+04 -0.62338061495E+03  0.18053254526E+04  0.12699999809E+01 0. -1.
       -4    1    3    3    0  502  0.14983692353E+03  0.16876444774E+04  0.14120363152E+04  0.22055482661E+04  0.12699999809E+01 0.  1.
</event>
<event>
 5   0  0.8583262E-08  0.4002241E+04  0.7818609E-02  0.8004095E-01
       -1   -1    0    0    0  501  0.00000000000E+00  0.00000000000E+00  0.26060552501E+04  0.26060552501E+04  0.50400001928E-02 0.  1.
        1   -1    0    0  501    0  0.00000000000E+00  0.00000000000E+00 -0.15366072909E+04  0.15366072910E+04  0.50400001928E-02 0. -1.
    10030    2    1    2    0    0  0.00000000000E+00  0.00000000000E+00  0.10694479592E+04  0.41426625411E+04  0.40022411211E+04 0.  0.
        1    1    3    3  502    0 -0.95259585677E+03 -0.11773044571E+04 -0.81922146678E+03  0.17218038398E+04  0.50400001928E-02 0. -1.
       -1    1    3    3    0  502  0.95259585677E+03  0.11773044571E+04  0.18886694259E+04  0.24208587013E+04  0.50400001928E-02 0.  1.
</event>
<event>
 5   0  0.2666978E-07  0.4102078E+04  0.7818609E-02  0.7984265E-01
       -2   -1    0    0    0  501  0.00000000000E+00  0.00000000000E+00  0.14737642509E+04  0.14737642509E+04  0.25500000920E-02 0.  1.
        2   -1    0    0  501    0  0.00000000000E+00  0.00000000000E+00 -0.28544321660E+04  0.28544321660E+04  0.25500000920E-02 0. -1.
    10030    2    1    2    0    0  0.00000000000E+00  0.00000000000E+00 -0.13806679151E+04  0.43281964169E+04  0.41020775628E+04 0.  0.
        4    1    3    3  502    0 -0.10768522607E+03  0.13182863621E+04  0.96364781570E+03  0.16364882419E+04  0.12699999809E+01 0.  1.
       -4    1    3    3    0  502  0.10768522607E+03 -0.13182863621E+04 -0.23443157308E+04  0.26917081750E+04  0.12699999809E+01 0. -1.
</event>
<event>
 5   0  0.2704088E-07  0.3718394E+04  0.7818609E-02  0.8063898E-01
        2   -1    0    0  501    0  0.00000000000E+00  0.00000000000E+00  0.26110262470E+04  0.26110262470E+04  0.25500000920E-02 0.  1.
       -2   -1    0    0    0  501  0.00000000000E+00  0.00000000000E+00 -0.13238525953E+04  0.13238525953E+04  0.25500000920E-02 0. -1.
    10030    2    1    2    0    0  0.00000000000E+00  0.00000000000E+00  0.12871736517E+04  0.39348788423E+04  0.37183942091E+04 0.  0.
        5    1    3    3  502    0 -0.28168362568E+03  0.18369309064E+04  0.70087713183E+03  0.19861801690E+04  0.46999998093E+01 0. -1.
       -5    1    3    3    0  502  0.28168362568E+03 -0.18369309064E+04  0.58629651988E+03  0.19486986733E+04  0.46999998093E+01 0.  1.
</event>
<event>
 5   0  0.8528625E-08  0.4007841E+04  0.7818609E-02  0.8002967E-01
       -1   -1    0    0    0  501  0.00000000000E+00  0.00000000000E+00  0.19310113434E+04  0.19310113434E+04  0.50400001928E-02 0.  1.
        1   -1    0    0  501    0  0.00000000000E+00  0.00000000000E+00 -0.20795824223E+04  0.20795824223E+04  0.50400001928E-02 0. -1.
    10030    2    1    2    0    0  0.00000000000E+00  0.00000000000E+00 -0.14857107892E+03  0.40105937656E+04  0.40078409384E+04 0.  0.
        4    1    3    3  502    0  0.38431448359E+02  0.14861610894E+04  0.12703426765E+04  0.19554855889E+04  0.12699999809E+01 0.  1.
       -4    1    3    3    0  502 -0.38431448359E+02 -0.14861610894E+04 -0.14189137554E+04  0.20551081767E+04  0.12699999809E+01 0. -1.
</event>
<event>
 5   0  0.2704088E-07  0.4050671E+04  0.7818609E-02  0.7994402E-01
       -2   -1    0    0    0  501  0.00000000000E+00  0.00000000000E+00  0.23025346144E+04  0.23025346145E+04  0.25500000920E-02 0.  1.
        2   -1    0    0  501    0  0.00000000000E+00  0.00000000000E+00 -0.17815078114E+04  0.17815078114E+04  0.25500000920E-02 0. -1.
    10030    2    1    2    0    0  0.00000000000E+00  0.00000000000E+00  0.52102680306E+03  0.40840424258E+04  0.40506707601E+04 0.  0.
        5    1    3    3  502    0  0.63477244435E+03 -0.27970631806E+03  0.21790272853E+04  0.22867780130E+04  0.46999998093E+01 0.  1.
       -5    1    3    3    0  502 -0.63477244435E+03  0.27970631806E+03 -0.16580004823E+04  0.17972644129E+04  0.46999998093E+01 0. -1.
</event>
<event>
 5   0  0.8528625E-08  0.3957317E+04  0.7818609E-02  0.8013213E-01
        1   -1    0    0  501    0  0.00000000000E+00  0.00000000000E+00  0.30710207750E+04  0.30710207750E+04  0.50400001928E-02 0.  1.
       -1   -1    0    0    0  501  0.00000000000E+00  0.00000000000E+00 -0.12748496223E+04  0.12748496223E+04  0.50400001928E-02 0. -1.
    10030    2    1    2    0    0  0.00000000000E+00  0.00000000000E+00  0.17961711527E+04  0.43458703973E+04  0.39573171089E+04 0.  0.
        2    1    3    3  502    0 -0.12784701465E+04 -0.23542445066E+03 -0.74008229047E+03  0.14958717806E+04  0.25500000920E-02 0. -1.
       -2    1    3    3    0  502  0.12784701465E+04  0.23542445066E+03  0.25362534431E+04  0.28499986167E+04  0.25500000920E-02 0.  1.
</event>
<event>
 5   0  0.2730801E-07  0.3985480E+04  0.7818609E-02  0.8007482E-01
        2   -1    0    0  501    0  0.00000000000E+00  0.00000000000E+00  0.25195491384E+04  0.25195491384E+04  0.25500000920E-02 0.  1.
       -2   -1    0    0    0  501  0.00000000000E+00  0.00000000000E+00 -0.15760808489E+04  0.15760808489E+04  0.25500000920E-02 0. -1.
    10030    2    1    2    0    0  0.00000000000E+00  0.00000000000E+00  0.94346828952E+03  0.40956299873E+04  0.39854802195E+04 0.  0.
        2    1    3    3  502    0 -0.53727780105E+03 -0.34355894583E+03 -0.14683830781E+04  0.16008900802E+04  0.25500000920E-02 0. -1.
       -2    1    3    3    0  502  0.53727780105E+03  0.34355894583E+03  0.24118513676E+04  0.24947399071E+04  0.25500000920E-02 0.  1.
</event>
<event>
 5   0  0.8528625E-08  0.3835902E+04  0.7818609E-02  0.8038494E-01
       -1   -1    0    0    0  501  0.00000000000E+00  0.00000000000E+00  0.17713339549E+04  0.17713339549E+04  0.50400001928E-02 0.  1.
        1   -1    0    0  501    0  0.00000000000E+00  0.00000000000E+00 -0.20767041859E+04  0.20767041859E+04  0.50400001928E-02 0. -1.
    10030    2    1    2    0    0  0.00000000000E+00  0.00000000000E+00 -0.30537023104E+03  0.38480381408E+04  0.38359023130E+04 0.  0.
        5    1    3    3  502    0  0.61927418360E+03 -0.12968754259E+03  0.16636217842E+04  0.17798817107E+04  0.46999998093E+01 0.  1.
       -5    1    3    3    0  502 -0.61927418360E+03  0.12968754259E+03 -0.19689920153E+04  0.20681564301E+04  0.46999998093E+01 0. -1.
</event>
</LesHouchesEvents>
